default_name
130487
  93.5672393  57.2369127  61.4814227  92.5962649  57.4948213  61.3775344
  94.1381883  58.0577398  61.3387328  93.6696230  56.6909459  62.3249495
  93.9151871  56.3303619  60.3903558  94.7141607  56.7816060  59.8020369
  94.3892893  54.9564879  60.8904089  95.1381486  55.1212267  61.6651154
  93.5321966  54.4369829  61.3189024  94.9969551  54.1006574  59.7631066
  95.5893483  54.7041227  58.8433729  94.8912314  52.8422701  59.7791373
  92.6904432  56.1622368  59.4570850  91.5131043  56.3479733  59.8646008
  92.9919500  55.7908342  58.1992556  93.9604985  55.6058856  57.9806073
  92.0106195  55.6609760  57.1388645  91.0122780  55.9272351  57.4860237
  92.3719581  56.5627778  55.9315581  91.7355326  56.2957881  55.0878879
  92.1641266  58.0383092  56.2799687  92.8006115  58.3061755  57.1233157
  92.4231711  58.6553130  55.4195610  91.1203506  58.2059326  56.5455523
  93.7359137  56.3368943  55.5177623  93.9414591  56.9030924  54.7702523
  91.8764329  54.2463618  56.6242201  91.0342963  54.0151142  55.7408015
  92.7025224  53.3120888  57.0841506  93.5258806  53.5105884  57.6344038
  92.4268331  51.9272565  56.7293156  92.2137101  51.8579697  55.6626024
  93.6253964  51.0367672  57.0460947  94.5174972  51.4817912  56.6054031
  93.7438729  50.9822593  58.1282648  93.4418780  49.7294920  56.5240520
  94.2071795  49.1900040  56.7358686  91.1926945  51.4116151  57.4627008
  90.4568314  50.5636860  56.9379336  90.9336420  51.9243266  58.6553272
  91.3959961  52.7627313  58.9768945  89.9993102  51.2680094  59.5499673
  90.2406998  50.2091014  59.6424020  90.0905424  51.9128658  60.9342765
  90.2043755  52.9733555  60.7095484  89.1692285  51.7578294  61.4957428
  91.2771815  51.4398239  61.7653078  92.1587326  52.0505880  61.5705370
  90.8697367  51.5895864  63.2190602  89.9884627  50.9787084  63.4147204
  91.6874494  51.2631070  63.8616004  90.6401568  52.6346928  63.4267765
  91.7135809  50.0402444  61.4040505  92.0055359  50.0097040  60.3543224
  92.5616922  49.7518705  62.0250568  90.8890017  49.3473570  61.5716067
  88.5437128  51.3134167  59.0982591  87.7795550  50.3676006  59.3712077
  88.0954110  52.4102311  58.4730330  88.6074488  53.7660211  58.3634576
  89.2735438  53.8143553  57.5020161  89.1682434  53.9970636  59.2691219
  87.3857942  54.6421434  58.2026606  87.6381276  55.5684400  57.6865196
  86.9460302  54.8753331  59.1723675  86.4368534  53.7748369  57.3653275
  86.6862337  53.8104043  56.3048354  85.3805101  54.0087628  57.4976802
  86.7350653  52.3916404  57.9200312  86.0226052  52.2058699  58.7237652
  86.6152020  51.2977406  56.8762837  85.6562746  50.5098729  56.8816485
  87.6385919  51.1820230  56.0304677  88.3660878  51.8826284  56.0314633
  87.7081943  50.1138907  55.0387853  86.8278688  50.0691851  54.3975929
  88.9415022  50.3946121  54.1619780  89.7348997  50.8030103  54.7879426
  89.4207486  49.1347311  53.5073241  88.6279935  48.7259677  52.8807848
  90.2932133  49.3537111  52.8917333  89.6901304  48.4067890  54.2725916
  88.5890344  51.3810892  53.1754328  89.3507471  51.5655655  52.6210297
  87.7553551  48.7275266  55.6649613  87.5472924  47.7264293  54.9713417
  88.0151844  48.6319788  56.9433851  88.2409196  49.4453654  57.4979528
  88.0815373  47.3252310  57.5775557  88.4061072  46.5687228  56.8630986
  89.0964858  47.3810532  58.7279162  88.8112834  48.1793982  59.4130469
  89.0849759  46.4279016  59.2565650  90.4048084  47.6301085  58.2285451
  91.0258139  47.6618017  58.9599462  86.7233013  46.8156166  58.0610018
  86.5951165  45.6028420  58.3076339  85.7246900  47.6915888  58.1542868
  85.9025319  48.6672497  57.9630868  84.4014434  47.3128352  58.6854950
  83.8616639  48.2090043  58.9914657  83.5707840  46.5783064  57.6242187
  83.9493875  45.5646749  57.4926520  82.5206604  46.5386552  57.9136461
  83.6194310  47.2283742  56.2853642  84.4930438  46.8238268  55.3003388
  84.3177363  47.5596677  54.2270656  84.9189233  47.3972650  53.3324715
  83.3477445  48.4358011  54.4804471  82.9894911  49.1327161  53.8432157
  82.9056095  48.2413760  55.7582947  82.1077658  48.8660704  56.1599209
  84.6976191  46.5627083  59.9763752  84.2857412  45.4030187  60.1007035
  85.4588582  47.1958771  60.8690664  85.8100785  48.1115358  60.6275862
  85.8646494  46.6075707  62.1676656  86.2292875  45.5867449  62.0534162
  86.9700729  47.4534718  62.8057377  86.6009610  48.4754737  62.8915802
  87.3777065  46.9488461  64.1714202  87.7473874  45.9269893  64.0863068
  88.1639741  47.5866741  64.5752243  86.5160528  46.9685518  64.8387022
  88.0798175  47.4407962  61.9053670  88.7962231  47.9634077  62.2731176
  84.6409744  46.5105943  63.0649900  84.5747428  45.5582078  63.8488416
  83.7492023  47.4908450  63.0018289  83.9265048  48.2718163  62.3864046
  82.4989526  47.4929131  63.7971435  82.7435810  47.6884478  64.8411849
  81.5110659  48.5603413  63.3178129  80.6151167  48.4650960  63.9312480
  81.9885478  49.5192328  63.5194018  81.1326909  48.4845159  61.8619232
  81.8729722  49.1286782  60.8914762  82.7507788  49.6967799  61.1993974
  81.5244454  49.0658370  59.5565926  82.1121913  49.6041531  58.8130387
  80.4329185  48.3218204  59.1650148  80.1067855  48.2510339  57.8474919
  80.7014300  48.7541076  57.2863196  79.6880963  47.6603203  60.1178896
  78.8242251  47.0661396  59.8199361  80.0372619  47.7509185  61.4510008
  79.4430522  47.2364392  62.2062001  81.8274194  46.1306100  63.6761375
  81.1783095  45.7160944  64.6536661  81.9333195  45.4822994  62.5220628
  82.4557187  45.8995743  61.7650422  81.2582614  44.1873902  62.2788494
  80.2131249  44.2258584  62.5859473  81.3161612  43.9039912  60.7795827
  80.8252264  44.7780439  60.3516643  82.3641580  43.8935497  60.4800937
  80.6315103  42.6395363  60.2752496  79.9467243  42.2632530  61.0352364
  79.8497359  42.9711344  59.0050506  80.5339666  43.3470689  58.2443926
  79.3560566  42.0719472  58.6364807  79.1006821  43.7312835  59.2268435
  81.6476430  41.5214640  60.0393479  82.1594885  41.2918397  60.9738993
  81.1319404  40.6310116  59.6798388  82.3768506  41.8434226  59.2959113
  82.0106377  43.1910235  63.1497296  81.4074762  42.6939282  64.0997204
  83.3154094  43.0100408  62.9116814  83.7388135  43.5189388  62.1488897
  84.1667584  42.1053186  63.7063994  84.6524994  42.6734068  64.4997661
  83.5477089  41.3236305  64.1466730  85.2284790  41.4630729  62.8395137
  84.9068316  41.1498053  61.6767643  86.4435351  41.2574476  63.3595743
  86.6546886  41.6202789  64.2781966  87.5153749  40.5538899  62.6194263
  87.7175499  41.0099187  61.6502709  88.7936825  40.5344418  63.4188419
  88.6093303  40.0723202  64.3886655  89.5499096  39.9617683  62.8819378
  89.1472093  41.5551574  63.5646421  86.9887446  39.1449951  62.3372454
  87.2067227  38.6578045  61.2129679  86.3269454  38.5205295  63.3177721
  86.3039114  38.9381370  64.2371048  85.6718077  37.2028988  63.1270554
  85.3185013  36.8336747  64.0898365  84.4838302  37.3015849  62.1776306
  84.8519490  37.6521898  61.2134397  84.0700327  36.2994493  62.0653991
  83.4056634  38.2392517  62.6769324  82.9797716  38.1948957  63.8497493
  82.9283977  39.0877222  61.8994915  86.7036739  36.1941772  62.6035779
  87.7564716  36.0684846  63.2573694  86.4268585  35.4993563  61.4937926
  85.5186613  35.6328066  61.0725229  87.3123179  34.4427298  60.9391513
  88.3453806  34.7866909  60.9898599  87.1971609  33.1157852  61.7112323
  87.9579780  32.4570430  61.2925255  87.4475906  33.3473271  62.7464971
  85.8479009  32.4257066  61.6601458  85.1004401  33.1105992  62.0605524
  85.6175327  32.2063875  60.6175857  85.8164785  30.9037642  62.6025863
  86.8053258  29.8171377  61.5527683  87.8058460  30.2340750  61.4377831
  86.8737849  28.8310211  62.0121026  86.3340929  29.7294628  60.5738128
  87.0431843  34.3123268  59.4414454  86.0361838  34.8851188  59.0220205
  87.9284061  33.6765255  58.6694103  88.8257368  33.4757719  59.0872559
  87.7372648  33.3690691  57.2181727  88.4751474  32.6293419  56.9076376
  86.3314021  32.8093592  56.9371621  85.6210564  33.5439982  57.3163901
  86.2347574  32.7367943  55.8538828  86.0398057  31.4457521  57.5674193
  86.3243555  31.4955780  58.6184424  84.9649997  31.2817887  57.4899118
  86.7781700  30.2954522  56.8959476  86.7434240  29.1521998  57.4187171
  87.3908795  30.5281609  55.8322838  88.0534055  34.5528012  56.2899549
  87.3070258  35.5497766  56.3346241  89.1163463  34.4409387  55.4849172
  89.6983194  33.6345687  55.6614787  89.5584768  35.4177829  54.4528343
  88.7111519  36.0617926  54.2174809  90.7433107  36.3011375  54.8817718
  90.4449018  36.7963646  55.8057856  91.5770298  35.6285872  55.0834860
  91.1729415  37.3521627  53.8559277  91.5343545  36.8265811  52.9720468
  90.2846926  37.9285920  53.5973886  92.2573990  38.2925061  54.3659446
  92.0214783  39.5253146  54.4321380  93.3504581  37.7984208  54.7118224
  89.8451387  34.5610656  53.2196278  90.5619962  33.5637701  53.4115032
  89.3011674  34.9108695  52.0494451  88.7367201  35.7478033  52.0171890
  89.4469174  34.1124987  50.8074902  89.9534666  33.1728889  51.0280362
  88.0748550  33.7996562  50.2138488  87.5077196  34.7129151  50.0338069
  88.2220789  33.2722508  49.2713687  87.2105863  32.9188928  51.0683256
  86.3559878  33.4603321  52.0222370  86.3265578  34.5417130  52.1558371
  85.5429537  32.6387493  52.8030342  84.8862914  33.0817183  53.5518158
  85.5680021  31.2611445  52.6291707  84.9311363  30.6178209  53.2363252
  86.4150662  30.7008607  51.6702476  86.4487252  29.6210259  51.5255957
  87.2227648  31.5350541  50.8937520  87.8779483  31.1070462  50.1350401
  90.3041485  34.8941839  49.8223384  89.7770684  35.8658054  49.2341759
  91.5647411  34.4915916  49.6421558  91.9014738  33.7238722  50.2054651
  92.5165013  35.1576726  48.7205172  92.2112592  36.1963693  48.5938857
  93.9556518  35.1307582  49.2375592  94.2397792  34.1047973  49.4716000
  94.6282559  35.5292184  48.4779981  94.1880177  35.9319361  50.4769724
  94.2198811  37.3118254  50.4583137  94.4360859  37.7579274  51.6829653
  94.4957974  38.8280714  51.8812714  94.5460410  36.7174533  52.4930624
  94.7133067  36.7523358  53.4885047  94.3951344  35.5655805  51.7590704
  94.4547892  34.5944621  52.2504679  92.4377318  34.5185397  47.3304702
  93.4074059  34.7334464  46.5736946  91.3603872  33.7839838  46.9719886
  90.6164025  33.5990401  47.6295462  91.2456837  33.2476719  45.6474137
  92.1938735  32.7889998  45.3669584  90.4601221  32.4920992  45.6373078
  90.9090490  34.3113369  44.6567049  90.4824316  35.3968083  45.0380230
  91.1203122  33.9887263  43.3907858  91.5565246  33.1246720  43.1022928
  90.7558168  34.9310825  42.3842984  90.1447049  35.7217830  42.8195389
  92.0377376  35.5771133  41.7568399  92.6262617  36.0601344  42.5368586
  92.6389214  34.8073887  41.2728956  91.6140675  36.6162306  40.7227002
  91.0096988  36.1058753  39.9727824  91.0041780  37.3601125  41.2353176
  92.7802754  37.2994789  40.0490424  93.4078938  37.8302308  40.7649311
  93.3907351  36.5957526  39.4831735  92.1991636  38.2786074  39.1138090
  91.1918385  38.3032861  39.0446250  92.8971901  39.1287918  38.3975656
  92.2477564  39.9700190  37.5749615  91.2398503  39.9383077  37.5182180
  92.7705425  40.6301156  37.0172279  94.2039600  39.2097870  38.4765987
  94.7072867  38.6023616  39.1073099  94.7007788  39.8792033  37.9063780
  89.9456467  34.1873486  41.3775148  90.4040520  33.1972677  40.8106080
  88.7365487  34.6738281  41.1482865  88.4646879  35.5167845  41.6336891
  87.7652114  34.0420682  40.2628577  88.1933362  33.2271011  39.6792166
  86.5788939  33.4928127  41.0794789  86.2210089  34.2705842  41.7540825
  85.4377748  33.0622849  40.1427787  85.7947981  32.2841496  39.4681386
  84.6073795  32.6766919  40.7342690  85.1011814  33.9204253  39.5610566
  87.0312953  32.4099100  41.9054303  86.2937588  32.0663596  42.4149531
  87.3001946  35.0798630  39.2489591  86.5424376  35.9902247  39.6138698
  87.7223997  34.9250635  37.9789233  88.2337464  34.0895593  37.7328408
  87.5116292  35.9424813  36.9423627  86.6846474  36.5974284  37.2166701
  88.7826790  36.7919754  36.7959349  89.5373366  36.1226195  37.2089165
  88.9530752  36.9150129  35.7263897  88.8756822  38.1442350  37.4820489
  89.8411823  38.6102628  37.2852533  87.7438102  39.0316629  36.8959375
  86.7779082  38.5664826  37.0927613  87.7743818  40.0159965  37.3631135
  87.8836487  39.1362024  35.8200113  88.7990047  38.1221817  38.9979968
  89.6180403  37.5224936  39.3950540  88.8755507  39.1397920  39.3810260
  87.8482885  37.6884014  39.3079522  87.1420072  35.3293236  35.5935962
  87.9067430  34.5556439  35.0105312  85.9949316  35.7359629  35.0707002
  85.4515860  36.4290578  35.5651639  85.4431981  35.1702514  33.8458420
  85.7422521  34.1241293  33.7803110  83.9161681  35.2465397  33.7910654
  83.6012811  35.5245068  32.7852425  83.4886165  34.2780223  34.0504373
  83.3080186  36.2444932  34.7201058  82.4893147  35.8676736  35.7647602
  82.0980325  36.9422735  36.4235638  81.4423025  36.8556264  37.2899410
  82.6330143  38.0048446  35.8416271  82.5095929  38.9657044  36.1273113
  83.3921247  37.5917592  34.7747097  83.9173236  38.3253055  34.1630095
  86.0590028  35.8751665  32.6377425  87.0297199  36.6221801  32.7618881
  85.4914357  35.6799503  31.4510891  84.6053612  35.1970474  31.4089452
  86.1172065  36.0900372  30.1960634  86.9961065  36.6996540  30.4058285
  86.5539977  34.8628733  29.3800492  86.5947988  34.0149543  30.0637654
  85.7945180  34.6798083  28.6199322  87.9026155  35.0389437  28.7136197
  87.9878272  35.7792548  27.7111685  88.8780596  34.4256093  29.1976472
  85.1799790  36.9558271  29.3547926  84.0198453  37.1512698  29.6666226
  85.6833909  37.4108641  28.2230463  86.5380718  37.0107281  27.8631696
  85.0698727  38.5107734  27.4851751  84.6427583  39.2427747  28.1706286
  86.1428657  39.1969436  26.6459502  86.9418724  38.4744439  26.4795719
  85.7035661  39.4788413  25.6890544  86.7066458  40.4234275  27.3211325
  86.5215295  40.5866339  28.5493204  87.3265865  41.2230437  26.6023464
  83.9340859  38.0199436  26.5995947  84.1260332  37.1449519  25.7451073
  82.7637732  38.6285515  26.7752929  82.7269753  39.4116818  27.4120441
  81.5197371  38.1837598  26.1519082  80.7164896  38.8784332  26.3975128
  81.6679762  38.1268896  24.6359831  82.5041795  37.4674224  24.4036765
  80.7483449  37.7023069  24.2333570  81.9099649  39.4856465  24.0151361
  81.1911215  40.4720865  24.2771155  82.8593325  39.6319803  23.2214903
  81.0591598  36.8303537  26.6795866  80.2860876  36.1485309  25.9990081
  81.5338926  36.4302957  27.8756453  82.1659190  37.0281888  28.3886422
  81.1708036  35.1468778  28.4597126  81.0699234  34.4109681  27.6619912
  82.2198026  34.6471651  29.4564844  83.1653618  34.5042894  28.9334130
  82.3478132  35.3941349  30.2399060  81.8112888  33.4213372  30.0357593
  82.4793331  33.1227353  30.6571719  79.8538725  35.2473662  29.1897199
  79.6507021  36.1420121  30.0145130  78.9865755  34.2716646  28.9439228
  79.2504163  33.5524936  28.2856824  77.6387641  34.2346699  29.5070117
  77.3491121  35.2359107  29.8259440  76.5914892  33.6904608  28.4927368
  76.8952462  32.6931867  28.1744974  75.2128334  33.6214518  29.1256017
  74.9081770  34.6184975  29.4436976  74.4972863  33.2382711  28.3980953
  75.2420380  32.9579836  29.9899258  76.5431366  34.5773475  27.2426907
  76.1349709  35.5392567  27.5529038  77.5723221  34.7104552  26.9092854
  75.7018742  34.0128081  26.0909257  74.6723863  33.8798552  26.4234584
  75.7248600  34.7057899  25.2498864  76.1097365  33.0510520  25.7798415
  77.7024266  33.4093764  30.7809928  78.0670566  32.2326349  30.7303049
  77.4152838  34.0400431  31.9133238  77.2347799  35.0337603  31.9067025
  77.4387018  33.3550888  33.1888175  77.7527319  32.3204735  33.0507761
  78.4235143  34.0425955  34.1362925  78.1264078  35.0875885  34.2247044
  78.3423458  33.5587282  35.1096291  79.8546948  33.9648318  33.6527088
  79.8568988  34.2979000  32.6148449  80.5097277  34.6071843  34.2412810
  80.3881486  32.5502490  33.7075864  81.2413045  32.2103507  34.5722454
  79.9371891  31.7138772  32.7437676  80.2539595  30.7550681  32.7227187
  79.2859288  32.0523262  32.0499278  76.0441322  33.2603354  33.8206930
  75.0388937  33.8017132  33.2958544  75.9819751  32.4620270  34.9032055
  76.7911291  31.9096129  35.1485780  74.7809385  32.3345570  35.7255189
  74.0698526  33.1350631  35.5214452  74.0551643  30.9918850  35.6012660
  73.3509978  30.8709987  36.4244521  73.2920890  30.9732924  34.2682752
  73.9956938  31.0936723  33.4445338  72.7682625  30.0233266  34.1621097
  72.5700570  31.7896690  34.2509371  75.0464756  29.8632678  35.7599954
  75.5195331  29.9295959  36.7397501  74.5281201  28.9085247  35.6712664
  75.8081311  29.9361086  34.9836734  75.1758811  32.5371047  37.1712612
  75.9644357  31.7559250  37.7504795  74.5869091  33.5619163  37.7661521
  73.7610006  33.9428055  37.3269505  75.0783617  34.1973654  38.9798357
  75.7171745  33.5263296  39.5540554  75.8536549  35.4824782  38.6470647
  75.1585156  36.2676741  38.3498290  76.6301835  35.9316763  39.9004511
  77.3259047  35.1471286  40.1980374  77.1848935  36.8431176  39.6775785
  75.9296750  36.1228944  40.7133611  76.7775421  35.2398041  37.4393119
  76.2415931  34.5632146  36.7736647  76.9036838  36.2056621  36.9501227
  78.1781153  34.6393873  37.7727924  78.0527868  33.6732396  38.2616188
  78.7467373  34.5090928  36.8520365  78.7148767  35.3156866  38.4380791
  73.7927925  34.4195327  39.7546837  72.8141664  34.9631103  39.1943354
  73.7285077  33.9964820  41.0090890  74.5706792  33.1135457  41.7676110
  75.5928043  33.4835794  41.6873887  74.5059769  32.1249823  41.3130177
  74.0575860  33.1287337  43.1898341  74.5234723  33.9313731  43.7615150
  74.2495416  32.1747807  43.6809839  72.5512464  33.3636185  43.0196104
  72.1240035  33.8804226  43.8789567  71.9754182  32.4607915  42.8160791
  72.5304195  34.2767659  41.8048306  71.6441918  34.0210201  41.2240614
  72.4867678  35.7451940  42.1705771  73.5166804  36.3799791  42.4000587
  71.2686931  36.2761309  42.2094980  70.5017722  35.7335551  41.8386297
  70.9886813  37.6091349  42.7134879  71.8621838  38.2583473  42.7736197
  69.9215960  38.3010318  41.8543247  68.9892928  37.7450428  41.9532505
  69.7002288  39.7350434  42.2788398  70.6320465  40.2918168  42.1797428
  68.9376060  40.1883735  41.6455953  69.3712055  39.7603119  43.3176886
  70.3424545  38.1417256  40.3947424  70.4048576  37.0819350  40.1476556
  69.6068912  38.6220151  39.7494764  71.3163879  38.6073753  40.2439942
  70.5385857  37.4656601  44.1601126  69.6999362  36.5784524  44.4912853
  71.1253371  38.3190919  45.0338231  71.8889962  38.9027333  44.7235217
  70.6575992  38.4565810  46.4445860  70.3868226  37.4784548  46.8421389
  71.7489464  39.0403645  47.3040562  72.0339697  39.9860233  46.8429809
  71.3181624  39.2312433  48.2869552  72.9882085  38.1514546  47.4537421
  73.3436771  37.8814280  46.4593435  74.0759679  38.8561726  48.1966964
  73.7213739  39.1261244  49.1914265  74.9407594  38.1986845  48.2858357
  74.3605487  39.7586172  47.6556715  72.5877495  36.8600940  48.2300108
  71.8153966  36.3270393  47.6755533  73.4613286  36.2181643  48.3435319
  72.2061422  37.1309356  49.2144496  69.4838600  39.3961912  46.4930218
  69.6217191  40.5851851  46.1516592  68.3438349  38.9735980  46.9978295
  68.1354387  37.7868117  47.6885525  68.9032895  37.6979726  48.4570660
  68.2288287  36.9595141  46.9850214  66.7434860  37.8959781  48.2684484
  66.7689826  38.3648618  49.2521135  66.2784928  36.9132630  48.3468949
  66.0036041  38.7721238  47.2491876  65.1471706  39.3513297  47.5943558
  65.6996073  38.1345887  46.4189861  67.1153937  39.7088699  46.8037895
  67.0244891  39.8250881  45.7238229  66.9759455  41.0730026  47.4752605
  66.0339308  41.8264824  47.1449071  67.7695659  41.3820784  48.4632159
  68.5430223  40.8039737  48.7592894  67.4892121  42.5970462  49.2140183
  66.4979181  42.9695557  48.9558091  67.5313252  42.3196410  50.7243784
  68.5244575  41.9379421  50.9612191  67.3754071  43.2685091  51.2376413
  66.4688005  41.3060845  51.1863943  65.4750482  41.6808113  50.9411657
  66.6436605  40.3687875  50.6581895  66.5327909  41.0381883  52.6927591
  65.6938914  41.5383594  53.4512031  67.5067369  40.2387469  53.1323687
  67.5835217  40.0369465  54.1190207  68.1626019  39.8391657  52.4764135
  68.4716420  43.7068702  48.8614161  68.2907581  44.8608543  49.2939109
  69.5726322  43.3809695  48.1642853  69.7511596  42.4137274  47.9347859
  70.6090504  44.3970495  47.8068547  70.8049332  45.1067562  48.6106243
  71.9514999  43.7726317  47.3609827  72.6804613  44.5756752  47.2521909
  72.4688820  42.7503469  48.3641429  71.7406130  41.9467005  48.4731275
  73.4135499  42.3382623  48.0093341  72.6233315  43.2333245  49.3290158
  71.9162758  43.1662766  45.9600078  71.6639622  43.9400071  45.2349002
  72.8939831  42.7486779  45.7195929  71.1656984  42.3766937  45.9240452
  69.9809546  45.2982638  46.7397772  69.4175234  44.7270298  45.7881271
  69.9771840  46.6254153  46.9300944  70.2984045  46.9875997  47.8165137
  69.4422595  47.5575804  45.9615418  69.2819701  47.0426038  45.0143324
  68.1218183  48.1392400  46.4261590  67.7394386  48.7693413  45.6231289
  67.4367626  47.3079018  46.5925186  68.2382737  48.9386859  47.6677557
  68.9390324  48.4138120  48.3170210  68.6591816  49.9033264  47.3841936
  66.7266903  49.1988672  48.5366862  66.9612682  47.9345153  49.7211040
  67.8699324  48.1325598  50.2896167  66.1079040  47.9078509  50.3987168
  67.0524294  46.9737229  49.2144790  70.4471298  48.6544507  45.6426685
  70.0629059  49.7033106  45.1375440  71.7438234  48.3470201  45.8148138
  71.9858098  47.4017621  46.0756379  72.8416460  49.3325438  45.6407948
  72.4436944  50.3466836  45.6053790  73.8015769  49.2241536  46.8316686
  73.2201198  49.4394744  47.7281305  74.1504207  48.1920117  46.8647003
  74.9993267  50.1626500  46.7662636  75.4994086  50.0080009  45.8101765
  74.6308368  51.1869888  46.8214664  76.1822603  49.8821303  48.1092925
  77.5032547  49.0570442  47.2212769  77.8796853  49.7134720  46.4367379
  78.3114206  48.8167995  47.9121105  77.1229181  48.1385212  46.7743307
  73.6363724  49.0889223  44.3530256  74.1149776  47.9561420  44.1855770
  73.7861955  50.1006339  43.4908032  73.2402638  50.9377312  43.6368381
  74.6645954  50.0414773  42.3258324  74.4326840  49.1714417  41.7115406
  74.5152202  51.3199569  41.4813925  74.5416768  52.1740987  42.1580329
  75.6344733  51.4662937  40.4223566  75.6083521  50.6126903  39.7450239
  75.4809356  52.3843487  39.8551689  76.6034583  51.5050410  40.9200169
  73.1683275  51.3683796  40.7623358  73.2424765  50.6851191  39.9163111
  72.4257315  50.9940678  41.4669928  72.7457673  52.7542332  40.2636630
  73.4876958  53.1290249  39.5585579  71.7776322  52.6829551  39.7679483
  72.6709531  53.4379746  41.1092400  76.0966369  49.8635976  42.8000614
  76.6094518  50.6406085  43.6131480  76.7777464  48.8916703  42.2185846
  76.2798699  48.4108788  41.4830183  78.1374750  48.4745485  42.5168703
  78.5574489  49.1175289  43.2903671  78.1631894  47.0260403  43.0168712
  77.4193683  46.9957025  43.8130553  77.8647088  46.3500884  42.2155607
  79.5119781  46.5939405  43.5675078  80.2918475  46.8437335  42.8481275
  79.7872564  47.3114509  44.8848137  79.0080016  47.0617640  45.6048951
  80.7555619  46.9975949  45.2746593  79.7952295  48.3885382  44.7177213
  79.5559228  45.0729193  43.7357022  79.3975097  44.5952093  42.7688528
  80.5281487  44.7784919  44.1309116  78.7734421  44.7605664  44.4272647
  79.0020080  48.5482486  41.2592833  78.5135467  48.4808206  40.1406480
  80.3113518  48.5959444  41.4558686  80.6483227  48.2854722  42.3559558
  81.2912254  49.0532704  40.4674018  81.0218244  48.8484826  39.4312627
  81.5686347  50.5723515  40.6165493  81.6764719  50.7925206  41.6786208
  82.8197378  51.0056092  39.8821007  82.7124549  50.7861681  38.8198216
  82.9689292  52.0767588  40.0180449  83.6798040  50.4662521  40.2789404
  80.3357607  51.3492810  40.2032925  79.4975179  51.0674068  40.8404723
  80.5270955  52.4173492  40.3068345  80.0942216  51.1229618  39.1647650
  82.5534569  48.2506959  40.7553650  82.9661269  48.1208045  41.9437264
  83.2578503  47.6989881  39.7354462  83.0755572  47.8742532  38.3234474
  83.3527891  48.8951441  38.0607224  82.0245417  47.7109579  38.0851202
  83.9790143  46.8438289  37.6829311  84.2676220  47.1525510  36.6781946
  83.4864975  45.8725494  37.6366207  85.1886708  46.7997932  38.6243343
  85.9132281  47.5965954  38.4563406  85.6958689  45.8355178  38.5923534
  84.5171726  46.9882205  39.9756911  84.2716731  45.9960716  40.3544639
  85.4303098  47.7090270  40.9821302  85.7385017  48.8617632  40.7335366
  85.8399446  47.0420650  42.0692737  85.5235914  46.0890781  42.1780668
  86.7209474  47.6121592  43.1124715  87.3161921  46.8007112  43.5312018
  87.3805638  48.3379145  42.6367773  85.9578811  48.2988289  44.2376983
  86.6355766  48.8082446  45.1510452  84.6190448  48.3031112  44.2080666
  84.1638112  47.9055758  43.3988526  83.7696282  48.9344223  45.2578279
  84.3456546  49.6924048  45.7886342  82.5387877  49.6025844  44.6331319
  82.8975837  50.2980027  43.8743447  81.9506320  48.8179859  44.1571298
  81.6696848  50.3503902  45.6366064  81.2644508  49.6328369  46.3500511
  82.3003771  51.0676145  46.1618858  80.5221196  51.0949675  44.9962599
  80.3676661  51.1200196  43.7774036  79.6922003  51.7097080  45.8240092
  78.9052811  52.2244469  45.4553583  79.8496483  51.6612303  46.8204837
  83.4034956  47.8558003  46.2806062  82.8765008  46.8371698  45.8727921
  83.6413354  48.0716262  47.5729913  83.9982101  48.9747748  47.8505925
  83.4250068  47.0575686  48.6148537  83.7218925  46.0812579  48.2317408
  84.2487522  47.3612983  49.8769293  83.9923759  48.3653676  50.2148883
  83.9739832  46.3500416  51.0126793  84.2305771  45.3457330  50.6755987
  84.5789045  46.6064588  51.8824031  82.9183831  46.3836295  51.2822730
  85.6508541  47.3067383  49.5786805  86.1546743  47.4977877  50.3732029
  81.9445962  46.9903949  49.0112792  81.2222958  47.9977871  49.0111078
  81.4874190  45.7883528  49.3581749  82.0168427  44.9324924  49.2726597
  80.1019996  45.7035825  49.8196314  79.7549246  46.6781634  50.1628954
  79.2149154  45.2492617  48.6645161  79.1469486  46.1576108  48.0658663
  79.8064083  44.5059061  48.1300457  77.8130799  44.6992997  48.9150671
  77.8705649  43.9100990  49.6647061  76.8951502  45.7942408  49.4063786
  76.8367920  46.5836417  48.6570192  75.9001568  45.3843556  49.5798235
  77.2853522  46.2057567  50.3372370  77.2012652  44.0552585  47.6656182
  77.8311477  43.2286758  47.3368194  76.2047180  43.6810446  47.9000515
  77.1323098  44.7974882  46.8703578  79.9716195  44.7745079  51.0165284
  80.3096621  43.5930505  50.8976359  79.5225944  45.2914687  52.2139908
  80.0086966  46.5578221  52.6443251  79.4344729  47.3251261  52.1250833
  81.0558467  46.6266612  52.3496441  79.8272500  46.6122627  54.1440835
  78.8405797  46.9977054  54.4010169  80.5922272  47.2380323  54.6037830
  79.9861590  45.1484364  54.5740735  79.4390236  44.9053172  55.4849164
  81.0287903  44.8512930  54.6868802  79.3658438  44.4246748  53.3899421
  79.9473468  43.5173326  53.2265931  77.9087499  44.0560327  53.6318000
  77.0119006  44.9083647  53.5049517  77.6639773  42.8125208  54.0236234
  78.3817821  42.1193739  54.1798376  76.2785500  42.4268965  54.2267838
  75.6498178  43.3143990  54.2984376  75.7882758  41.5674558  53.0330842
  76.4094319  40.6735299  52.9768639  74.7566538  41.2802246  53.2364417
  75.8547556  42.3148267  51.7095952  76.7229578  42.9723661  51.6652361
  75.9772729  41.2635788  50.6696537  75.1091476  40.6058778  50.7130916
  76.0305428  41.7295744  49.6857273  76.8822589  40.6819284  50.8451058
  74.6286305  43.1313624  51.4671008  74.5153632  43.8638824  52.2662782
  74.7186046  43.6479433  50.5115120  73.7554619  42.4792585  51.4462171
  76.0324939  41.6245952  55.4834521  76.8486171  40.7621305  55.8372070
  74.8523798  41.8611950  56.1059521  74.3278474  42.6827320  55.8412975
  74.3242565  41.0127617  57.2002997  75.0459154  40.2337525  57.4461704
  74.0705051  41.8505034  58.4444071  74.2387458  42.8856821  58.1474231
  73.0178795  41.7100271  58.6900607  74.8934031  41.5389973  59.6209303
  74.7506444  40.5159780  59.9689995  75.9304926  41.6767698  59.3150446
  74.5944892  42.4921165  60.7734550  75.1265155  43.6264746  60.8119753
  73.6829541  42.0806530  61.6838739  73.4504422  42.6761157  62.4658354
  73.2388434  41.1797673  61.5777042  73.0391962  40.2956175  56.7400289
  71.9496394  40.8854953  56.6853650  73.1657356  39.0093801  56.4425628
  74.0775185  38.5755007  56.4649241  72.0261531  38.2022824  56.0224115
  71.2547169  38.8392421  55.5896671  72.4664573  37.1938634  54.9756068
  73.1073380  36.4558934  55.4580707  71.6056611  36.6927520  54.5328686
  73.2521158  37.9130415  53.8845341  73.7830731  38.7655223  54.3081633
  74.2332402  36.9577826  53.3015586  73.7029639  36.1051959  52.8772925
  74.8047813  37.4558737  52.5183939  74.9115611  36.6116621  54.0814186
  72.3300646  38.4307629  52.8313270  71.6235913  39.1303243  53.2781030
  72.9078674  38.9410987  52.0607411  71.7843711  37.5995133  52.3848501
  71.4124595  37.5124848  57.2327481  72.0300241  36.6347985  57.8418807
  70.1893657  37.9184837  57.5610429  69.7949025  38.6431181  56.9784597
  69.4085253  37.4388734  58.6852676  70.0513845  36.9940092  59.4448248
  68.6687794  38.6470147  59.3091318  68.6564121  39.5038514  58.6355019
  67.6452979  38.3407248  59.5254005  69.2615891  39.1319944  60.6165742
  70.5114710  39.7081529  60.6537971  71.0856751  39.8146299  59.7334427
  71.0392990  40.1513498  61.8538822  72.0310680  40.6034269  61.8648943
  70.3136043  40.0242690  63.0465966  70.7475508  40.3564626  63.9896967
  69.0607250  39.4830032  63.0249466  68.4716088  39.3854231  63.9368239
  68.5373116  39.0512545  61.8077019  67.5312650  38.6340133  61.7643436
  68.3966362  36.3554119  58.2840487  67.5931695  35.9552097  59.1169601
  68.2359506  36.0451808  56.9882162  68.8973581  36.4133726  56.3195802
  67.1050689  35.2073905  56.4798365  66.3571157  35.0603457  57.2589662
  66.4477235  35.9237967  55.3008195  65.9055187  36.7928550  55.6734464
  67.2067680  36.2476365  54.5887245  65.4649122  35.1041284  54.5338170
  64.3646745  34.5139077  55.1258427  63.6786147  33.8549242  54.2181954
  62.7735246  33.3107440  54.4879710  64.2907732  34.0038192  53.0468982
  63.9953439  33.6116711  52.1642651  65.3987049  34.7820348  53.2267537
  66.0362226  35.0272446  52.3773160  67.5249942  33.8145664  56.0339389
  68.2040812  33.7973347  55.0897815  66.9858950  32.6707307  56.5265665
  65.8339052  32.6023678  57.2647981  64.9855857  32.8086189  56.6121767
  65.8764594  33.3540433  58.0530062  65.8160200  31.1930373  57.8125294
  64.7956772  30.8711816  58.0208765  66.4112892  31.1240293  58.7230204
  66.4442446  30.3669216  56.6840580  65.8366657  29.9983396  55.8575629
  66.9259928  29.5262310  57.1833151  67.4963820  31.3321184  56.1616977
  68.3760531  31.2233239  56.7960799  67.8635324  30.9699793  54.7086913
  68.8733031  30.3525569  54.5317316  67.0290556  31.3010841  53.7249031
  66.1459254  31.7380792  53.9467492  67.3383391  31.0188508  52.2938849
  67.5729019  29.9606577  52.1785294  66.1572023  31.3588146  51.3864994
  65.2800198  31.4744505  52.0231143  66.3815950  32.3090235  50.9018852
  65.8789421  30.3030213  50.3272493  66.8295837  29.9775805  49.9047925
  65.3727052  29.4508312  50.7806789  65.0150646  30.8400604  49.2133163
  64.9345493  32.0449361  48.9894840  64.3457145  29.9434353  48.5118637
  63.7502750  30.2424612  47.7528270  64.4323329  28.9628188  48.7376732
  68.5580000  31.8090857  51.8203936  69.3828779  31.2342291  51.1042635
  68.6455783  33.0868751  52.1896878  67.9156768  33.5080641  52.7464131
  69.8234749  33.9133598  51.8338345  69.9456436  33.9256451  50.7507726
  69.6541636  35.3506869  52.3222652  69.2408434  35.2921701  53.3291621
  70.6524682  35.7862267  52.3646113  68.7630709  36.2167814  51.4617723
  69.1813316  36.2615856  50.4562121  67.7821929  35.7427630  51.4259384
  68.6249740  37.6230434  52.0148994  68.5550922  37.7618907  53.2484402
  68.6039628  38.5746868  51.2133519  71.0230620  33.2967717  52.5440485
  72.0761283  33.1785307  51.9233035  70.8397856  32.9135561  53.8056061
  69.9716835  33.0792926  54.2945125  71.9508378  32.3181154  54.5476535
  72.8411534  32.9305114  54.4047956  71.6427082  32.2441451  56.0472763
  70.7252332  31.6721929  56.1858753  72.7666701  31.5821486  56.8044786
  73.6844433  32.1538282  56.6667263  72.5183044  31.5446832  57.8651441
  72.9106864  30.5688393  56.4295584  71.4556331  33.6331498  56.6425498
  70.6268211  34.1345735  56.1428029  71.2384431  33.5465199  57.7071734
  72.3675324  34.2140557  56.5043873  72.3018384  30.9319932  53.9838302
  73.4376239  30.4801063  54.1495005  71.4599235  30.3183917  53.1619947
  70.5230431  30.6489771  52.9801495  71.8869351  29.0313179  52.5450513
  72.5544216  28.5094540  53.2307764  70.7099104  28.1384326  52.2455671
  69.9381587  28.7316680  51.7550875  71.0370133  27.3433560  51.5755247
  70.1843796  27.5688218  53.4335326  69.4377912  27.0060931  53.2154913
  72.7097993  29.2877126  51.2781143  73.7776302  28.6787164  51.1507934
  72.2207320  30.1485855  50.3859786  71.3617460  30.6293394  50.6120716
  72.8783817  30.4528522  49.0864465  72.9501224  29.5617856  48.4627857
  72.0181122  31.4865381  48.3633511  71.1452680  30.9480581  47.9941878
  71.7072271  32.2047287  49.1220688  72.6772297  32.2158194  47.2223954
  73.6222699  32.6506291  47.5478802  72.8587961  31.5329601  46.3924322
  71.5745228  33.5352980  46.6746840  70.3131650  33.4646368  47.9451472
  70.7666650  33.6500464  48.9188309  69.5550665  34.2225445  47.7477561
  69.8492990  32.4782675  47.9428651  74.2676758  31.0293422  49.3246797
  75.2102747  30.6181276  48.6477168  74.3743416  31.9391082  50.2779091
  73.5520572  32.2812541  50.7542324  75.6818579  32.5688085  50.5904528
  76.2297129  32.8820736  49.7017352  75.4913116  33.7892945  51.5057489
  74.9253924  33.4678365  52.3801055  76.8109110  34.3953610  51.9518495
  77.3772288  34.7174998  51.0780007  76.6180012  35.2534497  52.5957207
  77.3857052  33.6506215  52.5023732  74.6249883  34.8316682  50.8217415
  73.6492986  34.4018967  50.5949639  74.4988709  35.6899013  51.4817641
  75.1039272  35.1526489  49.8967064  76.6139399  31.5072841  51.1759766
  77.8184233  31.5619495  50.8938127  76.0671648  30.5420804  51.9125564
  75.0945589  30.5493448  52.1847406  76.9436628  29.4346094  52.4287669
  77.8386155  29.8615059  52.8814461  76.2131258  28.5939058  53.4848797
  75.4806815  29.2450329  53.9620150  75.6964972  27.7932340  52.9556164
  77.1243890  27.9951076  54.5441006  77.6870366  27.1733630  54.1010834
  77.8158856  28.7637259  54.8892967  76.3167335  27.4789454  55.7175788
  75.4353470  26.9637718  55.3356720  76.9304755  26.7775556  56.2827979
  75.8818729  28.5496542  56.6145626  76.3685319  29.4281623  56.5073898
  74.9139283  28.4640182  57.5345440  74.2336094  27.3432827  57.7236104
  74.4432685  26.5284867  57.1648165  73.5083584  27.3087108  58.4256898
  74.6318682  29.5196136  58.2803900  75.1472228  30.3784164  58.1501306
  73.9024765  29.4618403  58.9766290  77.4318735  28.5482158  51.2689321
  78.6458504  28.2958434  51.2105443  76.5346055  28.0129882  50.4341516
  75.5682306  28.0429452  50.7262503  76.8693606  27.2741676  49.2095124
  77.5295001  26.4320097  49.4170822  75.5438021  26.7320199  48.6383763
  74.9758362  26.2807726  49.4519425  74.9902231  27.5806387  48.2365101
  75.7157570  25.7106831  47.5481233  76.6810576  24.9368623  47.4955381
  74.7435441  25.6891590  46.6473210  74.7831881  25.0317211  45.8816164
  73.9676107  26.3302956  46.7308195  77.6911900  28.1173666  48.2372358
  78.3300315  27.5392555  47.3556854  77.7654898  29.4465446  48.3875667
  77.1955650  29.9644884  49.0410338  78.6777881  30.1916426  47.5212551
  78.5823827  29.8339974  46.4960297  78.3613921  31.6683095  47.5487210
  77.9091268  31.8209346  48.5286501  79.3155019  32.1934274  47.5037146
  77.4295716  32.2127056  46.4679637  76.4044937  31.8714674  46.6124370
  77.4868879  33.7439234  46.6212086  78.5116456  34.0859779  46.4764010
  76.8406457  34.2085654  45.8765076  77.1490004  34.0225993  47.6193430
  77.7542356  31.8280714  45.0586594  77.7241392  30.7428227  44.9615571
  77.0242076  32.2732093  44.3826323  78.7511723  32.1876271  44.8038338
  80.1371127  29.9684124  47.9230620  80.9763517  29.6268778  47.0712351
  80.4171858  30.0920441  49.2340369  79.6978160  30.4489690  49.8465816
  81.7879126  29.8970733  49.7908819  82.5010794  30.5890180  49.3428809
  81.8307598  30.0386469  51.3345626  80.8314682  29.8315232  51.7174680
  82.8294416  29.0895533  51.9834409  83.8291038  29.2963930  51.6013502
  82.8174199  29.2318682  53.0640438  82.5576218  28.0601223  51.7500206
  82.1223215  31.4843669  51.7600358  82.2044352  31.4791938  52.8469265
  83.0857917  31.7494504  51.3246560  81.0849527  32.4963530  51.3390892
  80.1212445  32.2321748  51.7744928  81.3806814  33.4864245  51.6860795
  81.0025995  32.5024296  50.2522217  82.3297803  28.5751023  49.2392398
  83.5182478  28.5362140  48.8927549  81.4789720  27.5688004  49.0787289
  80.5281718  27.6783254  49.4013471  81.8858026  26.2567057  48.5247512
  82.8256719  25.9435735  48.9793863  80.8252245  25.1904307  48.8101348
  79.9324751  25.4938006  48.2632670  81.2080358  24.2594882  48.3919225
  80.4732402  24.9802664  50.2836048  80.3218935  25.9673748  50.7204251
  79.5487544  24.4070539  50.3532860  81.5464844  24.2633843  51.0702229
  81.4353888  23.0770416  51.3679657  82.5887692  24.9875671  51.4398044
  83.3357677  24.5592709  51.9676842  82.6333211  25.9658334  51.1925970
  82.1703555  26.3860535  47.0155644  83.1561935  25.7749515  46.5972062
  81.3718371  27.1361076  46.2381293  80.5222922  27.4833018  46.6598270
  81.5493229  27.3004370  44.7625570  82.0888979  26.4516542  44.3424073
  80.1642900  27.3742014  44.1067152  79.5389243  26.5889476  44.5314426
  79.7280772  28.3472814  44.3324003  80.2059011  27.1992772  42.6009755
  80.2965962  26.0786113  42.1093464  80.1399340  28.2931388  41.8642121
  80.1643974  28.2221576  40.8570066  80.0653185  29.1957145  42.3113031
  82.5355281  28.4345366  44.3987994  83.7378914  28.1887945  44.6194763
  82.1100686  29.6147267  43.8908452  81.1096815  29.7426305  43.8363882
  82.9973137  30.6973219  43.3449443  84.0368041  30.3694870  43.3540591
  82.5969970  31.0219975  41.8956471  83.2881676  31.8084751  41.5926036
  82.7973189  30.1201922  41.3170987  81.1675141  31.4787062  41.6437643
  80.3172805  31.3500178  42.5446767  80.9082352  31.9492734  40.5175415
  82.9982424  31.9908717  44.1803280  83.8228667  32.8615428  43.8288617
  82.1466778  32.1422209  45.2043222  81.5125960  31.3651112  45.3232337
  82.0123865  33.2857867  46.0964098  81.2607249  33.0572410  46.8519698
  83.3268666  33.6309120  46.8024882  84.1293558  33.3471186  46.1216273
  83.3320356  34.7123615  46.9386505  83.5399945  32.9433326  48.1594205
  83.2002037  33.5986901  48.9613866  82.9782004  32.0098000  48.1911403
  85.0435247  32.6450602  48.3413535  85.2178738  32.3537758  49.3771406
  85.3174287  31.8215643  47.6818609  85.8929819  33.8007915  48.0284100
  85.8843733  34.5505052  48.7051335  86.6553559  33.9348553  46.9362732
  86.7303587  32.9829993  46.0088690  86.2012732  32.1300239  46.1211255
  87.3160124  33.1180844  45.1971662  87.3685403  35.0516686  46.7704118
  87.3268379  35.7819405  47.4668770  87.9463603  35.1609353  45.9492640
  81.5136100  34.5298383  45.3637663  81.6441775  35.6654097  45.8757593
  80.9119697  34.3320032  44.2050622  80.6842428  33.3856722  43.9354376
  80.5916777  35.4035256  43.2857479  80.7979140  36.3944344  43.6903039
  81.3983083  35.2240773  41.9933876  81.0897080  34.3110064  41.4843025
  81.1348881  36.4154670  41.0963540  81.4436875  37.3289305  41.6046129
  81.7004115  36.3062527  40.1709596  80.0706981  36.4699384  40.8669349
  82.7794796  35.0648986  42.3494620  83.3040093  34.9507736  41.5535698
  79.1125895  35.4206680  42.9770337  78.5616291  34.4213393  42.4989482
  78.4882898  36.5647087  43.2259949  78.9885018  37.3210902  43.6707132
  77.1020500  36.7679388  42.8876908  76.7563699  35.9340636  42.2767436
  76.2298214  36.8565199  44.1246971  75.2050609  37.1399183  43.8845922
  76.2309525  35.8867049  44.6222486  76.7235556  37.8472534  45.1212084
  77.8736031  37.6371095  45.8382016  78.4341968  36.7161421  45.6780344
  78.3401137  38.6024850  46.7832265  79.2654482  38.4254590  47.3314223
  77.6200092  39.7572493  47.0014072  77.9497677  40.5083048  47.7192338
  76.4576755  39.9508307  46.2863459  75.8487270  40.8337005  46.4808270
  76.0550428  39.0190259  45.3112107  75.1878196  39.2265094  44.6843340
  76.9897163  38.0530604  42.1064553  77.9613314  38.7931339  41.9682119
  75.7660756  38.3232898  41.6353295  75.0111944  37.7095597  41.9066023
  75.4687130  39.4250613  40.7376079  76.4080325  39.7884681  40.3208185
  74.5520119  38.9791586  39.5750113  73.6038198  38.6211247  39.9760644
  74.3692378  39.8241248  38.9111393  75.0358346  38.1774425  39.0170991
  74.7938354  40.5728722  41.4674596  73.7676692  40.3615993  42.1135219
  75.2928035  41.8039694  41.2741293  76.1633145  41.9221897  40.7757982
  74.6650127  42.9803162  41.8534269  73.8210655  42.6898652  42.4791189
  75.6298049  43.8269119  42.6937249  76.3981246  44.2523780  42.0481533
  74.8280543  44.9939588  43.3981166  74.0598026  44.5692345  44.0442587
  75.5122631  45.5964315  43.9955992  74.3587074  45.6217346  42.6406784
  76.3213550  42.9913850  43.6901788  76.8883854  42.2120768  43.1810056
  77.0008531  43.6106993  44.2756972  75.5873457  42.5321509  44.3523232
  74.0269945  43.8006431  40.7482474  74.7113889  44.4645064  39.9629341
  72.7110552  43.7786834  40.7339809  72.2178448  43.2867242  41.4652940
  71.9452517  44.4042542  39.7030036  72.3556515  44.1519664  38.7252398
  70.5027068  43.9200324  39.7649652  70.2655735  44.1509429  40.8034966
  69.9023877  44.5486947  39.1073173  70.1918877  42.4482527  39.4863868
  70.8403685  41.8620959  40.1375348  68.7605163  42.0493970  39.7145885
  68.1114241  42.6348425  39.0634113  68.6380675  40.9895962  39.4911399
  68.4927511  42.2341479  40.7549103  70.6383884  42.1101925  38.0751623
  71.7102488  42.2844502  37.9810928  70.4213688  41.0626985  37.8659730
  70.1045530  42.7403860  37.3638433  71.9894745  45.9074311  39.8524711
  71.8457904  46.4347142  40.9611286  72.0777289  46.6036403  38.7003978
  72.2766598  46.1168492  37.8380984  71.9763808  48.0561543  38.6657909
  72.2016505  48.4318132  39.6639057  72.9817217  48.6526602  37.6809826
  72.7634407  48.2928758  36.6754934  72.9092590  49.7400661  37.7009283
  73.9904011  48.3510163  37.9632521  70.5641319  48.4966364  38.3284933
  70.2446841  48.9478527  37.2262130  69.7383232  48.5148554  39.3418585
  70.0450909  48.3969110  40.2968883  68.3188656  48.6943271  39.0917480
  67.9939500  47.9853984  38.3302041  67.4949842  48.4619710  40.3590175
  67.8706693  49.1954900  41.0723967  66.4570927  48.6902121  40.1165568
  67.5764128  47.1071382  40.9547881  66.8920996  46.0071799  40.3845250
  66.3045854  46.1656100  39.4801874  66.9591429  44.7461847  40.9551644
  66.4546188  43.9038014  40.4819332  67.6823376  44.5541500  42.1336440
  67.7494657  43.2994555  42.7572861  67.2561949  42.6213704  42.2898632
  68.3652209  45.6604846  42.7287726  68.9249777  45.5267387  43.6544534
  68.3128714  46.9210057  42.1170740  68.8521618  47.7615513  42.5538222
  68.0129102  50.0883437  38.5852206  68.3876772  51.0774552  39.2087759
  67.2182024  50.1455273  37.5236729  67.0257947  49.2939062  37.0159130
  66.6659048  51.3897320  37.0161793  67.3979378  52.1939454  37.0901235
  66.2955582  51.1989740  35.5422052  65.6240814  50.3457394  35.4462427
  65.7965458  52.0963250  35.1763529  67.4712017  50.9651213  34.7766196
  67.2338861  50.8462676  33.8540390  65.4645611  51.8483600  37.8346100
  65.4211009  53.0038814  38.2696267  64.4711943  50.9699468  38.0310858
  64.5232552  50.0451987  37.6283082  63.2589144  51.3411785  38.7615887
  63.1750834  52.4271835  38.8023884  62.0085858  50.7782367  38.0713389
  62.1022760  50.8836111  36.9904978  61.9333358  49.7214835  38.3276788
  60.7315320  51.4809188  38.5206889  59.6442334  50.9173739  38.4298604
  60.8640895  52.6993594  39.0295632  60.0470568  53.2048309  39.3411011
  61.7813986  53.1155995  39.1029738  63.2746564  50.8971899  40.2196464
  62.6974574  51.5949754  41.0527795  63.9299179  49.7722895  40.5371798
  64.2712659  49.2691328  39.7306971  64.1297981  49.1679261  41.8824674
  64.7455010  48.2755252  41.7700856  64.8119215  50.1126360  42.8879409
  64.2448581  51.0417842  42.9447023  64.8664099  49.4827736  44.2334168
  65.4337492  48.5537390  44.1775450  65.3514294  50.1625099  44.9339989
  63.8540574  49.2695893  44.5766318  66.2031542  50.4284107  42.4562190
  66.1801605  50.9119618  41.4796169  66.6661895  51.0974551  43.1815310
  66.7819588  49.5070655  42.3913415  62.8434112  48.6518511  42.5174456
  62.8186911  47.5225595  43.0119559  61.8067889  49.4937751  42.6071411
  61.9252773  50.4715917  42.3836810  60.4945665  49.0363120  43.0098842
  60.5651770  48.5877531  44.0007970  59.4798336  50.1697401  43.0602320
  58.7973111  50.0014786  43.8932689  60.0052766  51.1134453  43.2066220
  58.6837610  50.2261720  41.7511473  59.3574347  50.5558778  40.9602246
  58.3072795  49.2307577  41.5155329  57.5090327  51.1856453  41.8191657
  57.6618005  52.3466846  42.2149884  56.3292129  50.6996390  41.4485649
  55.5119189  51.2925310  41.4732857  56.2551217  49.7395574  41.1438434
  59.9294884  48.0132640  42.0621561  58.8775054  47.4555935  42.3824192
  60.5674460  47.7851193  40.9111678  61.3581833  48.3561615  40.6489761
  60.1177632  46.7536481  39.9780673  59.4299672  46.0827839  40.4928265
  59.4048461  47.3496414  38.7720779  60.1495971  47.9108373  38.2077161
  59.0465778  46.5147545  38.1698258  58.2423425  48.2587513  39.1170496
  58.1495329  48.2784844  40.2029123  58.4540589  49.2639928  38.7526805
  56.9468918  47.7643553  38.5090584  56.9548088  47.3392412  37.3248911
  55.9152045  47.8246437  39.2285781  61.2933604  45.9190077  39.5193597
  61.3012293  45.4018441  38.4034336  62.3162683  45.7820285  40.3563047
  62.3639504  46.3079164  41.2172738  63.4564066  44.8955156  40.0084751
  64.3337197  45.1777171  40.5905260  63.1154665  43.4371266  40.3146619
  62.4614331  43.0858604  39.5165694  64.0502105  42.8769662  40.2907039
  62.4332413  43.2273481  41.6582056  61.5349609  43.8436088  41.6958339
  62.1568734  42.1770941  41.7514228  63.3539173  43.6088704  42.7957149
  64.3471836  43.2059531  42.5977786  63.4089598  44.6957255  42.8574857
  62.8882985  43.0932916  44.0711567  62.0093549  43.4472314  44.4208481
  63.5415502  42.1976821  44.7949985  64.6937433  41.7134281  44.3615217
  65.0708287  42.0291283  43.4793426  65.1910313  41.0302370  44.9147434
  63.0427413  41.7876111  45.9470889  62.1621811  42.1592844  46.2735435
  63.5441513  41.1042398  46.4963525  63.8189879  45.0837904  38.5379298
  64.1719345  44.0897107  37.8923880  63.7230494  46.3148828  38.0437554
  63.4647148  47.0862590  38.6423717  64.0877153  46.6078122  36.6404789
  63.7130947  45.8225516  35.9838783  63.4709157  47.9392269  36.2111129
  62.3971302  47.8663843  36.3836756  63.8906040  48.7107779  36.8566134
  63.7265075  48.3009868  34.7580947  64.8077997  48.3653149  34.6365637
  63.3437753  47.4692527  34.1666273  63.0859243  49.5956826  34.2850588
  62.4433294  50.2746152  35.1141982  63.2364068  49.9259451  33.0913357
  65.5929214  46.7847718  36.6503749  66.0267134  47.4620604  37.5320243
  66.3201204  46.1210437  35.7597866  65.8665020  45.4617276  35.1436437
  67.7822108  46.2749322  35.6636508  68.0558110  47.3296157  35.6933975
  68.4842982  45.5664630  36.7816747  68.2273934  44.5074030  36.7594994
  69.5619809  45.6808988  36.6650350  68.1750170  45.9949401  37.7350119
  68.2280033  45.7325448  34.3156393  67.5197680  44.8686369  33.7824827
  69.3284697  46.2429091  33.7713305  69.7680936  47.0216095  34.2408577
  69.8553545  45.8287555  32.4922620  69.5157288  44.8138332  32.2856551
  69.4009330  46.7433942  31.3408814  69.6913555  47.7575869  31.6150475
  69.9583527  46.4327197  30.4572159  67.9020057  46.7071352  31.0367169
  67.6372999  45.6804323  30.7839070  67.3835173  47.0012942  31.9492625
  67.4904342  47.6322234  29.8985532  66.2799310  47.6966372  29.5654139
  68.3779354  48.3077789  29.3374004  71.3645936  45.7083125  32.5600325
  71.9444810  44.9851890  31.7203605  72.0013706  46.2361809  33.6291296
  71.4776788  46.8236583  34.2621514  73.4223922  46.0428351  33.8825661
  73.7834829  45.2074062  33.2827568  74.2410854  47.2991874  33.5212595
  73.6911670  48.1258142  33.9711230  75.2713062  47.3125246  33.8770226
  74.2927758  47.5704412  32.0448563  73.3113965  48.3234250  31.4014148
  72.5151400  48.7908941  31.9806801  73.3486945  48.4772405  30.0254810
  72.6021111  49.0881043  29.5179779  74.3406515  47.8503227  29.2956322
  74.3620877  47.9679627  28.2122111  75.3027652  47.0775359  29.9283649
  76.0840687  46.5865580  29.3481876  75.2679917  46.9347430  31.2730236
  76.0104270  46.3139662  31.7745473  73.6213765  45.6801121  35.3252557
  72.6804465  45.6829445  36.1154004  74.8687714  45.3871647  35.6708999
  75.6052845  45.4417190  34.9819357  75.2186796  44.9850658  37.0235812
  75.0032946  45.7887954  37.7276602  74.6634949  44.0922501  37.3112431
  76.7006685  44.6781806  37.0645610  77.4003178  44.7571823  36.0590658
  77.1596945  44.2691580  38.2381268  76.5331523  44.1951828  39.0268421
  78.5668114  43.9191372  38.4347424  79.0247377  43.7531625  37.4596244
  79.3048728  45.0432986  39.1309036  78.8466391  45.1626640  40.1126745
  80.8250998  44.8094364  39.2967574  81.2841307  44.6904354  38.3153151
  81.2714405  45.6642808  39.8048125  80.9923699  43.9085822  39.8871666
  79.1319047  46.2097990  38.3100010  79.5850452  46.9543269  38.7124215
  78.5736475  42.6693530  39.2828099  77.7668907  42.5315923  40.2147297
  79.4660386  41.7469372  38.9621524  80.0386947  41.7894273  38.1312741
  79.5992040  40.5907604  39.8322095  78.6101264  40.1855389  40.0457981
  80.4597943  39.4825258  39.2152936  80.4091614  38.5878461  39.8358456
  79.9436783  39.1716398  37.8538652  79.9944327  40.0657852  37.2325541
  80.5495629  38.3838740  37.4061733  78.9086334  38.8373273  37.9247008
  81.8322114  39.9058294  39.1354417  82.3612934  39.2047130  38.7480035
  80.2088642  41.0694779  41.1356715  80.9460251  42.0548765  41.1665162
  79.8809325  40.3625946  42.2119102  79.1344534  39.6887487  42.1181019
  80.5157572  40.5160088  43.5196833  81.2848793  41.2882292  43.5046509
  79.5064774  40.8587564  44.5966449  78.7347279  40.0897402  44.6300635
  80.0087185  40.9109623  45.5626308  79.0489212  41.8224741  44.3730607
  81.1987684  39.2073819  43.8304671  80.7042273  38.1642368  43.4566647
  82.3637946  39.2679401  44.4540523  82.7348310  40.1844967  44.6598565
  83.1520364  38.0967278  44.8423844  82.5727040  37.1947696  44.6450403
  84.4783708  38.0121496  44.0585677  84.2775836  37.3869463  43.1885651
  84.7031512  39.0273909  43.7316749  85.6788424  37.4455553  44.8292867
  85.9684224  38.2367849  45.5208067  85.3616791  36.5686062  45.3936155
  86.8753321  37.0778775  43.9439418  86.6541153  36.6863031  42.7708133
  88.0299530  37.1314854  44.4396974  83.3917733  38.2719982  46.3297097
  83.8038220  39.3527106  46.7577034  83.1120861  37.2939049  47.0859600
  82.7613194  36.4209216  46.7185878  83.2424254  37.4337550  48.5377105
  82.9563714  38.4361796  48.8561712  82.3963396  36.3955599  49.2927658
  82.6377226  35.3936323  48.9378352  82.7091248  36.4960066  50.7890011
  82.4675462  37.4975858  51.1447814  82.1143444  35.7637461  51.3350153
  83.7683615  36.2982638  50.9533623  80.9184307  36.5928793  49.0201188
  80.5225724  37.3070220  49.7421972  80.7995403  36.9917942  48.0127304
  80.1751408  35.3065533  49.1355414  80.2931884  34.9072348  50.1428692
  79.1175971  35.4781465  48.9349019  80.5701583  34.5920059  48.4134035
  84.7129985  37.3013256  48.9116120  85.4270897  36.4535314  48.3649086
  85.1830653  38.1327742  49.8356858  84.6114053  38.8652265  50.2316880
  86.5784029  38.0504156  50.2421685  87.0181181  37.1214449  49.8791766
  87.3703537  39.2308734  49.6559201  88.4179061  38.9312031  49.6254073
  87.0170833  39.4188627  48.6420364  87.2314877  40.4846973  50.4755149
  88.0524721  40.7446944  51.5645766  88.8311767  40.0274688  51.8240107
  87.8909473  41.9097512  52.3264049  88.5303468  42.1140059  53.1852123
  86.9055429  42.8074642  51.9710887  86.6845502  43.9767451  52.6456089
  87.2838703  44.1023098  53.3849658  86.0891064  42.5543475  50.9067855
  85.3048025  43.2646648  50.6452188  86.2540742  41.4038718  50.1629720
  85.6043093  41.2085738  49.3098810  86.7800914  37.9991718  51.7516893
  87.9210362  37.8003433  52.1822159  85.7316138  38.1933545  52.5562761
  84.9088976  38.6201001  52.1548716  85.7202523  37.8750752  53.9708878
  86.5488971  37.2040776  54.1971819  85.8322080  39.1060910  54.8639214
  85.0040628  39.7834256  54.6553703  85.7970331  38.8012601  55.9098378
  86.7756649  39.6147476  54.6657882  84.4221270  37.1165914  54.2667581
  83.6056951  36.8342059  53.3635863  84.1995893  36.8178728  55.5459739
  84.7647578  37.1864255  56.2975408  83.1466895  35.8566679  55.8766822
  82.1799691  36.2176790  55.5256525  83.4495485  34.5070119  55.1878525
  83.4420372  34.6918647  54.1136681  84.4530854  34.2169122  55.4990691
  82.4914541  33.4076638  55.5101719  81.2705940  33.3283048  54.8750059
  81.0102235  34.0850691  54.1349961  80.3829759  32.3104485  55.1634700
  79.4220860  32.2504529  54.6523995  80.7240113  31.3573853  56.1173837
  79.8647929  30.3279123  56.4423514  79.0424078  30.3554720  55.9478589
  81.9394587  31.4267446  56.7581808  82.2114733  30.6808946  57.5050519
  82.8128054  32.4434898  56.4522499  83.7786535  32.5017927  56.9540849
  83.0215221  35.7099348  57.3860206  83.8962609  36.1317375  58.1476081
  81.8980157  35.1207517  57.8047995  81.2019412  34.8266068  57.1346813
  81.6135826  34.9353565  59.2250500  82.4022660  34.3480428  59.6953056
  81.5418931  36.3322637  59.9298166  82.4775114  36.8702636  59.7772599
  80.7178663  36.9124862  59.5145795  81.3137012  36.1226731  61.4247364
  81.1139922  37.0986483  61.8671046  80.4357077  35.4866708  61.5375663
  82.4908465  35.4843145  62.1244428  82.6750311  34.4713962  61.7664321
  83.3983202  36.0782311  62.0155667  82.1355597  35.4227704  63.5528562
  81.2862212  35.8917720  63.8334999  82.8270336  34.7805143  64.4649987
  82.3993395  34.8027078  65.7382791  81.5583613  35.3087536  65.9765507
  82.9207076  34.3132489  66.4515146  83.9041321  34.0907375  64.1761426
  84.2274370  34.0415715  63.2205503  84.4054506  33.6118104  64.9105862
  80.3083279  34.1572678  59.3856656  79.4460028  34.1520251  58.4950911
  80.1787051  33.4940385  60.5501478  80.9109190  33.5713226  61.2415156
  79.0217528  32.6379377  60.8525856  78.1791358  32.9297807  60.2257495
  79.3427061  31.1635219  60.5861214  80.2813741  30.9621767  61.1023208
  78.5413027  30.5920561  61.0543941  79.4679008  30.7613384  59.1466011
  79.2096688  31.6173572  58.5231839  80.4995943  30.4685959  58.9516404
  78.5494858  29.6097345  58.8239710  77.3714010  29.6769005  59.2480546
  78.9873128  28.6401304  58.1573283  78.6224996  32.8146417  62.3114425
  79.2595070  32.2384035  63.1833353  77.5455419  33.5299697  62.5790355
  77.0376860  33.9137711  61.7948938  77.1210655  33.8984848  63.9250416
  77.8571098  33.5288986  64.6390051  76.9845122  35.4209464  64.1031643
  76.2259059  35.7511548  63.3935319  76.6265469  35.5851541  65.1195288
  78.2713488  36.2179087  63.8811112  78.7742098  35.8038005  63.0071855
  77.9774572  37.2474403  63.6766814  79.2190078  36.1879341  65.0735314
  79.5150484  37.2639802  65.6523706  79.6656037  35.0810861  65.4445324
  75.8343359  33.1618124  64.3059377  75.3555051  32.2711026  63.6033076
  75.3221521  33.4897177  65.4955237  75.8243520  34.1216832  66.1025775
  74.0680548  32.9189464  65.9761495  73.3523809  32.8974088  65.1542942
  74.2425959  31.5050787  66.5052645  75.2463098  31.4150846  66.9206663
  73.5077060  31.3398430  67.2931313  74.0525734  30.4661444  65.4083994
  73.6824652  30.9850864  64.5241935  75.0062893  29.9914157  65.1778333
  73.0664662  29.4015216  65.7871230  73.2864550  28.2119795  65.5396890
  71.9590465  29.8255441  66.3632094  71.2526467  29.1603432  66.6435816
  71.8221752  30.8136268  66.5215140  73.5022070  33.8172049  67.0602301
  74.1830129  34.1373755  68.0407831  72.2478862  34.1985727  66.8933591
  71.7191297  33.7793630  66.1418413  71.5916486  35.1986995  67.7256947
  72.0075842  35.1619061  68.7325428  71.7936574  36.6003763  67.1667871
  72.8577968  36.7796339  67.0132515  71.2806095  36.6162785  66.2052108
  71.2190336  37.6907802  68.0679357  71.4682785  37.7020551  69.3143770
  70.5349578  38.5794923  67.4957854  70.1375037  34.7453351  67.6776916
  69.5489114  34.7064953  66.5949101  69.6048306  34.2841532  68.8092907
  70.1855679  34.2092810  69.6322351  68.2257310  33.8007756  68.8870308
  67.9704505  33.5321671  69.9121067  67.2937472  34.9041752  68.4292391
  67.4567163  35.2734875  67.4167428  66.2801152  34.5123770  68.5137639
  67.3686984  36.0645496  69.3146924  66.6234823  36.0929114  70.4668667
  65.8999146  35.3076358  70.6857086  66.7938024  37.0956020  71.3207828
  66.2278987  37.0421864  72.2508368  67.6404243  38.1774867  71.0808642
  67.7203150  39.0149469  71.7739571  68.3813657  38.1661579  69.9383129
  69.0556995  38.9904656  69.7061690  68.2727857  37.0990751  69.0714821
  68.8988494  37.0549598  68.1803043  67.9922370  32.5328866  68.0954754
  66.9109956  32.3229357  67.5423238  68.9937092  31.6730419  68.0509830
  69.8465297  31.8367168  68.5667417  68.8929646  30.4692369  67.2580688
  69.7742385  29.8554534  67.4444157  68.0000220  29.9245991  67.5648628
  68.8029399  30.7697865  65.7594482  68.7321860  29.8798016  64.9055216
  68.7834211  32.0611320  65.4256596  68.6957538  32.7689086  66.1408281
  68.8795501  32.4929834  64.0294287  68.2856858  31.8338435  63.3962156
  68.4098155  33.9410900  63.8420935  69.0734775  34.6040996  64.3971354
  68.4305148  34.3217053  62.3644181  67.7666839  33.6593824  61.8087585
  68.0944051  35.3521890  62.2493774  69.4452603  34.2257898  61.9781657
  67.0209708  34.1886007  64.3875775  66.3089976  33.6437602  63.7676229
  66.9817846  33.8054038  65.4072461  66.6596620  35.6882436  64.3879890
  66.6981840  36.0720664  63.3685304  65.6541604  35.8201404  64.7875752
  67.3709730  36.2337106  65.0081522  70.3380725  32.3627889  63.6486139
  71.2118564  32.9797528  64.2857820  70.6176679  31.5877680  62.6106963
  69.9552053  30.9288972  62.2271184  71.9580441  31.6318803  62.0396038
  72.7050762  31.6296047  62.8333525  72.1821238  30.4092963  61.1560113
  71.4645887  30.4639881  60.3373225  73.1940471  30.4778410  60.7567460
  72.0140682  29.0792688  61.8929036  72.7425147  29.0489977  62.7031814
  71.0072133  29.0390905  62.3085094  72.2290765  27.8939754  60.9773093
  71.3918730  27.6696888  60.0658869  73.2322217  27.1847353  61.1745202
  72.1866930  32.9303068  61.2494308  71.3850009  33.3219160  60.4006923
  73.2539419  33.6395835  61.5790673  73.8606489  33.3185618  62.3199796
  73.5626175  34.9011670  60.9364216  72.7397832  35.1742361  60.2757582
  73.8056343  36.0302173  61.9420032  74.5545492  35.7131526  62.6677420
  74.2951407  37.2570423  61.2196576  73.5465039  37.5749980  60.4940215
  74.4669364  38.0582246  61.9384717  75.2268961  37.0274107  60.7027434
  72.5274837  36.3373057  62.6902736  71.8445811  36.8044139  61.9806576
  72.1122533  35.3850867  63.0203678  72.7105214  37.2341024  63.8673827
  73.1253144  38.1867561  63.5379931  71.7472570  37.4046226  64.3481568
  73.3929889  36.7674296  64.5777027  74.7863323  34.6906374  60.0693315
  75.5271147  33.7179497  60.2185097  74.9841706  35.6122780  59.1290083
  74.2990911  36.3407734  58.9873755  76.1449533  35.5733969  58.2462553
  76.9874675  35.1028432  58.7530572  75.8699094  34.8120093  56.9409382
  74.8395557  34.9672867  56.6210017  76.8053567  35.3472263  55.8935877
  77.8359787  35.1918795  56.2126278  76.6344106  34.8252547  54.9520869
  76.6251310  36.4132950  55.7553200  76.0648387  33.3357377  57.1568520
  75.3773661  32.9868120  57.9273935  75.8679250  32.8028369  56.2266147
  77.0906372  33.1466050  57.4731857  76.5454496  37.0062373  57.9693487
  75.7154969  37.8028311  57.5235081  77.8094900  37.3291249  58.2582110
  78.3601120  36.6429300  58.7542466  78.4294551  38.6040827  57.9287633
  77.6746801  39.2958186  57.5547108  79.0828254  39.2168595  59.1656557
  79.7332056  38.4541292  59.5938464  79.6860793  40.0580228  58.8241456
  78.1030060  39.6929853  60.2177908  77.9095650  40.7540805  60.0604425
  77.1734275  39.1345143  60.1078094  78.6614105  39.4803302  61.6249732
  78.4975868  38.4366984  61.8934755  79.7319462  39.6827217  61.5919523
  78.0099045  40.3761057  62.6596017  77.5406592  41.2299293  62.1708332
  77.2569403  39.8172198  63.2152910  79.0719010  40.8621057  63.6054370
  79.7694895  41.3803755  63.0907852  78.6533356  41.4614288  64.3023695
  79.5065471  40.0711082  64.0587634  79.4735963  38.3762612  56.8361597
  80.4199559  37.6070059  57.0361242  79.3184335  39.0576201  55.6972214
  78.4792194  39.5990884  55.5467849  80.2977460  38.9867997  54.6195468
  81.2063411  38.5091364  54.9861417  79.7607546  38.1721073  53.4192062
  80.5699607  37.9798503  52.7147049  79.2122815  36.8705276  53.9160731
  78.4026647  37.0619793  54.6203229  78.8319568  36.2910955  53.0748168
  80.0023712  36.3096177  54.4153124  78.6908911  38.9671641  52.7595656
  79.1027325  39.9154317  52.4142003  78.2967053  38.4114433  51.9087474
  77.8880090  39.1581525  53.4716082  80.7495228  40.3696156  54.1311954
  80.0626449  41.3941704  54.2466946  81.9455909  40.3742461  53.5549709
  82.5418727  39.5692196  53.6833446  82.4669684  41.5086383  52.7946592
  81.7035297  42.2850298  52.7448923  83.7296630  42.1019628  53.4404683
  84.5313724  41.3718121  53.3298288  83.9862279  43.0083862  52.8921334
  83.5442678  42.4412795  54.9401025  82.5863276  42.9511511  55.0424857
  83.5134897  41.4982460  55.4858520  84.6756146  43.3406858  55.5215867
  84.8668717  44.1436927  54.8097583  84.3195045  43.7651239  56.4602759
  85.9851311  42.5533160  55.7752723  85.7249068  41.4985364  55.8637255
  86.6302164  42.6964008  54.9083866  86.7172737  43.0017632  57.0313660
  86.1198524  42.8688580  57.8348109  87.5590851  42.4550936  57.1436423
  86.9588708  43.9790123  56.9494258  82.7280247  40.9942608  51.3887860
  83.2965025  39.8916811  51.2256787  82.2361522  41.7423635  50.3883497
  81.6795818  42.5503564  50.6280915  82.4396364  41.4380752  48.9800270
  83.1675077  40.6344454  48.8683062  81.1360538  41.0184117  48.2886217
  80.4001875  41.8168396  48.3840871  81.3292406  40.8273647  47.2330270
  80.7512059  40.1124322  48.7568015  83.0060621  42.6708616  48.3026021
  82.9826171  43.7660352  48.8610187  83.3906996  42.4837885  47.0433870
  83.2210789  41.5700747  46.6478428  84.0681589  43.4828973  46.2163082
  83.7590666  44.4913087  46.4913858  85.6061379  43.3630495  46.3409967
  85.8825120  43.2130923  47.3846588  86.0779819  42.1567161  45.5066964
  85.8023546  42.3061719  44.4627648  87.1608620  42.0607911  45.5858794
  85.6050069  41.2485573  45.8803824  86.2546926  44.6657446  45.8892122
  85.7810684  44.9504105  44.9496665  86.0322504  45.4147690  46.6492000
  87.7685972  44.5760246  45.6899783  87.9918075  43.8274769  44.9297460
  88.1513509  45.5447353  45.3687330  88.2429895  44.2918329  46.6292796
  83.6406884  43.3081960  44.7480823  83.5468288  42.1812765  44.2341720
  83.3983058  44.4265070  44.0648802  83.4596537  45.3320468  44.5079754
  83.0350123  44.3703859  42.6471125  82.2036485  43.6776131  42.5167314
  82.7350860  45.3638893  42.3138039  84.2102507  43.8983686  41.8025431
  85.3616938  44.2240309  42.0756525  83.8995603  43.0934537  40.7861216
  82.9203015  42.9032805  40.6280527  84.8699309  42.5164830  39.8709830
  85.8635962  42.8608947  40.1575299  84.8622483  40.9859559  39.8767758
  83.9578505  40.6615819  40.3915042  84.8294264  40.6513340  38.8399292
  86.0695297  40.3911734  40.5588773  85.9606188  39.3066290  40.5605364
  86.9550540  40.6660103  39.9858036  86.2226715  40.9060002  42.0415405
  86.4471187  41.9726304  42.0368228  85.2945770  40.7329419  42.5863256
  87.3056637  40.2025899  42.7261316  87.2437769  39.1945286  42.7351778
  88.3459890  40.7786650  43.3161610  88.4628076  42.0926852  43.3781552
  87.7494157  42.6798335  42.9701980  89.2649986  42.5043792  43.8332346
  89.2830329  40.0111238  43.8628996  89.1941993  39.0057949  43.8238789
  90.0797110  40.4366488  44.3149298  84.6051393  42.8774152  38.4256116
  85.4646911  43.4458556  37.7425646  83.4576440  42.4597299  37.9213157
  82.7367069  42.0858965  38.5218136  83.2248936  42.4684523  36.4946688
  83.9052494  43.1828033  36.0310766  83.4496077  41.1012745  35.8621007
  83.2731414  40.3163725  36.5975515  82.7742288  40.9654769  35.0173982
  84.8888665  41.0265777  35.3769887  84.9061847  41.5580085  34.4254729
  85.5823807  41.5018838  36.0706920  85.3284886  39.6369403  35.1488958
  85.3226106  38.8244593  36.0568236  85.8012006  39.3566623  33.9411269
  86.1162765  38.4205275  33.7302234  85.8437564  40.0807500  33.2382846
  81.8282244  42.9467496  36.2711091  80.9306461  42.6375622  37.0601080
  81.7008835  43.7728483  35.2372913  82.5138508  44.0919838  34.7300082
  80.4108161  44.2762932  34.8451086  79.7498276  44.2748301  35.7118215
  80.4947657  45.7033708  34.2961431  80.2670250  45.6166274  33.2337360
  79.6951507  46.2508860  34.7950849  81.7932869  46.4423307  34.4715686
  82.0817469  46.3779333  35.5207324  82.5485743  45.9525949  33.8569127
  81.6752305  47.9630179  34.0496966  80.8963511  48.4083883  34.6686401
  82.6318647  48.4340903  34.2756194  81.3534786  48.2065802  32.6448200
  80.4587709  48.6246702  32.4331640  82.1583517  47.8727998  31.6295310
  83.3589807  47.3342106  31.8317803  83.6823314  47.1681173  32.7740952
  83.9409503  47.0941892  31.0419697  81.7658177  48.1210042  30.3852450
  80.8697212  48.5562887  30.2189965  82.3652099  47.8733276  29.6109815
  79.8285184  43.3355619  33.8092872  80.4444926  42.3314772  33.4556312
  78.6655394  43.6131183  33.3038179  78.2494452  44.5142405  33.4907505
  77.9273990  42.6751128  32.5083995  78.4346504  42.5267561  31.5550971
  77.8136780  41.3183595  33.2204023  77.2584556  40.5898641  32.6295371
  78.8204831  40.9438747  33.4053470  77.1219919  41.3980795  34.5766767
  75.7555734  41.6639613  34.6867372  75.1887960  41.8334205  33.7712336
  75.1162234  41.7156596  35.9192468  74.0449553  41.9105373  35.9693260
  75.8712510  41.5111048  37.1348601  75.3914317  41.5856077  38.1107303
  77.2227493  41.2167754  37.0478456  77.8062074  41.0359023  37.9505979
  77.8539514  41.1506916  35.7597602  78.9135735  40.9066507  35.6839660
  76.5485073  43.2561341  32.2479786  75.9560063  43.9136711  33.1020142
  76.0093247  43.0195867  31.0505524  76.5461047  42.6021036  30.3037764
  74.6264171  43.3741938  30.7889224  74.3622998  44.2381875  31.3987224
  74.3821169  43.7229828  29.3097183  75.2446792  44.2777266  28.9404694
  74.2816867  42.7933700  28.7495095  73.0821243  44.5903171  29.1235453
  72.3233472  44.1817322  29.7909406  73.3260080  45.6072656  29.4308540
  72.5434628  44.6057322  27.6846680  73.3528481  44.9071138  27.0197142
  72.2210066  43.5962994  27.4293896  71.3444081  45.5906849  27.5234441
  71.7434000  46.5023465  27.0787203  70.6450457  45.1244399  26.8294650
  70.6272170  45.9299368  28.8083624  71.2749854  46.3623728  29.4513980
  69.8699640  46.5689631  28.6126245  70.2570576  45.0853600  29.2203953
  73.7558160  42.1802571  31.1797394  74.0240697  41.0270535  30.8468183
  72.6799504  42.4854384  31.9118196  72.4956385  43.4189128  32.2505731
  71.7711829  41.4122247  32.3091381  72.3129699  40.4722852  32.4143986
  71.0358059  41.7105838  33.6376804  70.5139901  42.6625826  33.5401826
  70.0361892  40.6178221  33.9703203  70.5573625  39.6655342  34.0684377
  69.5357354  40.8559221  34.9089123  69.2966235  40.5461809  33.1728169
  72.0386701  41.8653644  34.7846924  72.7186865  42.6883833  34.5648751
  71.5029885  42.0747535  35.7105979  72.6091382  40.9432768  34.8961444
  70.7734300  41.1665451  31.1689992  70.2344865  42.1112446  30.6322611
  70.5501346  39.9089403  30.8079181  71.0573838  39.1567726  31.2518115
  69.6216193  39.5758724  29.7222810  69.4312548  40.4576514  29.1104588
  70.2218573  38.4861946  28.8349667  70.3740571  37.6384592  29.5030080
  69.5043025  38.2139259  28.0609609  71.5556829  38.8685631  28.1830728
  72.2023116  39.2884132  28.9535909  72.2443577  37.6707207  27.5395952
  71.5984851  37.2505867  26.7685992  73.1850230  37.9896984  27.0907045
  72.4427590  36.9140410  28.2986559  71.3109170  39.9624538  27.1588898
  70.8808376  40.8337401  27.6528446  72.2551313  40.2401991  26.6904689
  70.6208209  39.5998146  26.3970769  68.2609082  39.1355806  30.2630530
  67.2515138  39.3120141  29.6375547  68.2447518  38.5492674  31.4560009
  69.1046999  38.3363241  31.9410203  67.0027143  38.0761856  32.0236686
  66.2591473  38.8713521  31.9696536  66.4626558  36.8458095  31.2723867
  66.4032941  37.1235670  30.2200435  67.2014424  36.0542148  31.3975747
  65.0956519  36.3467792  31.7457779  64.8595458  35.4413554  31.1867050
  65.1928176  36.1047277  32.8041110  63.9783679  37.3642957  31.5586667
  63.1240308  37.1821899  30.6550681  63.9457451  38.3507436  32.3254087
  67.0938338  37.8118621  33.5111323  68.1608245  37.5039921  34.0438291
  65.9595235  37.9332240  34.1870107  65.1370252  38.3027906  33.7320201
  65.8665175  37.5723655  35.6061164  66.7695884  37.0408527  35.9062100
  65.7190819  38.8075371  36.4758076  64.8323013  39.3211866  36.1044809
  65.5298411  38.4400261  37.4843827  66.8997074  39.7819497  36.5012309
  67.1764537  40.0661335  35.4859714  66.4735092  41.0077186  37.2670570
  66.1970341  40.7243785  38.2826252  67.2975300  41.7204251  37.3008205
  65.6172306  41.4662806  36.7724781  68.1122181  39.1402247  37.1795841
  68.4048699  38.2451753  36.6306388  68.9412193  39.8478866  37.1881218
  67.8553763  38.8699074  38.2038203  64.6800677  36.6498082  35.8168839
  63.5466664  36.9988669  35.4685946  64.9405063  35.4681717  36.3696487
  65.8880503  35.1911209  36.5829617  63.8613609  34.5086027  36.6251141
  62.8895534  34.9962562  36.5484111  63.9332892  33.3648363  35.5567631
  64.9213127  32.9048646  35.5750601  63.1775406  32.6098672  35.7734788
  63.6752524  33.9607534  34.1750272  62.6734983  34.3902988  34.1839774
  64.4078901  34.7520053  34.0160794  63.7784272  32.9482530  33.0595708
  64.7805475  32.5256300  32.9871573  63.0525933  32.1432250  33.1744380
  63.4822193  33.6766212  31.8138410  63.2730620  34.6610903  31.8985351
  63.5034960  33.1415363  30.6150473  63.2099528  33.9136170  29.5555220
  62.9786224  34.8871667  29.6925888  63.2219329  33.5169999  28.6267319
  63.8319168  31.8888763  30.4084130  64.0805892  31.2996511  31.1901263
  63.8346596  31.5191637  29.4685173  63.9425831  33.9420644  38.0426759
  65.0317148  33.8621690  38.6244781  62.7929202  33.5474382  38.5893041
  61.9065163  33.7903482  38.1705174  62.7843470  32.7879443  39.8385985
  63.2067758  33.4732450  40.5734563  61.3388154  32.4466001  40.2565419
  60.8686851  31.8735104  39.4573886  61.3227674  31.6264411  41.5500390
  61.7923487  32.1991050  42.3498196  60.2925618  31.3985529  41.8236124
  61.8719576  30.6971809  41.3984930  60.6558464  33.6515489  40.6172936
  59.7557075  33.4433523  40.8780703  63.6115832  31.5358755  39.6145314
  63.4612075  30.8702609  38.5845585  64.5065498  31.2430185  40.5505275
  64.6227744  31.8480962  41.3508225  65.3708832  30.0892365  40.4318810
  65.7421689  30.0151360  39.4097484  66.5716047  30.2009316  41.3833883
  66.8827340  31.2454668  41.3990037  66.2320490  29.9086118  42.3770438
  67.7624964  29.3170090  40.9674750  67.7537783  29.1766342  39.8865866
  68.6803523  29.8271584  41.2596910  67.7318580  27.9424868  41.6393463
  67.9087835  26.9160352  40.9701054  67.5291962  27.9084706  42.9580791
  67.5021196  27.0207418  43.4390219  67.4038374  28.7706128  43.4690560
  64.5821278  28.8274580  40.7206943  63.5047555  28.8716282  41.3168888
  65.1080069  27.6931192  40.2902937  65.9225882  27.6639651  39.6938822
  64.4281042  26.4507364  40.5835703  63.5150851  26.6620467  41.1402061
  64.0557909  25.6964022  39.2977955  63.3841795  26.3276412  38.7159238
  64.9697836  25.5196975  38.7307922  63.4220450  24.4576759  39.5701874
  63.2066852  24.0198105  38.7434506  65.2318927  25.5663236  41.5268667
  66.1910323  24.9119968  41.1142366  64.8703283  25.6004228  42.8123990
  65.2520426  24.9105695  43.4436645  63.8923432  26.5622372  43.3400648
  63.5845942  27.2300930  42.5354789  62.6413949  25.8700115  43.9102892
  63.0064256  24.9955402  44.4489466  62.1459494  26.5451937  44.6079731
  61.6390971  25.4245826  42.8275048  62.0137895  25.2850761  41.6478165
  60.4396485  25.2505556  43.1650173  64.5187629  27.4547143  44.4265495
  65.4813171  27.0648587  45.0933037  63.9494903  28.6466540  44.6110149
  63.1400257  28.9058229  44.0653979  64.4590484  29.5990948  45.5822620
  63.6174257  30.1452999  46.0082085  64.9720462  29.0498641  46.3717418
  65.4297093  30.5924466  44.9585959  66.3954316  30.1839119  44.3150115
  65.2691068  31.6902792  45.0826742  64.3552951  32.0808870  45.2628773
  66.3979443  32.6262669  44.8194237  66.3417729  33.5343991  45.4196237
  67.7535727  31.9358458  45.0592658  67.8105281  31.0569061  44.4171431
  68.9164772  32.8631526  44.7519009  68.8604576  33.7421682  45.3940021
  69.8559505  32.3409144  44.9328925  68.8688014  33.1728310  43.7079059
  67.8448446  31.3778379  46.4803255  67.0602414  30.6283001  46.5837259
  68.8191854  30.8988657  46.5769956  67.6886171  32.4202735  47.5579892
  66.7142565  32.8993916  47.4622439  67.7652710  31.9462987  48.5365449
  68.4731998  33.1699589  47.4555119  66.2740602  33.2564578  43.4303805
  65.4751312  34.1751366  43.6094157  66.4885816  33.3274807  42.4618903
  66.8501431  32.3855730  42.4151740  66.5723970  34.1800018  41.2375472
  65.8752602  33.7756057  40.5036786  66.2421344  35.6531618  41.4640645
  65.1776629  35.7232043  41.6878810  66.8171322  35.9926988  42.3255702
  66.5665264  36.5295227  40.2597093  67.6339997  36.7489009  40.2815010
  66.3281787  35.9769022  39.3509173  65.8070075  37.8323177  40.2447068
  64.6194446  37.8801235  39.9373341  66.4935028  38.9139111  40.5704644
  66.0370570  39.8148581  40.5777583  67.4713199  38.8344011  40.8105752
  67.9327448  33.9934463  40.5649634  68.9493535  34.1428903  41.2406691
  68.0535759  33.6990929  39.3704485  67.2677761  33.5235827  38.7606826
  69.4014089  33.5453077  38.8257180  70.1237602  33.9703011  39.5226313
  69.7452462  32.0785400  38.6026453  68.9748261  31.6518139  37.9604173
  70.7071197  32.0379568  38.0915167  69.8246379  31.2843902  39.8927093
  69.5310725  31.9000224  40.7429547  69.1515801  30.4306958  39.8133304
  71.2317970  30.7716287  40.1287262  72.1763528  31.2068421  39.4548904
  71.3946165  29.8718943  41.0969616  72.3147555  29.5025577  41.2894096
  70.5972153  29.5629920  41.6343926  69.4601978  34.3344694  37.5310452
  68.5398853  34.2363159  36.7200386  70.4979330  35.1680299  37.3776585
  71.2067118  35.2076383  38.0961035  70.6238487  36.0618005  36.2322270
  69.6704492  36.1187603  35.7069801  71.0373548  37.4666734  36.6425318
  71.9949306  37.4270731  37.1617432  71.1315690  38.0921000  35.7548013
  70.2823477  37.8891533  37.3055357  71.6366179  35.4721602  35.2710575
  72.7080111  35.0184106  35.6991705  71.2620830  35.4248297  33.9953685
  70.2922120  35.6100908  33.7829351  72.1472432  35.0513115  32.9046414
  72.9856977  34.4841596  33.3089087  71.4397646  34.1942103  31.8487017
  70.5593758  34.7431497  31.5145157  72.1273295  34.0674217  31.0124726
  71.0135233  32.8141976  32.3749223  71.9133449  32.2829869  32.6851433
  70.3687742  32.9714765  33.2395979  70.2733454  31.9911844  31.3349439
  69.3635870  32.5183657  31.0476836  70.9123384  31.8673233  30.4606180
  69.9084845  30.6136471  31.9000530  70.8332285  30.1196853  32.1982993
  69.2805787  30.7685187  32.7774630  69.1821280  29.7569214  30.9125859
  69.7639584  29.6129364  30.0996643  68.9669192  28.8650202  31.3348386
  68.3249988  30.2142615  30.6364181  72.6930076  36.3531121  32.3323980
  71.9173993  37.2167035  31.8737895  74.0143448  36.4871551  32.3351243
  74.5982483  35.6877518  32.5353999  74.6587960  37.7671960  32.0890288
  73.9703426  38.4820961  31.6384193  75.2152596  38.3779108  33.4161090
  75.7259418  39.3108882  33.1776640  74.0877052  38.6543753  34.4330482
  73.5768264  37.7217242  34.6723507  74.5137347  39.0783509  35.3423579
  73.3750845  39.3585820  34.0036692  76.2634838  37.4395087  34.0420911
  77.0884800  37.2982227  33.3438637  76.6407378  37.8796138  34.9651764
  75.8042730  36.4754952  34.2609615  75.7852550  37.5545013  31.0869624
  76.4919711  36.5369271  31.1590257  75.9399508  38.5396857  30.1665114
  75.1918948  39.2122118  30.0758451  77.0954305  38.6669721  29.2842769
  77.5144154  37.6769682  29.1041568  76.7260015  39.2969002  27.9329384
  75.8977543  38.7228519  27.5175176  76.3990583  40.3189180  28.1244787
  77.8941611  39.3115412  26.9296285  78.7411219  39.8441849  27.3621200
  78.1796395  38.2791676  26.7276163  77.5180436  39.9830665  25.6061276
  76.3360686  40.2459299  25.3528750  78.5105764  40.2821674  24.7661787
  78.3039401  40.7258510  23.8826925  79.4640212  40.0635374  25.0176649
  78.0954700  39.5285785  30.0524548  77.8641249  40.7423426  30.2282765
  79.1866143  38.9148387  30.5498355  79.2539385  37.9104284  30.6318521
  80.3013270  39.7238955  31.0289414  79.9814119  40.2468262  31.9302166
  81.5237683  38.8601003  31.3475277  81.8701430  38.3793529  30.4326469
  82.6502427  39.7295445  31.9268835  82.3047456  40.2102881  32.8420982
  83.5146833  39.1040719  32.1496555  82.9316132  40.4919794  31.2005070
  81.1987536  37.7814963  32.3684835  80.4433853  37.1355450  31.9209720
  82.1130279  37.2110877  32.5323002  80.6964277  38.3032493  33.6759461
  79.7818510  38.8734179  33.5129825  80.4890915  37.4684059  34.3453843
  81.4514933  38.9489627  34.1243097  80.6417046  40.7603352  29.9574668
  80.7117170  40.4533277  28.7614243  80.8418684  42.0068982  30.3573294
  80.6744628  42.3064360  31.3072514  81.2591853  43.0208571  29.3660606
  80.9561980  42.7189366  28.3634929  80.5914007  44.3568181  29.6970260
  80.8205977  44.5230333  30.7496135  81.0588013  45.1370752  29.0963301
  79.0809149  44.3957985  29.4938735  78.6073333  43.7335554  30.2186186
  78.5591625  45.8067568  29.6826595  79.0319771  46.4695406  28.9579093
  77.4793532  45.8182689  29.5344026  78.7905197  46.1482888  30.6915847
  78.7062231  43.8731288  28.1199629  79.0469395  42.8428564  28.0172469
  77.6236104  43.9110067  27.9990653  79.1785076  44.4894316  27.3549680
  82.7869545  43.0924239  29.3923357  83.3751919  42.7357982  30.4242470
  83.4478893  43.4689931  28.2801177  82.9195763  43.5561988  26.9909267
  82.0511435  44.2137687  27.0299984  82.6046786  42.5567442  26.6908786
  84.0217787  44.1016423  26.1113681  84.0044839  45.1914362  26.0991513
  83.9260214  43.7258182  25.0926983  85.2983825  43.5692667  26.7734502
  86.2061422  44.1520240  26.6170361  85.4697839  42.5395019  26.4599131
  84.9074241  43.6059974  28.2419336  85.3087187  42.7040696  28.7040883
  85.4881370  44.8442321  28.9464451  86.4335048  44.8395888  29.2720539
  84.9166663  45.6540993  29.0775455  95.9543917  59.7922376  29.9160267
  95.4974337  60.4689294  29.3215701  95.2575427  59.1606324  30.2842342
  96.7614120  59.4266826  29.4310655  96.4892489  60.4972469  31.0786571
  96.0313165  60.0918224  31.9808922  98.0173476  60.3496599  31.1936030
  98.2363636  59.2858564  31.1016603  98.4474812  60.8832199  30.3460189
  98.6232184  60.8844283  32.4933324  99.7055859  60.7732037  32.4284444
  98.3700736  61.9430695  32.5507387  98.1140428  60.1728919  33.7394239
  97.6505508  60.8526823  34.6905649  98.1653315  58.9242024  33.7692765
  96.0661997  61.9642161  31.1019939  96.1078094  62.6108757  32.1530534
  95.6444551  62.4908056  29.9668617  95.6738374  61.9554665  29.1109131
  95.1578623  63.8527218  29.9080761  95.8727921  64.5996243  30.2532011
  94.7583354  64.1867786  28.4536438  93.9855670  63.4850006  28.1398974
  94.2329459  65.6094382  28.3267403  95.0053749  66.3118547  28.6398922
  93.9625576  65.8062687  27.2893170  93.3540745  65.7305821  28.9599936
  95.8672312  63.9471467  27.5768767  95.6131437  64.1563565  26.6750612
  93.9627881  64.0378843  30.8350764  93.8825087  65.0157334  31.5904646
  92.9639232  63.1636414  30.7072710  93.0326966  62.3690495  30.0875990
  91.7055776  63.3793566  31.4213552  91.4081391  64.4253593  31.3471395
  90.6052342  62.5149336  30.8115697  91.0262690  61.5125830  30.8898148
  89.7591235  62.6072225  31.4925099  90.1373939  62.7571053  29.3881118
  90.9989432  62.7376278  28.7206882  89.1005606  61.6282974  28.9498727
  88.2384657  61.6474645  29.6165989  88.7723410  61.8130386  27.9270123
  89.5809279  60.6514633  29.0059338  89.4891779  64.1400789  29.2403123
  90.2135464  64.9113028  29.5022348  89.1652056  64.2817514  28.2092584
  88.6276759  64.2109561  29.9043076  91.8752236  63.0820221  32.9160891
  91.2884613  63.7638585  33.7752830  92.7188825  62.0918424  33.2160234
  93.0883990  61.5255177  32.4658013  93.0847959  61.7548376  34.5732423
  92.2218859  61.3727818  35.1186952  94.1622762  60.6710494  34.5426089
  94.7311251  60.7664158  33.6177222  94.8278719  60.8123882  35.3941403
  93.5223091  59.2530890  34.6141590  93.0134587  59.2171979  35.5774263
  92.7838381  59.2317849  33.8127172  94.6044326  57.8184611  34.4614968
  95.3654276  57.6696847  36.1228613  94.5846529  57.5204687  36.8686658
  96.0470399  56.8191952  36.1360126  95.9176631  58.5808162  36.3530281
  93.5538238  62.9881057  35.2951256  92.9416399  63.3851893  36.3082793
  94.6019909  63.6306661  34.7507886  95.0418842  63.2383850  33.9306003
  95.1239977  64.8896036  35.2827343  95.6565145  64.6960625  36.2138985
  96.0913677  65.5545762  34.2935079  95.5598325  65.6838083  33.3507096
  96.3587399  66.5315583  34.6961469  97.3198510  64.7640394  34.0621589
  97.6181640  63.8875691  34.8968530  97.9840664  65.0233686  33.0480380
  94.0175207  65.8987155  35.5467700  93.9072305  66.4954075  36.6237847
  93.2159510  66.1313433  34.5170538  93.3425828  65.6980945  33.6135278
  92.1622905  67.1125421  34.6659710  92.5601991  68.0326602  35.0939322
  91.5654164  67.4291204  33.2999840  92.3816326  67.5432489  32.5866363
  90.9345206  66.5928789  32.9987022  90.7552485  68.6753732  33.3291027
  89.7036869  68.4404150  33.1644407  90.8694911  69.1719238  34.2926836
  91.2398557  69.5809892  32.2411962  90.5965966  70.4584190  32.1746101
  92.2626227  69.8958106  32.4484025  91.2154862  68.8816877  30.9525117
  91.9554240  68.2215578  30.7606263  90.2817147  69.0704488  30.0310841
  89.3311124  69.9710041  30.1932153  89.3083031  70.5310873  31.0333858
  88.6306626  70.0961001  29.4764024  90.2996820  68.3350582  28.9186131
  91.0223361  67.6418905  28.7867426  89.5905542  68.4746844  28.2131055
  91.0748312  66.6599527  35.6475187  90.2982353  67.5008302  36.1090733
  90.9777020  65.3696375  35.9740132  91.4200697  64.6381875  35.4360623
  90.1262620  64.9850653  37.0970337  89.3526746  65.7443730  37.2115476
  89.4667489  63.6078760  36.8860282  90.2520502  62.9015953  36.6166403
  88.7058001  63.0850483  38.1699920  87.9199889  63.7906256  38.4397362
  88.2627552  62.1117087  37.9592266  89.4094286  62.9919424  38.9972389
  88.4703999  63.7177278  35.7607713  87.5407198  64.1330822  36.1497140
  88.8720417  64.3815220  34.9951600  88.2076356  62.3918335  35.1724684
  87.8055109  61.7275762  35.9374245  87.4859985  62.4901402  34.3614968
  89.1368339  61.9760148  34.7828724  90.9040442  65.0040260  38.4123167
  90.4340546  65.5748365  39.4028933  92.0929669  64.3678185  38.4542924
  92.4717782  63.8686412  37.6621918  92.8239911  64.3160375  39.7213644
  92.1721746  63.9207874  40.5004741  94.0589479  63.4152554  39.6124821
  94.4488211  63.2672602  40.6195548  93.7338251  62.4579988  39.2049838
  95.1618450  64.0047842  38.7177577  94.7949764  64.0035597  37.6913529
  95.3385794  65.0313764  39.0386559  96.4611835  63.2205509  38.7917754
  97.2715276  63.8396506  38.4068638  96.6624878  62.9650958  39.8321209
  96.3608382  61.9365000  37.9609871  97.2476396  61.3365927  38.1654254
  95.4732542  61.3953950  38.2888579  96.2675070  62.2032582  36.4922365
  97.0900686  62.7042746  36.1881400  96.2038229  61.3268515  35.9942852
  95.4456098  62.7587734  36.3025345  93.1979153  65.7270987  40.1736927
  93.5809276  65.9160614  41.3380649  93.0384970  66.7171421  39.2973525
  92.8804454  66.5125987  38.3209914  93.1626739  68.1156919  39.7006832
  93.9430557  68.2146358  40.4552119  93.5343163  68.9972110  38.4875077
  94.3316240  68.4844052  37.9495207  92.6504268  69.0600351  37.8527696
  93.9969215  70.4110008  38.8605061  94.2489748  70.3957563  39.9208539
  94.8941137  70.6182896  38.2772569  92.9627512  71.4948488  38.6013236
  92.6343857  71.4243325  37.5643557  92.1120722  71.3321902  39.2631293
  93.5549115  72.8991934  38.8595646  92.8293520  73.5955825  38.4392001
  93.5732377  73.0051544  39.9442468  94.9330256  73.2040619  38.2980160
  94.9161514  73.1063524  37.2928952  95.1936054  74.1493712  38.5400667
  95.6055676  72.5591555  38.6877364  91.8708466  68.6021219  40.3616408
  91.8477427  68.9079360  41.5559012  90.7930805  68.7125778  39.5871786
  90.8331394  68.4619811  38.6095815  89.5372569  69.2321727  40.1169919
  89.6733268  70.2549597  40.4684045  88.4750436  69.2297694  39.0261835
  88.9313884  69.6554597  38.1325189  88.2103245  68.1892998  38.8379100
  87.2339877  70.0078760  39.3748543  86.8133274  69.6055348  40.2964113
  87.4873113  71.0580676  39.5198607  86.1801694  69.9073587  38.2722064
  85.0634946  70.4162833  38.4142559  86.5315901  69.2400698  37.1751622
  85.8741040  69.1426584  36.4146857  87.4540777  68.8342900  37.1083727
  89.0337147  68.4323570  41.2994593  88.0687603  68.8657482  41.9348238
  89.6381088  67.2709388  41.5751721  90.2053427  66.8124103  40.8765330
  89.4771349  66.6245391  42.8615841  88.4345045  66.6839842  43.1738137
  89.8777780  65.1617428  42.7838089  90.9098433  65.2136477  42.4370432
  89.8577876  64.7940354  43.8097191  89.0919680  64.2172183  41.8928127
  89.0784550  64.5611900  40.8585972  89.8233012  62.8859337  41.9745078
  89.8368216  62.5410721  43.0084258  89.3113327  62.1508420  41.3535173
  90.8465487  63.0105692  41.6202044  87.6942243  64.0698441  42.2681887
  87.2002899  65.0403152  42.2200822  87.2041606  63.3789125  41.5822205
  87.6294497  63.6797257  43.2839204  90.3172711  67.3122427  43.9326378
  89.8845906  67.4270241  45.0833597  91.5345648  67.7279175  43.5809173
  91.9517680  67.4474070  42.7049295  92.3211675  68.5512878  44.4875030
  92.5919465  67.9857850  45.3791221  93.6346369  69.0006273  43.7616463
  94.2082425  68.1234588  43.4622280  93.3844904  69.5891933  42.8789703
  94.4662094  69.8491521  44.7195444  93.8903738  70.7457441  44.9489719
  94.6123131  69.2687925  45.6305539  95.8094919  70.2449480  44.1543931
  96.4581040  69.3814006  44.0071270  95.7101639  70.7885269  43.2148425
  96.4281365  71.1352529  45.1515872  95.8957828  71.3240317  45.9888813
  97.6228657  71.6663892  45.0359566  98.0744192  72.4673326  46.0155704
  97.4945452  72.6497068  46.8221594  98.9916953  72.8834294  45.9409539
  98.4068643  71.4199720  44.0136740  98.0946397  70.8006259  43.2794900
  99.3191309  71.8507182  43.9654434  91.5208815  69.7525284  44.9679334
  91.5453613  70.1049972  46.1618544  90.7780519  70.3874505  44.0679895
  90.7341672  70.0780002  43.1075656  90.0318483  71.5878404  44.4445721
  90.6487337  72.1997630  45.1026771  89.6411941  72.4251463  43.2205320
  88.6648579  72.0578013  42.9044237  89.5450698  73.4509039  43.5764556
  90.5997517  72.3856418  42.0469275  91.5868210  72.7035066  42.3827206
  90.6535976  71.3600348  41.6817836  90.1301117  73.2939421  40.9312851
  88.9715594  73.8022590  41.0673421  90.9056050  73.4953937  39.9547328
  88.7466186  71.2804006  45.2295303  87.9061809  72.1659238  45.4380058
  88.5167825  70.0327091  45.6323733  89.1149445  69.2861319  45.3084535
  87.3771504  69.6893173  46.4755018  86.7536809  70.5675128  46.6433041
  86.5332684  68.6150577  45.7847091  87.1666017  67.7760926  45.4963938
  85.7339516  68.2595694  46.4349557  85.8601639  69.1220683  44.4960879
  85.9129267  70.3789815  43.9825695  86.4833773  71.1169699  44.5465367
  85.2062588  70.4416761  42.8190237  85.1069725  71.2627983  42.2393686
  84.6555496  69.2164963  42.5616625  83.8694499  68.7936246  41.5139999
  83.6134137  69.4991322  40.7235551  83.4572448  67.4936893  41.5390254
  82.8117774  67.1350396  40.7372509  83.8358903  66.6013687  42.5623711
  83.5118689  65.5606432  42.5624611  84.6238899  67.0242455  43.5854087
  84.9399728  66.2900560  44.3264606  85.0376375  68.3605141  43.6120021
  87.7929853  69.2271176  47.8636735  87.2769334  69.6436744  48.8999234
  88.8480146  68.2566995  47.8417678  89.1566422  67.8788747  46.9574054
  89.5375652  67.8123649  49.0735184  89.2104187  68.4480545  49.8963022
  89.2563335  66.3606808  49.4385266  88.1824191  66.2374954  49.5786424
  89.5863910  65.7433200  48.6030461  89.9834638  65.9335651  50.7012818
  90.1208775  66.7782593  51.6079362  90.3922841  64.7634022  50.7763196
  91.0204566  67.9533219  48.7518985  91.4424686  67.6361604  47.6405149
  91.7989310  68.3861772  49.6078681  91.3802753  68.5364657  50.5146427
  93.2069768  68.8015602  49.4066620  93.3324210  69.1167100  48.3707838
  93.6245382  69.9613841  50.3274426  93.4368688  69.6317922  51.3493274
  94.6954487  70.1044212  50.1832515  92.8953199  71.2830831  50.0760812
  91.8350163  71.1200127  50.2691228  93.2874407  72.0057411  50.7916970
  93.0769971  71.8194731  48.6619850  92.0631082  72.0953057  47.9733787
  94.2416272  71.9752208  48.2372341  94.1195457  67.5925208  49.5537766
  95.3196400  67.8604504  49.5631759  93.8481329  66.3091136  49.6717393
  92.8630223  66.1446133  49.8220592  94.7574647  65.1516314  49.6755487
  95.6038265  65.3612502  50.3296366  94.0502263  63.8771998  50.1781209
  93.1834862  63.6796504  49.5473792  94.7793520  63.0765406  50.0539416
  93.5977610  63.9026433  51.6338564  93.2890236  64.9518195  52.2238560
  93.5004044  62.7252732  52.2361739  93.2053897  62.6778947  53.2009648
  93.7217153  61.8813352  51.7273607  95.3238731  64.9454845  48.2762425
  94.5957861  65.1025536  47.2948605  96.6296047  64.6241547  48.1967370
  97.1500566  64.5931571  49.0617620  97.3592850  64.4487884  46.9422577
  96.9788332  65.1550094  46.2042824  98.8703181  64.6923430  47.1237846
  99.0574630  64.4471132  48.1692215  99.4029892  63.9879241  46.4849141
  99.3639414  66.1176201  46.8364778  98.7990039  66.5140103  45.9927828
  99.1800126  67.0329416  48.0478563  99.7450697  66.6374226  48.8918788
  99.5406082  68.0328399  47.8064543  98.1230873  67.0818348  48.3098083
 100.8175376  66.1105796  46.4242017 100.9371242  65.5097805  45.5226259
 101.1444710  67.1313293  46.2259950 101.4211355  65.6855422  47.2261441
  97.1288443  63.1159064  46.2392493  96.9980990  62.0833413  46.8359342
  97.0839021  63.1901924  44.8847306  97.1147007  64.1381149  44.5374645
  96.9176875  62.0984558  43.9157018  95.9853438  61.5714258  44.1183681
  96.8751646  62.6347621  42.4804089  96.2617013  63.5357358  42.4833005
  97.8951354  62.8912345  42.1940848  96.2987918  61.6259098  41.4733352
  95.5175685  61.0584925  41.9791302  95.8619086  62.1895559  40.6489942
  97.3489596  60.6702432  40.9325598  98.1254805  61.2449127  40.4277140
  97.7883081  60.1184732  41.7635966  96.7173972  59.6845769  39.9420246
  95.9040320  59.1708971  40.4545387  96.3148605  60.2602726  39.1085751
  97.6957086  58.6776506  39.4256641  98.0685051  58.1438007  40.1977565
  97.2298794  58.0559105  38.7802630  98.4492531  59.1534092  38.9503501
  98.0178027  61.0595144  44.0894636  97.7688350  59.8601877  43.9327489
  99.2311226  61.5521955  44.4378790  99.2373642  62.5621356  44.4469060
 100.4874497  60.8457812  44.7181374 101.0240025  60.6440984  43.7910266
 101.3831289  61.7291812  45.6275065 101.5351260  62.6902107  45.1361631
 100.7813531  61.8717548  46.5250803 102.7338348  61.1355753  46.0107451
 103.6085201  61.0116012  45.1174338 102.9369833  60.8507441  47.2123506
 100.2936428  59.4618511  45.3514277 100.8875232  58.4812488  44.8836251
  99.4553588  59.3894134  46.3995883  99.0431103  60.2460168  46.7407351
  99.2099910  58.1637972  47.1408518  99.8029678  57.3447700  46.7338233
  99.6146292  58.3806563  48.6161776 100.6118991  58.8196531  48.6450524
  98.8888249  59.1042084  48.9873657  99.5832322  57.1444734  49.4857448
 100.5629261  56.3604935  49.4417400  98.6066650  56.9861784  50.2549139
  97.7621540  57.6570269  46.9882685  97.5438294  56.6322947  46.3388878
  96.7844684  58.3938181  47.5566826  97.1165753  59.2013562  48.0643108
  95.3538270  58.0737655  47.6177690  95.1926325  57.2448039  48.3069265
  94.5486972  59.2785228  48.1058264  93.4931767  59.0539007  47.9524620
  94.7435691  59.3955393  49.1718621  94.8788043  60.4813142  47.4303450
  94.3446424  61.1998213  47.7767819  94.7163443  57.5038756  46.3304158
  93.9927365  56.5127432  46.4126968  94.9143032  58.0217737  45.1962320
  95.5709729  58.7891606  45.1974819  94.1894631  57.7214020  43.9428439
  93.2254791  57.2619290  44.1612896  93.9483113  59.0219806  43.1778250
  94.8614026  59.5988420  43.3247758  93.8366081  58.7826337  42.1203112
  92.7482701  59.8423527  43.6429279  92.6049629  59.6819582  44.7114959
  92.9716190  61.3195567  43.3791241  93.1145541  61.4808090  42.3106363
  92.1037835  61.8850559  43.7184955  93.8572194  61.6556471  43.9184345
  91.4841788  59.3712989  42.9530971  91.3091652  58.3220953  43.1910916
  90.6385746  59.9671862  43.2965694  91.5941162  59.4852567  41.8746601
  94.8732191  56.6261953  43.0972210  96.1007598  56.5835497  43.0275776
  94.0858733  55.6608459  42.3957874  92.6750867  55.4615635  42.4901057
  92.1948311  56.4283772  42.3393542  92.4593021  55.1022234  43.4962919
  92.3005867  54.4548910  41.4257550  92.0836414  54.9523499  40.4804675
  91.4349830  53.8686777  41.7342764  93.5501499  53.5720293  41.3201151
  93.6713255  53.1313606  40.3305563  93.5893413  52.7862280  42.0744889
  94.6523809  54.5878760  41.5717827  95.4315172  54.0835570  42.1433658
  95.2431855  55.1369725  40.2891944  94.9081457  56.2357824  39.8511440
  96.1668744  54.3596097  39.6346565  96.3325638  53.4181120  39.9605837
  96.9648985  54.8556271  38.5196798  96.8664289  55.9381224  38.4383972
  98.4476576  54.5125354  38.7505188  98.9554699  54.4468176  37.7882781
  98.9087385  55.2964824  39.3512946  98.5581946  53.2634001  39.4328615
  99.4850427  53.0563361  39.5731357  96.5547144  54.3333642  37.1461171
  96.9486109  54.9320443  36.1425193  95.9483109  53.1438307  37.1036337
  95.8292762  52.6039942  37.9489186  95.4880694  52.5572146  35.8264190
  96.3170866  52.5671220  35.1187951  94.9951927  51.1187018  35.9811918
  94.2342328  51.0946035  36.7612293  94.5556429  50.8012853  35.0356006
  96.0968079  50.1512450  36.3508202  96.3990324  49.9635260  37.5263843
  96.7012627  49.5310997  35.3503846  97.4441949  48.8743959  35.5424566
  96.4169240  49.7173038  34.3992903  94.3911301  53.4838661  35.3204526
  93.7318204  54.0774643  36.1595742  94.2447559  53.7466935  34.0096798
  95.0400616  53.3668211  32.8598359  95.3144058  52.3188883  32.9809655
  95.9408061  53.9806060  32.8649883  94.1866096  53.6057810  31.6346866
  93.5827455  52.7277122  31.4056840  94.8066558  53.8543797  30.7733836
  93.3108749  54.7972028  32.0407861  92.3542224  54.7614476  31.5195985
  93.7612429  55.7805403  31.9054509  93.1034157  54.5211344  33.5210482
  93.0612280  55.4856621  34.0270174  91.8169340  53.7284441  33.8202869
  90.8212200  54.3594904  34.0988822  91.8618681  52.3963101  33.7191142
  92.7159377  51.9774559  33.3796654  90.6792095  51.5059855  33.9570235
  89.7615919  51.8930834  33.5140423  90.9221756  50.0621668  33.4594926
  90.1753253  49.4044487  33.9041518  90.8187075  49.9940241  31.9403478
  91.5656099  50.6511769  31.4949407  90.9926796  48.9701659  31.6093662
  89.8237348  50.3119301  31.6287964  92.2401098  49.4536921  33.9602809
  92.9874479  49.6661401  33.1957860  92.4965929  49.9860064  34.8762271
  92.2080617  47.9675177  34.2338071  91.9520829  47.4344682  33.3181473
  93.1877291  47.6404717  34.5822206  91.4612257  47.7543342  34.9985872
  90.2393374  51.5254698  35.4339934  89.0253000  51.3820483  35.6615947
  91.1613618  51.5943194  36.4078875  92.1437579  51.5852830  36.1735468
  90.7846535  51.6099741  37.8256487  89.8948832  51.0010140  37.9855721
  91.9216927  51.0404558  38.6648131  92.7642158  51.7227896  38.5522310
  91.6099334  51.0181175  39.7090387  92.3386247  49.6461249  38.2314761
  91.6290844  48.9961104  37.4185875  93.3788611  49.1845579  38.7324323
  90.4071390  53.0098059  38.3187185  89.4630179  53.1721660  39.1026397
  91.1441487  54.0239901  37.8981461  91.9932019  53.8762846  37.3714668
  90.7854942  55.3866171  38.2605212  90.8488432  55.5324667  39.3388597
  91.7828723  56.3470442  37.5726355  92.7788819  55.9561559  37.7806510
  91.6277884  56.3898940  36.4945757  91.7663883  57.7621682  38.0646499
  90.9028051  58.6884373  37.4912463  90.2285131  58.3565279  36.7017741
  90.8877178  60.0277192  37.9097691  90.1877864  60.7329995  37.4616884
  91.7500729  60.4459301  38.8780755  91.7482400  61.4874569  39.1995074
  92.6373759  59.5375340  39.4589575  93.3188018  59.8768274  40.2391107
  92.6560466  58.2007301  39.0466813  93.3648881  57.5028215  39.4922902
  89.3439179  55.6573431  37.8777178  88.5665854  56.1834625  38.6838819
  88.9473897  55.2536373  36.6663703  89.5658396  54.7543947  36.0431721
  87.6089769  55.5868219  36.1919250  87.4749273  56.6685454  36.1939209
  87.4027288  55.0709676  34.7654283  86.5734607  55.6336314  34.3366823
  88.3147401  55.2887545  34.2096367  87.1205520  53.6750874  34.6871667
  87.0036347  53.4233000  33.7681818  86.5288625  55.0283455  37.1038451
  85.4594391  55.6365642  37.2133373  86.7858000  53.8781490  37.7397981
  87.6516445  53.3953258  37.5466806  85.8340624  53.2530743  38.6502793
  84.8155000  53.3789701  38.2831554  86.1353704  51.7742913  38.7416488
  87.2164527  51.6671600  38.8304366  85.6553028  51.3534836  39.6251397
  85.6574940  51.0423085  37.5139675  84.4480043  51.3278335  36.9337234
  83.8319203  52.1015111  37.3919405  84.0037520  50.6707649  35.8063980
  83.0419284  50.9250815  35.3610664  84.7802078  49.6725300  35.2501403
  84.3659762  49.0221960  34.1307771  83.5178910  49.3349346  33.8074419
  85.9886371  49.3419982  35.8208314  86.6131361  48.5517163  35.4042308
  86.4119331  50.0437378  36.9597471  87.3653867  49.7987769  37.4277433
  85.8856981  53.9308861  40.0150935  84.8458027  54.3374167  40.5616247
  87.0818030  54.1172317  40.5751126  87.9152400  53.6460838  40.2533957
  87.1882939  54.9985308  41.7392060  86.8743730  54.4678074  42.6380306
  88.6086895  55.4476867  41.9190207  89.2737713  54.5874525  41.8431092
  88.9094001  56.2038895  41.1938790  88.8268696  56.0323131  43.2521578
  89.3610464  55.4104415  44.3506658  89.6550790  54.3678181  44.2299138
  89.4098003  56.2745942  45.4048391  89.7981934  56.0728040  46.3150759
  88.8663846  57.4639036  45.0225677  88.6917906  58.6360657  45.7420084
  89.0027561  58.6682031  46.7862145  88.1256500  59.7005863  45.0729630
  87.9717424  60.6388808  45.6058944  87.7366942  59.6111011  43.7090867
  87.3059898  60.4624535  43.1820266  87.8948765  58.4457210  43.0205436
  87.5587582  58.4134245  41.9841642  88.4860498  57.3458106  43.6690968
  86.2834958  56.2114097  41.6330166  85.4078703  56.4443664  42.4639427
  86.4018135  56.9269175  40.5130334  87.0784104  56.6831615  39.8038797
  85.5947187  58.1407822  40.3187073  85.5641528  58.8464446  41.1488913
  86.0960373  58.8827707  39.0575183  86.0995812  58.1840665  38.2209186
  85.2307370  60.0295932  38.7350734  85.2270533  60.7290095  39.5710783
  85.6083961  60.5311669  37.8440639  84.2152693  59.6787988  38.5510347
  87.5615523  59.2098373  39.2576419  88.1242032  58.2871255  39.3995179
  87.9403245  59.7345371  38.3805322  87.6761353  59.8435223  40.1370820
  84.1124941  57.7991003  40.2188144  83.2506306  58.5735666  40.6133095
  83.7937037  56.6484967  39.6252909  84.4960037  56.0065304  39.2865382
  82.3909011  56.3074642  39.4237086  81.8480052  57.1367426  38.9702105
  82.3038171  55.1033614  38.4956452  82.8351919  54.2619838  38.9404201
  81.2582412  54.8340420  38.3461850  82.7555943  55.3509189  37.5350663
  81.7226779  56.0008295  40.7568204  80.5437996  56.3196692  40.9953920
  82.4733410  55.3597126  41.6353573  83.4118883  55.0661594  41.4050209
  81.9580503  55.0334046  42.9338482  80.9465971  54.6410351  42.8284547
  82.8333939  53.9604161  43.5851239  83.8473393  54.3418425  43.7056586
  82.4248375  53.7010236  44.5618006  82.8523983  53.0730079  42.9524748
  81.8966445  56.2485483  43.8424978  81.0672660  56.2709758  44.7512229
  82.7566952  57.2535379  43.6540361  83.4067833  57.2843717  42.8816799
  82.8578992  58.2800737  44.6838225  82.2585066  58.0021522  45.5507639
  84.3078345  58.4300392  45.1227482  84.9622564  58.4013541  44.2515374
  84.4158546  59.3907591  45.6261854  84.7302719  57.3232767  46.0872560
  84.4877645  57.3740331  47.3177340  85.3508447  56.2992828  45.5419507
  85.6580513  55.5316423  46.1219955  85.5171433  56.2856001  44.5458290
  82.2540655  59.6148204  44.3028484  82.2852645  60.5373497  45.1190091
  81.6184044  59.6930361  43.2539417  81.4837224  58.9044464  42.6374303
  81.0008258  60.9652905  42.8947573  81.5981098  61.7974679  43.2673589
  80.9161117  61.0674580  41.3938255  81.1360130  60.0441659  41.0894968
  79.8654271  61.2851621  41.2020787  81.7781102  62.0213566  40.6073714
  81.4833162  63.0489785  40.8199525  83.2096092  61.8186623  41.0093097
  83.5052864  60.7913244  40.7965877  83.8456007  62.5029369  40.4477193
  83.3192197  62.0142840  42.0759953  81.5584051  61.7430505  39.0996415
  80.5082779  61.8958618  38.8506818  82.1736170  62.4232797  38.5106562
  81.8384840  60.7138752  38.8750241  79.5846380  61.0899353  43.4273450
  78.7814760  60.1796656  43.2036467  79.1953276  62.2699867  44.0202919
  79.9659864  63.3416014  44.4587745  80.5976153  63.6583872  43.6288396
  80.5928276  62.9875895  45.2772149  78.9997713  64.4185935  44.8970167
  78.7336657  65.0645642  44.0603515  79.4283123  65.0206691  45.6982401
  77.7880435  63.6234468  45.3980024  76.8202298  64.1232266  45.3573116
  77.9786913  63.2842415  46.4161835  77.7979758  62.4381736  44.4460372
  77.5564376  61.5520080  45.0329512  76.7714750  62.6094629  43.3462026
  76.1968654  63.6838586  43.2214400  76.4389967  61.5532599  42.6198252
  76.7715703  60.6291567  42.8554679  75.6319452  61.7110021  41.4174067
  75.3598571  62.7619288  41.3193236  76.4010771  61.2629074  40.1663618
  75.7071884  61.0057070  39.3660702  77.2720047  62.4146543  39.7259775
  77.9665207  62.6721426  40.5256324  77.8330123  62.1273165  38.8367036
  76.6462149  63.2772870  39.4971736  77.2683895  60.0458287  40.4945516
  78.0128154  60.3496450  41.2305044  76.6250706  59.2782743  40.9247848
  77.9660213  59.4913267  39.2710241  78.6099223  60.2582176  38.8404783
  78.5690467  58.6290468  39.5555113  77.2221769  59.1868489  38.5347574
  74.3342912  60.9459087  41.5219210  74.2064639  60.0094118  42.3039067
  73.3464162  61.3986871  40.7278657  73.3944075  62.3086346  40.2922149
  72.1520427  60.6010798  40.5246058  71.5459530  60.6291934  41.4301245
  71.3140002  61.1188048  39.3612510  71.9641463  61.2081932  38.4909528
  70.5390707  60.3789474  39.1607630  70.6698983  62.4583996  39.6493337
  70.6941204  62.9760691  40.7847511  70.1011947  63.0704539  38.7248502
  72.5853976  59.1573186  40.2895614  73.6033744  58.8851846  39.6377728
  71.8565646  58.2228087  40.8877151  71.2684536  58.4442033  41.6784169
  71.9180007  56.8307422  40.4361686  72.8980931  56.4089706  40.6589391
  70.8366472  55.9862060  41.1653148  70.0066905  56.6724034  41.3338505
  70.5103386  55.1750929  40.5143783  71.2962628  55.4158329  42.4899589
  72.5333095  55.2611317  42.7220209  70.4121271  55.0711691  43.2833989
  71.7136556  56.7349508  38.9080573  72.2754145  55.8349861  38.2595595
  70.9170375  57.6456961  38.3204872  70.3380563  58.2922705  38.8370351
  70.8553363  57.6743724  36.8617626  70.4466618  56.7303071  36.5014501
  69.9762780  58.8072109  36.3593699  69.8419667  58.7113728  35.2819309
  69.0051059  58.7582113  36.8518369  70.5845494  60.0386111  36.6468792
  70.0274648  60.7527283  36.3286134  72.2459882  57.8222251  36.2797480
  72.5908962  57.2045295  35.2765872  73.0836949  58.5905049  36.9225698
  72.8625226  59.0318692  37.8036939  74.3739188  58.8861130  36.3044920
  74.2651006  58.9715472  35.2233081  74.9090770  60.2182919  36.8507466
  74.5904175  60.3138097  37.8887407  75.9980760  60.2185898  36.8040448
  74.3623510  61.3988621  36.0375986  73.2745352  61.3488320  35.9901167
  74.7694300  62.6537928  36.7091027  75.8572030  62.7047597  36.7565497
  74.3904342  63.5069888  36.1465021  74.3608138  62.6749552  37.7193924
  74.9194250  61.3345480  34.6354085  74.6189884  60.3972157  34.1671720
  74.5345265  62.1711382  34.0522522  76.0074139  61.3888032  34.6732968
  75.3327719  57.7343270  36.5592301  76.1243071  57.3515476  35.6891761
  75.3028587  57.2135472  37.7782571  74.8101134  57.6814350  38.5255070
  76.0207855  55.9826234  38.0879741  77.0945569  56.1659161  38.1269349
  75.5571757  55.4620679  39.4706967  74.5722392  55.0161953  39.3321436
  76.2644375  54.6914134  39.7772461  75.4794924  56.5518284  40.5612119
  75.3129955  57.5167278  40.0823082  74.6438531  56.3266766  41.2238699
  76.7917007  56.6035825  41.3843339  77.6279498  56.5579771  40.6866903
  76.8160963  57.5534984  41.9183415  76.9304187  55.5176967  42.3534735
  76.4974178  54.6318202  42.1347676  77.5847068  55.6386417  43.5118381
  78.1118605  56.8008136  43.8944756  78.0193910  57.6133300  43.3017137
  78.6015505  56.8640128  44.7755597  77.7278973  54.5616895  44.3059742
  77.3410441  53.6731798  44.0213774  78.2215660  54.6468115  45.1829828
  75.7977998  54.9128669  37.0043157  76.7252346  54.2087561  36.6232191
  74.5560120  54.7246567  36.5746599  73.7971386  55.2852959  36.9350683
  74.2412796  53.6640415  35.6230923  74.7277182  52.7346244  35.9191674
  72.7196422  53.4628947  35.6093245  72.2361097  54.4376862  35.6731862
  72.2738431  52.7552550  34.3258896  72.7566380  51.7801290  34.2615529
  71.1918394  52.6241902  34.3396983  72.5553986  53.3572151  33.4619048
  72.2208257  52.6156059  36.7947864  72.4808079  51.5802611  36.5743975
  72.7714029  52.9485391  37.6746271  70.7363359  52.7161151  37.0618758
  70.1850595  52.3828878  36.1825841  70.4763699  52.0868688  37.9130902
  70.4756542  53.7511669  37.2828116  74.7935172  54.0375397  34.2560302
  75.4680743  53.2373462  33.5756061  74.5480986  55.2807169  33.8413710
  73.8502425  55.8649811  34.2792426  75.2252126  55.7855871  32.6488033
  74.8338364  55.3064881  31.7513692  74.9797031  57.2789767  32.5473257
  73.8968515  57.4032663  32.5564761  75.4022485  57.7117459  33.4541146
  75.5622854  57.9864800  31.3271609  76.6377615  57.8091833  31.3229402
  75.1220840  57.5683196  30.4219169  75.3150208  59.5008262  31.3382832
  76.1374234  60.3078101  30.8806424  74.1828804  59.8824821  31.8851642
  73.9522346  60.8648570  31.9281005  73.5485464  59.1917007  32.2600545
  76.6978951  55.4251496  32.6652977  77.2514661  55.0517350  31.6293119
  77.3466087  55.4448502  33.8390083  76.9259438  55.5667959  34.7491015
  78.7957669  55.3113332  33.7599273  79.1574174  55.8402468  32.8781345
  79.4767471  55.8872070  34.9823332  79.0902390  55.3931953  35.8737721
  80.5536896  55.7312803  34.9192326  79.1869580  57.3648269  35.0613954
  78.1171924  57.5665362  35.0064786  79.7315063  57.8176529  36.4555441
  80.8013781  57.6166724  36.5110423  79.5557265  58.8855119  36.5854647
  79.2175339  57.2668664  37.2433048  79.8910531  58.0899702  33.9090868
  79.5277607  57.7005426  32.9580535  79.6802185  59.1577495  33.9682248
  80.9665945  57.9280216  33.9803763  79.1974129  53.8700925  33.6155536
  80.2895542  53.5539465  33.1424731  78.3476612  52.9795802  34.1516356
  77.5284655  53.3122556  34.6398414  78.5911974  51.5171109  34.1019014
  79.6294013  51.3008210  34.3537949  77.6821945  50.8033105  35.1125550
  77.6481675  51.4833189  35.9637482  76.6867367  50.7171940  34.6769545
  78.1555204  49.4238196  35.5802221  78.5544808  48.8858868  34.7202455
  79.2322273  49.5361619  36.6528821  78.8338385  50.0736112  37.5134246
  79.5443501  48.5383019  36.9610307  80.0896846  50.0770389  36.2524830
  76.9868259  48.5989988  36.1025523  76.2511594  48.4671654  35.3091330
  77.3471359  47.6234440  36.4290040  76.5244714  49.1151628  36.9439215
  78.3384008  51.0485533  32.6714980  79.0774841  50.1946605  32.2210972
  77.3619423  51.6482482  31.9735010  76.8290564  52.3718983  32.4344377
  77.0145450  51.3028194  30.5669307  76.7490270  50.2478865  30.4982591
  75.8213932  52.1396961  30.0946190  76.0276549  53.1681431  30.3910176
  75.8065008  52.0716499  29.0068470  74.4686933  51.7141727  30.6478294
  74.1030994  50.9040926  30.0167889  74.6370692  51.3397884  31.6575759
  73.4441022  52.8232136  30.6867721  73.6228004  53.4139034  31.5852438
  73.5923776  53.4482669  29.8061915  72.0223433  52.3005545  30.7009894
  71.8433600  51.7748168  29.7630846  71.9243340  51.6026807  31.5325334
  71.0296537  53.3924966  30.8526437  71.1200152  54.0390426  30.0819864
  70.0980775  53.0023121  30.8573179  71.1950615  53.8795125  31.7218703
  78.2054164  51.5689964  29.6433944  78.3186039  50.8520458  28.6289136
  79.0644098  52.5415893  29.9712305  78.8841819  53.0818632  30.8053296
  80.2405256  52.9124104  29.1273489  79.9854808  53.0950986  28.0834732
  80.9777204  54.1480748  29.7024509  81.2178144  53.9585270  30.7486473
  82.2531306  54.4206793  28.9337432  82.0137851  54.6107898  27.8874772
  82.7530423  55.2925024  29.3557780  82.9121592  53.5552985  29.0037196
  80.0971921  55.4032368  29.7864880  79.3644698  55.2179827  30.5719176
  80.7504744  56.2228514  30.0857433  79.3807044  55.7716525  28.5053743
  78.7268369  54.9526504  28.2057198  78.7856590  56.6705131  28.6668360
  80.1128421  55.9575169  27.7195444  81.1476893  51.6757752  29.0485382
  81.2865841  51.0208814  30.0950593  81.7193344  51.3570253  27.8782017
  81.5312713  51.9507501  27.0830775  82.5633058  50.1400914  27.6704585
  82.4817735  49.4875704  28.5397501  82.1139605  49.3659741  26.4364013
  82.0746400  50.0604936  25.5972375  82.8655081  48.6014016  26.2396648
  80.7608855  48.7097911  26.6117890  80.2547005  48.5244128  27.7374073
  80.1248785  48.3486222  25.6045114  84.0426838  50.5129087  27.5527980
  84.8443809  49.5827120  27.3247151  84.4030821  51.7865994  27.7057396
  83.6662733  52.4483631  27.9039338  85.7634705  52.2904575  27.5577681
  86.4784683  51.4696051  27.5022829  85.8401218  53.1133273  26.2236276
  85.4940428  52.4846374  25.4032146  85.1916051  53.9850209  26.3112429
  87.1626677  53.5350483  25.9672981  87.1859283  54.0353823  25.1483203
  86.1459733  53.1441370  28.7781160  85.3462033  53.9614089  29.2543244
  87.3724540  52.9214074  29.2764758  87.9116724  52.1191418  28.9837083
  87.9230272  53.7813855  30.3090613  87.2488205  53.7665020  31.1654041
  89.2955800  53.2638137  30.7568640  89.9843273  53.2813225  29.9122217
  89.6820480  53.8996488  31.5533918  89.1972105  52.2421143  31.1236787
  88.0114852  55.2446265  29.8270501  87.4942861  56.1432933  30.5102141
  88.6615958  55.5229497  28.6567584  89.1145189  54.8022048  28.1131715
  88.8018140  56.9245865  28.2154388  89.3111557  57.5050135  28.9847077
  89.5906045  57.0306591  26.8789587  89.1587361  56.3351428  26.1593427
  89.5213785  58.4434610  26.3220299  89.9535147  59.1395385  27.0409423
  90.0799197  58.4938911  25.3873699  88.4809947  58.7113987  26.1378831
  91.0545286  56.6281123  27.0859159  91.5169526  57.4140735  27.6830171
  91.0491114  55.6972854  27.6530416  91.8540728  56.4328488  25.7904472
  91.8603279  57.3634544  25.2229668  92.8780361  56.1495541  26.0340502
  91.3924849  55.6466673  25.1929900  87.4259519  57.5560940  28.1187951
  87.1344628  58.6216881  28.6843826  86.5388999  56.8566565  27.4547183
  86.7492038  56.0104528  26.9450019  85.1943144  57.3905832  27.3746809
  85.2228322  58.3973734  26.9579563  84.3154187  56.5126224  26.4752982
  84.7755481  56.3948474  25.4942226  84.1703694  55.5317954  26.9281105
  82.9706461  57.2042331  26.3240097  82.5841972  57.4253440  27.3189309
  83.1748838  58.1371115  25.7985319  81.9289334  56.4458277  25.5642519
  82.1086626  55.2756887  25.1593196  80.7790219  57.1146191  25.3881963
  80.0177929  56.6806422  24.8859055  80.6799593  58.0489421  25.7587748
  84.5831831  57.5502978  28.7669940  83.7937800  58.4836696  28.9866048
  84.9346426  56.6686077  29.7235947  85.5645912  55.8979827  29.5521269
  84.3204974  56.7828712  31.0513004  83.2565592  56.9861665  30.9296211
  84.4832610  55.5061383  31.8856062  84.4225332  54.6408039  31.2256003
  85.4579329  55.5227821  32.3732922  83.3703113  55.4151897  32.9595560
  83.6923517  55.9644273  33.8442757  82.4624502  55.8685257  32.5615904
  83.1013105  54.0202213  33.3217835  82.6512939  53.9679347  34.3131715
  82.4300040  53.5642226  32.5941076  84.3436209  53.2767440  33.3364655
  85.0939243  53.6069408  33.9264775  84.5439731  52.1944556  32.6102997
  83.6207794  51.7580075  31.7457625  82.7517657  52.2622155  31.6423723
  83.7971199  50.9263321  31.2004923  85.6825518  51.5256287  32.7512474
  86.3775634  51.8505737  33.4081109  85.8482454  50.6950882  32.2009322
  84.9008838  57.9850570  31.8106423  84.1626851  58.7642761  32.4443245
  86.1961963  58.2412680  31.6082182  86.7408649  57.6079366  31.0404799
  86.8810101  59.4099587  32.2124021  86.6874048  59.4441452  33.2845249
  88.3944756  59.3008918  31.9909983  88.4824592  59.1507430  30.9149809
  88.8580051  60.2488521  32.2641496  89.1001586  58.1584775  32.7243981
  88.4194744  57.3094738  32.7873471  90.3669150  57.7396346  31.9906571
  91.0483307  58.5880507  31.9277160  90.8493161  56.9262744  32.5327227
  90.1112020  57.4043220  30.9855319  89.4180098  58.5395401  34.1621175
  88.4930493  58.7717139  34.6899838  89.9190175  57.7074509  34.6568095
  90.0700772  59.4129365  34.1713800  86.3240064  60.6848907  31.5683080
  86.3841590  61.7230998  32.2481679  85.8356968  60.6425854  30.3150702
  85.8488158  59.7953544  29.7654095  85.3571021  61.8782044  29.6793729
  85.9633250  62.7231518  30.0059566  85.4597200  61.7617281  28.1377025
  86.5103003  61.5731753  27.9167319  84.8681694  60.8896437  27.8590688
  84.9713951  63.0035129  27.3242405  83.8822606  62.9611740  27.3339516
  85.3054224  63.8791100  27.8808889  85.4969172  63.1057393  25.7852339
  84.6157542  63.1888841  25.1490440  86.0883177  64.0179984  25.7069504
  86.3014905  61.9883039  25.3222480  85.7868192  61.1660696  25.0409234
  87.6365499  61.9526233  25.2734905  88.3971894  63.0115162  25.5785273
  87.9614249  63.8786698  25.8582666  89.4032348  62.9382575  25.5274846
  88.2365919  60.8294833  24.8708650  87.6794421  60.0282766  24.6105730
  89.2447843  60.7864399  24.8285103  83.9463704  62.1818823  30.1453321
  83.5296815  63.3423493  30.2389036  83.1645344  61.1593045  30.4521497
  83.3845042  60.1885820  30.2806550  81.8569917  61.4836271  31.0044096
  81.3939358  62.2918028  30.4382556  80.9682268  60.2654814  30.9215358
  81.1162217  59.7776100  29.9581157  81.2305483  59.5741675  31.7223933
  79.1769652  60.5548975  31.0709850  78.8193242  59.2798864  30.9471387
  81.9899673  61.9960165  32.4331712  81.2077004  62.8573748  32.8613584
  82.9932829  61.5019269  33.1663991  83.6103370  60.7956938  32.7914612
  83.1463387  61.8815849  34.5684186  82.2044758  61.7406381  35.0986333
  84.2249410  61.0048109  35.2378537  85.0037890  60.7820021  34.5085723
  84.6577635  61.5523778  36.0750724  83.5952995  59.6595059  35.7603678
  83.2113889  59.8443562  36.7636344  82.7643306  59.4499007  35.0868282
  84.5500915  58.4486278  35.7906585  85.7864196  58.6757022  35.5202866
  84.0962468  57.3255681  36.0977463  83.4273645  63.3625610  34.6654515
  82.6027795  64.1039846  35.2109582  84.5267133  63.8232944  34.0306909
  85.1797098  63.1781266  33.6094387  84.8480646  65.2559822  34.0038403
  85.1154698  65.5975685  35.0037966  86.0203602  65.5075324  33.0764313
  86.6622104  64.6625482  33.3256886  85.6415355  65.3883615  32.0613500
  86.8204371  66.7957406  33.1700606  87.6356426  66.7128919  32.4512582
  86.0126721  68.0818270  32.8861545  85.1975110  68.1656112  33.6048974
  86.6663758  68.9493897  32.9761943  85.6034479  68.0390911  31.8767935
  87.5045205  66.9551886  34.5291483  88.1868503  66.1211404  34.6931273
  88.0638727  67.8905452  34.5474402  86.7509258  66.9676443  35.3165737
  83.6421560  66.1075773  33.5983241  83.3947346  67.1621403  34.1999998
  82.8370234  65.6427905  32.6355195  83.0703777  64.8105549  32.1129977
  81.6174019  66.3724910  32.2727781  81.8361513  67.4363336  32.1806535
  81.0680002  65.8641906  30.9255126  81.7849567  66.0951804  30.1376571
  80.9680598  64.7828577  31.0194865  79.6945305  66.4794704  30.5688267
  79.5890035  67.7230957  30.4384229  78.7194661  65.7122294  30.3870014
  80.5234773  66.2745113  33.3297985  79.5776970  67.0798984  33.3133582
  80.6195793  65.3154555  34.2352903  81.3198123  64.5920529  34.1549056
  79.6717370  65.2422989  35.3461045  78.7340689  65.6379885  34.9558388
  79.4653842  63.7898472  35.7971740  80.4443738  63.3562170  36.0012440
  78.6038232  63.6925448  37.0348840  77.6244441  64.1255864  36.8314333
  78.4865406  62.6457540  37.3151955  79.0781652  64.2360119  37.8520390
  78.6998389  62.9260030  34.7924280  77.6500024  63.2166749  34.8305605
  79.0978470  63.1332967  33.7990910  78.8291975  61.3894289  35.0982144
  78.4309399  61.1812770  36.0912721  78.2676900  60.8221839  34.3558926
  79.8787855  61.0978992  35.0598048  80.1372088  66.0949194  36.5239195
  79.3461387  66.8539052  37.0992644  81.4256227  65.9860646  36.9068375
  82.0611617  65.3175537  36.4953978  81.9341924  66.8742777  37.9500764
  81.3697680  66.6983236  38.8658080  83.4132607  66.6508614  38.2392949
  83.9773637  67.2330656  37.5106486  83.6091635  67.0347777  39.2404594
  83.8523706  65.1523437  38.1609878  83.5233227  64.5904774  39.0351357
  83.4782953  64.6701571  37.2578455  85.7195992  65.1782919  38.1148454
  86.0416392  66.4271783  39.3330055  85.6270116  66.1157849  40.2917636
  87.1177055  66.5698018  39.4322047  85.5783435  67.3643638  39.0245551
  81.7789141  68.3138164  37.5337219  81.6338426  69.1905352  38.3796842
  81.8283799  68.5749662  36.2215714  82.0443067  67.8526994  35.5494065
  81.6260476  69.9382551  35.7332662  82.3453319  70.6003236  36.2153394
  81.8147369  70.0360561  34.1964939  81.3025649  69.2026161  33.7157061
  81.3560652  70.9736313  33.8823714  83.2899922  70.0338696  33.7461741
  84.2092430  69.9740533  34.5761120  83.5041574  70.0646097  32.4378307
  84.4501213  70.0648338  32.0839211  82.7203195  70.0876551  31.8013027
  80.2363530  70.4428684  36.1156106  80.1005067  71.4797861  36.7553734
  79.1786250  69.6934703  35.7924263  79.2980173  68.7938309  35.3491502
  77.7870098  70.2005629  36.0047143  77.7692132  71.2880023  35.9322024
  76.8549217  69.6240281  34.9370255  76.7774759  68.5551009  35.1357614
  75.8822054  70.0923935  35.0872151  77.3062723  69.8414222  33.4974976
  78.2431242  70.3976953  33.5286342  77.4817029  68.8596682  33.0576279
  76.2987176  70.5972995  32.6580472  75.3427671  70.0808704  32.7449878
  76.2083056  71.6005414  33.0744975  76.6909087  70.6905477  31.1978075
  75.8703637  71.1598364  30.6550602  77.5798387  71.3170371  31.1242297
  76.9745279  69.3604357  30.6100761  76.1508166  68.7799036  30.6777662
  77.2309828  69.4691159  29.6392417  77.7351177  68.9255923  31.1125832
  77.2387244  69.8940606  37.4034453  76.0179880  70.0173200  37.5785643
  78.1017741  69.5392373  38.3578392  79.0810017  69.4646579  38.1219353
  77.6848506  69.2216153  39.7533427  76.8104157  68.5709291  39.7449662
  78.8167533  68.5065873  40.4801214  79.7242194  69.1100757  40.4599624
  78.5383101  68.3045290  41.5144046  79.2597123  66.9134693  39.7612388
  80.2250317  66.6317427  40.6316910  77.3177124  70.5108356  40.4914949
  77.7171843  71.5827696  40.0090339  76.5760537  70.4211677  41.6042442
  76.1576668  69.5507786  41.9000053  76.3024126  71.6426674  42.4055963
  77.1559885  72.2946381  42.2200120  75.0298571  72.3332807  41.8737271
  74.1723443  71.6913884  42.0755844  74.8207347  73.6914088  42.5496080
  75.6776934  74.3340542  42.3477959  73.9170827  74.1578093  42.1572017
  74.7183677  73.5504346  43.6255949  75.2187482  72.6725565  40.4947865
  74.4285530  73.1027745  40.1599667  76.1542727  71.3184011  43.8887197
  77.0553944  70.6662275  44.4299897  75.0915980  71.8081129  44.5262617
  74.4977155  72.4486948  44.0192531  74.7629413  71.5161496  45.9457990
  75.6784391  71.2765381  46.4866773  74.1055605  72.6967470  46.6114642
  73.2280993  72.9834689  46.0318509  73.7979373  72.4073833  47.6163208
  74.9997093  73.7943476  46.6889622  74.5616551  74.5344177  47.1155822
  73.8593478  70.2813046  46.0022853  73.4317029  69.8505510  44.9248563
  73.6493388  69.6941845  47.1838095  74.1067528  70.0785061  47.9981611
  72.7945774  68.4845309  47.3578960  72.3881873  68.1633334  46.3988452
  73.6459156  67.3471564  47.9349815  74.3254466  67.8631963  48.6132438
  73.0000469  66.6803988  48.5062851  74.4575579  66.5291416  46.9233232
  73.8166446  66.2993836  46.0721228  75.6850663  67.2922668  46.4427973
  76.3267322  67.5219917  47.2934383  76.2359159  66.6818522  45.7272141
  75.3722216  68.2198376  45.9633798  74.8578013  65.1868265  47.5203036
  73.9622714  64.6271078  47.7901935  75.4330288  64.6200297  46.7882135
  75.4650323  65.3510543  48.4104714  71.6222827  68.7936269  48.2908621
  71.8601352  68.7843531  49.5143694  70.4009732  69.0024521  47.7729593
  70.2669271  69.0569696  46.7733800  69.2434849  69.1843231  48.6348792
  69.5162706  69.7682365  49.5139311  68.1513800  69.9283571  47.8756846
  67.3278544  70.1825468  48.5429870  68.5499652  70.8388126  47.4281349
  67.4249812  68.9824643  46.5225917  66.5685318  69.9246840  46.1383849
  68.7121276  67.8196383  49.1178252  68.8854932  66.7664512  48.4788421
  67.9956535  67.8644845  50.2338447  67.9022428  68.7353517  50.7368008
  67.3678561  66.6752388  50.7907262  68.0944268  65.8667634  50.8717359
  66.8293913  66.9830452  52.1740164  67.5970913  67.4896858  52.7588685
  66.5492081  66.0539783  52.6704357  65.3685956  68.0502959  52.0952343
  66.2461899  66.1879908  49.8698503  65.5452767  66.9737587  49.2180446
  66.1028861  64.8588253  49.8082461  66.6845759  64.2515311  50.3676477
  65.1686350  64.2462553  48.8609516  65.4391795  64.5331151  47.8447743
  65.2047003  62.7176021  48.9643334  66.2303740  62.3985978  48.7790523
  64.9193188  62.4489824  49.9814375  64.2635901  62.0210649  47.9673553
  63.2439973  62.3278066  48.2006810  64.5253646  62.3634818  46.9661926
  64.3623115  60.5056239  48.0260309  65.3796109  60.2062563  47.7738801
  64.1264369  60.1735279  49.0370575  63.3817498  59.8659260  47.0366603
  62.3768087  60.1922707  47.3044160  63.6280419  60.2307017  46.0394752
  63.4401275  58.3707183  47.0489786  63.2115184  58.0324880  47.9727956
  62.7771307  58.0024223  46.3819753  64.3711336  58.0681048  46.8004795
  63.7536229  64.7832440  49.0658365  63.0740066  65.1658218  48.0976620
  63.3229618  64.8679490  50.3369923  64.0171906  64.8491435  51.0703353
  61.9171938  64.8961738  50.7174299  61.3535093  64.1579314  50.1470290
  61.7914847  64.5622963  52.2121500  61.8137408  65.5149091  52.7414257
  60.8135388  64.0984626  52.3409137  62.8925688  63.6215202  52.7895399
  62.4834531  63.2076477  53.7111878  63.1172136  62.8110103  52.0962070
  64.1780085  64.3491945  53.1152634  64.2609496  65.5476414  52.9089143
  65.1951461  63.6259660  53.5605359  66.0697488  64.0767171  53.7885603
  65.0911212  62.6273016  53.6698496  61.2464919  66.2217850  50.3893253
  60.1935806  66.2265372  49.7389113  61.8843190  67.3518752  50.7292058
  62.7263335  67.2802619  51.2823632  61.3575647  68.7114495  50.4161535
  60.2898842  68.6207467  50.2163253  61.5538243  69.6551437  51.5995716
  60.9803584  69.2928983  52.4528097  61.2106214  70.6538013  51.3293964
  63.2619791  69.7739272  52.1865763  62.0031502  69.2615369  49.1332843
  61.3150317  70.0438954  48.4513180  63.2423827  68.8595748  48.7910883
  63.7201258  68.2478090  49.4373108  63.9615138  69.2805630  47.5508619
  64.9261305  68.7742482  47.5153779  63.1808591  68.9388003  46.2740321
  62.4009076  69.6947887  46.1831672  63.8859038  69.0439694  45.4494404
  62.5517937  67.5533967  46.2297192  63.3287876  66.8086760  46.0571722
  62.0641283  67.3545145  47.1840412  61.5240824  67.4415815  45.1305046
  61.8377210  67.1327425  43.9851368  60.2723988  67.6909671  45.4788964
  59.5379562  67.6326937  44.7880275  60.0570524  67.9384745  46.4341280
  64.2206921  70.7855009  47.5870466  64.4528366  71.3487274  46.5013980
  64.2741533  71.4001073  48.7751358  64.1475214  70.8458352  49.6099088
  64.3700546  72.8801485  48.9177431  64.4635523  73.3325251  47.9304676
  63.1233782  73.4603877  49.6084371  63.0303912  72.9481279  50.5660605
  63.3256678  74.5175242  49.7806041  61.8189413  73.3124771  48.8225244
  61.9308719  73.8557717  47.8842263  61.6918406  72.2502308  48.6137725
  60.5966796  73.8329293  49.5674350  59.4672144  73.7673857  49.0190798
  60.7613765  74.3017775  50.7133558  65.6440711  73.3638881  49.6050123
  66.1821442  74.3568702  49.0921324  66.1317713  72.7194550  50.6736557
  65.6904621  71.8650748  50.9824921  67.2419057  73.2417560  51.4521262
  67.3971671  74.3055305  51.2721906  67.0633937  73.0207168  52.9583082
  67.9766968  73.3424201  53.4587927  65.8809204  73.7952509  53.5158841
  64.9671266  73.4737394  53.0161734  65.7946942  73.6070518  54.5860454
  66.0315252  74.8613392  53.3459589  66.9334703  71.6268113  53.2451343
  66.8225097  71.5036826  54.1907174  68.5123983  72.5706477  50.9346216
  68.5809436  71.3467379  50.8679020  69.4816036  73.3599329  50.4643037
  69.2965769  74.3031302  50.1540727  70.8235260  72.8199401  50.2740430
  70.7545403  71.9477049  49.6240078  71.8005324  73.8276846  49.6427881
  72.7419203  73.2986476  49.4944379  71.3825390  74.1029432  48.6744833
  72.0507020  75.0913682  50.4675887  71.0837135  75.5418481  50.6914232
  72.5277041  74.7762761  51.3956432  72.9352953  76.1122659  49.7635821
  73.3111526  77.1363487  50.3884876  73.2682904  75.8872590  48.5805778
  71.3170092  72.2860356  51.6251452  70.9855220  72.8213964  52.6910504
  72.1003644  71.2103297  51.5930589  72.3598452  70.7532981  50.7305676
  72.5704784  70.6326813  52.8532526  72.2782022  71.2611328  53.6945150
  72.0538287  69.1829872  53.0850112  72.5801482  68.5189334  52.3993577
  72.2895531  68.7101022  54.5472844  71.7631236  69.3734452  55.2335415
  71.9144737  67.6935641  54.6658859  73.3565513  68.7313104  54.7690141
  70.5647018  69.0505983  52.7261110  70.4062821  69.6141550  51.8066503
  70.3732922  67.9935672  52.5413217  69.6230691  69.5528634  53.7917561
  69.8135789  70.6100173  53.9767737  68.5935199  69.4226639  53.4583258
  69.7805909  68.9894306  54.7114464  74.0946609  70.6381737  52.8725775
  74.7034859  70.6924287  53.9434003  74.7189495  70.4948223  51.6938718
  74.2045824  70.2326538  50.8651417  76.1655230  70.6485765  51.5900413
  76.4485115  71.6115723  52.0150775  76.9066238  69.5496716  52.3388527
  76.5822268  69.5292443  53.3792611  76.6014638  68.2305790  51.6945290
  76.9260223  68.2500849  50.6541536  77.1279979  67.4365407  52.2240231
  75.5282198  68.0448414  51.7363547  78.3173929  69.7815891  52.2850678
  78.7747307  69.0836576  52.7597613  76.5537643  70.6631166  50.1178258
  75.7003553  70.6406264  49.2142505  77.8696094  70.7314688  49.8785716
  78.5524590  70.6708832  50.6202893  78.3454025  70.9254848  48.5167421
  77.5704361  70.6157459  47.8156088  78.7156984  72.3958990  48.2249649
  79.1026608  72.4556734  47.2077199  77.5263774  73.3136150  48.3649859
  77.1391245  73.2547286  49.3821718  77.8303356  74.3383203  48.1512393
  76.7492141  73.0117484  47.6628503  79.7374859  72.7946384  49.1489185
  79.9808851  73.7081764  48.9821690  79.5678783  70.0691629  48.2380937
  80.2192328  69.5413334  49.1488294  79.9108783  70.0112343  46.9433678
  79.3282890  70.4635658  46.2533785  81.0533551  69.2310864  46.4798013
  80.9284865  68.1883940  46.7718622  81.1753367  69.3009557  44.9537952
  81.9251451  68.5707945  44.6492444  80.2084480  69.0252529  44.5328271
  81.5786976  70.6934103  44.4415276  80.8518684  71.4116484  44.8209404
  82.5635850  70.9253458  44.8468728  81.6241308  70.7724694  42.9252112
  82.2800050  69.9872420  42.5492513  80.6181969  70.6238357  42.5326497
  82.1519170  72.1384486  42.4730965  83.1330087  72.2832886  42.9254029
  82.2525920  72.1146164  41.3880178  81.2511963  73.2661079  42.8651942
  81.1581190  73.2886329  43.8706438  81.6450444  74.1388897  42.5438911
  80.3421678  73.1323102  42.4458322  82.3344380  69.6620175  47.1449044
  83.2039002  68.8248968  47.4205464  82.4608779  70.9631573  47.4216485
  81.7168899  71.5894674  47.1490377  83.6731540  71.5388905  48.0090664
  84.5560371  71.2220924  47.4538586  83.5761879  73.0840121  47.9452938
  82.8552300  73.4460043  48.6782880  84.5641604  73.4785504  48.1826752
  83.1506435  73.6122269  46.5126504  81.9603294  73.8359773  46.2074976
  84.1346247  73.8382831  45.6732855  83.9332283  74.1761981  44.7430421
  85.0883757  73.6732122  45.9617496  83.9304312  71.0365277  49.4338492
  85.0851507  71.0437113  49.8847297  82.8814288  70.6255894  50.1624538
  81.9630969  70.6236150  49.7420230  83.0087394  70.1961623  51.5857926
  83.7570427  70.8096742  52.0875342  81.6774323  70.3494914  52.3222956
  80.9966330  69.6026768  51.9137866  81.8653716  70.1325191  53.3738192
  81.0515217  71.7299393  52.1937597  80.6351817  71.7901619  51.1882076
  80.2433941  71.7706718  52.9240813  81.9980253  72.8970377  52.4204890
  82.4674863  73.0602024  53.5640740  82.2633259  73.6359078  51.4536175
  83.4680015  68.7339797  51.6640123  83.9540811  68.3435658  52.7359129
  83.3956176  67.9783247  50.5672261  83.0583142  68.3872402  49.7075087
  83.7238492  66.5239811  50.5771043  83.1744148  65.9802179  51.3455719
  83.4614223  65.8758713  49.2020022  83.8828916  66.5212860  48.4313506
  84.0899691  64.4913875  49.1041010  83.6686289  63.8452263  49.8741976
  83.8838170  64.0668545  48.1215666  85.1677611  64.5702164  49.2464023
  81.9600385  65.8327853  48.8966721  81.5305390  65.0621911  49.5368405
  81.5538243  66.8048046  49.1764362  81.6156688  65.5394941  47.4563156
  82.0211817  64.5673574  47.1759423  80.5323727  65.5291004  47.3360624
  82.0444693  66.3099702  46.8155375  85.1760262  66.3485214  51.0101665
  85.9839810  67.2158705  50.6463676  85.4848155  65.3049465  51.7925989
  84.7293962  64.7316820  52.1401746  86.8687662  64.9815528  52.2218286
  87.5573320  65.1806408  51.4006464  87.2899092  65.8221413  53.4271246
  88.3747311  65.9263613  53.4470994  86.8315372  66.8094938  53.3711772
  86.8893496  65.2362274  54.7535004  85.5646079  65.2479021  55.1527751
  84.8136695  65.6840289  54.4940000  85.1876796  64.7128822  56.3757664
  84.1392387  64.7192653  56.6738129  86.1352571  64.1753405  57.2107154
  85.8421458  63.7664950  58.1776855  87.4531534  64.1529275  56.8269916
  88.2029712  63.7222382  57.4906030  87.8317050  64.6757593  55.5998997
  88.8777662  64.6476677  55.2948310  86.9477457  63.4893259  52.5387626
  85.9035299  62.9472150  52.9548566  88.1056492  62.8436235  52.3362314
  88.9133626  63.3474760  51.9988425  88.2250004  61.4169231  52.5446185
  87.2419232  60.9554243  52.4514667  89.1631171  60.7787333  51.5206640
  88.7147062  60.8804597  50.5323934  90.1133053  61.3122769  51.5446133
  89.3848759  59.4063903  51.7997046  89.9764140  59.0372139  51.1398628
  88.7258344  61.0955421  53.9429509  89.7112919  61.6789600  54.3996926
  88.0347221  60.1602958  54.6074869  87.1266901  59.8862617  54.2603809
  88.5114841  59.5573584  55.8396401  89.4131546  60.0690520  56.1761800
  87.4486679  59.6663522  56.9366260  86.5202380  59.8651071  56.4012630
  87.3703478  58.7116313  57.4566973  87.6983672  60.7772377  57.9495823
  88.0930098  61.6471440  57.4245859  86.4025119  61.1623572  58.6744926
  86.0074923  60.2930150  59.2001374  86.6090400  61.9569464  59.3914828
  85.6688886  61.5111558  57.9476936  88.7622152  60.4293903  58.9958966
  89.7100661  60.2263243  58.4974567  88.8853376  61.2673022  59.6820787
  88.4491504  59.5467301  59.5535706  88.8958132  58.1042784  55.6441005
  89.3009535  57.4425717  56.6172739  88.7506047  57.5699214  54.4186952
  88.4036318  58.1361396  53.6577050  89.0541968  56.1711063  54.1552522
  89.6159430  55.7593876  54.9937200  87.7919914  55.3570313  53.9726234
  88.0508909  54.3057539  53.8465832  87.1542458  55.4710566  54.8491956
  87.1048952  55.8111308  52.8303636  86.3036106  55.2956185  52.7129333
  89.9128731  56.0200732  52.9136544  89.8320444  56.8294211  51.9880310
  90.7361733  54.9667177  52.9006953  90.8295051  54.3315796  53.6804312
  91.5808148  54.7560619  51.7341851  92.1408438  55.6622469  51.5033273
  92.5972185  53.6008717  52.0291395  93.1752922  53.8378013  52.9223328
  92.0581228  52.6661360  52.1832337  93.5401062  53.4536707  50.8372885
  92.9472775  53.1104284  49.9894443  93.9495803  54.4397895  50.6181931
  94.6702082  52.4838040  51.0863528  95.3073250  52.8060156  51.9099795
  94.3041455  51.4762258  51.2835424  95.4716425  52.4613486  49.8505985
  95.2046403  51.7912468  49.1436523  96.4789330  53.2667318  49.6021057
  97.1343289  53.1420742  48.4362405  96.8472392  52.4376027  47.7718614
  97.9112339  53.7533802  48.2293029  96.8498497  54.2073060  50.4357093
  96.3530666  54.3308851  51.3063613  97.6307872  54.8042943  50.2036744
  90.7110652  54.4403448  50.5183038  91.0001638  54.8749253  49.3917844
  89.6251654  53.6905440  50.7304485  89.4215138  53.2971731  51.6381294
  88.7719669  53.3124432  49.6031410  89.4030033  52.9519453  48.7907781
  87.7642735  52.2078323  49.9707290  88.3430104  51.3830569  50.3865515
  87.1155455  52.6214012  50.7428772  86.9112945  51.6967283  48.8086497
  86.3100347  52.5290328  48.4427856  87.5994080  51.3750398  48.0269109
  85.9976082  50.5391493  49.1879875  85.2400537  50.0415317  48.3172125
  86.0425487  50.1129754  50.3617635  88.0776351  54.5452816  49.0137017
  87.8539667  54.6363946  47.7905746  87.7057217  55.5016578  49.8608586
  87.7789606  55.3857946  50.8615140  87.1753234  56.7587235  49.3477070
  88.0467787  57.3838312  49.1530144  86.6917299  56.5063424  48.4040226
  86.1884826  57.5378441  50.2202764  85.5857600  57.0253634  51.1410592
  85.9525032  58.7923514  49.8815153  86.3520886  59.5002373  48.7384803
  86.3535052  58.8053418  47.8987074  87.3647901  59.8656955  48.9087008
  85.3561923  60.6236402  48.5607565  84.5079598  60.2982809  47.9584759
  85.8260230  61.4868592  48.0893614  84.9306491  60.9488316  49.9980420
  83.9366406  61.3811259  50.1127921  85.6662224  61.6000362  50.4702327
  84.9716696  59.5707147  50.6377561  85.3791742  59.6935885  51.6412202
  83.6245742  58.9715093  50.7241955  82.7897290  59.4964369  51.4706529
  83.3257664  58.0621641  49.8233902  84.0573099  57.7996267  49.1783959
  82.0258218  57.4379461  49.6789852  81.3246253  57.8726637  50.3913357
  81.4960566  57.6528435  48.2935459  81.5457701  58.7225772  48.0903281
  82.1571513  57.1222599  47.6083198  80.1226470  57.1845200  48.1063880
  79.9975426  56.7892450  47.0983169  79.8921016  56.4052837  48.8328463
  79.0231214  58.5328299  48.3380146  79.0592651  59.4587222  46.8152674
  78.7336796  58.8206963  45.9936738  78.3915141  60.3165326  46.8950826
  80.0747378  59.8059243  46.6245653  82.1983437  55.9629332  49.9759318
  83.2008634  55.3400984  49.6117313  81.2434242  55.4115962  50.6825684
  80.3928122  55.8862374  50.9495408  81.4296700  54.0405089  51.1140369
  81.7430323  53.4372761  50.2619727  82.4582437  53.8701058  52.2403463
  82.1533860  54.4611266  53.1039760  82.5177812  52.8190116  52.5227584
  83.4350912  54.2089881  51.8953435  80.0948637  53.5169048  51.6068818
  79.1698992  54.2851665  51.9982533  79.9830727  52.1998207  51.4750211
  80.7462810  51.6973552  51.0447412  78.8504456  51.4429158  51.9585237
  77.9280341  52.0226313  51.9929641  78.6095927  50.1917798  51.1152364
  79.5218379  49.5963053  51.0789191  77.8085648  49.6016104  51.5603820
  78.3263084  50.4835974  50.1039542  79.1923572  50.9992813  53.3602851
  80.1961746  50.2931203  53.5534876  78.3541541  51.3477546  54.3211477
  77.6618005  52.0647210  54.1577312  78.4323820  50.7508294  55.6527463
  79.1480269  49.9288462  55.6355643  78.8857396  51.7776996  56.7131548
  78.1911797  52.6171632  56.7445684  78.8738924  51.2608919  57.6727743
  80.2832407  52.2894493  56.4330230  81.3810620  51.5173610  56.7447744
  81.2338281  50.5504730  57.2259702  82.6272344  51.9462150  56.4609092
  83.5000392  51.3378344  56.6979465  82.7906959  53.2032627  55.8522972
  84.0615627  53.6727987  55.5509344  84.7568883  53.0596817  55.8003524
  81.7014264  53.9889842  55.5404773  81.8233415  54.9691582  55.0795044
  80.4676031  53.5231520  55.8167193  79.5904743  54.1157568  55.5567874
  77.0696245  50.1883041  55.9897616  76.0413006  50.6600724  55.4734423
  77.0814692  49.1492558  56.8206751  77.9763007  48.8116818  57.1453590
  75.8734213  48.4377681  57.2485812  74.9854053  48.8114895  56.7388174
  76.0021415  46.9273454  56.9701205  76.3615534  46.7954206  55.9495725
  76.9876330  46.2426830  57.9588681  76.6286198  46.3737949  58.9796620
  77.0515839  45.1787742  57.7305944  77.9745392  46.6948301  57.8604767
  74.6529676  46.3101019  57.0610659  73.9931100  46.7675800  56.3239066
  74.7283760  45.2403264  56.8661464  74.2466689  46.4691389  58.0599300
  75.6290535  48.6952391  58.7315876  76.5811040  48.7214328  59.5188353
  74.3569644  48.8848218  59.0974790  73.6755236  49.0110393  58.3627634
  73.9186404  49.0230472  60.4728262  74.7082662  49.4424567  61.0962731
  72.7179369  49.9821277  60.4897846  72.5561991  50.3255938  61.5115337
  72.9708183  50.8327280  59.8568311  71.4337240  49.3630716  59.9782694
  71.3283327  48.1637295  59.7867439  70.4307844  50.2108447  59.7722500
  69.5445682  49.8666229  59.4313219  70.5595820  51.1953038  59.9575940
  73.6090497  47.6809291  61.1335370  73.8115270  46.6246534  60.5362309
  73.2033728  47.6628741  62.4005486  73.3656637  48.6587599  63.4090520
  72.4376881  49.2246178  63.4913109  74.1731063  49.3274166  63.1106669
  73.6903426  47.8895012  64.6695588  73.4043028  48.4573590  65.5548937
  74.7537110  47.6547685  64.7169879  72.8537003  46.6123321  64.5291309
  71.8094932  46.7125998  64.8252339  73.3070231  45.7834992  65.0728533
  72.9446356  46.3622837  63.0325824  73.8238022  45.7407653  62.8626433
  71.7136189  45.6518147  62.5016806  71.6878330  44.4142848  62.5024822
  71.6355645  45.8337481  61.2993908  72.1669703  46.4376424  60.6886380
  70.4928215  45.1225752  60.7435839  70.4289637  44.1189883  61.1641010
  69.1998490  45.8852712  61.0911698  69.2363822  46.8935936  60.6787982
  68.3270768  45.3639112  60.6980379  68.9817027  46.0335655  62.5715474
  69.5360151  47.0905730  63.2838528  69.1409365  46.9288753  64.5410941
  69.4746032  47.6670051  65.2704293  68.3727084  45.8402968  64.6807449
  67.9384641  45.4880474  65.5218467  68.2697469  45.2551643  63.4269137
  67.6913537  44.3402792  63.2982750  70.6569536  44.8881055  59.2228789
  69.6932595  44.5802412  58.5141876  71.1127087  45.1903512  59.4726023
  71.8335071  45.7140719  59.9482763  71.4331754  44.5830427  58.2001466
  72.4847948  44.2983179  58.2337260  70.8179141  43.6883303  58.1050538
  71.1965860  45.4887949  56.9711953  71.3402384  45.0397412  55.8368053
  70.8464160  46.7319754  57.1891039  70.6463302  47.0301507  58.1331148
  70.6207991  47.6640545  56.1174311  70.2962223  47.1430000  55.2167361
  69.5417857  48.6253704  56.5314744  68.7503161  48.0214693  56.9752971
  69.9342405  49.3150612  57.2787400  68.9968191  49.3908364  55.3945188
  69.7108653  50.4676354  54.8460556  70.6896507  50.7203691  55.2537370
  69.1808198  51.2121903  53.7898408  69.7372209  52.0520578  53.3737371
  67.9410877  50.8721361  53.2645966  67.4303303  51.5992615  52.2131964
  68.0119134  52.3086612  51.9301540  67.2140205  49.7886517  53.8204599
  66.2405558  49.5163499  53.4126382  67.7494293  49.0678950  54.8958548
  67.1817329  48.2506422  55.3407353  71.9141029  48.3381852  55.7157907
  72.7801103  48.5718521  56.5424526  72.1163519  48.4327778  54.4163279
  71.3831674  48.1401246  53.7863327  73.3684029  48.9131259  53.8441957
  74.1807717  48.9169358  54.5709292  73.8114276  48.1040336  52.6176620
  72.9581343  47.9282700  51.9626070  74.8772398  48.8973843  51.8633062
  75.7311045  49.0731499  52.5176171  75.2004138  48.3325196  50.9888996
  74.4616416  49.8532742  51.5444736  74.2929112  46.7066976  52.9899143
  73.4856164  46.1621199  53.4796206  74.5953451  46.1738777  52.0883954
  75.1426026  46.7833455  53.6683319  73.1591087  50.3664931  53.4658288
  72.2835266  50.6737509  52.6337070  73.9479430  51.2547657  54.0930872
  74.5789000  50.8961455  54.7955003  73.9338709  52.6979633  53.8441765
  73.0337385  53.0015500  53.3096712  73.9492839  53.3873141  55.2022999
  74.6734171  52.9229416  55.8716940  74.2083651  54.4363298  55.0589718
  72.6403008  53.3649019  55.9095855  71.4524450  53.6853985  55.2822462
  70.4658572  53.6215164  56.1604281  69.4371464  53.8249205  55.8629726
  70.9807213  53.2919610  57.3325519  70.4654469  53.2027032  58.1966267
  72.3317597  53.0878958  57.1965459  72.9227369  52.7626827  58.0527489
  75.1302515  53.1812749  52.9987953  76.2846541  52.7406817  53.2109399
  74.8620037  54.1523445  52.1026028  73.9118664  54.4561268  51.9443157
  75.9332469  54.7636523  51.2988823  76.8305348  54.1507717  51.3846202
  75.5611072  54.8795917  49.8236958  74.5549511  55.2927972  49.7529114
  76.2662305  55.5569738  49.3419753  75.6033364  53.5246110  49.1284821
  76.5584419  53.0539660  49.3616505  74.7959434  52.9533668  49.5866259
  75.4129443  53.5557990  47.6508542  74.2526977  53.8277041  47.2525184
  76.4400478  53.3497158  46.9043925  76.2569887  56.1362729  51.8504781
  75.4638329  57.0880109  51.7233259  77.4355047  56.2563343  52.4239895
  78.1460691  55.5600742  52.2495776  77.7574999  57.3654321  53.3182188
  76.8806230  57.9823457  53.5146973  78.3124705  56.8306726  54.6425522
  79.1473137  56.1630539  54.4294271  78.7666640  57.9171186  55.4886618
  77.9322067  58.5849552  55.7026146  79.1561933  57.5124071  56.4227797
  79.5535003  58.4718534  54.9775286  77.2393719  55.9971916  55.3616167
  77.1049763  55.0649026  54.8130953  77.5937493  55.7777286  56.3687673
  75.9018436  56.7394045  55.4417606  75.5465809  56.9588164  54.4349108
  75.1704569  56.1166659  55.9569007  76.0353546  57.6716441  55.9905811
  78.7916476  58.2462461  52.6459455  79.9531316  57.8277009  52.4797982
  78.4044957  59.4919505  52.3247169  77.4244285  59.7299203  52.3789207
  79.3457956  60.5226675  51.8812499  80.2338137  60.0564216  51.4544741
  78.7017304  61.4006363  50.8218289  78.5291760  60.7272707  49.9822439
  77.7485762  61.7998230  51.1685955  79.6012990  62.5487654  50.3757349
  79.9931405  63.1052622  51.2271293  80.7517210  61.8879367  49.6289480
  80.3606790  61.3315934  48.7770871  81.4435346  62.6527856  49.2761013
  81.2757667  61.2056359  50.2982328  78.9529437  63.6312284  49.5535073
  78.1474972  64.0903952  50.1266750  79.6945793  64.3884365  49.2991185
  78.5468370  63.1994040  48.6387920  79.7786500  61.3926569  53.0569581
  78.9650052  62.1532671  53.5751301  81.0730353  61.3324179  53.4230879
  81.6620894  60.6182846  53.0191966  81.6540722  62.2255845  54.4261525
  80.9689843  62.3387359  55.2663611  82.9642982  61.6162191  54.9406809
  83.4544770  62.3558854  55.5737044  82.7394169  60.3554557  55.7262386
  82.2496575  59.6151029  55.0936936  83.6975449  59.9638676  56.0679235
  82.1076606  60.5714024  56.5878369  83.8287519  61.2761312  53.8599367
  84.6401741  60.8975482  54.2061582  81.9226559  63.6509865  53.9225792
  82.3971262  63.8493350  52.8058466  81.6530954  64.6453838  54.7791842
  81.1581963  64.4092285  55.6273616  81.9765244  66.0542468  54.5323062
  82.8669724  66.1712061  53.9146315  80.8015369  66.7809533  53.8459418
  81.1656521  67.7219415  53.4335580  80.2091723  65.9295824  52.7248950
  79.8443994  64.9885554  53.1366108  79.3829059  66.4660287  52.2584084
  80.9768388  65.7256697  51.9784305  79.7335206  67.1485952  54.8802853
  80.1680060  67.8047717  55.6344451  78.9086860  67.6610790  54.3852016
  79.3626917  66.2419534  55.3583935  82.3524020  66.7742376  55.8367043
  82.2004134  66.2365234  56.9411719  82.8453492  68.0299291  55.6844577
  82.8223805  68.4485798  54.7655979  83.3320485  68.8358420  56.8002664
  83.7308900  68.1692358  57.5648976  84.4343516  69.8198338  56.3838313
  84.0944520  70.2889449  55.4605208  84.4647474  70.5644448  57.1792750
  85.7896038  69.2581445  56.1818839  86.1884934  68.1201286  56.8617257
  85.4963899  67.6354331  57.5503203  87.4467149  67.6011090  56.6735392
  87.7692870  66.7157331  57.2214065  88.3105983  68.2152655  55.7753637
  89.5693942  67.7080870  55.5629397  89.7516156  66.9248229  56.0872414
  87.9262319  69.3372916  55.0839284  88.6034264  69.8148707  54.3758139
  86.6740198  69.8568246  55.2924772  86.3594272  70.7524880  54.7568293
  82.2895883  69.7518228  57.3976690  82.3725956  70.0960792  58.5703984
  81.4148284  70.2814302  56.5561132  81.4294387  69.9966910  55.5871914
  80.4768379  71.3170522  56.9558342  80.2773030  71.2185560  58.0228785
  81.0135644  72.7268959  56.6861037  81.9784257  72.8133053  57.1857789
  81.1523177  72.8262404  55.6095452  80.0759711  73.8387655  57.1866223
  79.1683116  73.8060049  56.5839765  79.8291053  73.6239041  58.2263308
  80.6980910  75.2209221  57.0895660  81.6628339  75.2117834  57.5968003
  80.8430698  75.4713535  56.0386784  79.7878878  76.2665703  57.7426412
  78.8465761  76.2792125  57.1932115  79.6039412  75.9534407  58.7703633
  80.3852092  77.6373173  57.7389383  80.5553378  77.9278325  56.7867004
  79.7464951  78.2840580  58.1792458  81.2572480  77.6259143  58.2483668
  79.1933474  71.0278252  56.2070821  79.1763556  71.0498186  54.9712574
  78.1302887  70.7509662  56.9315434  78.2268586  70.5679326  57.9201143
  76.8083686  70.6405757  56.3359241  76.8423631  70.8877373  55.2748611
  76.2439305  69.2215750  56.4911897  76.1952284  68.9630917  57.5489773
  75.2433997  69.1788713  56.0608238  76.8917900  68.5137070  55.9741789
  75.9173468  71.6750468  56.9985987  75.8969478  71.7852454  58.2261646
  75.1885045  72.4252454  56.1893009  75.2841635  72.3018540  55.1914415
  74.2731239  73.4446101  56.6726310  74.5680648  73.7767062  57.6680310
  74.3034828  74.6420602  55.7309757  74.2220749  74.3146291  54.6945101
  73.4880745  75.3282437  55.9598020  75.8184653  75.6149122  55.8304802
  75.4694666  76.5101339  54.9108737  72.8456058  72.9014227  56.7728973
  72.4710582  71.9357854  56.1040439  72.0570134  73.5183265  57.6578864
  72.4846674  74.1641602  58.3060456  70.6204997  73.2509370  57.7883783
  70.1925194  73.9438768  58.5127860  69.8821249  73.4219765  56.4482764
  70.0562249  72.5640986  55.7987889  68.8219481  73.4814510  56.6944229
  70.2834749  74.6993140  55.6930685  71.3707082  74.7837118  55.1132145
  69.3828525  75.6692135  55.6474153  69.5960584  76.5298015  55.1636473
  68.4869540  75.5438304  56.0965763  70.3405840  71.8543796  58.3553675
  69.3646003  71.2140995  57.9543298  71.1510413  71.3986429  59.3167285
  71.9206009  71.9688757  59.6372155  70.9894842  70.0646164  59.8934716
  70.0424128  69.6344527  59.5677199  72.1310797  69.1386716  59.4415025
  72.9973504  69.6909185  59.8057798  72.0229094  68.2160747  60.0117780
  72.3268875  68.8016919  57.9551392  72.4021575  69.7269777  57.3839288
  73.5976974  67.9871827  57.7698530  73.5229774  67.0614667  58.3404366
  73.7287955  67.7526885  56.7134788  74.4534640  68.5627661  58.1226527
  71.1200363  68.0673481  57.3535691  70.2324093  68.6939463  57.4407037
  71.3113910  67.8535070  56.3020194  70.9583641  67.1325502  57.8903315
  70.9410943  70.1012077  61.4155532  71.9727365  70.2247351  62.0801089
  69.7496255  69.9461485  61.9700509  68.8933151  69.9625609  61.4347355
  69.6580861  69.7902148  63.4083576  70.2898398  70.5310146  63.8984617
  68.2270526  69.9830682  63.8815803  67.6345795  69.1636680  63.4745691
  68.1691833  69.9669415  64.9699236  67.6569156  71.2722255  63.3929023
  66.8386286  71.2877365  62.4809989  68.1279430  72.3808277  63.9759497
  67.7813530  73.2850028  63.6888217  68.8278841  72.3082947  64.7004649
  70.1638239  68.4142218  63.8155414  70.4155520  67.5325583  62.9796751
  70.3290646  68.2543654  65.1140245  70.1276182  69.0227327  65.7378278
  70.8421389  67.0277280  65.6810742  70.9675735  66.2843058  64.8938711
  72.1819583  67.2613823  66.3431964  72.0837851  68.2954472  66.6736069
  72.2564584  66.6082090  67.2126297  73.4444546  67.1168724  65.4864217
  73.3659535  66.1923739  64.9143718  73.6161884  68.2728147  64.5465692
  73.6952321  69.1976810  65.1179476  74.5225416  68.1314975  63.9577959
  72.7557883  68.3306296  63.8798837  74.6082132  66.9387038  66.4839921
  74.4359539  66.0483821  67.0887678  75.5439217  66.8294188  65.9357151
  74.6679658  67.8122798  67.1331404  69.8337087  66.4673495  66.6821389
  69.2056105  67.2068465  67.4477188  69.6383287  65.1574666  66.6430791
  70.1199775  64.5973631  65.9543137  68.7155375  64.4962074  67.5423447
  68.2583765  65.2280032  68.2083612  67.6140174  63.7398671  66.7781353
  68.0249082  63.2708208  65.8841192  67.0600297  62.6601014  67.7119017
  66.6485173  63.1284485  68.6059986  66.2749831  62.1038845  67.1996269
  67.8616772  61.9782592  67.9957179  66.5069739  64.6922892  66.3149682
  66.2226123  65.3023188  67.1723497  66.9303021  65.3309421  65.5397166
  65.2640359  63.9720313  65.7635711  64.8398547  63.3334990  66.5384559
  64.5229916  64.7095343  65.4552823  65.5475452  63.3621202  64.9058236
  69.5271052  63.5486792  68.3987967  70.1404389  62.6113448  67.8759355
  69.5327561  63.7877369  69.7072621  69.2095554  64.6727652  70.0710829
  69.9994668  62.7925711  70.6429244  69.2023493  62.5901272  71.3582701
  70.2318422  61.8816664  70.0912419  71.2199878  63.2362854  71.3865250
  71.3958076  64.4598021  71.6638143  72.0664887  62.3036505  71.7423656
  71.8832647  61.3324876  71.5341087  73.2693092  62.6325189  72.4701201
  73.5970703  63.6343011  72.1924435  73.0288454  62.5954878  74.0174484
  72.2325767  63.2907325  74.2833247  72.7473865  61.5876279  74.3225703
  74.3165752  63.0011379  74.7291099  75.0842309  62.2760855  74.4587310
  74.6010145  63.9859356  74.3584757  74.1778177  63.0500921  76.2328106
  73.4534326  63.8005200  76.5493913  73.9002932  62.0806375  76.6466189
  75.5039566  63.4241710  76.7550229  76.2485296  63.5321239  76.0811857
  75.7666530  63.6531005  78.0212270  77.0210324  63.9847060  78.3720462
  77.7386609  64.0529882  77.6646235  77.2403078  64.1641001  79.3414974
  74.8455351  63.6018173  78.9527471  73.8922412  63.3791146  78.7042829
  75.0935083  63.7852530  79.9144952  74.2414353  61.5706544  71.9848650
  73.8847793  60.3965545  71.9305067  75.4746965  61.9342740  71.7190764
  76.1737907  63.1212039  72.0859495  76.4959121  63.0275768  73.1230474
  75.4934330  63.9676397  71.9923614  77.3357126  63.2064136  71.1225790
  78.1564912  63.7787015  71.5549075  77.0273904  63.6667112  70.1838751
  77.7273646  61.7382386  70.9099363  78.3650145  61.3154332  71.6862978
  78.1958945  61.5928785  69.9365660  76.3654573  61.0637408  70.9358062
  75.9904107  61.0560900  69.9123904  76.4493293  59.6395761  71.4537814
  76.3550735  59.3901241  72.6553923  76.6581879  58.7194159  70.5090565
  76.6205858  59.0065440  69.5414601  76.8887365  57.3210136  70.8012370
  77.2544871  57.2289098  71.8239015  75.6133906  56.4809841  70.6593352
  74.9182458  56.7681900  71.4482495  75.1657946  56.6897652  69.6876520
  75.9011556  55.0740568  70.7624665  75.0872526  54.5733850  70.6703281
  77.9697481  56.7496142  69.8879761  78.2313695  57.2412091  68.7659678
  78.5527993  55.6298721  70.3635128  78.2299391  55.2273379  71.2317448
  79.6561591  54.9785757  69.6677973  79.7202620  55.3726174  68.6535384
  80.9695627  55.2678148  70.3868979  81.7897864  55.1823746  69.6741333
  80.9569247  56.6532692  70.9725228  80.1371943  56.7393352  71.6857789
  81.9021229  56.8417319  71.4816213  80.8222838  57.3841254  70.1751386
  81.0692758  54.3012173  71.4396313  81.8848731  54.4411078  71.9262852
  79.5343949  53.4626125  69.5558775  80.5399985  52.8053255  69.2016541
  78.3709997  52.8891567  69.8765159  77.7132205  53.3473461  70.4909167
  78.0793904  51.5296139  69.4431381  78.8382188  50.8653629  69.8567190
  76.6932758  51.0342439  69.8941824  76.6733679  51.1097830  70.9813791
  75.9624243  51.7222732  69.4692450  76.3490991  49.6030818  69.4763075
  76.3753199  49.5576867  68.3875685  77.1249257  48.9557902  69.8852157
  74.9861108  49.1363338  69.9709288  74.5923282  47.9768928  69.6875974
  74.3049734  49.9283577  70.6564477  78.2622332  51.4558206  67.9302448
  77.9339980  52.4050858  67.2058256  78.8195536  50.3440098  67.4560615
  79.3334429  49.7239981  68.0656536  78.7488040  50.0162828  66.0371339
  79.4066193  49.1760164  65.8150287  77.3037167  49.6264170  65.6547359
  76.8142661  49.1160284  66.4842182  76.7518778  50.5342372  65.4109400
  77.1871115  48.7206716  64.4646794  77.5312225  47.3790918  64.4909938
  77.3412194  46.8681607  63.2845535  77.5672676  45.8191307  63.0934059
  76.8744672  47.8173090  62.4846755  76.6269858  47.7126573  61.5110735
  76.7788373  48.9845893  63.2001366  76.4219822  49.8932857  62.7153411
  79.2205232  51.1742498  65.1558789  78.7715543  51.3060448  64.0045549
  80.0831930  52.0552208  65.6497056  80.4414242  52.0097594  66.5929463
  80.4996114  53.1631328  64.8075442  79.6219916  53.7036206  64.4529237
  81.3874592  54.1309504  65.5838594  81.0544112  54.1474329  66.6216006
  82.4145161  53.7687842  65.5381457  81.3240819  55.4500909  65.0432814
  81.8921984  56.0323950  65.5529532  81.2465641  52.6452148  63.5772306
  82.1590579  51.8177258  63.6671590  80.8790764  53.1630524  62.4227701
  80.1351452  53.8427424  62.3543070  81.5314854  52.7222499  61.1896855
  81.5279916  51.6341996  61.1246198  80.7721258  53.2839788  59.9939942
  80.7107755  54.3688976  60.0793558  81.2595861  53.0208918  59.0552356
  79.3739360  52.7845856  59.9020551  78.9133680  51.4859619  60.1654611
  79.6422593  50.7431349  60.4895372  77.5560417  51.4341950  59.9419852
  76.9728460  50.6202328  60.0740757  77.1178418  52.6747151  59.5296290
  75.8471765  53.1005142  59.2013030  75.0321195  52.3811055  59.2802452
  75.6855311  54.4034852  58.7952312  74.6984798  54.7639892  58.5056341
  76.7537509  55.2706719  58.7461324  76.6187138  56.3036856  58.4255903
  78.0406255  54.8572981  59.1039349  78.8528382  55.5814927  59.0410568
  78.2308095  53.5393894  59.5013223  82.9899522  53.1594169  61.1226889
  83.8381466  52.4379339  60.5882261  83.2909609  54.3683634  61.6333092
  82.5142658  54.9341352  61.9443498  84.6369123  54.9146177  61.7564763
  85.3042926  54.3775071  61.0825216  84.6794157  56.4027101  61.4033510
  84.0996430  56.9616381  62.1379001  85.7113384  56.7536420  61.4124277
  84.1336358  56.7441435  60.0929661  84.8574153  56.4662162  58.9600409
  85.8338628  55.9872135  59.0321977  84.3457381  56.7943887  57.7352490
  84.9074993  56.5655761  56.8296167  83.1055297  57.4215978  57.6455784
  82.7120534  57.7125636  56.6716096  82.3679500  57.6771860  58.7994444
  81.3796605  58.1328471  58.7381495  82.8836170  57.3578541  59.9897845
  82.3269079  57.5759961  60.9011511  85.1381551  54.7414424  63.1841499
  84.8137219  55.5796061  64.0522454  85.9782606  53.7387491  63.4696349
  86.5875212  52.7602995  62.6196285  87.2952883  53.2657461  61.9625975
  85.8082854  52.2897085  62.0200998  87.2610614  51.7847491  63.5578924
  88.0915342  51.2813891  63.0628745  86.5501707  51.0418405  63.9195864
  87.7506923  52.6775117  64.7044832  88.6911261  53.1893953  64.5003793
  87.8328039  52.1279897  65.6422373  86.6200581  53.6899722  64.7939045
  85.8907581  53.2964493  65.5019719  87.1026688  55.0467568  65.2681707
  87.4627385  55.9098237  64.4422814  87.0840444  55.2740946  66.5857658
  86.7237694  54.5728475  67.2170769  87.5694888  56.5076798  67.1424995
  87.9607493  56.2819846  68.1345055  88.3812032  56.8531646  66.5022970
  86.5346922  57.6035619  67.2594337  86.8092840  58.6145577  67.9221681
  85.3510822  57.4446985  66.6485264  85.1147234  56.5555194  66.2318797
  84.3923270  58.5412938  66.5315308  84.7317602  59.3701377  67.1527410
  84.2380215  59.0408112  65.0891490  84.2119308  58.1646656  64.4412390
  83.2730146  59.5464493  65.0546270  85.3169863  59.9839986  64.6160013
  86.5533971  59.4989714  64.1923115  86.7424218  58.4258504  64.2202471
  87.5347328  60.3625246  63.7401631  88.5010331  59.9866679  63.4038638
  87.2717334  61.7344314  63.7153212  88.2245485  62.6338465  63.2779543
  89.0437359  62.2114932  63.0093480  86.0441428  62.2210180  64.1344533
  85.8367806  63.2909744  64.1172887  85.0870424  61.3449085  64.5730375
  84.1158088  61.7171016  64.8990400  83.0283789  58.1061306  67.0465109
  82.7488745  56.9100359  67.2543851  82.1847822  59.1106066  67.2650007
  82.4599843  60.0533551  67.0292287  80.8699451  58.9010996  67.8295830
  80.6340803  57.8381195  67.8799845  80.6919548  59.5056520  69.2168684
  80.9157715  60.5718092  69.1806079  79.6631887  59.3619221  69.5471443
  81.3693974  59.0163098  69.9166649  79.8913760  59.5567770  66.8853432
  80.2533794  60.4646356  66.1353484  78.6497996  59.1038210  66.9017408
  78.3537746  58.4002182  67.5631119  77.7072170  59.5311706  65.8831951
  78.1340808  60.3514247  65.3060731  77.3788238  58.3448994  64.9036643
  76.5717228  58.6197248  64.2245780  78.2556669  58.0529481  64.3257277
  76.9302148  57.1410548  65.6265711  77.6659906  56.0342184  65.9852035
  78.7116407  56.0058241  65.6787571  76.8707297  55.1605495  66.6913003
  77.1617954  54.2674185  67.0623761  75.6012320  55.6770268  66.7611340
  74.4575728  55.1527912  67.3129906  74.5181908  54.1737597  67.7883025
  73.3102657  55.8941406  67.2315265  72.3976509  55.5057071  67.6835813
  73.2731819  57.1154072  66.5962260  72.3542274  57.6990530  66.5416392
  74.4198804  57.6419934  66.0010307  74.3544727  58.6113945  65.5069822
  75.6063076  56.9094190  66.0850682  76.5010841  60.0995866  66.5963041
  76.3874428  60.0081243  67.8142386  75.5972677  60.7021783  65.8209073
  75.7572337  60.7819721  64.8268534  74.3964615  61.3048248  66.3763430
  73.8995501  60.5781650  67.0191056  74.6940030  62.5435692  67.1881843
  75.0811572  63.3061741  66.5124286  73.4552602  63.0783122  67.9021410
  73.0677817  62.3163767  68.5784651  73.7199063  63.9688276  68.4722672
  72.6922999  63.3321107  67.1662209  75.6862387  62.2219095  68.1702579
  75.8838219  63.0024423  68.6930675  73.4990067  61.6054639  65.1889484
  73.9204918  62.1421319  64.1635476  72.2439980  61.2570283  65.2649200
  71.8404242  60.8359201  66.0894777  71.4087956  61.4151545  64.0989895
  71.8764462  60.9928651  63.2095662  70.0356927  60.7473691  64.2970326
  69.4954078  61.2943553  65.0696887  69.2231318  60.7473883  63.0159433
  69.7626022  60.2001501  62.2428954  68.2608512  60.2679031  63.1954165
  69.0612875  61.7741276  62.6877445  70.2929112  59.3440943  64.8034932
  70.8367313  59.3917478  65.7469395  69.3425745  58.8331024  64.9579183
  70.8848934  58.7956331  64.0707939  71.2734363  62.8913912  63.8092150
  71.2599365  63.7373786  64.7020330  71.2031147  63.2064273  62.5445644
  71.2854787  62.4789040  61.8488450  71.0335552  64.5699587  62.0938741
  71.0586183  65.2832587  62.9176909  72.1197906  64.9544904  61.0785530
  72.1011162  64.2546055  60.2431414  71.9332880  65.9634859  60.7107962
  73.0970011  64.9186819  61.5600888  69.6532017  64.6548178  61.4712890
  69.0745406  63.6471902  61.0512879  69.1207712  65.8654520  61.3913926
  69.5787514  66.6937408  61.7439420  67.7920776  66.0033250  60.8204387
  67.6121817  65.1966931  60.1097478  66.7195023  65.9385891  61.9183010
  66.8416994  64.9904153  62.4418785  66.9058141  66.7610423  62.6089229
  65.2837718  66.0419965  61.3732745  65.1476418  67.0029627  60.8771762
  65.1384376  65.2376201  60.6521930  64.2295999  65.9069153  62.4763188
  63.5619810  66.8877006  62.8256199  64.0574771  64.6977058  63.0134501
  63.3723039  64.5657349  63.7436711  64.6131471  63.9198922  62.6873543
  67.6700750  67.2946470  60.0515753  67.8688303  68.3697893  60.6116595
  67.3630671  67.1587007  58.7665400  67.4945816  66.2569245  58.3311052
  66.8565376  68.2474546  57.9534694  67.6638758  68.9075704  57.6363696
  66.1528769  67.7112599  56.7163268  65.4999927  66.8852493  56.9983705
  66.8948032  67.3589225  55.9997350  65.1819843  68.9632049  55.8694112
  65.8817952  69.0661015  58.7723610  64.8379942  68.5705252  59.1878469
  66.0876222  70.3854456  58.8601070  66.9437087  70.7820036  58.4996112
  65.1336294  71.2861363  59.5613879  64.8001075  70.8155654  60.4862800
  65.7949665  72.6260939  59.9042626  66.6899235  72.4124322  60.4886426
  66.0793735  73.1032781  58.9664418  64.8763497  73.5677828  60.7000988
  64.0196319  73.8089072  60.0708179  64.5362161  73.0320530  61.5863294
  65.5726237  74.8511530  61.1206219  66.4326273  74.6005540  61.7416638
  65.9105299  75.3794382  60.2290874  64.6142409  75.7479402  61.9132182
  63.7646401  75.9785054  61.2704751  64.2705560  75.1844437  62.7806578
  65.2548250  77.0204963  62.3677367  65.5729768  77.5429972  61.5640751
  64.5822668  77.5708325  62.8824167  66.0418498  76.8070790  62.9636764
  63.8555580  71.4905632  58.7307189  62.7958043  71.6662986  59.3608279
  63.9255562  71.4667883  57.3917488  64.8239214  71.2948500  56.9634071
  62.7650837  71.7954901  56.5016305  62.3080533  72.7382440  56.8023587
  63.2297004  71.8941030  55.0194875  63.7552630  70.9769987  54.7533972
  62.0402780  72.0824219  54.0937665  61.5144482  72.9996321  54.3589629
  62.3883962  72.1488621  53.0629900  61.3632320  71.2341048  54.1940947
  64.2129120  73.0555837  54.8414132  65.0642422  72.8513524  55.4907416
  64.5376721  73.0380469  53.8010658  63.6365204  74.4388215  55.1738763
  63.3119491  74.4572745  56.2142670  64.4023451  75.1988773  55.0191929
  62.7853770  74.6439680  54.5245923  61.5819104  70.8226159  56.6398688
  60.4510676  71.3388193  56.7536998  61.7973316  69.4994450  56.6288062
  62.7499636  69.1827076  56.5180379  60.7095178  68.4692955  56.7033648
  59.7652648  68.9774236  56.8990484  60.5941504  67.7194551  55.3825526
  60.7115135  68.4194479  54.5553065  59.6157852  67.2431816  55.3187937
  61.8755977  66.4596495  55.1705844  60.9502136  67.4874722  57.8596020
  60.0800176  66.6086523  58.0382511  62.0666393  67.5948786  58.5866147
  62.7545191  68.2449750  58.2340591  62.4149951  66.7773695  59.7838419
  63.2392308  67.2932120  60.2764282  61.2437985  66.7168555  60.7379335
  60.4134975  66.1950032  60.2621494  61.5378478  66.1829483  61.6415807
  60.9344428  67.7289233  60.9989259  62.9126008  65.3634871  59.4288471
  63.1519385  64.6022488  60.3898168  63.0888243  65.0049831  58.1484405
  62.8918688  65.6632466  57.4081722  63.4985254  63.6592448  57.7829008
  62.9311955  62.9303506  58.3616486  63.2444975  63.4083876  56.2999802
  63.6318422  64.2506647  55.7267153  63.7624923  62.4971395  56.0009680
  61.8488903  63.2651895  56.0492475  61.7064604  63.1081385  55.1129524
  64.9725842  63.4786439  58.1433355  65.7630346  64.4249464  58.1261415
  65.3282916  62.2597859  58.5537578  64.6508740  61.5116257  58.5919814
  66.6860332  61.9899295  59.0232099  67.0196385  62.8044835  59.6661007
  66.7373175  60.6932077  59.8157327  66.8886740  59.8107226  59.1941133
  67.5488867  60.7709172  60.5392082  65.4916193  60.4557197  60.5966893
  64.2788877  60.2221266  59.9881086  63.3468872  60.0838864  60.9113803
  62.3115723  59.8899359  60.6310140  63.9112272  60.2214771  62.0948896
  63.4410204  60.1549538  62.9862818  65.2528031  60.4721702  61.9276683
  65.8892376  60.6356401  62.7973407  67.6095561  61.9534408  57.8131160
  67.3168852  61.2693018  56.8208914  68.6983021  62.7285957  57.8788815
  68.9378911  63.2313747  58.7214428  69.5288646  62.9239678  56.6983331
  69.0123929  62.5210529  55.8271179  69.8387357  64.4097043  56.4673183
  70.3145540  64.8241471  57.3561009  70.7676536  64.5535007  55.2863478
  70.2923056  64.1396687  54.3970289  70.9874305  65.6084882  55.1226398
  71.6949932  64.0163342  55.4853261  68.5400372  65.1898767  56.2046790
  67.7933612  64.7820808  56.8860586  68.7454598  66.2269284  56.4700554
  68.0177988  65.1269733  54.7909714  67.8116940  64.0902043  54.5250191
  67.0999930  65.7101443  54.7158493  68.7637941  65.5350501  54.1090153
  70.8118263  62.1130563  56.8344320  71.3492869  61.5937791  55.8373762
  71.3042260  61.9713453  58.0475414  70.9292116  62.4368492  58.8616481
  72.4432404  61.1017915  58.2204815  72.1660213  60.0654670  58.0274005
  73.2514989  61.3922328  57.5493173  72.9163233  61.2235404  59.6324797
  72.0751107  61.2931011  60.5320172  74.2398190  61.1589342  59.8289967
  74.8202380  61.0126851  59.0154708  74.8895636  61.3031417  61.1232186
  74.1533111  61.5417706  61.8907391  75.5805899  59.9887889  61.4995536
  76.2895968  59.7130532  60.7189267  76.1171197  60.1611803  62.4325686
  74.7057842  58.7972378  61.7231024  74.5959584  58.1154344  62.8594230
  75.2112874  58.4594256  63.6907713  73.7152592  57.1124724  62.7269010
  73.4680582  56.4498593  63.4479663  73.2128059  57.1284971  61.4629596
  72.2931959  56.3075420  60.8560006  71.8312039  55.5105037  61.4385741
  72.0225307  56.5458405  59.5699072  71.2954721  55.9210490  59.0511381
  72.6440477  57.5700712  58.8757357  72.4259492  57.7280315  57.8195250
  73.5146321  58.3846296  59.4613270  74.0093113  59.1395935  58.8502437
  73.8133469  58.1823346  60.8017341  75.9826082  62.3876154  61.1853184
  76.8320000  62.5136062  60.2994066  76.0059257  63.1937663  62.2647659
  75.2128073  63.2119904  62.8898503  77.1453774  64.1183869  62.5399160
  77.6433888  64.3408364  61.5961999  76.7121692  65.4379640  63.1880226
  76.0124920  65.9248555  62.5086937  76.2030424  65.1956098  64.1208432
  77.8877990  66.3849263  63.4774204  78.5508717  65.8871530  64.1849916
  78.4183596  66.5542506  62.5404376  77.4407560  67.7185465  64.0544116
  76.7771921  68.2083763  63.3417765  76.9040213  67.5394944  64.9860529
  78.6511340  68.6189101  64.3273132  79.2749410  68.1228978  65.0709107
  79.2081454  68.7203920  63.3958955  78.2637567  69.9742727  64.8262322
  77.7479776  69.8804839  65.6895255  79.0955859  70.5235201  64.9889815
  77.6860708  70.4342274  64.1371605  78.0570897  63.2749110  63.4252329
  77.4980825  62.4718107  64.1672780  79.3687365  63.4523790  63.3716265
  79.7129018  64.1399949  62.7167723  80.3504708  62.6254285  64.0975168
  79.8138352  61.9265446  64.7391419  81.2590867  61.8266623  63.1548267
  81.5999947  62.4740242  62.3468641  82.1207886  61.4485546  63.7049218
  80.6052262  60.6343669  62.5052698  79.7659173  60.7903254  61.4173165
  79.5817780  61.7907306  61.0256763  79.1610797  59.6914555  60.8250434
  78.5036673  59.8330773  59.9672247  79.3876935  58.4294249  61.3151210
  78.9118358  57.5655959  60.8509457  80.2177829  58.2580090  62.3946442
  80.3976482  57.2562725  62.7848654  80.8269422  59.3536646  62.9889150
  81.4872400  59.2125301  63.8445947  81.1403435  63.4943089  65.0832678
  81.0849699  64.7211467  64.9094610  81.8343429  62.8919555  66.0626590
  81.7817065  61.8838028  66.0935922  82.6135121  63.5889938  67.1174372
  83.1444318  64.4460459  66.7030880  81.6650146  64.0842836  68.2152416
  82.2841649  64.5372084  68.9895880  80.6324003  65.0851974  67.7461722
  80.0125284  64.6328067  66.9720914  80.0046954  65.3813660  68.5866304
  81.1348340  65.9636881  67.3413079  80.9906158  62.9360432  68.7356831
  80.3848232  63.2077070  69.4290911  83.6848509  62.6377792  67.6848142
  83.2894141  61.7521286  68.4472595  84.9866538  62.8222179  67.3949167
  85.2110034  63.6118080  66.8064322  86.0947669  61.9361394  67.8378754
  86.0301440  60.9809669  67.3167529  87.4226695  62.5703429  67.5173937
  87.5060257  63.5236154  68.0393356  88.2282174  61.9096282  67.8377822
  87.4961856  62.7374360  66.4427894  85.9966474  61.6502907  69.3431807
  85.6278254  62.5864287  70.0810085  86.3481443  60.4267273  69.7951858
  86.6517624  59.7135669  69.1476384  86.2419754  60.0800689  71.2000403
  85.2860392  60.4935978  71.5214108  86.1858780  58.5445540  71.3370815
  86.0179576  58.2918116  72.3839933  85.0565484  57.9602012  70.4837771
  85.2240378  58.2121540  69.4366063  85.0379519  56.8763282  70.5976748
  84.1026569  58.3755906  70.8088051  87.3673786  57.9760670  70.7612395
  87.3359809  57.0202182  70.8447105  87.3833125  60.6399189  72.0480123
  87.4604820  60.3862426  73.2554170  88.2957789  61.3947042  71.4231776
  88.2013556  61.5965449  70.4380665  89.4966473  61.8708236  72.1187711
  89.2579945  62.0590223  73.1655401  90.6262337  60.8359558  72.0521273
  90.8034106  60.6080247  71.0010541  91.5185082  61.2933568  72.4795973
  90.3026614  59.5375723  72.8104486  89.3085280  59.2111981  72.5050316
  91.0369323  58.7873887  72.5168965  90.3358242  59.7150434  74.3187093
  91.3309763  60.0466086  74.6150803  89.6023241  60.4694055  74.6033405
  90.0076033  58.3925996  75.0218446  90.6921832  57.6339276  74.6425457
  90.1756906  58.5316119  76.0897966  88.5974553  57.9503392  74.7929133
  88.4416186  57.8210544  73.8034185  88.4355000  57.0782868  75.2760231
  87.9629448  58.6530089  75.1446955  89.9301769  63.2097899  71.5447795
  89.8830037  63.4003224  70.3325695  90.3784241  64.1204365  72.4267394
  90.3755391  63.8928160  73.4107515  90.7736556  65.4671491  72.0296524
  90.0118192  65.9045118  71.3843475  90.9344856  66.3547874  73.2685996
  91.0841972  67.3780313  72.9241324  90.0075835  66.2959804  73.8391207
  92.1142172  65.9375229  74.1632719  91.9662594  64.8951976  74.4457030
  93.0272991  66.0278843  73.5748688  92.2328345  66.7889171  75.4151984
  92.3317533  67.8347309  75.1243590  91.3320599  66.6630317  76.0159125
  93.4576358  66.3692020  76.2369618  93.3101536  65.3361872  76.5519696
  94.3314396  66.4294352  75.5881644  93.6701682  67.2311964  77.4399334
  92.8607723  67.1751880  78.0414656  94.4860224  66.9122915  77.9427072
  93.8072745  68.1883860  77.1482330  92.0350793  65.5244812  71.1665826
  92.3775191  66.6112373  70.6891863  92.7244949  64.4017424  70.9361727
  92.4238631  63.5402229  71.3691899  93.9447899  64.3841683  70.1326554
  94.3190867  65.3986035  69.9950968  95.0260035  63.5535897  70.8477430
  95.7704356  63.2901321  70.0964041  95.4889091  64.1738932  71.6152338
  94.4755898  62.2812961  71.4860297  93.9761733  62.3534942  72.6330151
  94.5570037  61.2016276  70.8561903  93.7346420  63.8481938  68.7112546
  94.7098233  63.6095480  67.9946887  92.4685963  63.7097724  68.3010572
  91.7069170  63.8436273  68.9506931  92.1521841  63.2001759  66.9362347
  93.0785617  62.9057043  66.4430712  91.2092767  61.9841249  66.9783616
  90.3217236  62.3107423  67.5202748  90.9445832  61.7731194  65.9422564
  91.7616206  60.7290675  67.6239683  92.6353437  60.4109413  67.0551938
  92.0616517  60.9750246  68.6425892  90.5698187  59.3940120  67.6676593
  90.5615814  58.8702399  65.9397276  91.5622953  58.5473779  65.6526197
  89.8632786  58.0428468  65.8136540  90.2541898  59.7038564  65.3083044
  91.6364423  64.3441758  66.0557844  91.0618595  65.3010839  66.6114060
  91.8352676  64.2451196  64.7369719  92.3484101  63.4577583  64.3670444
  91.3833917  65.3000946  63.7903649  90.6408233  65.9345628  64.2742466
  92.5440206  66.1603530  63.3580187  92.2548020  66.7210528  62.4691612
  92.7862357  66.8550034  64.1623151  93.6789556  65.3630516  63.0648719
  94.4053433  65.9283719  62.7921567  90.6915493  64.6464757  62.5855009
  91.0049895  63.4724523  62.3050365  89.7695607  65.3249099  61.8623217
  89.3576326  65.0926238  60.5236080  89.1737710  64.0235030  60.4174198
  90.1800738  65.3858870  59.8711617  88.1146234  65.9212724  60.2920774
  87.2202174  65.3657657  60.5741224  88.0396663  66.2235100  59.2475032
  88.3273787  67.1384993  61.2001544  87.3976104  67.5923866  61.5431065
  88.9543417  67.9008786  60.7377747  89.0583527  66.5080607  62.3742303
  89.8010409  67.2287935  62.7163657  88.1140668  66.1604047  63.5307446
  87.5882862  65.0709665  63.5479845  87.8901623  67.1027092  64.4495417
  88.3214681  68.0139805  64.3890492  87.0685254  66.7896811  65.6492317
  87.4710291  65.9089675  66.1496650  87.0791204  67.9611533  66.6361991
  87.3611515  68.8549103  66.0796418  86.0645660  68.0763620  67.0176521
  88.0403311  67.7647666  67.8018541  89.0565863  67.8259691  67.4125207
  87.8829616  68.5589305  68.5316764  87.8678135  66.4341516  68.4923918
  86.7786732  66.0777748  68.9370985  88.9562476  65.6904780  68.6008664
  88.9051517  64.7889381  69.0533224  89.8334393  66.0275857  68.2307387
  85.6421993  66.4061127  65.2418866  85.1016446  65.4682313  65.8567997
  85.0550889  67.0872495  64.2501290  85.5203309  67.8368733  63.7584855
  83.6293006  66.8054798  63.9223185  83.3737939  65.7914888  64.2299508
  82.7048533  67.7864378  64.6522915  83.0082479  68.7954907  64.3732518
  81.6884731  67.6036593  64.3034888  82.7552703  67.6410173  66.1828525
  82.4109328  66.6378583  66.4342577  83.7931067  67.7572475  66.4950837
  81.8937965  68.6658047  66.8991755  82.2380855  69.6655075  66.6343013
  80.8584203  68.5426234  66.5814932  81.9876344  68.4790785  68.4180121
  81.6113229  67.4841101  68.6557686  83.0389140  68.5458673  68.6981007
  81.2039834  69.5024987  69.1765220  80.2297471  69.4404905  68.9174498
  81.3002191  69.3335909  70.1676369  81.5528045  70.4245033  68.9566803
  83.3590434  66.8212609  62.4149721  83.6470688  67.8573024  61.7804736
  82.8268696  65.7227955  61.8653816  82.7173590  64.8877779  62.4229231
  82.4215354  65.6777480  60.4687787  82.3251906  66.6972516  60.0953764
  83.4278258  64.9347884  59.6008036  83.0503236  65.0117286  58.5811608
  84.4363500  65.3457760  59.6462794  83.5455371  63.4876474  59.9014865
  84.3989099  63.0553461  60.8848031  84.9355274  63.8078572  61.4626167
  84.5869469  61.7269000  61.1502459  85.2722514  61.4104159  61.9365641
  83.9028637  60.7876377  60.4155666  84.0182219  59.7248789  60.6284892
  83.0435388  61.2110667  59.3757889  82.5064269  60.4844832  58.7661273
  82.8884295  62.5632188  59.1363230  82.2372041  62.9028834  58.3309452
  81.0744750  65.0002895  60.3571539  80.5706496  64.4074884  61.3031749
  80.4871654  65.1182064  59.1874376  80.9278874  65.6835022  58.4758871
  79.1836975  64.5366950  58.8981197  78.7310647  64.1524918  59.8122371
  78.2594809  65.6108613  58.3069110  78.6107009  65.9157873  57.3211302
  77.2636340  65.1765256  58.2189260  78.1029215  66.9305916  59.1586974
  79.0883172  67.8675142  59.4084817  80.0774336  67.6679230  58.9962779
  78.5684318  68.9145349  60.1729715  79.0923660  69.7183810  60.4882871
  77.2364999  68.6789847  60.4267877  76.2994781  69.4491799  61.1436863
  76.6317676  70.3896192  61.5832956  75.0176233  68.9641871  61.2447260
  74.2627689  69.5384277  61.7818875  74.6565651  67.7392539  60.6685961
  73.6431650  67.3514613  60.7722138  75.5842572  66.9744960  59.9420854
  75.2438034  66.0351606  59.5063781  76.8974938  67.4426765  59.8141843
  79.3807475  63.3394227  57.9695637  80.3202535  63.3195341  57.1690721
  78.5658101  62.2981100  58.1521586  78.0025821  62.2812659  58.9903649
  78.4426907  61.1855003  57.2119935  79.0572986  61.3434750  56.3257654
  78.7148579  60.2385627  57.6781840  76.9888647  61.1308951  56.7992644
  76.1354260  60.5713579  57.4919220  76.6726301  61.7388906  55.6804927
  77.3884100  62.2253117  55.1597691  75.3044480  61.7946964  55.1895615
  74.6004112  61.8473742  56.0200171  75.1378423  63.0617773  54.3195056
  75.6810183  62.8181493  53.4064314  74.0865934  63.2266040  54.0832686
  75.7361847  64.3529101  54.9498552  75.4936995  64.2912150  56.0107489
  77.2597540  64.6034220  54.7810816  77.5029463  64.6657018  53.7203848
  77.5312191  65.5384750  55.2710647  77.8158075  63.7821390  55.2331868
  75.0139588  65.6585781  54.4533446  73.9581170  65.6143333  54.7204403
  75.4711790  66.5287922  54.9242780  75.1112615  65.7389107  53.3706730
  74.9697124  60.5112123  54.4067195  75.8485895  59.7158804  54.0419592
  73.6815901  60.2837639  54.1938666  72.9706427  60.8579803  54.6238999
  73.2595325  59.1827705  53.3549441  74.0233487  58.4147291  53.2333030
  71.9711456  58.5177043  53.8681535  71.6371908  57.7949704  53.1236872
  72.1911284  57.8216158  55.1755418  72.5246755  58.5438433  55.9206817
  71.2584525  57.3641925  55.5056611  72.9506195  57.0493874  55.0533240
  70.9134923  59.5105491  53.9238107  70.1064309  59.1007457  54.2436755
  73.0363811  59.7346280  51.9389770  72.3290142  60.7424222  51.7659883
  73.5788778  59.0365698  50.9231867  74.2981519  58.3438581  51.0744966
  73.1704266  59.3201008  49.5544311  73.4994596  60.3176005  49.2631739
  73.8022099  58.2989953  48.6030876  74.8584052  58.2656246  48.8703647
  73.3357456  57.3446870  48.8476421  73.6627080  58.5671069  47.0847242
  72.8338323  57.9758365  46.6955389  73.4570763  59.6262513  46.9297060
  74.9837359  58.1750788  46.3317852  75.0735659  58.7787286  45.4286592
  75.8369234  58.3665980  46.9825470  74.9906143  56.7632518  45.9539542
  75.6704023  56.1628057  46.3983100  74.1735074  56.2359561  45.0556342
  73.3341962  57.0002998  44.3654101  73.3162491  57.9974082  44.5252623
  72.7179411  56.5807455  43.6840119  74.1838805  54.9203262  44.8585598
  74.8120124  54.3376110  45.3933433  73.5635781  54.5102596  44.1750621
  71.6580983  59.3042886  49.4573182  71.0582670  60.2156615  48.8760378
  71.0100871  58.3247367  50.1155055  71.5068325  57.7357604  50.7685370
  69.5968231  58.0357422  49.8550963  69.4578217  57.7383511  48.8157040
  69.1292586  56.8820573  50.7642870  68.0420751  56.8535183  50.6913719
  69.5454113  55.9679629  50.3407914  69.5099121  56.9872531  52.1308560
  69.1760485  56.2286827  52.6153205  68.7219497  59.2754492  50.0512011
  67.7320370  59.4938973  49.3290216  69.0849676  60.1033922  51.0155021
  69.9347801  59.9074493  51.5249377  68.2828210  61.2406123  51.4269839
  67.2335079  60.9668916  51.3169005  68.5653896  61.5242311  52.9203975
  69.6102062  61.8085361  53.0454131  67.9247670  62.3363846  53.2640682
  68.3606848  60.6280023  53.5060333  68.5180056  62.5057724  50.5836636
  67.8065022  63.5038938  50.7874909  69.4582408  62.4893782  49.6350461
  69.8801914  61.6124855  49.3646462  69.9387749  63.7142002  48.9999673
  69.4108665  64.5699152  49.4208755  71.4360507  63.9073952  49.2223311
  71.8919108  62.9780228  48.8809256  71.8383323  64.7414581  48.6473453
  71.7470265  64.1124504  50.6990777  71.2430302  63.3301144  51.2665625
  73.2058190  64.0581169  50.9698325  73.7104738  64.8405099  50.4030137
  73.3841429  64.2089609  52.0345144  73.5953438  63.0849334  50.6710271
  71.1505826  65.4025109  51.2103197  70.0682128  65.3781931  51.0838938
  71.3898633  65.5203108  52.2671873  71.5626334  66.2413298  50.6493419
  69.6348635  63.6780858  47.5174655  70.0812878  62.7635430  46.8242082
  68.8705161  64.6550774  47.0632822  68.4377501  65.2452034  47.7593887
  68.5433886  64.8869740  45.6582727  68.9070312  64.0521350  45.0591842
  67.0153303  65.0646814  45.4260163  66.6753362  65.9412760  45.9774565
  66.7114911  65.2469844  43.9483975  67.0508042  64.3705238  43.3963250
  65.6372294  65.3693397  43.8102251  67.2281754  66.1320472  43.5771828
  66.2458986  63.8532879  45.9658334  66.4330567  63.8129227  47.0388867
  65.1878875  64.0468846  45.7891064  66.6336041  62.5122091  45.3285062
  67.6914470  62.3176913  45.5052295  66.0388598  61.7133822  45.7715117
  66.4462798  62.5516542  44.2554481  69.3597887  66.1089130  45.2125182
  69.2793841  67.1591032  45.8533126  70.1850710  65.9955977  44.1704227
  70.6935081  64.8305391  43.4625279  70.0401068  64.6306888  42.6132771
  70.6755938  63.9787629  44.1424215  72.0969673  65.2017747  43.0405323
  72.4027894  64.6286887  42.1652356  72.8036497  65.0291698  43.8522644
  71.9861565  66.6977396  42.7198843  71.5694995  66.8676302  41.7270938
  72.9206869  67.2496772  42.8204700  70.9970725  67.1546342  43.7806408
  71.5778034  67.4927395  44.6388568  70.0986727  68.2768616  43.3065202
  68.9812982  68.0613257  42.8390670  70.5952964  69.4915685  43.4277672
  71.4829524  69.6597425  43.8793020  69.8539631  70.6297772  42.9254028
  68.8643600  70.5711758  43.3785593  70.5186782  71.8843171  43.3908353
  69.9595591  72.7420106  43.0168728  70.5605052  71.9298434  44.8737881
  71.1198977  71.0726522  45.2484917  71.0478470  72.8500625  45.1959586
  69.5445305  71.9002946  45.2675174  71.8776541  71.8317858  42.9734017
  72.3313190  72.6279365  43.2596403  69.7567945  70.6722492  41.4194369
  70.4638165  70.2425150  40.8583857  68.9818804  71.1322507  40.9862202
  63.8803663  68.2472054  53.9315987  60.4878197  42.4759402  68.3903574
  61.2285602  43.1133241  68.1351198  60.5372279  41.6642640  67.7913239
  60.4877731  42.3635583  69.3940854  59.1979197  43.1195919  68.0697292
  58.6744469  42.5010986  67.3406603  58.2879474  43.3026314  69.3066043
  58.3476072  42.4363274  69.9654345  58.6110006  44.1923860  69.8470425
  56.8224527  43.5006379  68.9831792  56.0909188  42.5072309  68.3516297
  56.5792957  41.5688084  68.0890440  54.7346209  42.7004453  68.0500703
  54.1742667  41.9103726  67.5501813  54.1086486  43.8863778  68.3840684
  53.0559099  44.0397471  68.1467520  54.8172479  44.8700382  69.0155113
  54.3324439  45.8127373  69.2692508  56.1670344  44.6669976  69.3368709
  56.7206639  45.4360295  69.8755583  59.3645629  44.4262826  67.2562967
  59.6622473  45.5022747  67.7959531  59.1378945  44.2974742  65.9325884
  58.9707737  43.3623367  65.5895318  59.2639928  45.3770711  64.9621128
  59.6815893  46.2859748  65.3952484  60.1589447  44.9078356  63.7807916
  59.6936085  44.0346172  63.3235692  60.3319760  46.0243072  62.7090513
  60.7977087  46.8977446  63.1654512  60.9637088  45.6573777  61.9001155
  59.3557955  46.3003818  62.3103612  61.5149572  44.4346785  64.3173172
  62.1998148  45.2784055  64.2324897  61.3699862  44.1894151  65.3694240
  62.0804769  43.2728015  63.6171977  62.2261734  43.5174743  62.5650535
  63.0389323  43.0095000  64.0645618  61.3963432  42.4284841  63.7019860
  57.8843882  45.9047792  64.5418696  57.0304881  45.1174129  64.1376322
  57.6816537  47.2278791  64.6630279  58.4360512  47.7416149  65.0955314
  56.4508501  47.9550735  64.3179409  55.6956869  47.2933135  63.8937931
  55.8175239  48.7281732  65.5283226  54.9057279  49.2171963  65.1854178
  55.4850054  47.7842973  66.6896815  56.3964468  47.2952201  67.0334532
  55.0484675  48.3553408  67.5090987  54.7733430  47.0302738  66.3533974
  56.7124291  49.8741025  66.0058077  56.8631354  50.5819477  65.1907342
  56.2364084  50.3823487  66.8443718  57.6760506  49.4753614  66.3228880
  56.7568113  48.9001030  63.1362997  57.8798883  49.3896443  63.0086348
  55.7667559  49.1293835  62.2891977  54.8807066  48.6825515  62.4772326
  55.8756219  49.9833441  61.1065847  54.9008788  49.9671823  60.6190255
  56.0843576  50.9906323  61.4670002  56.9403027  49.5890164  60.0965875
  57.3905402  50.4313104  59.3130213  57.3604233  48.3276658  60.1491281
  56.9254849  47.7215934  60.8300129  58.3969572  47.7726552  59.2953830
  58.2965813  46.6888129  59.3529133  58.1723354  48.1045278  58.2817239
  59.8284797  48.1557082  59.6355960  60.7518243  47.5096597  59.1315155
  60.0533601  49.1823519  60.4916149  59.2906329  49.7441350  60.8419666
  61.4284364  49.6016925  60.8025868  62.1032235  48.7584759  60.6551170
  61.8876949  50.7669031  59.8948694  62.8782704  51.0392275  60.2591480
  61.9738498  50.3351426  58.8977434  61.0077339  52.0125536  59.8352325
  60.0067749  51.7505654  59.4923856  60.9442649  52.4763751  60.8195816
  61.6407184  52.9903730  58.8533675  62.6207432  53.2406014  59.2596139
  61.7642602  52.4466483  57.9167778  60.8639092  54.2570475  58.5999067
  60.0145824  54.0169864  57.9602856  60.5024878  54.6355164  59.5560631
  61.7063355  55.2990344  57.9384582  62.0409847  54.9486955  57.0522458
  61.1542216  56.1307143  57.7849044  62.4931658  55.5219335  58.5311750
  61.7336911  49.9410230  62.2744932  62.8998124  50.1524137  62.5862751
  60.7384804  49.9898475  63.1644595  59.7782317  49.8999335  62.8645639
  61.0000808  50.3361142  64.5667657  62.0298875  50.6804988  64.6616158
  60.0561970  51.4528496  65.0752060  59.0674444  51.0233661  65.2364864
  60.4680656  51.7835021  66.0286908  59.9454233  52.6345426  64.1371965
  60.9690983  53.5762482  64.0440670  61.8451010  53.4616219  64.6824865
  60.8888350  54.6455489  63.1595560  61.7006127  55.3703844  63.0984637
  59.7724758  54.7858365  62.3508938  59.6870487  55.8368269  61.4841329
  60.4532905  56.4141731  61.5179635  58.7413262  53.8646267  62.4220904
  57.8636453  53.9712050  61.7845814  58.8292375  52.7974607  63.3140143
  58.0180962  52.0721345  63.3776686  60.9863319  49.1055678  65.4768023
  59.9278915  48.5284495  65.7186747  62.1834382  48.6804363  65.9227829
  63.0004273  49.1871321  65.6131258  62.3741155  47.5313035  66.8054006
  61.5868627  46.8001614  66.6216521  63.7409114  46.8558861  66.5631833
  63.8538882  46.7285129  65.4865629  64.5090241  47.5364074  66.9305982
  63.8877744  45.5065359  67.2514757  63.4243893  45.5925504  68.2343168
  63.3397829  44.7775110  66.6545418  65.3336912  45.0493192  67.4099258
  65.3171109  43.9761175  67.5998263  65.8419812  45.2428119  66.4653088
  66.0742349  45.7515086  68.5365269  66.1444734  46.8098933  68.2855507
  65.4901534  45.6330331  69.4491667  67.4424371  45.1994636  68.7475604
  67.9839611  45.3095373  67.9021402  67.8929408  45.6959187  69.5029933
  67.3775526  44.2188493  68.9805508  62.2843904  48.0297242  68.2499515
  62.9589534  48.9889860  68.6224383  61.4507765  47.3633544  69.0607055
  60.9284209  46.6006194  68.6539140  61.2048341  47.7033057  70.4705922
  61.1036483  48.7827194  70.5834051  59.9028999  47.0335238  70.9524610
  59.8664045  46.2016581  70.2490645  59.9925799  46.6466668  71.9675468
  58.6016181  47.8704520  70.8312788  58.5849135  48.5583245  71.6766504
  58.4769992  48.6829025  69.4933026  58.4931649  47.9956214  68.6474409
  57.5394452  49.2388600  69.4911925  59.3117624  49.3789851  69.4112064
  57.4049524  47.0192472  71.1063692  57.4717113  46.6129094  72.1155928
  56.5012823  47.6221579  71.0170363  57.3675914  46.2007920  70.3874575
  62.3758385  47.2832391  71.2945398  62.8712318  46.1759801  71.1198233
  62.8503419  48.1729943  72.1431506  62.4235101  49.0883632  72.1394563
  64.0124461  47.9534371  73.0031229  64.5668315  47.0518092  72.7426940
  64.9864721  49.1601520  72.9732630  64.4317162  50.0606317  73.2368566
  66.1346669  48.9680305  73.9515180  66.6902068  48.0679319  73.6882713
  66.7992928  49.8307827  73.9064458  65.7387198  48.8674627  74.9620692
  65.5108546  49.4294934  71.5594415  64.6737692  49.6479878  70.8963802
  66.1899138  50.2818881  71.5794758  66.0425505  48.5505323  71.1949862
  63.5242575  47.6202508  74.4186274  63.7525284  46.5154861  74.8823474
  62.8184349  48.5494069  75.0813561  62.6731027  49.4531266  74.6544268
  62.3090958  48.3319672  76.4400241  61.9070348  47.3224119  76.5251367
  63.4442276  48.5030158  77.4832546  63.0389984  48.2316144  78.4580519
  64.2430411  47.8108691  77.2169278  63.9962193  49.9125539  77.5409151
  64.4445052  50.1286504  76.5711508  63.1564845  50.5864391  77.7106985
  65.0211555  50.1086780  78.6206030  64.6551205  49.7242718  79.5726268
  65.9535907  49.6072772  78.3612553  65.2827802  51.5397026  78.7628293
  64.6683069  52.0610210  79.3717209  66.2502303  52.1921804  78.1297488
  67.0927460  51.5380113  77.3339480  66.9951501  50.5402322  77.2114247
  67.8258868  52.0423230  76.8561678  66.4016895  53.5005946  78.3060084
  65.7778091  53.9993396  78.9241725  67.1399852  53.9902689  77.8209958
  61.1446917  49.2657514  76.7577272  61.0244693  50.3160760  76.1303527
  60.3190720  48.8886322  77.7698074  60.5104420  47.9985382  78.2070827
  59.1887576  49.6836458  78.2725285  58.5587645  50.0077080  77.4441617
  58.3382773  48.8285800  79.2331303  58.3843176  47.8056466  78.8595172
  58.8248438  48.8813606  80.2070745  56.8706482  49.2571107  79.3708266
  56.8601310  50.2741085  79.7628796  56.4302072  49.2480470  78.3738153
  56.0488472  48.3344196  80.3067439  56.6208363  48.2318523  81.2289193
  55.1127221  48.8520420  80.5161152  55.7494583  46.9555448  79.7404572
  55.2686094  47.0896046  78.7714821  56.6984370  46.4364885  79.6058496
  54.8604276  46.1457968  80.6301142  53.9808652  46.6263868  80.7546252
  54.6941792  45.2431955  80.2084836  55.3059958  46.0210955  81.5278991
  59.7800141  50.8719503  79.0130514  60.7502661  50.6963728  79.7546365
  59.2559413  52.0760716  78.7529252  58.5678137  52.1168369  78.0147396
  59.7007087  53.3390307  79.3623235  60.3008662  53.2023345  80.2618925
  60.4792306  54.2503320  78.3475317  60.6167436  55.2309047  78.8032374
  61.8540424  53.6561936  77.9829851  61.7173099  52.6757473  77.5267726
  62.3606678  54.3164394  77.2790625  62.4577123  53.5556578  78.8849686
  59.6209555  54.5831814  77.0896640  59.6777530  53.7091450  76.4408688
  58.5970907  54.7073040  77.4423591  60.0370897  55.8052587  76.3206818
  61.0607635  55.6816731  75.9672438  59.3726900  55.9420060  75.4674688
  59.9801033  56.6798323  76.9687353  58.5144758  54.0943243  80.0302247
  58.6996215  55.1965344  80.5556807  57.3153187  53.5031824  79.9712880
  57.2563768  52.6036041  79.5158936  56.0914533  54.0814105  80.5253050
  56.2800220  54.2672613  81.5826604  55.9300136  55.0300551  80.0133381
  54.8421922  53.2267312  80.3884991  54.9169802  52.0669413  79.9639392
  53.6763683  53.8100097  80.7700206  53.7631637  54.7378644  81.1594453
  52.3386467  53.1802608  80.7504968  52.2707026  52.4851042  79.9136932
  52.0881153  52.4083397  82.0497092  52.3005404  53.0823116  82.8796108
  51.0345834  52.1294406  82.0693490  52.8897214  51.2400958  82.1711338
  52.6901679  50.7998944  83.0005921  51.1982016  54.2026154  80.4886249
  51.4686288  55.3682116  80.1722268  49.9490509  53.7383487  80.6078267
  49.8600418  52.7635830  80.8568417  48.7257578  54.5187060  80.4091170
  48.6898435  55.2887947  81.1796835  48.7836365  54.9897415  79.4278551
  47.4583623  53.6859226  80.4834241  47.5189250  52.4790877  80.7607826
  46.2926698  54.3331761  80.2402784  46.3430306  55.3291237  80.0801179
  44.9605345  53.6925507  80.2572442  44.8285481  53.1414168  81.1883350
  43.8513784  54.7499730  80.1512962  42.9074151  54.2399163  80.3433238
  44.0347793  55.4820010  80.9378070  43.7851085  55.4115106  78.8947859
  43.0711310  56.0531143  78.9082254  44.8314864  52.6555735  79.1182210
  44.2897441  51.5583903  79.3096999  45.3518693  53.0424487  77.9407040
  45.7082860  53.9864017  77.9856381  45.4102858  52.3387053  76.6579999
  44.4294464  51.9512266  76.3824757  45.8717159  53.3512510  75.5640226
  45.8434649  52.8919773  74.5759089  45.1971279  54.2071486  75.5857146
  47.2793399  53.9013040  75.7485985  47.5293779  54.9419620  76.6368152
  46.6962783  55.3874223  77.1805156  48.8339976  55.4195424  76.8375102
  49.0116360  56.2392620  77.5336460  49.8913403  54.8524822  76.1546271
  50.9067373  55.2149326  76.3149350  49.6589859  53.8245771  75.2676962
  50.4932228  53.3766469  74.7277818  48.3552663  53.3543103  75.0583006
  48.1741202  52.5491109  74.3463035  46.3496328  51.0925670  76.7060156
  45.9576339  50.0079818  76.2584513  47.5638118  51.2871487  77.2491974
  47.7197392  52.2138355  77.6193831  48.6471655  50.3084536  77.3499220
  48.3688300  49.5704833  78.1022706  48.7524044  49.8180481  76.3821790
  49.9800132  50.9312921  77.7367843  50.0138184  51.8452027  78.5644742
  51.0946248  50.4662029  77.1261174  50.9999794  49.7134447  76.4594116
  52.4605484  50.9337013  77.4703017  52.4117644  51.6130056  78.3213393
  53.3739621  49.7386830  77.8423779  53.6201943  49.2403147  76.9047756
  54.2823120  50.1463080  78.2860471  52.7514555  48.7414542  78.7948746
  52.4282072  49.1364184  79.9399248  52.6012322  47.5629951  78.4030619
  53.1759936  51.7957054  76.4190391  52.7616288  51.8699929  75.2665152
  54.2707017  52.4400263  76.8550652  54.4363299  52.3899347  77.8501317
  55.1538925  53.2806894  76.0463041  54.8479835  53.2190879  75.0019267
  55.1662722  54.7604392  76.4927618  55.5474642  54.8279355  77.5117011
  56.0676289  55.5762936  75.5542296  55.6867784  55.5096524  74.5351062
  56.0742571  56.6190415  75.8716152  57.0824488  55.1800180  75.5889469
  53.7195885  55.3158232  76.4919174  53.4942266  55.5720067  75.4566963
  53.0792096  54.4930127  76.8097181  53.4829324  56.4552498  77.3279844
  54.1226665  57.2786740  77.0104743  52.4382068  56.7553619  77.2468644
  53.7076518  56.1996804  78.3634965  56.5344190  52.6334843  76.0680556
  57.0447145  52.3125159  77.1377373  57.1084632  52.4110812  74.8688479
  56.5877807  52.7213814  74.0609477  58.3931835  51.7544939  74.6532766
  58.8209525  51.4282214  75.6012530  58.1789838  50.5269038  73.7651876
  57.6318589  50.8245923  72.8706849  59.1841188  50.2099895  73.4870347
  57.4579350  49.3811867  74.4386599  56.0659836  49.3066152  74.4345992
  55.4986575  50.1041450  73.9548214  55.3980605  48.2364013  75.0300336
  54.3087905  48.1969017  75.0243480  56.1258009  47.2215093  75.6340751
  55.4818448  46.1508129  76.2204347  54.5257190  46.2061933  76.1544340
  57.5097507  47.2779698  75.6478295  58.0858507  46.4950802  76.1410769
  58.1655141  48.3404329  75.0281862  59.2548252  48.3662198  74.9992652
  59.4552920  52.6231713  73.9905897  59.1370662  53.5219585  73.2138562
  60.7243484  52.3074606  74.2617583  60.9059069  51.5929771  74.9521562
  61.8518850  52.9037945  73.5789669  61.6208286  53.9431934  73.3458102
  63.1201904  52.8649554  74.4383987  62.9318348  53.5795296  75.2396509
  63.2134335  51.8639176  74.8595033  64.4284682  53.2407485  73.7115578
  64.5647071  52.5477243  72.8813426  64.4068827  54.6512698  73.1885580
  64.2711317  55.3449461  74.0183071  65.3494486  54.8672869  72.6855601
  63.5844060  54.7649332  72.4823618  65.6111614  53.0756027  74.6135359
  65.6786722  52.0373995  74.9386141  66.5195662  53.3472285  74.0758357
  65.4978876  53.7217243  75.4840500  62.0320770  51.9972559  72.3497588
  62.0454426  50.7814932  72.4906009  62.0848316  52.5725313  71.1494800
  61.9677838  53.5720058  71.0631670  62.2586187  51.7875643  69.9295083
  62.5365692  50.7608914  70.1678052  60.9719993  51.7666539  69.1111690
  60.6857795  52.7872465  68.8570648  61.1319582  51.1962233  68.1962251
  60.1773118  51.3015255  69.6944585  63.4147225  52.3894564  69.1307902
  63.7844262  53.5443249  69.3372172  64.0119580  51.5898900  68.2647455
  63.7737894  50.6083797  68.2682997  65.1196731  52.0277929  67.4294886
  65.2175040  53.1091411  67.3334973  66.4727139  51.4246828  67.9355450
  66.6095684  51.7444844  68.9685494  66.5170629  49.9116756  67.8654778
  66.3807333  49.5911134  66.8326396  67.4814882  49.5586371  68.2306469
  65.7209143  49.4953602  68.4826714  67.6779370  52.0576869  67.2423084
  67.8799999  51.4528930  66.3582859  67.3694328  53.0570624  66.9354316
  68.9507511  52.1549993  68.0978115  69.2601489  51.1559034  68.4046993
  69.7466358  52.6181462  67.5145776  68.7495809  52.7600713  68.9818468
  64.8115364  51.7601967  65.9475878  64.3706988  50.6650863  65.6002532
  64.9831811  52.7839163  65.0900160  65.2200166  53.6849778  65.4800114
  64.8134828  52.6779136  63.6362103  63.8768271  52.1636319  63.4210603
  64.7795365  54.0680733  62.9625267  63.9324707  54.6098246  63.3833406
  65.7028771  54.5951320  63.2028415  64.6230764  54.0227696  61.4315823
  65.0918877  53.1295661  60.7437520  63.9773168  54.9912020  60.8522523
  63.8598284  54.9866670  59.8491194  63.5962062  55.7434732  61.4080793
  65.9799995  51.8433219  63.1191371  67.1219792  52.3124310  63.1099215
  65.6922493  50.5955241  62.7360699  64.7408673  50.2947395  62.8925951
  66.6666656  49.6044646  62.2636761  67.5516654  49.5330918  62.8959580
  66.0429518  48.1855196  62.0802362  66.7962427  47.5251802  61.6505793
  65.5650788  47.6098811  63.4347202  64.8113838  48.2694849  63.8647984
  65.1347883  46.6207149  63.2781917  66.4119601  47.5333752  64.1166572
  64.9312854  48.1829023  60.9919472  64.0159673  48.5421246  61.4623224
  65.2376309  48.8817776  60.2135995  64.6794729  46.8075804  60.3715046
  64.3726176  46.1082312  61.1492259  63.8918304  46.8852111  59.6220434
  65.5942826  46.4478830  59.9005046  67.4374580  50.0378743  60.9962503
  68.4591989  49.4093114  60.6508312  66.9601201  51.0909311  60.2998612
  66.0651547  51.5103504  60.5077645  67.6708136  51.5351356  59.1087348
  68.3231741  50.7575544  58.7113780  66.7496842  52.0099631  57.9985342
  67.3529528  52.1234194  57.0978151  65.6086354  51.0644830  57.7228099
  65.0046078  50.9508792  58.6230013  64.9904812  51.4647868  56.9192296
  66.0044968  50.0930865  57.4265274  66.2969983  53.2962682  58.3369077
  65.7109533  53.6204586  57.6491198  68.7574705  52.5780341  59.3840592
  69.6403949  52.7236843  58.5388300  68.7626516  53.2830650  60.5998329
  68.1494057  53.0601797  61.3707745  69.6994293  54.3923283  60.7585512
  70.6167250  54.1678198  60.2142500  69.2514423  55.3005976  60.3554956
  70.0334254  54.6134228  62.2138082  70.8892683  55.5756798  62.4852771
  69.5068668  53.9481693  63.2305883  68.8144920  53.2568414  62.9800246
  69.8309922  54.1222770  64.6421095  69.7431482  53.1377162  65.1014816
  70.8700369  54.4493528  64.6809292  68.9790399  55.1010909  65.4120308
  69.1395664  55.2171434  66.6255369  68.0556277  55.7972012  64.7298825
  68.0217146  55.6586313  63.7300087  67.1490858  56.7708638  65.3232862
  67.7169422  57.5860974  65.7716528  66.2194209  57.3559084  64.2366934
  66.8681209  57.7376873  63.4483201  65.6321468  56.5223691  63.8514385
  65.2781614  58.4690443  64.7066350  65.0050989  58.2384873  65.7363831
  65.8524354  59.3951722  64.6822313  64.0168341  58.6328770  63.8725388
  63.6210775  57.6813043  63.1505596  63.4179295  59.7282038  63.9466371
  66.3419997  56.1334898  66.4436667  65.8312278  55.0381917  66.2628348
  66.2774914  56.8028017  67.6165738  66.8468041  57.6336147  67.6922845
  65.5007930  56.3801906  68.7920131  65.2880246  55.3145194  68.7073153
  66.2378759  56.6251573  70.0944562  66.7698616  57.5728239  70.0106803
  65.5006797  56.6924141  70.8945301  67.2147726  55.5293052  70.4056640
  66.6334870  54.6072422  70.4028873  67.9293664  55.5101844  69.5828096
  67.9600180  55.6518415  71.7182142  67.6729208  56.5761931  72.5175735
  68.8546766  54.8053040  71.9367119  64.1668893  57.0897382  68.8087548
  64.0976027  58.2921116  68.5836360  63.1055163  56.3316343  69.0435820
  63.2459505  55.3384325  69.1615983  61.7390186  56.8430835  69.0538697
  61.6747983  57.9101478  69.2668219  60.9910113  56.5550773  67.7048084
  59.9409151  56.8163849  67.8356347  61.5734426  57.3562730  66.5436157
  62.6234698  57.0951461  66.4118714  61.0247565  57.1250382  65.6306127
  61.4886427  58.4216316  66.7579088  60.9499133  55.0693179  67.3823875
  60.4299722  54.5382226  68.1796961  60.4230959  54.9158138  66.4405810
  61.9671777  54.6875823  67.2954861  60.9557692  56.2675468  70.2457061
  61.4093554  55.3342579  70.9083685  59.7605792  56.8320898  70.4874149
  59.4955731  57.6474985  69.9535800  58.8308374  56.3299450  71.4860348
  59.2645568  55.5726682  72.1391186  58.2842475  57.4513172  72.3423273
  57.8384129  58.2132168  71.7029209  57.5262191  57.0563090  73.0186864
  59.0938002  57.8933841  72.9231030  57.7104089  55.6522016  70.6899665
  57.3259524  56.1294229  69.6109803  57.2472618  54.5028102  71.1940571
  57.7242075  54.1351228  72.0048766  56.1794095  53.7092726  70.6025088
  55.6454703  54.2731735  69.8376402  56.7215654  52.3932142  69.9641490
  57.3560309  51.8916558  70.6948965  55.5948637  51.4672548  69.5541447
  54.9601887  51.9679847  68.8230099  56.0106681  50.5611309  69.1135238
  55.0019012  51.2054608  70.4304786  57.5992097  52.6882620  68.7620354
  58.4469961  53.2993754  69.0717139  57.9624254  51.7520451  68.3381583
  57.0195621  53.2256193  68.0114645  55.1219012  53.4562919  71.6927639
  55.3957711  52.7668158  72.6779760  53.9352449  54.0586857  71.5249052
  53.8337903  54.7050689  70.7554930  52.7780002  53.8268226  72.3953678
  53.1380194  53.6129642  73.4017226  51.8175438  55.0418797  72.4606410
  51.4425812  55.2007734  71.4495747  50.9924170  54.7555878  73.1127934
  52.4436937  56.3191538  72.9719961  52.5431268  56.2545219  74.0555258
  53.4304943  56.4329597  72.5232479  51.5925100  57.5059576  72.6172678
  52.1830810  58.1614323  71.9772070  50.7264603  57.1426812  72.0640160
  51.1287330  58.2723198  73.8289529  51.9860678  58.4156075  74.4866353
  50.7615837  59.2427140  73.4948339  50.0527943  57.5637213  74.5663825
  50.3929357  56.6646856  74.8764442  49.7753170  58.1131535  75.3671512
  49.2581123  57.4312269  73.9572645  52.0763417  52.6221345  71.7646992
  51.7922993  52.6118452  70.5600810  51.8619116  51.5879762  72.5753942
  52.1658154  51.7044166  73.5315236  51.2463392  50.3243857  72.1958225
  51.0527732  50.2876515  71.1237768  52.2370316  49.1872843  72.5599847
  53.1643648  49.7109555  72.7921934  51.8437365  48.7267070  73.4662339
  52.5091081  48.1131004  71.5245117  51.5674510  47.6166327  71.2901987
  53.1094115  48.6969625  70.2447751  54.0513877  49.1932274  70.4782292
  53.2894583  47.8952126  69.5286179  52.4158391  49.4191650  69.8140997
  53.4471950  47.0943411  72.0862639  53.0017804  46.6378493  72.9701872
  53.6392589  46.3250368  71.3383445  54.3857170  47.5760433  72.3605602
  49.9243249  50.1798156  72.9640066  49.8899362  50.3747376  74.1829573
  48.8414604  49.8749260  72.2470960  48.9455641  49.7595992  71.2491173
  47.5144057  49.7066116  72.8277999  47.5937824  49.5846756  73.9080453
  46.6495841  50.9376415  72.5361910  47.1007228  51.7639348  73.0855656
  46.7357051  51.1237770  71.4656599  45.1807524  50.8203455  72.9135198
  44.8764612  49.8447500  72.5344142  45.0722423  50.8381493  73.9979588
  44.3055862  51.8954701  72.3008369  43.8071942  51.7040606  71.1648819
  44.1752623  52.9620771  72.9403822  46.8782583  48.4952842  72.2369459
  46.8057988  48.3805752  71.0152907  46.3669974  47.6054201  73.0879971
  46.4399156  47.7271709  74.0879766  45.6977751  46.4247576  72.5879985
  46.3664481  45.8658790  71.9332999  45.2892853  45.5278546  73.7450081
  46.1678137  45.3361859  74.3610846  44.5371615  46.0486173  74.3376429
  44.7581529  44.2970022  73.2839987  44.5100829  43.7539458  74.0357638
  44.4589010  46.8517795  71.7994250  43.8303214  47.8768783  72.0900213
  44.1746621  46.1113672  70.7329561  44.8201355  45.3753996  70.4843295
  42.9525215  46.2505241  69.9530865  42.7473528  47.3067018  69.7784618
  43.0893671  45.5442812  68.5918036  43.3532226  44.5044765  68.7848990
  42.1179087  45.5866351  68.0992848  44.1440049  46.1769571  67.6901972
  43.7821414  47.1772137  67.4522006  45.0862051  46.2516369  68.2331371
  44.3879437  45.4344951  66.4028752  45.5035217  44.9851397  66.1252811
  43.3678091  45.3206428  65.5673108  43.4878354  44.8303710  64.6924801
  42.4740320  45.7245581  65.8083841  42.0588962  45.4707144  70.9138673
  42.5355666  44.4810891  71.4794971  40.8595160  45.9615253  71.2282122
  40.5482876  46.8243531  70.8054070  40.0015843  45.3344919  72.2484688
  38.9955697  45.7488404  72.1825209  39.9207748  43.8172450  72.0448862
  40.9402222  43.4317789  72.0293237  39.3873274  43.3979356  72.8979474
  39.2024080  43.4183245  70.7450737  38.2303184  43.9113350  70.7359359
  39.8004333  43.7798246  69.9085419  39.0095460  41.9169548  70.6177221
  38.6841930  41.5186571  71.5787649  38.2451536  41.7203409  69.8659598
  40.3204743  41.2402838  70.2020164  41.0849926  41.5210269  70.9264442
  40.1651539  40.1620041  70.2379018  40.7661616  41.6342314  68.8290524
  40.9105563  42.6332999  68.7957052  41.6306830  41.1615064  68.6071658
  40.0580696  41.3737907  68.1575798  40.5021307  45.6895896  73.6771720
  40.4061871  44.8874522  74.6113712  41.0369074  46.9174595  73.8236598
  41.1422577  47.4834072  72.9937780  41.4593870  47.4805438  75.1046567
  41.8279244  46.7366207  75.8109553  42.5380397  48.5462806  74.9104543
  42.1801508  49.3032605  74.2126026  42.7640348  49.0140745  75.8686794
  43.4401195  48.0824720  74.5114147  40.2012485  48.1071545  75.7100495
  39.3193624  48.5690690  74.9737168  40.1170038  48.0808737  77.0453517
  40.8690781  47.6068307  77.5246917  39.0176330  48.6192734  77.8431183
  38.0714720  48.1734474  77.5363320  39.2601439  48.2872389  79.3386344
  39.4198983  47.2100920  79.3869270  40.1789182  48.8031527  79.6175372
  38.1385405  48.6813461  80.3077321  38.5328330  48.5693834  81.3177314
  37.9080602  49.7304666  80.1224569  36.8713903  47.8506856  80.1631752
  36.8479771  47.3855869  79.1776632  36.8505969  47.0765890  80.9302747
  35.6837580  48.6909605  80.3130974  35.3248095  48.8207281  81.2481994
  35.0634111  49.2985346  79.3049127  35.4893160  49.1366181  78.0584705
  36.2893957  48.5485046  77.8738224  35.0114114  49.6022520  77.3002542
  34.0059791  50.0596588  79.5333718  33.6685139  50.1796824  80.4777296
  33.5409147  50.5172820  78.7624017  38.8738089  50.1358769  77.6255924
  37.7537104  50.6251707  77.4471300  40.0194676  50.8639576  77.6026225
  40.8864877  50.3808637  77.7896940  40.0566936  52.3199260  77.4384845
  39.0539054  52.6970574  77.2377684  40.5845963  52.9857330  78.7192709
  41.6262410  52.6932736  78.8517208  40.5134459  54.0731162  78.6940632
  39.8588388  52.5398264  79.9392448  38.5917247  53.0083296  80.2335775
  38.2383476  52.3974124  81.3495783  37.2570762  52.6315629  81.7623481
  39.1957121  51.5704023  81.7796999  39.1889248  50.9927935  82.6082057
  40.2269553  51.6388588  80.8758475  41.1155346  51.0231297  81.0151521
  40.8550453  52.7737457  76.1993416  41.9943229  53.2585842  76.3559309
  40.2714606  52.6473133  74.9652939  39.0904016  52.0012012  74.5750315
  38.2824801  52.3892314  75.1953505  39.2177844  50.9362909  74.7695532
  38.8890619  52.2989606  73.1059945  38.3273868  53.2233267  72.9712078
  38.3642904  51.4804262  72.6133306  40.3204136  52.4308442  72.5729240
  40.4356043  53.0663415  71.6948731  40.7465042  51.4486550  72.3683495
  41.0225236  53.0629163  73.7639565  42.0100510  52.6070005  73.8348685
  41.1714078  54.5786560  73.5961006  40.2251277  55.3107452  73.8787743
  42.3655701  55.0485449  73.1609009  43.1199791  54.3831580  73.0701994
  42.6601876  56.4643372  72.9444512  41.7680066  56.9682119  72.5726683
  43.1037119  57.1497137  74.2575538  42.9884149  58.2224900  74.1027738
  42.4107725  56.8181740  75.0308690  44.5459492  56.8477629  74.6983104
  44.6426540  55.7993830  74.9805311  45.1885595  57.0538302  73.8423370
  44.9962795  57.7007503  75.8544090  44.3429697  57.7794213  76.9017252
  46.1529038  58.3266783  75.7014215  46.5078103  58.9137793  76.4426740
  46.6749814  58.2141713  74.8441709  43.6786920  56.7424545  71.8123290
  43.7351506  57.8721728  71.3359427  44.4705901  55.7418414  71.3970390
  44.3633015  54.8669886  71.8902136  45.5379262  55.8510182  70.4025380
  46.2486686  56.6244470  70.6936606  46.2771066  54.5231475  70.3035601
  45.8465969  53.9327199  71.1123591  46.0715455  54.0366643  69.3500514
  47.7565833  54.6320158  70.4988276  48.1656254  55.2669906  69.7129571
  48.0871294  55.2242752  71.8464429  47.6787834  54.5895624  72.6328856
  49.1692478  55.2907796  71.9591269  47.6525112  56.2209935  71.9223383
  48.4113751  53.3170041  70.3067625  48.2163725  52.9575563  69.2963811
  49.4864130  53.4209195  70.4537199  48.0137756  52.6036645  71.0286769
  45.1097104  56.3501866  69.0015202  45.7869300  57.2237520  68.4289758
  43.9962084  55.8271564  68.4609218  43.5012992  55.0672964  68.9056431
  43.5044468  56.3154315  67.1778415  44.3068497  56.2614253  66.4420888
  42.3201463  55.4849056  66.6725702  42.7554106  54.4945771  66.5388028
  41.5582504  55.4442247  67.4510044  41.6791033  55.9459682  65.3512863
  41.3530596  56.9781801  65.4790948  42.6401803  55.8597500  64.1731558
  42.9663216  54.8276845  64.0444256  42.1363929  56.1967320  63.2672076
  43.5067065  56.4930340  64.3633769  40.4377131  55.1675112  65.0603012
  39.7194601  55.3130465  65.8671664  40.0037417  55.5121619  64.1216927
  40.6828848  54.1085260  64.9794297  43.1071917  57.7894556  67.3294236
  43.4737175  58.6054361  66.4928958  42.3968463  58.1293851  68.4209209
  42.0926499  57.3790292  69.0246841  41.9655614  59.4857568  68.7336300
  41.3946539  59.8908072  67.8981075  41.0689940  59.5002657  70.0002153
  40.2485852  58.8163053  69.7828981  41.6373845  59.1261340  70.8517186
  40.5103379  60.8707455  70.3288462  39.5689650  61.4753674  69.5023085
  39.2257297  60.9392711  68.6174979  39.0662642  62.7404068  69.7875192
  38.3304790  63.1975012  69.1258647  39.5255905  63.4334894  70.8986343
  39.0126968  64.6761595  71.1819169  38.3493741  64.9613181  70.5492343
  40.4723532  62.8572725  71.7301826  40.8332015  63.3933974  72.6079406
  40.9634843  61.5854535  71.4395702  41.7153978  61.1310434  72.0847351
  43.1829644  60.3989790  68.8803758  43.2217463  61.4577718  68.2415145
  44.1958638  59.9647827  69.6647108  44.0708404  59.1178138  70.2005393
  45.4519945  60.7059470  69.8187544  45.2368641  61.6993631  70.2123816
  46.4086822  59.9989213  70.7752649  46.1655781  58.9365534  70.7559289
  47.4198163  60.1466959  70.3959622  46.3242462  60.5085670  72.1943987
  46.0132761  61.5532363  72.2024306  45.5649525  59.9002097  72.6857983
  47.6374119  60.3680661  72.9318697  47.9884877  59.2272409  73.3016665
  48.3413079  61.3912042  73.0948968  46.1455695  60.9237103  68.4740169
  46.5767965  62.0299862  68.2073735  46.2075080  59.8932013  67.6049997
  45.8512018  58.9985684  67.9095931  46.8348529  59.9789609  66.2747393
  47.8731259  60.2939351  66.3790447  46.8042583  58.6206148  65.5699671
  47.6525311  58.5866385  64.8863165  46.9228386  57.8520725  66.3337612
  45.6051273  58.3879679  64.8473902  45.6456505  57.5245709  64.4296543
  46.1814851  61.0464870  65.4012792  46.8802976  61.7106580  64.6378298
  44.8408287  61.1905382  65.5168760  44.3787270  60.5777662  66.1734366
  44.0280633  62.1629150  64.7850879  44.2724354  62.1232073  63.7235773
  42.5420685  61.8559805  64.9554900  42.3731771  61.6690144  66.0159704
  41.9939433  62.7481110  64.6525677  42.0607299  60.6768438  64.1561198
  42.0074960  60.9431600  63.1004955  42.7458380  59.8388873  64.2847966
  40.6877688  60.2835873  64.6453979  40.7667314  60.0373111  65.7042709
  40.0284268  61.1425757  64.5208733  40.1250211  59.1092078  63.8996460
  39.7467444  59.4449102  62.9340834  40.9125243  58.3717734  63.7443127
  39.0206481  58.4963235  64.6768913  38.2906334  59.1793577  64.8205664
  38.6481820  57.7074387  64.1679417  39.3710510  58.1848010  65.5714697
  44.2786882  63.5526041  65.3135840  44.4242133  64.4997662  64.5425091
  44.2775791  63.6713232  66.6307619  44.0131366  62.8528420  67.1601558
  44.4814206  64.9087039  67.3417694  43.8643570  65.7111569  66.9375407
  44.0669390  64.6564862  68.7891702  43.1196502  64.1372639  68.6437348
  44.8067815  63.9585563  69.1811231  43.8752141  65.7850868  69.7664072
  44.7854969  65.8583741  70.3614829  43.5931619  67.1279647  69.1023633
  42.6827073  67.0555872  68.5074408  43.4662408  67.8930746  69.8682605
  44.4285753  67.3967965  68.4559002  42.7832561  65.4494687  70.6926065
  43.0333786  64.5375636  71.2347939  42.6431656  66.2659266  71.4010361
  41.8627561  65.2958144  70.1294288  45.9201775  65.4518908  67.1406037
  46.0632323  66.6634130  67.0269766  46.9528763  64.5793718  66.9681221
  46.7634993  63.6022084  67.1395496  48.3363618  64.9770985  66.6389665
  48.6159586  65.8283336  67.2597109  49.3412722  63.8435911  66.8800436
  48.7696240  62.9409063  66.6644568  50.1781752  63.9175506  66.1856206
  49.8657509  63.7810611  68.2953196  50.7264195  64.7636702  68.7823124
  51.0008812  65.5912202  68.1281478  51.2350028  64.7021644  70.0809509
  51.9008677  65.4835700  70.4471900  50.9050549  63.6312179  70.9001469
  51.3836469  63.5935263  72.1868520  51.9292031  64.3522851  72.4065180
  50.0816113  62.6180492  70.4236139  49.8285751  61.7689484  71.0585163
  49.5776069  62.6922969  69.1230571  48.9468688  61.8917872  68.7364646
  48.4487187  65.4828759  65.2079420  49.3366372  66.2727789  64.9464999
  47.5356439  65.0750510  64.2959885  46.8451656  64.3947094  64.5796683
  47.5009168  65.5662519  62.9154198  48.4977308  65.4851855  62.4819578
  46.5160082  64.7569798  62.0430393  45.6657188  64.5071686  62.6776269
  46.1884129  65.4190963  61.2415513  47.0899597  63.4894787  61.4470614
  47.8421757  63.7526037  60.7033967  47.5528061  62.8998235  62.2383780
  45.9843466  62.6724014  60.7846964  45.1867244  62.5422122  61.5160982
  45.6100727  63.2483625  59.9383589  46.4520819  61.3204217  60.3050949
  47.1453139  61.4671254  59.4768389  46.9674145  60.8207721  61.1253886
  45.3115505  60.4821467  59.8533513  44.8341565  60.9447552  59.0929646
  45.6559573  59.5861518  59.5392222  44.6692819  60.3457316  60.6208023
  47.0679417  67.0263876  62.8941720  47.5971367  67.8148457  62.0999558
  46.0503688  67.3613895  63.7148170  45.5916337  66.6127421  64.2140048
  45.5101402  68.7083666  63.8411287  45.3896674  69.2105990  62.8812599
  44.1299501  68.6561790  64.5794625  44.2662040  68.0876734  65.4994280
  43.5790923  70.0510022  64.9163752  43.4421277  70.6199770  63.9968052
  42.6212799  69.9503820  65.4268373  44.2826694  70.5732038  65.5647454
  43.0903268  67.8530497  63.7632475  42.4863790  68.5822413  63.2232221
  43.6519105  67.2484334  63.0510942  42.1782999  66.9494376  64.5896693
  41.6160087  67.5534417  65.3017841  41.4853418  66.4292423  63.9283788
  42.7815409  66.2196348  65.1296583  46.5615016  69.6266642  64.5474506
  46.7661807  70.7603454  64.1086939  47.2380656  69.1191483  65.5975162
  47.0104115  68.1836534  65.9026754  48.1881220  69.8971647  66.3943890
  47.8653049  70.9376015  66.4315329  48.2771417  69.3578998  67.8339590
  48.5697621  68.3235748  67.6532812  49.0675841  69.8676388  68.3848374
  46.9809659  69.3864880  68.6556647  46.1621130  69.0233662  68.0345984
  47.1039631  68.5297281  69.8627857  47.9223731  68.8925358  70.4846173
  46.1739872  68.5649227  70.4302422  47.3059172  67.5021174  69.5605752
  46.5555651  70.8098701  68.9958872  46.3884953  71.3695024  68.0755618
  45.6341892  70.7850094  69.5777374  47.3393321  71.2945479  69.5780347
  49.5884356  70.0304473  65.7975637  50.3837269  70.8368932  66.2882070
  49.8934892  69.2791257  64.7422039  49.2543359  68.5619309  64.4304121
  51.2087569  69.3548367  64.1135868  51.9775530  69.2204285  64.8744982
  51.3883927  68.2733023  63.0380054  50.5749062  67.5567853  63.1517692
  51.3104693  68.7592877  62.0654591  52.7453485  67.5333749  63.1377569
  52.6990699  66.6145292  62.5532214  53.4828800  68.2055832  62.6992535
  53.1840422  67.1871795  64.5550055  54.0000822  67.9075033  65.1820543
  52.6200032  66.1093012  65.1050930  52.8738273  65.8333554  66.0429250
  51.9420728  65.5747831  64.5808772  51.5236006  70.7546308  63.5878718
  50.6507069  71.4290308  63.0087844  52.7422169  71.2074950  63.9138247
  53.3523664  70.6091056  64.4521061  53.2316279  72.5268001  63.5276939
  54.1443831  72.3840665  62.9492441  52.4717028  72.9895853  62.8980568
  53.5267871  73.4407953  64.6946553  54.3687457  74.3354636  64.5830695
  52.8282886  73.2114419  65.8036399  52.1351018  72.4770490  65.7875622
  53.0094105  73.9597039  67.0337280  52.9511543  75.0303510  66.8377171
  52.2469737  73.6820931  67.7615479  54.3616972  73.6396825  67.5974495
  54.8934253  72.5564634  67.3417646  54.9568770  74.5732284  68.3290450
  54.6082481  75.5168857  68.4188683  56.2524193  74.2492703  68.9376058
  56.8350112  73.5518668  68.3356803  57.1162289  75.5137196  69.2085333
  58.1552567  75.2039766  69.3206923  57.0059503  76.5298174  68.0605787
  55.9672056  76.8403987  67.9481074  57.6226607  77.4002131  68.2845877
  57.3496665  76.0704475  67.1337885  56.7699751  76.1512310  70.5283051
  56.9439587  75.4377671  71.3337870  57.3942497  77.0314140  70.6821190
  55.7207528  76.4465713  70.5255680  55.8932470  73.4165766  70.1988601
  54.7716834  73.5512419  70.7339175  56.7549628  72.5179053  70.6299933
  57.6531396  72.3294156  70.2082713  56.3670779  71.7457047  71.8059178
  57.2612041  71.2344110  72.1625916  56.0310009  72.4574569  72.5599473
  55.2716646  70.7200926  71.5713427  54.7310754  70.1805500  72.5274113
  54.9332140  70.4327502  70.3024493  55.3308609  71.0152364  69.5794790
  53.9764391  69.3917760  69.9094305  53.5427812  68.9501246  70.8066395
  52.8382339  69.9225320  68.9908991  53.2767033  70.2870184  68.0619241
  51.8378504  68.8211600  68.6806353  51.3985879  68.4564640  69.6091534
  51.0510811  69.2149413  68.0371829  52.3454262  68.0010903  68.1727458
  52.1183139  71.1020715  69.6529978  52.8596201  71.8897854  69.7874327
  51.3537175  71.4390363  68.9530359  51.4670170  70.7770606  71.0040209
  52.2311153  70.4404452  71.7046946  50.9814675  71.6698658  71.3980258
  50.7252139  69.9896940  70.8702979  54.8524028  68.3133431  69.2451383
  55.4792929  68.6396114  68.2367605  54.9998971  67.0703933  69.8159378
  54.4397132  66.5155991  70.9695575  53.3805203  66.7728392  70.9757373
  54.9301466  66.9770343  71.8266757  54.6744820  65.0231293  70.9055365
  53.8622393  64.5253191  70.3758707  54.7663430  64.6023065  71.9068213
  55.9975144  64.9060146  70.1390828  56.1436443  63.9772613  69.5875736
  56.8406929  65.0653666  70.8112112  55.8805887  66.0704252  69.1685545
  56.8678495  66.5260235  69.0921034  55.4244075  65.6068784  67.7822367
  54.2328299  65.6194716  67.4399074  56.4008981  65.2166411  66.9856189
  57.3508339  65.3246257  67.3112882  56.1886739  64.7262328  65.6440267
  55.3449600  65.2407242  65.1840870  57.4506359  64.9853516  64.7896085
  57.6421698  66.0566513  64.7285279  58.3078546  64.4888719  65.2443435
  57.3637589  64.4879076  63.3897875  56.6212196  65.1576145  62.4270507
  56.7628631  64.4512198  61.3139350  56.2515568  64.8112948  60.4211804
  57.5412468  63.3832097  61.5072130  57.8112194  62.6834259  60.8308128
  57.9275805  63.3951178  62.8265259  58.5720801  62.6055048  63.2128326
  55.8005218  63.2321237  65.7055482  56.3790581  62.4515544  66.4792835
  54.8019152  62.8595155  64.8911245  54.3100312  63.5880456  64.3937379
  54.3216325  61.4890657  64.7622534  54.7113398  60.8136703  65.5238757
  52.7649855  61.4331997  64.7666469  52.4034828  62.1159717  63.9977265
  52.2228886  60.0233471  64.4943588  52.5836139  59.3400572  65.2631844
  51.1331723  60.0434019  64.5090850  52.5663475  59.6839102  63.5171599
  52.1885904  62.0308029  66.0690601  52.4911939  63.0778153  66.0518307
  51.1071368  61.9636991  65.9505077  52.6031719  61.3917579  67.4326926
  53.6845205  61.4589089  67.5521743  52.1142531  61.9249874  68.2479987
  52.3004651  60.3447914  67.4508503  54.9334357  60.8759807  63.5145081
  54.7971987  61.4431854  62.4277679  55.6147594  59.7259478  63.6746561
  55.6829789  59.3407371  64.6058157  56.2612674  59.0072795  62.5783992
  56.6697774  59.7274689  61.8694944  57.4098921  58.1064464  63.0841760
  56.9266903  57.3090198  63.6487343  57.8686005  57.6896279  62.1875440
  58.4671794  58.7507869  63.9335587  57.9588061  59.2875771  64.7345041
  59.0735832  57.9518046  64.3601777  59.3566088  59.7062389  63.1728558
  59.6801890  59.2449104  62.2398119  58.8099042  60.6233848  62.9536370
  60.5404305  60.0438229  63.9642427  61.4080013  59.5817383  63.7320833
  60.5388212  60.9284699  64.9556105  59.4247590  61.5660294  65.2884668
  58.5695422  61.3785011  64.7849417  59.4365737  62.2362239  66.0439794
  61.6566485  61.1713259  65.6327287  62.5062682  60.6815229  65.3911930
  61.6512210  61.8445336  66.3856301  55.2976916  58.1203838  61.8403188
  55.4092701  58.0105555  60.6243360  54.4463732  57.3784898  62.5773664
  54.4233275  57.5273371  63.5760719  53.5506768  56.3725340  62.0049454
  53.0520401  56.7647329  61.1185817  54.3821841  55.1297708  61.5963976
  55.2311097  55.3713275  60.9568080  54.7437446  54.7264502  62.5422868
  53.6330141  54.0215287  60.9153420  53.2668940  53.9693872  59.6011946
  53.5044718  54.8385290  58.9878031  52.6484577  52.7708538  59.3304915
  52.2906803  52.4890986  58.4289878  52.6183777  52.0098714  60.4742480
  52.1022748  50.7268192  60.6991389  51.6166438  50.2098717  59.8714757
  52.2431012  50.1949716  61.9654893  51.8615854  49.1954377  62.1740020
  52.8653616  50.9095292  62.9909465  52.9626847  50.4846132  63.9899830
  53.3785010  52.1810390  62.7704133  53.8307298  52.7037967  63.6132148
  53.2595453  52.7516801  61.4881340  52.4905532  55.9373748  63.0069611
  52.7683551  55.7604966  64.1962370  51.2750864  55.7471112  62.5055489
  51.0867806  56.0966005  61.5768415  50.1822376  55.1619120  63.2533539
  50.6003152  54.7407810  64.1676618  49.0463928  56.1435299  63.6347933
  49.5360353  56.8224119  64.3329830  48.6493027  56.7121822  62.7939282
  47.9127233  55.4261627  64.3393404  48.0033010  55.0993621  65.6894093
  48.8551018  55.4682854  66.2607502  47.0341007  54.3184625  66.3113639
  47.1247243  54.0623358  67.3669625  45.9450210  53.8745266  65.5828995
  44.9737216  53.1257883  66.1830540  45.1452625  52.9653441  67.1138768
  45.8362083  54.1771550  64.2403933  44.9863342  53.8139186  63.6625753
  46.8157373  54.9482388  63.6258529  46.7341179  55.1896342  62.5660574
  49.6672543  53.9898710  62.4395720  49.4429829  54.1139027  61.2256641
  49.4983286  52.8613054  63.1050478  49.7195598  52.7998413  64.0886016
  48.9899232  51.6786227  62.4401164  48.0267069  51.9176930  61.9893848
  49.6930087  51.3865333  61.6600818  48.8131877  50.5362031  63.3885198
  48.7948017  50.7296928  64.5975780  48.6861262  49.3457673  62.8327251
  48.7015996  49.2992502  61.8239159  48.4955426  48.1064996  63.5796746
  48.4581823  48.3299176  64.6458771  47.1788637  47.3994235  63.1759714
  47.2064023  47.2885027  62.0919800  47.2005284  46.4143782  63.6421434
  45.8927871  48.1285278  63.5822348  45.0625458  47.4336376  63.4560292
  45.9739141  48.4100243  64.6321301  45.6099958  49.3729014  62.7683064
  45.6329212  49.3620092  61.5328745  45.3443162  50.4781870  63.4485432
  45.1484655  51.3369228  62.9542591  45.3388342  50.4570317  64.4583074
  49.6663828  47.1858813  63.3282981  50.2369934  47.1932536  62.2344160
  50.0295401  46.4051441  64.3484414  49.5500703  46.5777025  65.2204687
  51.0692507  45.3894504  64.3228673  51.1032291  44.9421615  63.3294503
  52.4625379  45.9731217  64.6496131  52.6865836  46.7058870  63.8743984
  52.3746353  46.4780321  65.6116103  53.5888073  44.9425453  64.7166839
  54.4560013  45.4344018  65.1573113  53.1690187  44.2366433  65.4333281
  54.0139664  44.1955481  63.4575155  53.7556418  44.6956174  62.3366515
  54.6896358  43.1492618  63.6036040  50.6255357  44.3390296  65.3310970
  50.5416253  44.6324601  66.5278512  50.2986433  43.1255336  64.8296056
  50.3291182  43.0460030  63.8232033  49.7879319  41.9864225  65.6028001
  49.5941716  41.1605692  64.9183132  50.7852758  41.5014931  66.6990617
  50.8282194  42.2932166  67.4470116  50.3447344  40.6079903  67.1414147
  52.2028314  41.1834444  66.2102352  52.5389133  42.0538084  65.6466607
  52.8194852  41.0681382  67.1016075  52.3282359  39.9311975  65.3377036
  52.1292883  39.0689960  65.9741998  51.5633265  39.9950503  64.5637943
  53.6976664  39.7763875  64.6865377  53.6873340  38.8374096  64.1330809
  53.8195723  40.6064077  63.9906177  54.8364938  39.7696039  65.6593975
  54.7239505  39.0003039  66.3040767  55.7069147  39.6641631  65.1580497
  54.8465047  40.6397702  66.1720470  48.3964238  42.3668040  66.1580958
  47.5733300  42.8824862  65.3895996  48.1439027  42.1726558  67.4697000
  48.8123275  41.6631881  68.0298342  46.8611451  42.5364337  68.0783779
  46.1211710  42.7125945  67.2976699  46.3493778  41.4012858  68.9978878
  46.3980327  40.4904148  68.4011919  47.0329773  41.3184566  69.8428322
  44.9249253  41.5964567  69.5131619  43.9746253  41.5451294  68.6866939
  44.7618513  41.8269474  70.7383537  46.9364226  43.9169359  68.7857087
  46.2100545  44.1766911  69.7448263  47.7941227  44.8163458  68.2682722
  48.3230278  44.5497686  67.4501675  47.9931273  46.1555480  68.8151914
  47.2916175  46.3276273  69.6315074  49.4188182  46.3126381  69.3535679
  50.0455329  46.0482127  68.5018595  49.5953891  47.3535182  69.6246609
  49.7590430  45.4263591  70.5203060  49.5345691  45.8464249  71.8249416
  49.0799718  46.8232678  71.9899226  49.8780887  45.0466465  72.9104897
  49.6881408  45.3911138  73.9270348  50.4661892  43.8116484  72.6966052
  50.7985842  43.0010048  73.7637090  50.5785192  43.3901870  74.6132432
  50.7195381  43.3846719  71.4024803  51.1834064  42.4142450  71.2258497
  50.3796125  44.1994830  70.3268369  50.6000695  43.8783328  69.3088186
  47.8005049  47.2531868  67.8058750  48.0195693  47.0561781  66.6140456
  47.4421977  48.4334892  68.3191430  47.2007200  48.3923115  69.2989859
  47.3903327  49.7200531  67.6516901  47.3296899  49.5636132  66.5746812
  46.1729577  50.5394638  68.0971813  46.1427960  50.5368147  69.1867603
  46.2830939  51.5632916  67.7397647  44.8726952  49.9862601  67.5786748
  44.7494777  49.6170847  66.3972744  43.8677924  49.9278923  68.4502875
  42.9711140  49.5656320  68.1590227  44.0068329  50.2461455  69.3986984
  48.6942221  50.3665295  68.1207087  49.0693885  50.2261325  69.2952099
  49.4218074  51.0024091  67.1869251  49.0224760  51.0792318  66.2624079
  50.7606766  51.5470860  67.4114744  51.0695219  51.5579010  68.4567480
  51.8095032  50.7258099  66.5882677  51.6128674  50.8771597  65.5268880
  53.2266771  51.1633802  66.9070802  53.4242208  51.0118867  67.9682716
  53.9303899  50.5739949  66.3192760  53.3450979  52.2190999  66.6630844
  51.6578748  49.2190798  66.7760559  50.6641219  48.9101830  66.4518028
  52.4107168  48.7008084  66.1821508  51.7903180  48.9684375  67.8285472
  50.8540628  53.0101889  67.0357115  50.5124164  53.3794399  65.9146457
  51.3972563  53.8241486  67.9441445  51.5658952  53.4776422  68.8777363
  51.6738891  55.2262774  67.6680302  51.4557671  55.4154454  66.6169653
  50.8320941  56.2174221  68.5399357  49.7998707  55.8897826  68.4163782
  51.1458776  56.0474711  69.5698661  50.9373410  57.7321424  68.2100528
  51.9924039  57.9989964  68.1489633  50.2582311  58.0645896  66.9038359
  49.2029604  57.7984247  66.9643233  50.3523370  59.1323961  66.7062653
  50.7282446  57.5033821  66.0962260  50.3047535  58.5836327  69.2891776
  50.8098982  58.4030075  70.2380205  50.3979699  59.6365655  69.0231991
  49.2500681  58.3255576  69.3847533  53.1766491  55.4190254  67.8582891
  53.6912812  55.2622074  68.9714661  53.8847315  55.6923670  66.7442865
  53.4006193  55.6343980  65.8597673  55.3244359  55.9508621  66.7312370
  55.7765053  55.6689618  67.6821653  56.0859139  55.2270153  65.5851692
  55.7746967  55.6533887  64.6315190  57.5971211  55.3932044  65.7484602
  57.9091767  54.9666232  66.7017443  58.1096774  54.8787475  64.9356129
  57.8513154  56.4528823  65.7245934  55.7061195  53.7422983  65.5225862
  54.6350834  53.6479422  65.3434754  56.2533116  53.2606026  64.7122470
  55.9596748  53.2617296  66.4675012  55.5128796  57.4671223  66.7008903
  54.9422433  58.1574088  65.8498981  56.2857990  57.9832578  67.6573215
  56.6972688  57.3577817  68.3352386  56.5204828  59.4094952  67.8045748
  56.4492395  59.9056944  66.8366853  55.4597269  60.0126367  68.7466132
  55.7498818  61.0467470  68.9324228  54.5103341  59.9927496  68.2114892
  55.3064970  59.2684038  70.0981305  54.9623945  58.2551281  69.8908468
  56.2849616  59.2284900  70.5767911  54.1266609  60.0833382  71.2165681
  55.1431486  61.4306085  71.8646124  55.4731900  62.0653850  71.0422801
  54.5572151  62.0228251  72.5675079  56.0127794  61.0170707  72.3753277
  57.9134538  59.7291117  68.3273434  58.6795308  58.8206926  68.6593596
  58.1958326  61.0405287  68.4674915  57.4569971  61.6766218  68.2036597
  59.4352650  61.6026842  69.0128598  60.2624884  61.3904411  68.3355465
  59.3157568  63.1477961  69.1845460  58.3124500  63.2061067  69.6065348
  60.0400976  63.4942895  69.9216842  59.3955891  64.0245255  67.9452001
  60.0110520  63.5813179  66.9353355  58.9533959  65.2227832  68.0256034
  59.6992976  61.0470227  70.3958381  58.7878289  61.0209035  71.2188287
  60.9433934  60.6374320  70.6620565  61.6298947  60.6196789  69.9214486
  61.3624989  60.2454138  72.0029011  60.5708081  59.6608462  72.4715220
  62.6297010  59.4062634  71.9669763  62.4269813  58.5679044  71.3005244
  63.4040120  60.0374221  71.5308788  63.0966967  58.8877529  73.2940279
  63.1048444  59.7080025  74.0118197  62.1810199  57.7979380  73.7877032
  62.1727089  56.9770817  73.0706086  62.5356243  57.4337783  74.7519357
  61.1713108  58.1933750  73.8982361  64.4535925  58.3389926  73.1698952
  65.1329798  59.1214220  72.8317582  64.7847126  57.9646681  74.1385757
  64.4513937  57.5231046  72.4471083  61.6505970  61.5686391  72.7413408
  62.4467355  62.3939969  72.2674643  60.9520778  61.7965841  73.8538291
  60.2545337  61.1278355  74.1476095  61.1285107  63.0081619  74.6501887
  61.7645017  63.7139928  74.1159441  59.7580854  63.6802575  74.9169374
  59.2381946  62.9238730  75.5048959  59.9255496  64.5652149  75.5308643
  58.9059651  64.0563314  73.7017871  58.8287440  63.1901350  73.0446406
  57.5474464  64.4809161  74.1216879  57.6238314  65.3474139  74.7785332
  56.9600363  64.7432952  73.2417973  57.0591967  63.6643471  74.6535973
  59.5656722  65.1414098  72.8487065  60.5305594  64.7845632  72.4884945
  58.9249896  65.3754989  71.9985128  59.7121791  66.0383866  73.4504269
  61.8188312  62.6334609  75.9537695  61.8790989  61.4499981  76.3059121
  62.3205447  63.6376669  76.6563610  62.2198618  64.5636325  76.2657844
  62.9978930  63.4989555  77.9357204  63.7082534  62.6766049  77.8507104
  63.5374290  64.4257481  78.1307993  62.0644612  63.2236049  79.0859805
  60.9598932  62.7026159  78.8852394  62.5188091  63.5118370  80.3293390
  63.8888576  63.5242207  80.7412403  64.2025194  64.5602907  80.8688160
  64.4892382  63.0568710  79.9607107  63.9192733  62.7446080  82.0365032
  64.7659222  63.0487407  82.6519608  63.9780500  61.6736586  81.8423023
  62.5853226  63.1082057  82.7000738  62.5926590  64.0596848  83.2318001
  62.2398821  62.3208394  83.3700177  61.6690223  63.1991849  81.4909181
  61.2460283  62.2072278  81.3321871  60.5440095  64.2020411  81.6993904
  60.6184274  65.3408084  81.2222393  59.5023034  63.7714011  82.4250615
  59.4644021  62.8132993  82.7424002  58.3978571  64.6470900  82.7533483
  58.1366540  65.2558020  81.8877029  57.1817918  63.8312954  83.1579138
  56.2972119  64.4639688  83.0848243  57.0830901  62.9890996  82.4730311
  57.3082463  63.3506212  84.4791252  56.5288965  62.8396963  84.7097104
  58.8089898  65.5875153  83.9071716  59.8342891  65.3560778  84.5639365
  57.9647033  66.6027201  84.1749505  57.1877621  66.7448873  83.5454665
  58.1635839  67.5603792  85.2530306  59.1791332  67.9524588  85.1979634
  57.1802027  68.7334591  85.1672065  56.2216181  68.2228923  85.0748144
  57.2027037  69.2969888  86.0999594  57.3623732  69.6879598  83.9927877
  57.2327449  69.1344673  83.0627644  56.3399099  70.8171453  84.0585383
  56.4692282  71.3714166  84.9881398  56.4847714  71.4888883  83.2124430
  55.3337522  70.3995096  84.0221035  58.7935947  70.2282151  83.9173345
  59.4897696  69.3984289  83.7952901  58.8828131  70.9046812  83.0673140
  59.0281777  70.7665536  84.8356272  58.0870888  66.8898408  86.6031738
  58.7985818  67.3085134  87.5006325  57.2983287  65.7949814  86.7250768
  56.7110471  65.5520830  85.9400928  57.1947813  64.9986997  87.9344268
  57.0806596  65.6536437  88.7982113  55.9891896  64.0726547  87.8636354
  55.1221990  64.6963159  87.6457521  56.1623972  63.3889867  87.0325534
  55.7301850  63.2661964  89.1436286  54.9361644  62.5566739  88.9107983
  56.6717059  62.7303690  89.2641545  55.3935491  63.9983268  90.4371568
  54.9956140  65.1843229  90.3905764  55.4717427  63.3494843  91.5040922
  58.5015792  64.2119712  88.1514764  58.9508353  64.0860968  89.2906817
  59.1271117  63.7170415  87.0681446  58.6893017  63.8352623  86.1656782
  60.4046982  62.9944525  87.1332277  60.3255291  62.1929427  87.8676755
  60.7834691  62.3788739  85.7708931  60.7843343  63.2326313  85.0932525
  61.7925218  61.9733623  85.8448737  59.8478314  61.3112460  85.2372052
  59.1413188  60.6675291  86.0592323  59.8604838  61.0729546  84.0015025
  61.4986961  63.9532452  87.5717003  62.3093209  63.6088272  88.4314930
  61.4916990  65.1695528  87.0049942  60.8390130  65.3422394  86.2538087
  62.4726546  66.2004615  87.3184959  63.4622316  65.7480861  87.3832494
  62.5029306  67.2916070  86.2455229  61.4710713  67.6381312  86.1881926
  63.1424683  68.1096071  86.5771363  62.9564612  66.8183134  84.8703055
  62.5423299  65.8261651  84.6907564  62.4995083  67.7482920  83.7991388
  62.9136413  68.7406053  83.9777641  62.8392993  67.3823571  82.8302557
  61.4108996  67.8030540  83.8048478  64.4393335  66.6542871  84.8113625
  64.7536240  65.9178360  85.5509304  64.7286917  66.3157047  83.8165082
  64.9197722  67.6094052  85.0235580  62.2684649  66.7610649  88.7172737
  63.2565023  67.0660175  89.3891420  60.9895300  66.8399212  89.1695990
  60.2502088  66.6493399  88.5084014  60.6177774  67.2947368  90.5218836
  61.1040222  68.2483985  90.7272971  59.0903162  67.4801496  90.6576344
  58.6553633  67.9970414  89.8022175  58.7171841  66.4565536  90.6911551
  58.5620885  68.1764127  91.9009619  58.8513893  69.5153342  92.1459746
  59.5105173  70.0526883  91.4641384  58.3067500  70.1706642  93.2518243
  58.5785032  71.2051570  93.4617656  57.4224005  69.5067232  94.0806339
  56.9848143  70.0239058  94.9345311  57.0944791  68.1959568  93.8293173
  56.3800343  67.6812973  94.4718081  57.6723248  67.5271593  92.7581080
  57.4330073  66.4793555  92.5766302  61.2030587  66.3119506  91.5418238
  61.8956513  66.7523260  92.4575241  61.0333914  64.9868931  91.2980848
  60.4133084  64.7563554  90.5349015  61.6004638  63.8832668  92.0964124
  61.2869462  63.9849240  93.1353886  61.1221194  62.5286888  91.5719173
  61.2496529  62.5730157  90.4903122  61.7320194  61.7208823  91.9763559
  59.6651533  62.2353929  91.8766635  59.0997110  62.6576067  92.9092257
  59.0403089  61.4428709  91.0121686  58.0686875  61.2085921  91.1576509
  59.5398915  61.0784397  90.2136025  63.1390200  63.9417746  92.1404105
  63.7146436  63.9078339  93.2212423  63.7816472  64.1004336  90.9789788
  63.1938731  64.0733693  90.1580717  65.2249468  64.2639045  90.7942479
  65.7545115  63.3681541  91.1187345  65.5213257  64.4971569  89.2950102
  65.1643212  63.6494566  88.7101587  65.0097639  65.4032000  88.9702174
  66.9758017  64.6765056  88.9499672  67.8271121  63.5813100  88.8656579
  67.4259699  62.5790408  89.0161283  69.1865407  63.7560827  88.5907223
  69.8501931  62.8919860  88.5590511  69.6889662  65.0214226  88.3594120
  70.7491877  65.1582652  88.1465638  68.8494675  66.1096396  88.3979306
  69.2412670  67.1064517  88.1955474  67.4954939  65.9386033  88.6961103
  66.8319228  66.8026050  88.7318081  65.7569987  65.4343383  91.6380977
  66.8339837  65.3287073  92.2237899  64.9763243  66.5328259  91.7215631
  64.1648725  66.5298053  91.1202011  65.2652027  67.7470298  92.4946396
  66.3425517  67.8608571  92.6148961  64.7248593  68.9721369  91.7803891
  63.6534574  68.8768965  91.6039627  64.9183642  69.8751799  92.3593272
  65.4746165  69.2438931  90.1657233  64.7825251  70.3415400  89.8740400
  64.7785018  67.6844618  93.9408932  64.6597543  68.7285639  94.5977737
  64.5226956  66.4635903  94.4395654  64.5604955  65.7004890  93.7789998
  64.0578123  66.1829034  95.7970208  63.7577259  65.1372733  95.8656134
  65.1542536  66.4461053  96.8324527  65.3075958  67.5224862  96.9098451
  64.8233734  66.0566145  97.7952171  66.3720120  65.8209230  96.4633762
  67.0394981  66.0024801  97.1290332  62.7459626  66.9083126  96.1479751
  62.6450120  67.4556403  97.2525023  61.7305889  66.8758487  95.2143176
  61.9771910  66.4971580  94.3110568  60.3775634  67.4300855  95.3934505
  59.8138376  67.4192470  94.4606081  59.6536783  66.5276934  96.4185105
  59.7422078  65.5296837  95.9892804  60.2795850  66.5968249  97.3082080
  58.1905655  66.7919991  96.8007855  58.1564879  67.4633994  97.6587839
  57.6742712  67.2529003  95.9586975  57.5005979  65.4649428  97.1608012
  58.0731628  64.9350741  97.9220551  56.4917815  65.6507480  97.5294006
  57.4159820  64.6236920  95.9682718  58.1652417  63.9676363  95.8000452
  56.4188757  64.6877962  95.0894040  55.3616232  65.4640235  95.3242557
  55.3166734  66.0071572  96.1745999  54.6100319  65.5057026  94.6508516
  56.4601335  63.9664162  93.9796262  57.2520149  63.3655879  93.8006587
  55.6995301  64.0203902  93.3173061  60.4463380  68.9396349  95.8039000
  59.7015543  69.4253626  96.6493590  61.3668672  69.6648505  95.1911331
  61.9861234  69.1901249  94.5498402  61.6108324  71.0689176  95.4718492
  60.6774600  71.5764772  95.7153621  62.5772778  71.1875054  96.6939728
  61.9259425  71.1948122  97.5679340  63.1591714  70.2658895  96.6828445
  63.5370877  72.4035934  96.7549977  64.2425271  72.2025434  97.5612452
  64.0697415  72.4270828  95.8042979  62.8580802  73.7621306  96.9953963
  62.0668286  73.8900744  96.2567148  62.4242109  73.7610435  97.9953241
  63.7905310  74.8938240  96.8877142  64.7757353  74.6738650  96.8547021
  63.4232553  76.1737234  96.8468080  62.1365359  76.5060070  96.8812851
  61.4329575  75.7836746  96.9388490  61.8684402  77.4792645  96.8497550
  64.3384040  77.1291601  96.7552572  65.3175128  76.8843330  96.7164564
  64.0520461  78.0972343  96.7247578  62.1233582  71.7832949  94.2020573
  63.1140062  71.3427007  93.6036382  61.3872606  72.8423542  93.7687507
  60.5107448  72.9996426  94.2452794  61.7468236  73.7370735  92.6530012
  62.7295628  73.4340892  92.2917211  60.7593429  73.7246452  91.4659871
  59.7689594  73.8085800  91.9134185  60.9499762  74.5967217  90.8404941
  60.7161706  72.5324843  90.5427355  61.7937637  71.6537274  90.4563154
  62.6695012  71.8146402  91.0850369  61.7577009  70.5719474  89.5716451
  62.6038112  69.8871256  89.5149256  60.6498763  70.3702318  88.7688908
  60.6272023  69.5293657  88.0756881  59.5774651  71.2288118  88.8441736
  58.7001506  71.0611929  88.2194149  59.6128822  72.3121194  89.7186827
  58.7704840  73.0022204  89.7658617  61.8584471  75.1788416  93.1565296
  61.0133836  75.6303566  93.9581429  62.8829688  75.9131682  92.6393008
  63.5504695  75.4452476  92.0429850  63.1205082  77.3107798  92.9790934
  62.8833358  77.5529297  94.0150528  64.5674449  77.7612347  92.6861134
  64.6376887  78.8262027  92.9074939  65.5735549  77.0196735  93.4936583
  65.5042248  75.9546087  93.2724576  66.5732566  77.3771611  93.2468826
  65.3812068  77.1832824  94.5540049  64.8797108  77.6997477  91.2839595
  65.7851500  77.9868724  91.1448921  62.1121821  78.1476646  92.2536307
  61.5529434  77.6978621  91.2485219  61.8737993  79.3707638  92.7525256
  62.2651947  79.6326233  93.6460236  60.9499318  80.2872690  92.1111185
  59.9718418  79.8171573  92.0089708  60.7968731  81.5538100  92.9453367
  60.5775868  81.2412026  93.9662624  61.7559987  82.0711609  92.9223998
  59.7014821  82.4933624  92.4557766  59.5945975  83.2726027  93.2104030
  60.0584667  82.9355644  91.5256576  58.0981176  81.7232500  92.1683779
  57.6924240  81.2014984  93.9019243  57.6567216  82.0792801  94.5471558
  56.7234735  80.7024181  93.9143522  58.4583878  80.5158207  94.2642044
  61.3696541  80.5615802  90.6493854  60.4936606  80.6352786  89.7782397
  62.7050626  80.5740668  90.3615175  63.3456056  80.5469438  91.1419458
  63.2594849  80.7463917  89.0099328  62.8323676  81.6421034  88.5589665
  64.7977003  80.8926836  89.0372324  65.0466802  81.7082398  89.7161847
  65.2180345  79.9620585  89.4184884  65.3780252  81.1846183  87.6588790
  64.9282695  80.4813595  86.9579883  65.0886234  82.2004111  87.3895955
  66.8535643  81.0607867  87.6038861  67.3074875  81.8411534  88.2146894
  67.1513709  80.0834792  87.9837291  67.3201829  81.2083869  86.1651970
  67.1772839  80.2531503  85.6600202  66.7061029  81.9691298  85.6832477
  68.7541850  81.6032463  86.0835528  69.3234146  80.8982446  86.5297030
  69.0246456  81.6906306  85.1143701  68.8867353  82.4885744  86.5512319
  62.8184994  79.6177094  88.0487726  62.4218929  79.9114548  86.9221108
  62.8863626  78.3430769  88.4890764  63.3844629  78.1701241  89.3505187
  62.4421533  77.1898419  87.6991143  62.8557030  77.3066276  86.6973973
  62.9480519  75.8586729  88.2886954  62.7260084  75.8619063  89.3558348
  62.2996371  74.6328722  87.6360188  62.5216476  74.6287033  86.5688761
  62.6953392  73.7255861  88.0924735  61.2201233  74.6713154  87.7818702
  64.3466708  75.7811606  88.0241224  64.6946108  74.9602019  88.3798820
  60.9241046  77.2547376  87.4759318  60.4779259  77.2377942  86.3405489
  60.1530992  77.4090975  88.5287209  60.5754845  77.3368925  89.4433117
  58.6886583  77.5102994  88.4432049  58.2406825  76.6594207  87.9299581
  58.0289171  77.6448882  89.8612040  58.5029042  78.4799206  90.3771076
  56.5160837  77.8879490  89.7777500  56.0413132  77.0530534  89.2623442
  56.1053773  77.9741584  90.7837265  56.3254249  78.8095346  89.2278129
  58.3306384  76.4252656  90.7090448  59.4091485  76.3241816  90.8302885
  57.8645054  76.5382037  91.6878526  57.9355517  75.5350825  90.2195742
  58.2667288  78.6188474  87.4594473  57.3856903  78.3834798  86.6075035
  58.9128005  79.7997110  87.5463297  59.5454533  79.9842396  88.3117047
  58.5773355  80.9063231  86.6362073  57.4941478  80.9644751  86.5293343
  59.0886171  82.2465322  87.1574336  60.1200867  81.9560104  87.3568493
  59.0749357  83.0657215  86.4385164  58.4160621  82.7070925  88.4794045
  58.3971821  81.8593945  89.1643516  59.1651638  83.8734726  89.1315125
  59.1840588  84.7217590  88.4472961  58.6587268  84.1615836  90.0527151
  60.1864633  83.5681540  89.3591709  56.9206683  82.9159821  88.3122534
  56.4552032  81.9808129  88.0009654  56.4899751  83.2375985  89.2604979
  56.7423362  83.6796286  87.5551929  58.9942212  80.6678869  85.1800382
  58.2027690  81.0015403  84.2939865  60.1907199  80.0676535  84.9181185
  60.8120668  79.8597898  85.6867667  60.6298338  79.7229203  83.5486781
  60.5683592  80.6126789  82.9220604  62.0762954  79.1992808  83.5184864
  62.1831299  78.5035156  84.3507102  62.2037568  78.6626836  82.5783178
  63.1282450  80.2812362  83.6278923  62.8352745  81.0765871  82.9425559
  63.0928832  80.6532848  84.6518217  64.8149511  79.7574727  83.2439725
  65.0985168  78.5388455  84.5206260  64.3645633  77.7382251  84.4288749
  66.1014365  78.1257298  84.4129773  65.0027078  79.0084365  85.4996082
  59.7207740  78.6503680  82.9440652  59.4695984  78.6520536  81.7441781
  59.2486751  77.7282834  83.7751871  59.5858630  77.7337120  84.7272240
  58.3618214  76.6561311  83.3659526  58.7262982  76.2335078  82.4296591
  58.2830776  75.5218965  84.4253903  58.2063216  76.0821575  85.3572247
  57.3675944  74.9514645  84.2685538  59.4783701  74.5599391  84.5036078
  60.3820744  75.1477868  84.6644011  59.3191406  73.5511682  85.6386889
  58.4158331  72.9625927  85.4783355  60.1845521  72.8888467  85.6609139
  59.2432047  74.0809089  86.5882725  59.7069250  73.8562816  83.1938683
  59.9075722  74.5924585  82.4154830  60.5599614  73.1840171  83.2860130
  58.8190899  73.2817669  82.9297079  57.0025897  77.2001340  83.0389801
  56.4398720  76.8315520  81.9978835  56.4767386  78.0910235  83.9120537
  57.0181344  78.2672718  84.7462757  55.1578876  78.7202541  83.7935341
  54.4325976  77.9108090  83.8763118  54.9210072  79.7044402  84.9319275
  55.6339415  80.5255687  84.8572771  53.9064995  80.0978114  84.8676370
  55.0528487  79.1951437  85.8865658  54.9358624  79.3836637  82.4424891
  53.8562595  79.2535728  81.8711250  55.9729765  80.0208173  81.9093591
  56.8173785  80.0360949  82.4633007  55.9677193  80.7332755  80.6378306
  55.1860436  81.4928583  80.6270543  57.3282379  81.4254348  80.4496642
  57.6562752  81.9277583  81.3596981  57.9935922  80.5886262  80.2371665
  57.3622579  82.4061183  79.2899726  56.6414548  83.4460700  79.3584717
  58.1868463  82.1993590  78.3668298  55.6682523  79.8015797  79.4832438
  54.7747345  80.0755311  78.6883913  56.4115605  78.6704463  79.4200766
  57.1869484  78.6118703  80.0646243  56.2507411  77.6054394  78.4298248
  56.1552895  78.0387218  77.4342071  57.4552173  76.6794246  78.4428902
  57.6472852  76.3996624  79.4787195  57.1958908  75.7898155  77.8689169
  58.7019078  77.3183939  77.8512502  58.4190610  77.8454979  76.9400642
  59.1394357  78.0239202  78.5575815  59.7364654  76.2797528  77.5050706
  59.5273530  75.4332043  76.6213915  60.8659863  76.3122741  78.2184183
  61.5969041  75.6406302  78.0319911  60.9836077  77.0083500  78.9407374
  54.9446243  76.8154412  78.5796507  54.3585142  76.4939152  77.5747691
  54.4841779  76.5365714  79.8012863  55.0983234  76.7636703  80.5702797
  53.2337540  75.8310446  80.0956905  53.1756480  74.9199187  79.5002305
  53.1656428  75.4510922  81.5818908  53.3718125  76.3558036  82.1538092
  52.1465814  75.1198936  81.7816938  54.1519183  74.3489872  81.9948970
  53.9222188  73.4830846  81.3739690  55.1469007  74.7190766  81.7476196
  54.1152073  73.8556103  83.7472530  54.9713296  75.0108445  84.3446311
  54.4897986  75.9661347  84.1357117  55.0605403  74.8776201  85.4227746
  55.9638304  74.9986462  83.8941928  51.9648823  76.5978054  79.6608522
  51.0064640  75.9698282  79.2150810  51.9534057  77.9399554  79.7718368
  52.7328919  78.3720325  80.2470315  50.8389772  78.8016057  79.3282640
  49.8766767  78.3806940  79.6196579  50.9499191  80.2783695  79.8650465
  51.9545013  80.6459259  79.6557210  49.9193995  81.2010742  79.2010363
  48.9144877  80.8343961  79.4103211  50.0268673  82.2109735  79.5968327
  50.0837257  81.2142685  78.1235754  50.8198358  80.3238345  81.4069386
  49.7552046  80.2119562  81.6122297  51.3535545  79.4453910  81.7696793
  51.3326602  81.5351252  82.0983285  50.7990569  82.4139822  81.7364200
  51.1782133  81.4337298  83.1725558  52.3974071  81.6474181  81.8938676
  50.8095384  78.7304024  77.7997237  49.7442673  78.4625283  77.2304523
  51.9811445  78.9186514  77.1518831  52.7779966  79.2147588  77.6972697
  52.1225832  78.8518945  75.6953298  51.4139792  79.5402774  75.2347773
  53.5255153  79.2280299  75.2483199  54.2581885  78.5966325  75.7509397
  53.6184310  79.1033714  74.1694654  53.7586742  80.5865853  75.5893096
  54.6426336  80.8387935  75.3125306  51.6992363  77.5146667  75.1103100
  50.9819029  77.5109722  74.1032881  52.1126034  76.3815666  75.7437165
  52.7639918  76.4868256  76.5083818  51.7503060  75.0254155  75.3210479
  52.0300785  74.8908636  74.2761927  52.4624663  73.9522456  76.1628602
  52.2260365  74.1994843  77.1977868  51.9786617  73.0130662  75.8945784
  54.0019800  73.8055154  76.0042097  54.4278646  74.7173388  76.4228996
  54.2809777  72.9555434  76.6269536  54.5312619  73.5994089  74.6056938
  55.4245915  72.9750516  74.6211578  53.7748005  73.1347995  73.9732352
  54.8764563  74.8896938  74.0448564  54.1618967  75.3480809  73.4976954
  56.0479623  75.4934704  74.1884440  57.0464420  74.8794612  74.8157716
  56.9110040  73.9488940  75.1842838  57.9358312  75.3463902  74.9209563
  56.2313827  76.7144263  73.7208570  55.4748129  77.1909619  73.2511591
  57.1274228  77.1662903  73.8350054  50.2191487  74.8179535  75.3437422
  49.6689722  74.3718572  74.3390085  49.5268456  75.1820147  76.4540579
  50.0788063  75.4415561  77.2590902  48.0416882  75.1112391  76.6061773
  47.6630869  74.1396310  76.2887848  47.5866175  75.3929926  78.0769929
  47.9405412  76.3839892  78.3611831  46.0615250  75.3341784  78.2226224
  45.7068841  74.3432661  77.9390323  45.7868754  75.5352209  79.2581175
  45.6050061  76.0821734  77.5743992  48.2471667  74.4166264  79.0705792
  47.7679871  73.4513480  78.9071004  49.2957705  74.3550765  78.7794757
  48.1495740  74.7923723  80.5630257  47.1011967  74.8536606  80.8549994
  48.6494669  74.0320320  81.1630998  48.6289783  75.7573909  80.7273742
  47.3722516  76.0630151  75.5797378  46.4468489  75.6679268  74.8611098
  47.9006811  77.2998930  75.4706311  48.6445935  77.5562175  76.1038699
  47.4190294  78.2979836  74.5364561  46.4057407  78.6010356  74.8000935
  48.3142262  79.5150574  74.5811661  48.3940545  79.8671361  75.6096442
  49.3042812  79.2490203  74.2108752  47.7354039  80.6026532  73.7238982
  47.6647374  80.1453274  72.7370039  46.7340126  80.8189893  74.0960721
  48.5191641  81.8775578  73.6286921  49.5310366  82.0184139  74.3543860
  48.0803721  82.7580881  72.8526425  47.3249397  77.7788348  73.0987949
  46.3044850  78.0038256  72.4206766  48.3834328  77.0744059  72.6363988
  49.2170778  76.9993338  73.2016418  48.4158671  76.5372047  71.2849223
  48.1824854  77.3288476  70.5729296  49.7869129  75.9748598  70.9531475
  50.4169698  76.8635036  70.9152033  50.1745471  75.2870896  71.7046873
  49.7895722  75.2996053  69.6056397  49.7895007  76.0467087  68.4316962
  49.8529343  77.1327606  68.4992754  49.7101198  75.4292107  67.1839009
  49.7327208  76.0260929  66.2721319  49.5918485  74.0458282  67.1065520
  49.5203483  73.3924477  65.9056113  49.5605654  73.9863875  65.1524726
  49.5531754  73.2904509  68.2639005  49.4446889  72.2071871  68.2103220
  49.6534903  73.9193376  69.5012523  49.6261508  73.3284069  70.4167596
  47.2974498  75.5252597  71.0445142  46.5953728  75.6174514  70.0331257
  47.1325085  74.5649740  71.9771341  47.8437346  74.4997605  72.6912798
  46.0800463  73.5552951  71.9550945  46.1288843  72.9624142  71.0417455
  46.1825756  72.5922771  73.1816906  46.1487514  73.1880198  74.0938561
  45.0435100  71.5849328  73.1920762  45.0769559  70.9884647  72.2803700
  45.1445322  70.9303763  74.0577845  44.0913867  72.1128589  73.2455277
  47.5097441  71.8510965  73.1816816  48.3277946  72.5696771  73.2320527
  47.5559564  71.1876030  74.0452443  47.5984901  71.2637870  72.2677382
  44.7124833  74.2639731  71.8445283  43.8962382  73.8833152  71.0120918
  44.5149952  75.3477468  72.6254535  45.2153577  75.5323475  73.3293812
  43.3180549  76.1896801  72.5999573  42.4279262  75.5668251  72.6883975
  43.3350873  77.1873092  73.7628172  44.2836841  77.7242062  73.7650579
  42.5171095  77.8964729  73.6359345  43.1754659  76.5843175  75.1421750
  43.2481221  77.3668159  76.2870690  43.0582463  76.5461289  77.3065248
  43.0618331  76.9774837  78.3075339  42.8917175  75.2958129  76.8989418
  42.7434849  74.4746916  77.4680524  42.9567611  75.3023015  75.5192707
  42.8365859  74.3722958  74.9636192  43.1102516  76.9115058  71.2345495
  41.9729335  77.0283024  70.7698087  44.1922240  77.3398868  70.5607969
  45.1136837  77.3158085  70.9736305  44.0320825  77.9874752  69.2466451
  43.1941496  78.6826607  69.1948297  45.3030461  78.7164190  68.7898101
  45.1049359  79.1415449  67.8058789  45.7328770  79.8254446  69.7454762
  45.9316251  79.4009852  70.7295661  46.6369596  80.3020958  69.3666129
  44.9375485  80.5666573  69.8239414  46.3523653  77.7697989  68.5427376
  47.1423448  78.2349119  68.2577770  43.5501196  77.0060712  68.2041403
  42.9221161  77.4119391  67.2198513  43.8542167  75.7074178  68.4211226
  44.4866188  75.5070307  69.1827077  43.4469625  74.6068128  67.5513017
  43.2760381  74.9871261  66.5442039  44.5341424  73.5038585  67.4863670
  44.7271295  73.1842757  68.5104383  44.1133634  72.6729110  66.9201766
  45.8412399  73.9501037  66.8383936  46.1800584  74.8708670  67.3132597
  46.5928202  73.1728257  66.9764807  45.6360185  74.1892556  65.3810654
  45.5928402  73.2149143  64.8943483  44.6773226  74.6950210  65.2661613
  46.7103268  75.0117213  64.7522848  46.8280175  75.9402701  65.3108961
  47.6479068  74.4560996  64.7703811  46.3463334  75.3232109  63.3448534
  45.4777974  75.8384363  63.3278884  47.0762906  75.8798516  62.9236484
  46.2376497  74.4629407  62.8269518  42.0589095  74.0465692  67.9437059
  41.6992675  72.9621285  67.4914503  41.2720535  74.7969046  68.7693235
  41.7336403  75.5946414  69.1824251  39.8925089  74.4912816  69.1915939
  39.4822523  75.3315394  69.7517327  39.0010992  74.2359743  67.9660944
  39.1707989  73.2580035  67.5156785  37.9840893  74.2846587  68.3552225
  39.1609889  75.2946892  66.8974299  39.0757062  76.4993849  67.1531486
  39.5041241  74.8698712  65.6948623  39.6246771  75.5338766  64.9434212
  39.6443861  73.8829656  65.5322442  39.7429199  73.3516097  70.1928132
  38.6340226  72.8803192  70.3947535  40.8190006  72.9591875  70.8721432
  41.7125629  73.3903940  70.6831810  40.7643051  71.8918419  71.8520288
  39.7463743  71.5095485  71.9279751  41.6940023  70.7367896  71.4357652
  42.6443690  71.1394184  71.0853476  41.8707633  70.0758499  72.2843017
  41.1523572  69.8721107  70.3192380  41.1976038  70.3042722  68.9975383
  41.6501921  71.2685431  68.7663557  40.6714515  69.5175522  67.9734307
  40.6623692  69.8904857  66.9492536  40.1618036  68.2656602  68.2570190
  39.8068061  67.6286631  67.4468885  40.1014595  67.8217422  69.5584246
  39.6725719  66.8456686  69.7852195  40.5921151  68.6264414  70.5906398
  40.5388790  68.2811551  71.6231335  41.1410161  72.3526251  73.2341231
  41.9616170  73.2504809  73.3831033  40.5730862  71.6944094  74.2531137
  39.7846531  71.1167382  73.9986172  40.9240122  71.8071688  75.6766393
  41.7052441  72.5504904  75.8355381  39.7083783  72.1220241  76.6080090
  39.9914647  71.9337427  77.6436308  39.2897689  73.6008474  76.4495992
  39.0060803  73.7897905  75.4142626  38.4423383  73.8110143  77.1021266
  40.1251518  74.2464869  76.7204946  38.5299560  71.1355284  76.3501440
  38.1710516  71.3985981  75.3551150  39.0024854  70.1538175  76.3175983
  37.4146695  71.1034505  77.2720880  36.9413162  72.0847584  77.3048225
  36.6888355  70.3614233  76.9394323  37.7727508  70.8399798  78.2673070
  41.6294476  70.4588038  75.9876019  41.2217546  69.4531093  75.4276145
  42.7016299  70.4416558  76.7961297  43.0309373  71.3336879  77.1366216
  43.4955057  69.2386458  77.1065955  43.5932609  68.6119299  76.2201586
  44.9102651  69.6572817  77.5748625  45.3557517  70.3054424  76.8201913
  44.8688362  70.1850189  78.5276884  45.8460154  68.5149499  77.7611399
  45.8581452  67.7801745  78.9378437  46.7898086  66.8523586  78.7668142
  46.9684229  66.1627178  79.5917939  47.3574809  66.9427383  77.5635650
  48.0897660  66.3621151  77.1805047  46.7603232  67.9931906  76.9084485
  47.0655918  68.2467153  75.8932453  42.7969068  68.2938081  78.1107753
  42.7318897  67.0859464  77.8917845  42.3066965  68.8500537  79.2112610
  42.5894636  69.8116043  79.3360107  41.5480416  68.2009452  80.2905838
  41.2477500  68.9563654  81.0167137  40.2964982  67.4984252  79.7718259
  40.6080064  66.7647041  79.0283776  39.8269574  66.9867793  80.6119747
  39.3130895  68.4513663  79.1531623  39.3193301  69.3887765  79.7093314
  39.5965458  68.6417575  78.1180267  37.9477111  67.8606066  79.1926294
  37.6359384  67.7188106  80.2274195  37.2435510  68.5229315  78.6890584
  37.9355470  66.5683201  78.5202370  38.8181190  66.2179608  78.1761232
  36.8486778  65.8391771  78.3277222  35.6661958  66.2693586  78.7582417
  35.5981509  67.1573782  79.2345725  34.8416413  65.7060623  78.6068917
  36.9315268  64.6702962  77.7129193  37.8280623  64.3352786  77.3902935
  36.0978433  64.1185737  77.5691393  42.3579699  67.2547258  81.1737117
  41.7776562  66.5598217  82.0012824  43.6739288  67.2599395  81.0543721
  44.1161255  67.7749339  80.3064803  44.5010767  66.4343095  81.8975539
  44.0582042  66.3647428  82.8910949  44.6290267  65.0065219  81.3117208
  43.6628804  64.7292140  80.8901037  45.3542686  65.1289390  80.5072718
  45.1006392  63.9153895  82.2560665  44.8126405  64.0136803  83.4867397
  45.7042919  62.9369767  81.7651402  45.8438304  67.1417747  82.1153298
  46.9220397  66.5932470  81.8436038  45.7576731  68.3914866  82.6085539
  44.8392570  68.8013220  82.7015383  46.9264316  69.2231079  82.9239562
  47.7781193  69.0674502  82.2617644  46.5485029  70.7403624  82.9386017
  45.7383243  70.8881643  83.6526505  47.7514557  71.6168998  83.3383977
  48.5619263  71.4699776  82.6244986  47.4535980  72.6654137  83.3384183
  48.0908413  71.3361192  84.3354328  45.8996325  71.2030145  81.5987650
  45.0388197  70.5544778  81.4359701  45.5581152  72.2252722  81.7614135
  46.8005406  71.1597791  80.3831889  47.1421072  70.1376845  80.2196196
  46.2477929  71.5019958  79.5082850  47.6614043  71.8084777  80.5450643
  47.5101443  68.7207378  84.2682600  46.8535631  68.8133182  85.3104941
  48.7129160  68.1177502  84.2125903  49.1279966  67.9863849  83.3012448
  49.4092348  67.5673999  85.3792576  49.2659923  68.2313571  86.2317489
  48.8654041  66.1526269  85.7520329  49.4273242  65.8327440  86.6295407
  47.8185430  66.2911275  86.0222169  48.9733106  65.0851259  84.6604836
  48.5365853  65.4693206  83.7386559  50.0240153  64.8483244  84.4930116
  48.2339224  63.8302516  85.0853711  48.5897323  63.5567823  86.0787053
  47.1722290  64.0721760  85.1341486  48.4427086  62.6728468  84.1405106
  48.3278077  63.0365873  83.1194370  49.4551839  62.2935312  84.2787589
  47.4654259  61.5792281  84.3899192  46.5271946  61.9303927  84.2614465
  47.6336285  60.8231357  83.7417431  47.5720194  61.2417466  85.3358807
  50.9094660  67.5453133  85.1086881  51.2679094  67.5009035  83.9364561
  51.8079761  67.5942504  86.1329467  51.5894506  67.3583615  87.4835511
  50.7826790  66.6297926  87.5635955  51.2747486  68.2992414  87.9350006
  52.8910103  66.8491467  88.0603350  52.9559274  65.7646775  87.9719537
  52.9878388  67.1342337  89.1079279  53.9544759  67.5453113  87.2032400
  54.9163320  67.0409134  87.1109645  54.1101502  68.5583520  87.5742033
  53.2620780  67.5890112  85.8506186  53.4848153  68.5589932  85.4060725
  53.7755155  66.4685627  84.9223674  54.7168365  66.6900777  84.1454563
  53.1294601  65.2868821  84.9818009  52.4291716  65.2033690  85.7047953
  53.4384068  64.1009144  84.1707538  54.5063503  63.8887769  84.2216822
  52.6705666  62.8773234  84.6860008  51.8236368  63.2645792  85.2524301
  52.3054627  62.2913278  83.8425506  53.5176239  61.9975901  85.5827685
  54.7175713  61.7449669  85.2259579  52.9877843  61.5219710  86.6179335
  53.2191366  64.2507212  82.6666379  53.8393660  63.5132247  81.9007761
  52.3535614  65.1912028  82.2355404  51.7959578  65.6789774  82.9220195
  52.0660326  65.4219382  80.8130784  52.3845351  64.5586523  80.2287900
  50.5642531  65.6356655  80.5924407  50.2567073  66.3490697  81.3570120
  50.3491547  66.0460018  79.6058015  49.7671257  64.3623740  80.7707172
  50.2353904  63.2573865  80.4931567  48.5254866  64.4843149  81.1546192
  47.9573733  63.6596185  81.2858552  48.1387029  65.4027919  81.3186289
  52.9212119  66.5362435  80.1953494  52.8094451  66.8181427  79.0010781
  53.8056861  67.1342840  80.9851760  53.7891832  66.9084247  81.9694598
  54.7656884  68.1290281  80.5199569  54.5562325  68.3664454  79.4769514
  54.6925709  69.4206112  81.3401653  54.6955302  69.1220999  82.3884885
  55.5507046  70.0632872  81.1435073  53.4617321  70.2695653  81.1365017
  53.3988181  71.1870984  80.0954097  54.2460340  71.2843875  79.4165430
  52.2619086  71.9822312  79.9138045  52.2109456  72.6670471  79.0673231
  51.2030169  71.9017143  80.8050034  50.3244828  72.5334287  80.6737989
  51.2648246  71.0165693  81.8620574  50.4388383  70.9546328  82.5705846
  52.3911164  70.1964596  82.0244423  52.4362538  69.4905105  82.8537181
  56.1509541  67.4699243  80.6194321  56.5420891  67.0297650  81.7040579
  56.8078630  67.2757346  79.4535475  56.3615573  67.6805261  78.6429586
  58.0854434  66.5752915  79.2679544  58.4621367  66.2445182  80.2358337
  57.9171294  65.3374895  78.3532715  57.1732102  65.6266988  77.6109498
  58.8893143  65.2338890  77.8713759  57.5208809  64.0190241  78.9757072
  58.2147743  63.8084934  79.7895190  56.0958108  64.0362426  79.5153438
  55.4012564  64.2462688  78.7019669  55.8603470  63.0656836  79.9520048
  56.0050814  64.8091099  80.2785900  57.5824102  62.9273225  77.9640671
  58.5984750  62.8459096  77.5779535  57.2940968  61.9842779  78.4284414
  56.8997458  63.1518214  77.1445133  59.0640051  67.4913356  78.6094301
  58.6564261  68.2583612  77.7529227  60.3504941  67.4314205  79.0031740
  60.6192273  66.8352186  79.7728656  61.3810345  68.2340259  78.3590328
  60.9478385  69.1827171  78.0421330  62.5713048  68.5262145  79.3152125
  62.8988096  67.5652373  79.7119021  63.3656590  68.9567852  78.7055320
  62.2442850  69.4834915  80.4871736  61.4364912  69.0101813  81.0453380
  63.1409783  69.5183072  81.1059071  61.7521706  71.1867904  80.0465499
  63.1817728  71.8898352  79.7880204  63.7010922  71.3724710  78.9813354
  63.0294597  72.9330275  79.5111605  63.7816327  71.8394885  80.6967197
  61.8260041  67.4257903  77.1516951  61.6188799  66.2270777  77.1297013
  62.3645552  68.0715589  76.1336839  62.4647970  69.0765182  76.1440574
  62.8301397  67.3440987  74.9631615  62.1339732  66.5306741  74.7587310
  62.8499448  68.0268145  74.1136874  64.2215048  66.7654504  75.1653777
  64.8015001  66.8651221  76.2600160  64.7663837  66.1398846  74.1008927
  64.1866546  66.0249990  73.2818598  66.0993716  65.5280372  74.1006689
  66.6277546  65.6998732  75.0384232  66.0026963  63.9988567  73.8331186
  65.3514189  63.8511349  72.9716569  67.3673058  63.3580902  73.5572779
  68.0190277  63.5050091  74.4185409  67.2384551  62.2907368  73.3776809
  67.8163477  63.8221538  72.6791517  65.3168978  63.2878593  74.9901312
  65.9749370  63.3563638  75.8563831  64.3869399  63.8169988  75.1981918
  65.0110736  61.8130143  74.6958157  65.9406607  61.2830876  74.4881010
  64.5223798  61.3632570  75.5601049  64.3526650  61.7437227  73.8299076
  67.0030016  66.2372869  73.1048283  66.5498535  66.6744186  72.0553767
  68.2652608  66.3635575  73.4706294  68.5177745  66.0154982  74.3845172
  69.3029918  66.9644181  72.6520166  70.2586657  66.8396070  73.1611420
  69.3311323  66.4437895  71.6948054  69.0680336  68.4250136  72.4063716
  69.1512163  69.2265847  73.3324269  68.7656370  68.7653988  71.1554551
  68.7899813  68.0271896  70.4665763  68.4725484  70.1367851  70.7003117
  69.3098431  70.7938700  70.9354205  68.2437341  70.1539089  69.1595337
  67.9543585  71.1739524  68.9068043  69.2090687  69.9278527  68.7066234
  67.1821506  69.1709968  68.6241460  67.5358911  68.1552408  68.8008050
  66.2559449  69.3336347  69.1753211  66.9289102  69.3671589  67.1414593
  66.5591044  70.3785269  66.9727066  67.8630967  69.2269807  66.5976348
  65.9398557  68.4139064  66.6295416  66.0870050  67.4378948  66.8436627
  64.8586287  68.7553831  65.9274284  64.6210966  70.0304669  65.6361457
  65.2632786  70.7447338  65.9484358  63.7995331  70.2791262  65.1038848
  64.0211997  67.8252705  65.4906456  64.2030904  66.8521524  65.6907883
  63.2051108  68.0939971  64.9597185  67.2546305  70.7356137  71.4402945
  67.2091981  71.9379524  71.7056254  66.2939631  69.8708277  71.7891844
  66.4356715  68.9103210  71.5108952  65.0537592  70.2177978  72.4529593
  64.8161914  71.2715688  72.3072633  63.9248817  69.3695673  71.8393513
  64.1933332  68.3165371  71.7547318  63.0177492  69.4659206  72.4359472
  63.5830931  69.8337336  70.4663549  62.4847204  69.2935812  69.7933974
  62.4716112  69.8724946  68.6128093  61.6969547  69.5712139  67.9076594
  63.4595088  70.7622420  68.5004620  63.6542659  71.3607388  67.7105436
  64.1896140  70.7315818  69.6663506  65.0671318  71.3686593  69.7767871
  65.0920093  70.0562568  73.9568727  64.0253994  70.0174896  74.5580227
  66.2901747  70.0020779  74.5829505  67.1294443  70.0119682  74.0211428
  66.4202193  69.7611234  76.0188030  65.7706724  68.9340748  76.3054712
  67.8508061  69.4096928  76.3981429  67.9027603  69.1073420  77.4440798
  68.2230198  68.6018977  75.7680445  69.0239969  70.7723559  76.2113770
  70.0920086  70.0933205  76.6202295  65.8552489  70.8909291  76.9159126
  65.5603605  70.6081855  78.0790115  65.6807519  72.1361959  76.3987460
  66.0211918  72.3333942  75.4685241  65.1063229  73.2425294  77.1804408
  64.9529169  72.8993788  78.2035798  65.9982600  74.4831371  77.2100005
  65.8565627  74.9598625  76.2400757  65.6555547  75.1541850  77.9976221
  67.4532799  74.2233554  77.4051326  68.2091194  74.3789813  76.4604353
  67.8711691  73.7774934  78.5928977  68.8531972  73.5958947  78.7437035
  67.2032087  73.6240020  79.3347670  63.7132623  73.6136618  76.6915535
  63.1635689  74.6460086  77.1054764  63.1505663  72.7731550  75.8021179
  63.7154891  72.0066473  75.4653279  61.8159049  72.9448358  75.2439086
  61.4557359  73.9410880  75.5005386  61.7869485  72.7896424  73.7018247
  62.5878883  73.4114075  73.3018213  61.9954711  71.7428396  73.4808674
  60.4507460  73.1944303  73.0529860  59.7671901  72.3523614  73.1614859
  60.0643755  74.0492308  73.6080860  60.5767301  73.5651882  71.5604471
  59.8869598  74.3888728  71.3764373  61.5997001  73.9061240  71.4010898
  60.2674146  72.4187616  70.6007518  61.1332551  71.7566559  70.6068130
  59.4037771  71.8903617  71.0045129  59.9766712  72.8491873  69.1916869
  60.7769753  73.3384590  68.8172189  59.7833756  72.0361920  68.6244343
  59.1741357  73.4623766  69.1857982  60.9291276  71.9468765  75.9339849
  61.2696126  70.7597153  76.0363965  59.8282601  72.4614830  76.4804635
  59.7140269  73.4621718  76.4051505  58.8201315  71.7065889  77.1994402
  59.2402722  70.7893943  77.6121570  58.3046018  72.5805793  78.3633779
  59.2141667  72.9494376  78.8374397  57.7744461  73.4122266  77.8992683
  57.4254385  71.9425093  79.3977910  56.6326233  71.3984098  78.8844678
  58.1824596  71.0095246  80.2659969  58.9752130  71.5530292  80.7800431
  57.5089289  70.5690200  81.0011247  58.6206866  70.2195010  79.6561442
  56.7974918  72.9866384  80.2422271  56.1954288  73.6464096  79.6174698
  56.1607768  72.5149680  80.9907071  57.5738964  73.5673572  80.7402838
  57.6947119  71.3201625  76.2261533  57.2775315  72.1352466  75.4146815
  57.2287394  70.0663296  76.3055170  57.6450329  69.4834931  77.0176270
  56.1920961  69.4797539  75.4423481  55.8734825  70.2076521  74.6961921
  56.7545270  68.2192760  74.7033914  57.1600525  67.4918857  75.4066350
  55.9223788  67.7727849  74.1590797  57.8454485  68.4914740  73.6823985
  59.1542939  68.7194073  74.0829621  59.4027065  68.6739815  75.1433053
  60.1437557  69.0031653  73.1488847  61.1574753  69.2305222  73.4787062
  59.8418219  68.9967970  71.8045721  60.6202831  69.2127258  71.0728120
  58.5649196  68.7195438  71.3861989  58.3291926  68.7032730  70.3221180
  57.5698909  68.4588042  72.3233033  56.5578416  68.2249584  71.9928910
  54.9898279  69.0817245  76.2484703  55.1694430  68.4070907  77.2527280
  53.7752197  69.4786669  75.8320370  53.7032097  70.1189208  75.0542268
  52.5304522  69.0284121  76.4853871  52.7726388  68.7248583  77.5038663
  51.4237310  70.1152673  76.5416636  51.8336643  70.8501777  77.2344555
  51.3571174  70.5531719  75.5457207  50.0166851  69.6938623  77.0128340
  49.6578089  68.9112825  76.3443450  50.0144188  69.1793068  78.4408584
  50.3727602  69.9615412  79.1100367  49.0006560  68.8959982  78.7239167
  50.6682117  68.3103546  78.5155400  49.0450855  70.8511721  76.8941695
  48.9872285  71.1725049  75.8542189  48.0582995  70.5338362  77.2312936
  49.3900353  71.6806072  77.5115397  52.0812664  67.8426772  75.6569023
  51.9578690  67.9684155  74.4417624  51.9153204  66.6771219  76.2959607
  52.1722521  66.6255708  77.2713724  51.5552242  65.4364931  75.6063993
  51.1743932  65.6375973  74.6050881  52.7892845  64.4543436  75.5127001
  52.4455471  63.4832469  75.1564468  53.8234001  65.0020795  74.5598684
  54.1679766  65.9730227  74.9157292  54.6678949  64.3150973  74.5052351
  53.3823322  65.1143118  73.5694331  53.4642318  64.1469067  76.8536467
  54.5105087  63.9375608  76.6309819  53.3951298  65.0572654  77.4491057
  52.9000816  63.0435024  77.5946647  52.9692506  62.1326362  76.9999897
  53.4506415  62.9113913  78.5260774  51.8538703  63.2523402  77.8181117
  50.2852814  64.8136495  76.2272334  49.6659843  65.4555509  77.0620206
  49.8708564  63.6022799  75.7613442  50.3656498  63.3066573  74.9319553
  48.7267422  62.8001188  76.2123979  48.6437744  61.9084987  75.5909245
  48.8903020  62.3608375  77.6891305  49.9426535  62.0878605  77.7674824
  48.6937202  63.2313492  78.3149620  48.0226333  61.1884867  78.1583914
  46.9705907  60.9064154  77.4951123  48.3647587  60.5775055  79.2143479
  47.3749870  63.4901485  75.9255043  46.6917332  64.0034903  76.8244473
  46.9496728  63.3979586  74.6669643  47.5539847  62.9378190  74.0012483
  45.7429593  64.0380755  74.1737080  45.4328083  64.8333223  74.8515636
  46.0157337  64.6509666  72.7887474  46.4313639  63.9436658  72.0710592
  45.1002490  65.0826192  72.3841935  47.0084514  65.7786304  72.9071155
  46.5920086  67.0626087  73.2779701  45.5319752  67.2429230  73.4566205
  47.5147720  68.1084783  73.4205687  47.1751348  69.1040576  73.7061718
  48.8540367  67.8749857  73.1986126  49.5751492  68.6847704  73.3097220
  49.2857872  66.6049013  72.8325156  50.3455201  66.4245481  72.6521299
  48.3628912  65.5577473  72.6951450  48.7068587  64.5607333  72.4199190
  44.5065415  63.1385948  74.1692949  43.5110849  63.4905320  73.5417406
  44.5569095  62.0424912  74.9211791  45.4023416  61.8659302  75.4447917
  43.4595352  61.0817462  75.0314814  43.2431623  60.7375063  74.0201551
  43.8329807  60.2482129  75.6263428  42.1799078  61.6031254  75.6602098
  41.0939269  61.0716554  75.4018956  42.2863632  62.6354212  76.5061995
  43.1993891  62.9765933  76.7709346  41.1099116  63.2389364  77.1364891
  40.2442218  62.6072636  76.9373161  41.2664374  63.3942918  78.6661617
  42.1651370  64.0081411  78.7263892  40.4178779  63.9537381  79.0599469
  41.4639339  62.1165624  79.4923044  42.2990172  61.5558049  79.0724380
  41.7572257  62.4465150  80.9619864  40.9223250  63.0069087  81.3826983
  41.8925297  61.5215525  81.5225557  42.6654456  63.0457853  81.0261118
  40.2776605  61.1659745  79.3572522  40.1560681  60.8820762  78.3119214
  40.4563414  60.2736145  79.9571423  39.3721060  61.6623378  79.7060982
  40.7792897  64.5997919  76.4978182  39.8379307  65.2610396  76.9456895
  41.5345247  65.0159299  75.4570059  42.3083496  64.4489981  75.1409636
  41.3105719  66.3002965  74.8098995  41.3428417  67.0875971  75.5630366
  42.3922195  66.5754330  73.7706486  42.3664588  65.8003371  73.0047094
  42.2150908  67.5471217  73.3096207  43.3693072  66.5757706  74.2537621
  39.9305130  66.3400343  74.1781502  39.4837888  65.3142931  73.6608325
  39.2317878  67.4891188  74.2558473  39.6206184  68.2526287  74.7906022
  37.8921890  67.6555060  73.6772762  37.6968430  66.8588854  72.9594080
  36.8072491  67.5951116  74.7963579  36.9251855  66.6241018  75.2773258
  37.0613924  68.3839430  75.5043525  35.3482623  67.7669493  74.3396629
  35.2951110  68.7222146  73.8174139  35.1434081  66.9581181  73.6382865
  34.3076450  67.7420194  75.4664762  33.3216068  67.7378769  75.0019221
  34.4500842  66.8160977  76.0236830  34.4152686  68.9201885  76.4104947
  35.4686386  69.0722196  76.6458638  34.0266805  69.8014580  75.9001394
  33.6534205  68.7000720  77.6683803  34.0136229  67.8837613  78.1416569
  33.7519534  69.5073536  78.2672857  32.6772490  68.5596003  77.4505365
  37.8348723  68.9701197  72.8750328  38.5344624  69.9391735  73.1966201
  37.0260577  68.9869015  71.8070279  36.5628574  68.1385018  71.5141751
  36.8218398  70.1932557  71.0167377  37.7756838  70.7012244  70.8744403
  36.2309513  69.8551355  69.6300829  36.4684658  68.8151035  69.4064324
  35.1491359  69.9764164  69.6854585  36.7858684  70.7497438  68.5305430
  36.5979069  71.7787505  68.8370011  37.8607778  70.5728836  68.4932295
  36.1858835  70.5137640  67.1542125  36.3624071  69.4705794  66.8920975
  35.1131990  70.6930391  67.2270676  36.7762692  71.4104736  66.0834401
  36.9081660  72.4051586  66.5092401  37.7476980  71.0054371  65.7999428
  35.8979291  71.4986703  64.8697811  34.9978754  71.8743669  65.1321835
  36.3288895  72.1038606  64.1855897  35.7759324  70.5771363  64.4748241
  35.8771612  71.0876826  71.8534772  34.8962539  70.5756869  72.4153351
  36.2168821  72.3876980  72.0219254  37.1083062  72.7268545  71.6896073
  35.3648152  73.3079131  72.8084349  34.5646784  72.7287411  73.2693471
  36.1441270  74.0564526  73.9267473  35.3736531  74.5480749  74.5206975
  36.6873723  73.3479527  74.5520572  37.1018645  75.0908465  73.3910671
  36.6775273  76.3884647  73.1246858  35.6407739  76.6537788  73.3316889
  37.5518208  77.3438949  72.6019218  37.2102996  78.3656639  72.4362316
  38.8570633  76.9939809  72.3047888  39.6839554  77.9278963  71.7428302
  39.2537696  78.7748374  71.6041551  39.3061969  75.7107103  72.5661422
  40.3450922  75.4415248  72.3755213  38.4191371  74.7574360  73.0774444
  38.7534478  73.7323869  73.2374779  34.6271335  74.2820484  71.8875163
  33.7330939  74.9656250  72.3365254  35.0125157  74.3541261  70.6196810
  35.8237959  73.8294008  70.3254241  34.3824782  75.2528243  69.6563720
  33.3041757  75.2523481  69.8156283  34.9066822  76.7101123  69.8069238
  34.2463302  77.3580731  69.2305722  34.8437715  76.9745749  70.8624814
  36.3384344  76.8876960  69.3244926  36.9851291  76.3785125  70.0390686
  36.4146821  76.3984580  68.3534444  36.7668348  78.3268117  69.1965423
  36.1230458  78.8471224  68.4873798  36.7121097  78.8210576  70.1665039
  38.1556413  78.3939297  68.7103688  38.4486681  77.6286972  68.1198997
  39.0406234  79.3547748  68.9956187  38.6980593  80.3742101  69.7796318
  37.7641678  80.4221868  70.1612662  39.3735547  81.0951911  69.9893745
  40.2686696  79.3113574  68.4841460  40.5330221  78.5484123  67.8774066
  40.9305482  80.0415539  68.7051178  34.5373022  74.7518512  68.2105489
  35.5283107  74.0833463  67.9038874  33.5648594  75.1043192  67.3203235
  32.7639758  75.6126397  67.6671595  33.6075938  74.7614616  65.8898440
  33.8416366  73.7021691  65.7839077  32.2657549  75.0402991  65.1927070
  31.5616191  74.3545321  65.6638924  31.9439391  76.0670500  65.3668257
  32.3115260  74.7709159  63.6986800  32.2825849  73.5828424  63.3083446
  32.4510991  75.7439379  62.9225217  34.7076875  75.5784118  65.2364528
  34.8505933  76.7543856  65.5630100  35.4991045  74.9604663  64.3361686
  35.3853417  73.9684455  64.1843391  36.6228272  75.6371166  63.6877391
  37.2647717  76.0678021  64.4561898  37.4633180  74.6829170  62.8235376
  37.8406130  73.9111066  63.4944000  36.8463669  74.2228069  62.0516762
  38.6481457  75.3686688  62.1551747  39.5289016  75.9616763  62.8072920
  38.6727035  75.3510202  60.8297557  39.4359181  75.7912126  60.3359604
  37.9280846  74.8974625  60.3199234  36.2239259  76.8901753  62.8951891
  36.8716413  77.9274904  63.0704124  35.1730538  76.8192171  62.0584802
  34.7114232  75.9403302  61.8725921  34.8066136  77.9808143  61.2467712
  35.6984295  78.5834912  61.0748872  34.2076276  77.5839785  59.8787689
  33.8027909  78.5023228  59.4535040  35.0477828  77.2434549  59.2735557
  33.1194690  76.5056301  59.8940423  33.5605742  75.5870870  60.2810897
  32.3257673  76.8371274  60.5635564  32.5407375  76.2463845  58.5113874
  33.3596744  76.0657656  57.8150985  31.9019004  75.3643833  58.5567799
  31.7463411  77.3772944  58.0194655  32.2418419  78.1101755  57.5321630
  30.4318073  77.4991779  58.1815402  29.7419969  76.5575258  58.8139316
  30.2182608  75.7430973  59.1744576  28.7441126  76.6598949  58.9316055
  29.7943686  78.5611157  57.7036228  30.3106765  79.2787141  57.2151775
  28.7960405  78.6465396  57.8306755  33.9226363  79.0097624  61.9964451
  34.3266747  80.1685556  62.1023748  32.7520597  78.5970545  62.5231819
  32.4792124  77.6402281  62.3495821  31.7973292  79.4816803  63.2197326
  31.6376196  80.4207166  62.6898242  30.4377512  78.7805264  63.3994012
  29.6987546  79.5438612  63.6429257  30.0002179  78.0341627  62.1709311
  30.7385401  77.2702938  61.9270373  29.0361857  77.5607122  62.3569035
  29.9080753  78.7292723  61.3364056  30.4931622  77.9006475  64.5163080
  29.6438178  77.4663370  64.6239590  32.3069085  80.0475739  64.5761203
  31.8098264  81.0770830  65.0373506  33.2723856  79.3567089  65.2032410
  33.4970264  78.4828708  64.7493216  33.8722563  79.6340780  66.5252768
  34.5355230  78.8070543  66.7786705  34.6846073  80.9539036  66.5751490
  33.9987217  81.7546609  66.2986569  35.0010173  81.0882160  67.6095304
  35.9154369  80.9926520  65.6537555  35.8601984  80.1416965  64.9748415
  35.8821880  81.9181593  65.0789227  37.2100454  80.9308351  66.4353338
  37.2078314  81.7533856  67.1505295  37.2305812  79.9827839  66.9728062
  38.4230859  81.0296176  65.6064685  38.8153894  81.9531035  65.4908352
  39.0396514  79.9976081  65.0238980  38.5422496  78.7685259  65.1274815
  37.6921182  78.6134913  65.6503016  39.0169285  77.9958142  64.6828511
  40.1458797  80.1908506  64.3172883  40.5228946  81.1227694  64.2198859
  40.6058668  79.4051457  63.8800487  32.8075994  79.5100365  67.6552505
  33.0469767  79.9726213  68.7757035  31.6582960  78.8258718  67.3643238
  31.5348849  78.5110131  66.4126237  30.5848489  78.5642813  68.3275401
  30.2590982  79.5022513  68.7772043  29.3799676  77.9065169  67.6361885
  29.1492425  78.5232051  66.7675339  29.7143403  76.9234471  67.3047240
  28.1226677  77.7534616  68.5030085  27.4003923  77.1470920  67.9564420
  28.4025319  77.2421004  69.4240340  27.4717574  79.0777300  68.8617506
  27.6054757  79.5843954  69.9878677  26.7516235  79.6708774  67.9115695
  26.2990564  80.5534827  68.1020752  26.6613002  79.2354331  67.0047446
  31.1082107  77.6625943  69.4662526  31.5812369  76.5519823  69.2038806
  31.0379626  78.1511374  70.7191265  30.6936469  79.0909671  70.8542787
  31.4859125  77.4074262  71.8842155  32.4468386  76.9378713  71.6738857
  31.6482542  78.3313805  73.0797132  32.0490629  79.3091883  72.8126110
  30.6546931  78.4521258  73.5114039  32.5206048  77.7941464  74.1614876
  33.8275117  78.2224459  74.3139835  34.3201990  77.5130184  75.3178205
  35.3485366  77.7141813  75.6180774  33.4218867  76.6459154  75.7933891
  33.5399657  75.9786898  76.5423666  32.2690787  76.8194574  75.0675256
  31.3895816  76.2147282  75.2886337  30.5109381  76.2837915  72.2144864
  29.3199697  76.3689096  71.9299653  31.0250936  75.2272660  72.8021215
  32.0283374  75.1868101  72.9115040  30.2383873  74.0630258  73.1973871
  29.5505731  73.7336469  72.4185929  31.1198023  72.8574926  73.6573070
  30.4853919  72.1042462  74.1244726  31.8297962  72.2480276  72.4542550
  32.4647974  73.0006009  71.9868071  32.4428847  71.4079900  72.7806904
  31.0902016  71.8989972  71.7336464  32.0936499  73.2501061  74.8082611
  32.9304722  73.7607885  74.3317816  31.5478849  73.9551014  75.4353350
  32.6187931  72.1090494  75.6671023  33.1651076  71.4038342  75.0407542
  33.2854622  72.5066287  76.4323358  31.7825194  71.5981455  76.1443060
  29.2200750  74.4514431  74.2652551  29.5210602  75.3541515  75.0510594
  28.0243228  73.7983175  74.3099592  27.5608629  72.7144055  73.5560489
  28.3856325  72.0110502  73.4413900  27.2663411  73.0909863  72.5764863
  26.3970759  72.1250116  74.3209179  26.7413324  71.3740876  75.0320435
  25.6743549  71.6754713  73.6399706  25.7930259  73.3384964  75.0367554
  25.2546237  73.1305479  75.9614064  25.1441191  73.8879960  74.3547951
  27.0400736  74.1550419  75.3372407  26.7869866  75.2021015  75.1707731
  27.4984168  73.9663885  76.7812560  28.3941975  73.1707367  77.0776985
  26.8444126  74.7109670  77.6746251  26.1729231  75.3767780  77.3198054
  27.0612092  74.6522241  79.0958480  28.1141629  74.4540502  79.2961349
  26.6759287  75.9754411  79.7657648  27.2214307  76.7786747  79.2704440
  25.6073340  76.1014043  79.5915847  26.9534682  76.0202848  81.2552895
  28.2440701  76.1968570  81.7403234  29.0614984  76.2857936  81.0247812
  28.5047304  76.2609126  83.1065599  29.5234675  76.4165828  83.4615855
  27.4709867  76.1195138  84.0130876  27.7473933  76.1632508  85.3596211
  28.6797129  76.2945276  85.5470945  26.1748273  75.9437903  83.5579602
  25.3550975  75.8289276  84.2671500  25.9194917  75.9139810  82.1832481
  24.8971180  75.8060327  81.8210337  26.2308719  73.4995506  79.6311405
  24.9952905  73.4332587  79.4678161  26.9461116  72.5458647  80.1990220
  27.9511563  72.6422839  80.2252460  26.3502594  71.3709033  80.8133965
  25.2640924  71.4546159  80.7768925  26.7652451  70.0961823  80.0876699
  27.8438514  70.1584101  79.9433255  26.5361697  69.2684189  80.7588124
  26.0960859  69.8664487  78.7639121  25.0257296  70.0520724  78.8532542
  26.5190293  70.5354771  78.0144977  26.3253766  68.4308678  78.3447593
  25.9204348  68.2599162  77.3473142  27.3912391  68.2027701  78.3476155
  25.6516586  67.5342797  79.2841479  25.3730352  67.9344222  80.1686559
  25.4008300  66.2521054  79.0632319  25.7679102  65.6828804  77.9199034
  26.2407608  66.2308748  77.2154785  25.5723614  64.7048773  77.7606226
  24.7654841  65.5298047  79.9767845  24.4729324  65.9600947  80.8424427
  24.5772595  64.5529370  79.8024294  26.8291807  71.2676132  82.2391186
  27.8660307  71.8219670  82.6265200  26.0560856  70.5541470  83.0128673
  25.1595050  70.2870850  82.6321830  26.3597967  70.1835270  84.3814831
  27.4044157  70.4088034  84.5962409  25.4772812  70.9567734  85.3723137
  24.4482161  70.9293920  85.0140200  25.5362453  70.4667410  86.3441633
  25.9285995  72.4018951  85.5057878  26.9798174  72.3091847  85.7786367
  25.8487556  72.8576230  84.5188551  25.2191195  73.2708578  86.5210749
  24.0087537  73.0462560  86.7582829  25.8637583  74.2117089  87.0413000
  26.1544301  68.6710006  84.3998853  25.9755670  68.0789038  83.3210696
  26.2296504  68.0269412  85.5660441  26.4787641  68.5208376  86.4110933
  26.0277351  66.5691679  85.6425513  26.1734959  66.2288383  86.6677482
  24.6140017  66.2043197  85.2045471  24.4601944  66.5969762  84.1994285
  24.5496436  65.1164374  85.1828604  23.5494138  66.7538823  86.1287356
  23.5892270  66.5801106  87.3638127  22.6040421  67.4078521  85.6470367
  27.0622276  65.7597370  84.8033375  26.7182727  64.7620540  84.1599040
  28.3278240  66.2185017  84.8103985  28.5225166  67.0632967  85.3285833
  29.4391514  65.5535127  84.1214675  29.0348435  64.8061366  83.4387793
  30.3033249  66.5442968  83.3125695  30.7244196  67.2315253  84.0463920
  31.1026052  65.9457551  82.8755354  29.6023009  67.3425421  82.2095496
  28.6108049  67.5919132  82.5875053  30.1789481  68.2572936  82.0724011
  29.4682858  66.6132009  80.8594450  29.0213562  65.6416688  81.0703436
  28.7833269  67.2031532  80.2504400  30.7556924  66.4199000  80.1175568
  31.2732968  67.3769507  80.0524401  31.3752395  65.7087913  80.6639860
  30.4977847  65.9016691  78.7469317  29.9240705  66.5606544  78.2402856
  31.3756702  65.7779384  78.2630848  30.0185464  65.0146430  78.8070522
  30.3162297  64.9035338  85.1792993  30.5778854  65.5242378  86.2146407
  30.7700994  63.6580881  84.9311373  30.4677274  63.1693843  84.1005718
  31.6881321  62.9720933  85.8459286  31.3898544  63.1799797  86.8735048
  31.6796412  61.4476364  85.6299750  31.6386345  61.2992864  84.5508967
  32.6022149  61.0181184  86.0204517  30.5024754  60.7271993  86.2639980
  29.7234033  61.2939289  87.0521682  30.3739326  59.4352089  85.9689819
  29.6096906  58.9043056  86.3616341  31.0412563  58.9919858  85.3538940
  33.0497486  63.5569604  85.5503324  33.2794079  63.9669101  84.4076484
  33.9313390  63.6544006  86.5680975  33.6236312  63.4219312  87.5015713
  35.2707361  64.2363898  86.4005327  35.1853836  65.1643595  85.8351245
  35.9489254  64.5451369  87.7598054  35.3156594  65.3290892  88.1751272
  35.8370335  63.6367177  88.3517133  37.4297181  65.0048952  87.7939877
  38.0393162  64.2109910  87.3624706  37.6545326  66.2961873  87.0176494
  37.0455741  67.0907250  87.4489014  38.7067947  66.5751873  87.0724610
  37.3723151  66.1479036  85.9753128  37.8871551  65.2076492  89.1994756
  37.7967079  64.2713682  89.7501994  38.9284203  65.5299337  89.2003073
  37.2710217  65.9699909  89.6762501  36.1923486  63.4091627  85.4890527
  36.2928422  62.1790508  85.6075380  36.8627827  64.1564882  84.5789029
  36.5919717  65.1283951  84.6253538  37.8342349  63.7554737  83.5626046
  37.9135485  62.6717253  83.4771761  37.3851646  64.3323903  82.1851308
  37.1948496  65.3970405  82.3207786  38.4163074  64.1388897  81.0887700
  38.6068128  63.0743894  80.9522180  38.0409421  64.5627043  80.1573296
  39.3428949  64.6403845  81.3681249  36.1617877  63.7098380  81.7846640
  35.8848289  64.0646079  80.9367062  39.2197634  64.2738221  84.0077638
  39.3868866  65.4786490  84.2532716  40.1865504  63.3606068  84.0915895
  39.9677032  62.3986455  83.8751737  41.5527947  63.6876026  84.4833229
  42.2353472  63.1034213  83.8661085  41.7168531  64.7495412  84.3003732
  41.8297467  63.3909028  85.9386609  40.9906957  62.7881494  86.6147547
  43.0241802  63.7785317  86.4377194  43.7150730  64.1887834  85.8257880
  43.3940815  63.5315443  87.8435488  42.9791275  62.5953284  88.2169282
  44.9082631  63.5218464  88.0733071  45.0824213  63.3235019  89.1308650
  45.6218629  62.4847977  87.2436841  45.4485391  62.6827712  86.1859200
  46.6913161  62.5265779  87.4501381  45.2423878  61.4942051  87.4943344
  45.4304218  64.8250828  87.8332531  46.3796185  64.8209312  87.9768105
  42.7301417  64.5391580  88.7666623  42.6842799  65.7350613  88.4554307
  42.2543195  64.0539111  89.9142570  42.3187591  63.0564595  90.0592989
  41.5646244  64.8570208  90.9209453  40.7651087  65.3716886  90.3880373
  40.9413580  63.9504241  91.9773616  41.7299394  63.4349902  92.5256018
  40.3510048  64.5507621  92.6695882  40.2970885  63.2167112  91.4929222
  42.4348828  65.9238060  91.5922081  41.8916245  66.9375166  92.0348064
  43.7652116  65.6937833  91.6904974  44.1306961  64.8051351  91.3793305
  44.6785605  66.6254696  92.3570164  44.2904984  66.8635422  93.3473842
  46.0851376  66.0230328  92.5120764  45.9568626  64.9753702  92.7841940
  46.5707996  66.0881515  91.5384276  46.9545068  66.7210568  93.5640273
  46.8896063  67.7977804  93.4073264  46.5667614  66.4742373  94.5523773
  48.4019014  66.2829711  93.4657425  48.6887668  66.2826942  92.4141688
  49.0148569  67.0022994  94.0088371  48.6443924  64.9454328  94.0197301
  47.8780765  64.4992729  94.5032595  49.7997924  64.2920677  93.9214103
  50.8241658  64.8288651  93.2693882  50.7268051  65.7399297  92.8444386
  51.6961008  64.3236971  93.2013126  49.9397637  63.0993093  94.4766143
  49.1663637  62.6844237  94.9764366  50.8193676  62.6091821  94.3980586
  44.7392894  68.0021398  91.6940864  44.7584950  69.0123400  92.4029438
  44.7487964  68.0459651  90.3594782  44.7765385  67.2033282  89.8033373
  44.8705239  69.3191661  89.6824313  45.0236659  70.1121915  90.4143859
  46.0726944  69.3058758  88.7092728  45.7711215  68.7763445  87.8055307
  46.2866755  70.3465409  88.4656989  47.3168926  68.6553482  89.2848912
  48.1901612  69.3692838  90.1067299  47.9889632  70.4236863  90.2960819
  49.3053624  68.7567646  90.6826776  49.9502800  69.3130971  91.3628815
  49.5756843  67.4278878  90.4040120  50.6960048  66.8110701  90.9094096
  51.2334927  67.3942595  91.4503315  48.7243660  66.7042323  89.5851238
  48.9270262  65.6530447  89.3801022  47.6108713  67.3196463  89.0246586
  46.9490282  66.7551427  88.3678486  43.5771640  69.7695404  88.9877298
  43.6064135  70.7835134  88.2968751  42.4445911  69.0523645  89.1946558
  42.5121268  68.2312497  89.7788722  41.1393764  69.3783382  88.5972476
  41.2417906  69.4189750  87.5128311  40.1268370  68.3077835  88.9480220
  40.0066183  68.2613190  90.0303753  39.1689448  68.5477545  88.4865497
  40.4752815  67.3428031  88.5799209  40.6246047  70.7314820  89.0713523
  40.8822377  71.1086278  90.2110642  39.9042919  71.4760567  88.2075235
  39.7762367  71.1949950  87.2459074  39.3636370  72.7681613  88.6304003
  40.1240789  73.3212968  89.1816430  38.9363658  73.5985109  87.4213205
  38.6595527  74.5909878  87.7769372  39.7917235  73.6789747  86.7505084
  37.8431281  73.0243628  86.7256049  37.6125287  73.5800404  85.9775100
  38.1938854  72.5556809  89.6221761  37.6924395  71.4332200  89.7403730
  37.7809570  73.6074420  90.3471222  38.3117299  74.4666018  90.3321597
  36.6520146  73.5045223  91.2752265  36.7379825  72.6393128  91.9325858
  36.5207802  74.7901860  92.1290411  36.7374953  75.6445339  91.4877732
  35.1077412  74.9498539  92.7407012  34.8904795  74.0960484  93.3825066
  35.0676742  75.8660669  93.3298100  34.3686834  75.0000328  91.9410920
  37.5964288  74.8081548  93.2213360  37.2155298  74.2247735  94.0595979
  38.4809441  74.3202072  92.8118983  37.9501646  76.1510932  93.6828135
  37.0661909  76.6395288  94.0928389  38.7165479  76.0804789  94.4546745
  38.3316032  76.7349635  92.8451382  35.3647148  73.1433110  90.4979829
  34.6252148  72.2469737  90.9233417  35.1347717  73.8108232  89.3403584
  35.7424955  74.5801243  89.0975681  33.9541168  73.5756152  88.5166278
  33.0762507  73.5458058  89.1620437  33.7494460  74.6605056  87.4658106
  34.6944274  74.8380355  86.9523980  33.0079378  74.3073891  86.7491695
  33.2683640  75.9638988  88.0547886  32.5393170  75.9921062  89.0631138
  33.6721584  77.0761171  87.4430856  33.3801152  77.9767271  87.7948130
  34.2685277  77.0137443  86.6303408  33.9339219  72.1911624  87.9145409
  32.8597282  71.5841220  87.8835572  35.1048179  71.6462560  87.5112054
  35.9490278  72.2005900  87.5222833  35.1802662  70.2728059  86.9957286
  34.4863866  70.1586704  86.1629002  36.5808687  69.9496995  86.5079078
  37.2858876  70.0507241  87.3330395  36.6079636  68.9274309  86.1306374
  36.8559475  70.6385934  85.7092490  34.7420198  69.2805233  88.0971841
  34.0780988  68.3002236  87.7714430  35.0540570  69.5770060  89.3913715
  35.6490559  70.3766374  89.5546662  34.6424936  68.7676941  90.5462939
  34.8848345  67.7236735  90.3478220  35.3459082  69.1975692  91.8481673
  35.4705038  70.2774896  91.9278355  34.7271748  68.8419733  92.6720729
  36.7047669  68.5936377  92.0404794  36.8682123  67.2387516  92.2655219
  38.1702422  67.0534307  92.4138604  38.5161103  66.0340474  92.5851262
  38.8411475  68.1992608  92.3215754  39.8385738  68.3411765  92.3929934
  37.9170359  69.1931604  92.1050589  38.2416521  70.2303229  92.0212769
  33.1217079  68.8048272  90.7488846  32.5248442  67.7668357  91.0367117
  32.4948113  69.9833811  90.5489214  33.0813943  70.7818023  90.3525970
  31.0409833  70.1966047  90.6677398  30.6671581  69.7144211  91.5709856
  30.7281859  71.7054640  90.7487286  31.0591051  72.0772394  89.7789994
  29.6469463  71.8167268  90.8302251  31.4038888  72.5014707  91.8536965
  32.4828004  72.3709637  91.7699206  31.0673134  73.9589530  91.7477843
  29.9885351  74.0903071  91.8319412  31.5630767  74.5060703  92.5496459
  31.4053340  74.3413856  90.7846707  31.0284749  71.9793581  93.2218225
  31.3357177  70.9373229  93.3105018  31.5295023  72.5717564  93.9874184
  29.9491344  72.0519992  93.3554124  30.2281234  69.5522468  89.5118147
  28.9936107  69.6029437  89.5103837  30.9370807  68.9559649  88.5554672
  31.9437874  68.9501050  88.6367491  30.3358975  68.3130635  87.4004835
  31.0310672  67.5463649  87.0584141  29.4124180  67.8415765  87.7366159
  30.0220726  69.2458494  86.2454568  29.4514948  68.8006166  85.2452000
  30.3800927  70.5512205  86.3774296  30.7082733  70.8269809  87.2919530
  30.2079020  71.5973758  85.3512018  29.2346472  71.6054324  84.8604785
  30.4849686  73.0055593  85.9859043  31.4275907  72.9417078  86.5294914
  30.5690869  74.1355623  84.9450732  29.6265985  74.2003350  84.4013630
  30.7622966  75.0819073  85.4502483  31.3780411  73.9261153  84.2451988
  29.4531002  73.3244177  87.1088339  28.4880488  73.3920437  86.6066354
  29.4600107  72.4547684  87.7659198  29.6937761  74.6269771  87.9601587
  29.6865361  75.4971529  87.3037736  28.9031386  74.7268706  88.7038071
  30.6584997  74.5598784  88.4630564  31.1033411  71.2395367  84.1238090
  32.1663318  70.6207014  84.2959707  30.6481749  71.5502595  82.8898508
  29.7154305  71.9153244  82.7601786  31.4362314  71.2068298  81.6936886
  31.8190433  70.1927659  81.8087048  30.6088557  71.2779970  80.3874303
  29.6855957  70.7227702  80.5530006  30.3738287  72.3265109  80.2044523
  31.3372790  70.7027894  79.1791068  31.8828337  71.5334924  78.7314424
  32.0450602  69.9894067  79.6012798  30.5008913  70.0159275  78.1158146
  29.4717433  70.5812392  77.6762022  30.8975849  68.9019844  77.7043646
  32.7180431  72.0298759  81.6125730  32.7106083  73.2465934  81.8628894
  33.8231415  71.3392637  81.2953391  33.7425012  70.3355139  81.2173462
  35.1413460  71.9374225  81.1600917  35.2924932  72.6584787  81.9634171
  36.2484920  70.8849849  81.2333576  36.0420072  70.1373682  80.4675035
  37.1911572  71.3839168  81.0085260  36.3459957  70.2045242  82.5940811
  36.0970524  70.8613129  83.4276017  35.6092806  69.4036958  82.5306248
  37.6994858  69.5943748  82.8495716  38.7241327  70.2865347  82.9059480
  37.7191690  68.3072451  83.1377291  38.5997553  67.8466669  83.3181092
  36.8535623  67.7882922  83.1766446  35.2891208  72.7691406  79.8970649
  34.7298218  72.4423273  78.8512052  36.0295949  73.8690948  80.0169604
  36.3262250  74.1234095  80.9483217  36.3571304  74.7633269  78.9226586
  36.4012700  74.1974019  77.9921320  35.3115810  75.8592785  78.7761439
  35.5666721  76.4597319  77.9029408  34.3415775  75.3869587  78.6208792
  35.2533015  76.6902284  79.9183364  34.5846644  77.3666702  79.7881414
  37.7730197  75.3152403  79.1664310  38.4677131  74.8410631  80.0782474
  38.2055487  76.2907921  78.3577696  37.6088553  76.5765451  77.5946173
  39.5460791  76.8651136  78.4412145  40.2808235  76.0976748  78.1977242
  39.7193234  78.0226477  77.4811337  38.8918632  78.7145707  77.6381417
  40.6588272  78.5199141  77.7222951  39.7396019  77.5818685  76.0357848
  40.6297774  76.9867817  75.8319219  38.8503686  76.9955470  75.8042827
  39.7587295  78.8065160  75.1927204  40.4991838  79.5064439  75.5799249
  40.0123253  78.5409769  74.1664272  38.4568677  79.4550515  75.1981552
  37.7793026  79.1556890  75.8847315  38.1131160  80.4100268  74.3442963
  38.9732232  80.8304552  73.4254038  39.8950823  80.4207811  73.3759787
  38.7020483  81.5581903  72.7796751  36.9079535  80.9597616  74.4080549
  36.2510436  80.6491522  75.1095470  36.6525650  81.6865139  73.7548271
  39.9673600  77.2647668  79.8197503  41.0731386  76.9270895  80.2110681
  39.0850806  77.9246557  80.5706163  38.2275465  78.1941759  80.1100802
  39.2999935  78.3650467  81.9575630  40.1313879  79.0692453  81.9889781
  38.0470308  79.0572466  82.5256428  38.2542860  79.2910474  83.5699041
  37.9097870  79.9830287  81.9669016  36.7919686  78.2259565  82.4365159
  36.5469583  78.0746806  81.3852374  36.9777176  77.2610392  82.9082511
  35.6504695  78.9025867  83.1208472  35.9713425  79.2593037  84.0995670
  35.3131928  79.7469066  82.5196253  34.5323223  77.9811212  83.3022452
  34.6203302  77.0504818  82.9198002  33.4150990  78.3000269  83.9381424
  33.2719222  79.5089217  84.4740248  34.0183975  80.1846560  84.3949186
  32.4173839  79.7456138  84.9575956  32.4322395  77.4168481  84.0451539
  32.5370061  76.4977011  83.6398234  31.5831981  77.6672040  84.5315173
  39.7460048  77.2552033  82.9161733  40.5728994  77.5043700  83.7988257
  39.2350144  76.0393572  82.7160510  38.5284569  75.9383186  82.0014413
  39.5330488  74.8871054  83.5631339  39.5668261  75.1880039  84.6102339
  38.4404074  73.8265588  83.3934964  38.4492616  73.3542854  82.4111631
  38.6749271  73.0833089  84.1555202  37.0558492  74.4130616  83.6637260
  36.7400957  74.6996761  84.8665098  36.3296015  74.6902029  82.6778406
  40.9348359  74.3366886  83.3412259  41.5580564  73.9113362  84.3030099
  41.4567118  74.4130255  82.0928160  40.8695319  74.7453261  81.3412207
  42.8352062  74.0197100  81.7771228  43.0172432  73.0091496  82.1428130
  43.0898388  74.0465322  80.2442866  42.5043718  74.9030732  79.9101230
  44.1490155  74.2447531  80.0801123  42.6767013  72.8107310  79.4554865
  42.2977270  71.7856687  80.0886555  42.7881922  72.8410424  78.2219015
  43.7918151  74.9882983  82.4735048  44.7689540  74.5565218  83.0848071
  43.4756356  76.2901148  82.3998754  42.6922776  76.5257564  81.8074882
  44.2297596  77.3768676  83.0136133  45.2788512  77.2939214  82.7296661
  43.7011345  78.7598549  82.5570712  42.6679963  78.8365132  82.8959639
  44.3047091  79.5159853  83.0591314  43.7590619  78.9822972  81.0497076
  42.9179416  78.4375143  80.6209546  43.6204688  80.0509933  80.8860537
  45.2941356  78.4474867  80.2367056  46.3754243  79.7724429  80.6060495
  46.4748812  79.8703961  81.6870733  47.3540587  79.5763735  80.1679490
  45.9719311  80.6971813  80.1935531  44.2507358  77.2696107  84.5371188
  45.3034030  77.4685558  85.1428858  43.1077991  76.9200131  85.1481535
  42.2724922  76.7989780  84.5934354  42.9949722  76.8149531  86.6087470
  43.4377836  77.6915998  87.0815130  41.5234911  76.7313742  87.0155231
  40.9772549  77.4353817  86.3877503  41.1886040  75.7169013  86.7992006
  41.2632768  77.0484652  88.4735628  42.1002963  76.6579808  89.0523728
  41.2301003  78.1336479  88.5703972  39.9728035  76.4569870  88.9925554
  38.8883707  76.7948354  88.4677373  40.0496142  75.6429740  89.9333805
  43.8242049  75.6291029  87.1431423  44.5135831  75.7562296  88.1604591
  43.7886906  74.5022765  86.4130636  43.1178120  74.4923606  85.6581312
  44.5900549  73.3042844  86.6423213  44.3827881  72.9104132  87.6373114
  44.2638747  72.2285414  85.6155932  44.2898539  72.6595495  84.6147654
  44.9970995  71.4248958  85.6836753  42.9705501  71.7104504  85.8728986
  42.7632117  71.0318586  85.2262737  46.0745623  73.6418591  86.5890088
  46.8052380  73.2075478  87.4746146  46.5065002  74.4745887  85.6169018
  45.8734923  74.7118720  84.8665039  47.8921364  74.9376750  85.5284130
  48.5590134  74.0756562  85.5111530  48.1304274  75.7691938  84.2559639
  47.9542034  75.0179177  83.4861401  47.3886256  76.5626554  84.1651408
  49.5370902  76.3612493  84.0807178  49.6795594  77.1347322  84.8353883
  50.6373428  75.2842625  84.2325129  50.4957985  74.5106220  83.4778312
  51.6169696  75.7439269  84.1015900  50.5755420  74.8383705  85.2252170
  49.6401783  77.1318942  82.7625353  48.9136165  77.9444147  82.7583083
  50.6444681  77.5426774  82.6588030  49.4359767  76.4582491  81.9303075
  48.3432744  75.6963005  86.8082500  49.4958262  75.5214129  87.2336669
  47.4234111  76.4812103  87.4130947  46.5218259  76.5711556  86.9668287
  47.6521159  77.2008184  88.6618330  48.5129914  77.8568534  88.5329512
  46.7694319  77.8001339  88.8849680  47.9176844  76.2588830  89.8254391
  48.7690646  76.5219070  90.6834252  47.2214709  75.1203365  89.8280166
  46.4891620  74.9770570  89.1473596  47.4163756  74.1068902  90.8567346
  47.4555892  74.5873102  91.8343635  46.2718027  73.0836659  90.8584890
  46.2158252  72.6661200  89.8531925  46.5061070  72.2903586  91.5683235
  44.9423681  73.7063914  91.2199233  44.8669910  74.7518823  92.1376123
  45.7872777  75.1071688  92.6012322  43.6519562  75.3400157  92.4657136
  43.6186317  76.1843551  93.1542500  42.4823676  74.8617221  91.8996803
  41.2928134  75.4334002  92.2653178  41.3976872  76.1400696  92.9065818
  42.5253065  73.8110487  90.9957717  41.6075283  73.4344884  90.5441236
  43.7547022  73.2345039  90.6647605  43.7947614  72.4021577  89.9621261
  48.7593094  73.4286410  90.7071326  49.4066902  73.1693766  91.7262057
  49.1777514  73.1591946  89.4344681  48.5064649  73.3409958  88.7020597
  50.4432623  72.5049768  89.0730497  50.5848578  71.5810730  89.6338096
  50.5291986  72.1814222  87.5491359  50.3850903  73.1080543  86.9935416
  51.8749628  71.5686340  87.1748722  52.0195893  70.6416601  87.7297628
  51.8941442  71.3581563  86.1055585  52.6742016  72.2675679  87.4214697
  49.4013814  71.2506091  87.1287298  48.4420173  71.7261588  87.3326293
  49.4822865  71.0394002  86.0624537  49.4707508  70.3185092  87.6895136
  51.6013368  73.3651857  89.5987199  52.4727390  72.8360642  90.2926461
  51.5395301  74.7018656  89.3587744  50.7975182  75.0188712  88.7513000
  52.5316535  75.6880175  89.8233823  53.5299560  75.3442133  89.5526610
  52.3014422  77.0743251  89.1946567  51.3022071  77.2708300  89.5832624
  52.9932597  77.8252895  89.5761552  52.2752587  77.1348107  87.6832474
  51.7005672  76.2880074  87.3080745  51.6335417  78.4443129  87.1979443
  52.2079883  79.2916156  87.5723615  51.6264156  78.4639788  86.1081446
  50.6104601  78.5073803  87.5686555  53.6541595  76.8407149  87.0918293
  53.9741372  75.8432833  87.3932323  53.6020473  76.8918502  86.0042766
  54.3707323  77.5770473  87.4557484  52.6023793  75.7994416  91.3433397
  53.6979601  75.9176333  91.8915280  51.4441841  75.7480894  92.0207509
  50.5835495  75.7921659  91.4940017  51.3663046  75.7989805  93.4954840
  52.0534065  76.5650117  93.8549090  49.9556031  76.1273551  94.0046181
  49.2578199  75.4473664  93.5159328  49.9398820  75.9520059  95.0803065
  49.5418490  77.5804762  93.7162629  49.2730872  77.6472140  92.6620267
  48.6684735  77.8057122  94.3282971  50.8578968  78.7940789  94.0783566
  51.2185881  78.4019885  95.9674254  51.5422564  77.3660883  96.0686607
  52.0029709  79.0645840  96.3332282  50.3111262  78.5572401  96.5509587
  51.9274653  74.5601249  94.1305662  52.6265200  74.6488365  95.1337181
  51.7203815  73.4236919  93.4708623  51.0900583  73.4854469  92.6841105
  52.2701156  72.1123702  93.8183473  52.0475039  71.8661936  94.8565863
  51.6283771  71.0470281  92.9118431  50.5812563  70.9136381  93.1835862
  51.6915879  71.4991890  91.9220679  52.3187383  69.7048691  92.8964864
  52.1571820  68.8051859  93.9483241  51.5654544  69.1088947  94.8118742
  52.7354784  67.5374654  93.9107323  52.5994751  66.8468384  94.7429819
  53.4747445  67.1538147  92.8084625  54.0384286  65.9104336  92.7980935
  53.8539089  65.4082742  93.5952058  53.6440201  68.0263588  91.7423112
  54.2284451  67.7275379  90.8721078  53.0606706  69.2925285  91.7893402
  53.1806913  69.9793471  90.9515005  53.8094985  72.1308781  93.6830710
  54.4710495  71.5195540  94.4899669  54.3945547  72.7979548  92.6533020
  53.8689285  73.1898186  91.8850187  55.8647532  72.8825409  92.6088233
  56.2776877  71.9004105  92.8390498  56.3895429  73.3247752  91.2470485
  55.9145000  74.2877784  91.0598094  57.4723589  73.4495404  91.2536329
  56.0625642  72.4429697  90.0615575  56.1022674  71.0548761  90.1704875
  56.3688295  70.6036396  91.1262229  55.8066110  70.2457939  89.0772962
  55.8089436  69.1615155  89.1888119  55.5118966  70.8113270  87.8581659
  55.2826228  70.1730145  87.0048836  55.5061789  72.1857019  87.7142105
  55.2717229  72.6343055  86.7488685  55.8017471  73.0002036  88.8093048
  55.8305006  74.0833696  88.6908797  56.3879730  73.8330404  93.7170835
  57.4258078  73.5533653  94.3236787  55.6038512  74.9010735  94.0248046
  54.7890405  75.0158220  93.4391293  55.9095973  75.9458684  94.9978888
  56.9345545  76.2914752  94.8632865  54.9634958  77.1352486  94.8100916
  54.0137892  76.6801198  94.5289967  54.8326612  77.7114712  95.7260336
  55.3962019  78.0769176  93.7027566  56.5618756  78.1320726  93.3296391
  54.4941979  78.9150845  93.2218832  54.7478620  79.5563067  92.4839209
  53.5555165  78.9103974  93.5946511  55.9430980  75.4301322  96.4372411
  56.9603894  75.5763826  97.1173440  54.8371010  74.8340016  96.8855521
  54.0875519  74.7554635  96.2131629  54.6823617  74.1664078  98.1774358
  55.2669697  74.6826511  98.9388985  53.2104497  74.1818925  98.5968690
  52.7513322  73.3522942  98.0592102  53.2152940  73.9637801  99.6648126
  52.4130229  75.4548205  98.3425091  52.5490805  76.1307104  99.1867614
  52.7857766  75.9288511  97.4345159  50.9219274  75.1370821  98.1776930
  50.3565625  76.0680498  98.2196515  50.7678433  74.6623909  97.2086596
  50.4256792  74.2380552  99.2257992  50.4968959  73.2464848  99.0474299
  49.9047363  74.6384658 100.3798004  49.7457660  75.9308125 100.6326133
  50.0226532  76.6149270  99.9431056  49.3485642  76.2248106 101.5134626
  49.5305138  73.7500583 101.2861358  49.6420134  72.7639505 101.0983611
  49.1350881  74.0621260 102.1615506  55.0037332  72.7079791  97.8602050
  54.4529528  72.2194929  96.8836800  55.8159880  71.9773234  98.6366329
  56.3498886  72.3649181  99.4013680  56.0524508  70.5609283  98.2598648
  56.5972790  70.4696797  97.3202185  56.8218797  69.8345064  99.3359742
  56.8547693  68.7773635  99.0724074  58.2446963  70.3645338  99.4900024
  58.2126093  71.4215831  99.7540417  58.7565932  69.8095680 100.2761790
  58.7825453  70.2415500  98.5499524  56.0879494  69.9432288 100.5624977
  56.5623799  69.4862837 101.2608652  54.7492320  69.8016458  97.8761945
  54.6876175  69.1438056  96.8324014  53.6962956  69.9776765  98.7012660
  53.8414164  70.5602711  99.5134377  52.3847320  69.3633996  98.5153980
  52.3693372  68.7759380  97.5973833  52.0828358  68.4368540  99.6934582
  51.4172237  67.6390081  99.3640621  53.0136123  68.0044443 100.0605780
  51.4600441  69.1721325 100.7351017  51.2724822  68.5864660 101.4722686
  51.2495765  70.4041100  98.3922528  51.4557028  71.5896526  98.6324817
  50.0358158  69.9138471  98.1052456  49.9912913  68.9367080  97.8536185
  48.8145520  70.6984397  98.0396071  49.0544557  71.7609001  98.0811183
  48.0708452  70.4168422  96.7366048  48.1830268  69.3385241  96.6237131
  47.0138580  70.6630102  96.8379927  48.6362835  71.1133874  95.5163740
  49.7224076  71.1543267  95.5985888  48.2581363  70.3665359  94.2762826
  47.1720851  70.3255774  94.1931324  48.6697700  70.8759353  93.4049785
  48.6566764  69.3532287  94.3260294  48.2051722  72.5722640  95.4625387
  48.5614715  73.0900579  96.3530664  48.6274485  73.0439494  94.5752412
  47.1174508  72.6289304  95.4207044  47.9249055  70.4421244  99.2769448
  48.0133828  69.3612461  99.8747775  47.0815641  71.4190659  99.6973574
  46.9276836  72.7204208  99.1943006  46.2362950  72.6900985  98.3521826
  47.8984769  73.0806857  98.8539060  46.3907582  73.5226693 100.3576691
  45.8257325  74.3856367 100.0053449  47.2021275  73.8591487 101.0030860
  45.4871867  72.5226214 101.0902259  44.4716397  72.3954191 100.7152820
  45.4530840  72.7930316 102.1456003  46.2696196  71.2320573 100.9106536
  46.9834851  71.1718950 101.7321613  45.3365638  70.0102667 100.9527679
  44.9999860  69.5533184 102.0504012  44.9306011  69.4906452  99.7710443
  45.2884990  69.9663088  98.9551076  44.0195769  68.3570299  99.5719932
  43.5247538  68.0992957 100.5083812  42.9480353  68.7395533  98.5395494
  42.4046285  67.8329609  98.2732815  42.2492440  69.4806584  98.9275623
  43.5033767  69.3007783  97.2580852  43.9648241  68.6029433  96.1827218
  43.8951312  67.5163303  96.2328715  44.4396706  69.4695657  95.2253842
  44.8130753  69.2032060  94.3255392  44.2786391  70.7560322  95.6714175
  44.5526697  71.9755383  95.0445267  44.9724893  71.9611649  94.0387218
  44.2717686  73.1267822  95.7450402  44.4842754  74.0952550  95.2922695
  43.7187859  73.0853109  97.0272400  43.4979457  74.0030260  97.5723344
  43.4345407  71.8777378  97.6443705  43.0035797  71.9019781  98.6452630
  43.7004746  70.6842276  96.9552824  44.7250508  67.0885010  99.1038074
  44.0569926  66.1524449  98.6434617  46.0669372  67.0526953  99.2112721
  46.5445461  67.8791094  99.5414672  46.8725792  65.9262948  98.7470673
  46.4652975  65.5474871  97.8096636  48.3217227  66.3513110  98.5135010
  48.3228750  67.4190601  98.2943899  48.8733046  66.1696278  99.4359156
  48.9860501  65.5973053  97.3678908  49.2367738  64.5921522  97.7068683
  48.3074013  65.5345909  96.5172412  50.2459055  66.2827568  96.9266771
  50.2543925  67.4845787  96.6515588  51.3378997  65.5369307  96.8317711
  52.2084807  65.9566446  96.5384619  51.2941801  64.5524761  97.0532189
  46.8110642  64.6862872  99.6355891  46.5633936  63.5997586  99.1114443
  47.0396982  64.8469136 100.9386638  47.2027295  65.7791395 101.2914739
  47.0658451  63.7307550 101.8873757  47.4581213  62.8688436 101.3476282
  47.7599340  64.0088144 102.6804854  45.7321134  63.3601188 102.5063858
  45.6502126  63.1255729 103.7207702  44.6754212  63.3380621 101.6683446
  44.8638334  63.5936527 100.7095570  43.2949139  63.0221766 102.0446503
  43.2100751  63.0177100 103.1313340  42.2946846  64.0654882 101.4726263
  42.3070939  63.8496916 100.4042738  41.3221515  63.7976533 101.8855959
  42.5491254  65.5589241 101.6942705  43.4859279  65.8343535 101.2098735
  41.4237047  66.3791834 101.1147751  40.4865785  66.1046245 101.5990381
  41.6217713  67.4379582 101.2817071  41.3483450  66.1885533 100.0442231
  42.7057647  65.8975536 103.1591774  43.5494922  65.3447240 103.5722184
  42.8845354  66.9672470 103.2682563  41.7963729  65.6252068 103.6948386
  42.9339286  61.6186149 101.5468649  42.5809600  61.4368087 100.3750660
  43.0492727  60.6253809 102.4318242  43.4780692  60.8168298 103.3260167
  42.7258730  59.2444936 102.1029536  42.7769000  59.1099878 101.0224891
  43.7125209  58.2558844 102.7718496  43.9744021  58.6669357 103.7468134
  43.1858320  57.3110611 102.9060424  44.9954491  58.0163844 101.9548044
  45.3064796  58.9637064 101.5144160  45.7726940  57.6573416 102.6294010
  44.7668588  56.9771644 100.8327909  44.5619779  56.0220139 101.3163304
  43.8876452  57.2965273 100.2732462  45.9346224  56.8226927  99.8891111
  46.1808786  57.8046597  99.4851318  46.7839563  56.4397088 100.4548448
  45.6224851  55.8902509  98.7707447  44.8357711  56.2451701  98.2461370
  46.4253067  55.8130426  98.1627840  45.3946873  54.9801651  99.1448450
  41.2622139  58.8973963 102.3971825  40.6401988  59.4529261 103.3086154
  40.7178155  58.0057717 101.5601126  41.3346006  57.7080302 100.8178018
  39.3726169  57.4400409 101.6112129  39.0293872  57.2282254 102.6238465
  38.3816873  58.3779019 100.9500167  38.7070182  58.5921351  99.9319971
  37.3978622  57.9093019 100.9254703  38.3267624  59.3074815 101.5165537
  39.4313473  56.1075830 100.8599775  40.2214838  55.9746798  99.9114506
  38.6317783  55.1178610 101.3025708  38.0828542  55.2940305 102.1318752
  38.5923158  53.7788769 100.7167123  39.5722009  53.3363559 100.8958759
  37.5376585  52.9298662 101.4209528  36.5499768  53.3552843 101.2431767
  37.5699720  51.9124291 101.0312377  37.7386922  52.9146391 102.4921451
  38.3677931  53.7839947  99.1908822  39.2273281  53.2984944  98.4394343
  37.2469881  54.3747696  98.7412389  36.5671708  54.6881445  99.4192831
  36.8890881  54.4294770  97.3244380  37.5339223  53.7826329  96.7295592
  35.4178539  53.9961094  97.1078107  35.3406801  52.9467063  97.3922357
  34.4219330  54.8129330  97.9125197  34.4981994  55.8624555  97.6282917
  33.4119383  54.4552872  97.7122716  34.6398805  54.7081205  98.9753526
  35.1043411  54.1021971  95.7212065  34.1934247  53.8352558  95.5777705
  37.2242666  55.7865417  96.6869837  37.2653761  56.8108575  97.3776761
  37.4456378  55.7741274  95.3536849  37.4553983  54.8681884  94.9072786
  37.7488059  56.9532886  94.5387800  38.6424857  57.4402275  94.9290697
  37.9975320  56.5750444  93.0667652  37.0685549  56.1524621  92.6839794
  38.2230672  57.4983839  92.5332129  39.1302556  55.5801937  92.8594986
  40.0196145  55.9617782  93.3610311  38.8402877  54.6300418  93.3080875
  39.4314159  55.3722805  91.3809248  38.5159567  55.0445765  90.8883363
  39.7488941  56.3259687  90.9592782  40.5159173  54.3406724  91.1662752
  41.4109312  54.6729848  91.6922211  40.1758220  53.3957941  91.5901141
  40.8294494  54.1526923  89.7250458  41.1450193  55.0280220  89.3322184
  41.5559451  53.4580191  89.6263895  40.0003475  53.8443529  89.2375872
  36.6345802  58.0083416  94.6427146  36.9419787  59.1923049  94.6272846
  35.3548926  57.5895268  94.7839757  35.1824438  56.5957226  94.7318801
  34.1968605  58.4945952  94.9115453  34.2158353  59.2332562  94.1102221
  32.8856295  57.7059337  94.8197991  32.9020185  57.1457945  93.8848795
  32.8591508  57.0106943  95.6588707  31.6366910  58.6027351  94.8579165
  31.6056609  59.0911317  95.8318810  31.7424572  59.3562146  94.0774140
  30.3493206  57.8256876  94.6401354  30.4473513  57.2228177  93.7373416
  30.1802800  57.1723614  95.4961083  29.1626214  58.7849620  94.4874535
  29.3781179  59.4519149  93.6526867  28.2794991  58.1890352  94.2570940
  28.9100532  59.5940987  95.7190168  29.7281005  60.1466970  95.9324022
  28.1215186  60.2058937  95.5640330  28.7099279  58.9762888  96.4925540
  34.2420964  59.3358099  96.2027217  33.7582868  60.4782844  96.2188265
  34.8205244  58.7439444  97.2793099  35.1116015  57.7877884  97.1339167
  35.0239216  59.3403166  98.6082632  34.1816274  59.9828923  98.8646537
  35.1345182  58.2230299  99.6713078  35.8252246  57.4722773  99.2873880
  35.5497161  58.6698103 100.5746893  33.7990732  57.5645421  99.9980655
  33.1734859  58.3475309 100.4266328  33.3423679  57.1977021  99.0788535
  33.8861231  56.4172807 100.9877339  34.9033449  55.7237457 101.1482270
  32.7793873  56.1657633 101.6532367  32.7599889  55.4163607 102.3300829
  31.9543260  56.7232543 101.4841834  36.3031794  60.2159351  98.6132558
  36.3526648  61.2429659  99.2987067  37.3391515  59.7658266  97.8669408
  37.1814928  58.8891864  97.3907632  38.6457684  60.4145202  97.7149316
  39.1398498  60.5020766  98.6825662  39.5375155  59.5634376  96.7796196
  39.2044712  58.5312787  96.8883794  39.3360418  59.9045946  95.7641787
  41.0394076  59.6459633  97.0562051  41.5543119  59.6568112  96.0955508
  41.2299753  60.5823450  97.5805859  41.5605051  58.4638326  97.9067663
  42.5006279  58.7817189  98.3575616  40.8251362  58.2828515  98.6907164
  41.7842668  57.1859599  97.1186100  40.8306657  56.8818741  96.6870116
  42.4927888  57.4002135  96.3184906  42.3157443  56.0873257  97.9704360
  41.6591613  55.8883455  98.7116548  42.4491442  55.2593860  97.4075680
  43.1995782  56.3687316  98.3701201  38.4882681  61.8338782  97.1357619
  39.2050955  62.7415396  97.5515396  37.5295403  62.0082529  96.1916138
  37.0128890  61.1688382  95.9712647  37.2021084  63.2401122  95.4601270
  38.1130933  63.7964901  95.2395610  36.5037363  62.8962992  94.1351477
  35.6723073  62.2138239  94.3113649  36.1163498  63.8717071  93.8408500
  37.3813305  62.3474496  93.0294658  38.3684225  61.4028270  93.2956435
  38.5376465  61.1003377  94.3290664  39.1341256  60.8452062  92.2712355
  39.9069251  60.1117872  92.5014084  38.9122571  61.2291691  90.9582771
  39.6721181  60.7170978  89.9341993  40.3375124  60.0943727  90.2359664
  37.9103801  62.1378382  90.6687380  37.7196482  62.4314579  89.6365029
  37.1432115  62.6788139  91.7010701  36.3376704  63.3768869  91.4732594
  36.3085264  64.1752835  96.2593959  36.4615911  65.3898872  96.1400848
  35.3629250  63.6247897  97.0418379  35.2239827  62.6256411  96.9918736
  34.4408371  64.4155005  97.8670605  33.9308236  65.1384402  97.2303945
  33.3827066  63.5431171  98.5662364  33.9200247  62.7268915  99.0491074
  32.9142630  64.1687301  99.3260186  32.3051586  62.9686978  97.6434267
  31.7965401  63.8045311  97.1630199  32.8164981  62.3723822  96.8877555
  31.2838003  62.1020548  98.3678978  31.0647598  60.9340981  97.9566456
  30.7005297  62.5846978  99.3620613  35.2122208  65.2890219  98.8697412
  34.7636117  66.3875463  99.2055073  36.3914088  64.7979488  99.3124578
  36.6179387  63.8530463  99.0368809  37.2847592  65.4804196 100.2479613
  36.6912251  66.0614108 100.9538406  38.1509394  64.4748443 101.0410414
  38.5343888  63.7381927 100.3350597  38.9834532  65.0263551 101.4779129
  37.3725757  63.7606517 102.1518861  36.9472004  64.5277718 102.7989436
  36.5678184  63.1982997 101.6783590  38.2327681  62.8144044 102.9832982
  38.6377884  62.0450282 102.3259415  39.0516023  63.3844497 103.4222269
  37.4270677  62.1639503 104.0821382  37.0265834  62.9498439 104.7225162
  36.6044585  61.6155376 103.6231646  38.2485007  61.2332740 104.8963092
  39.0105573  61.7413319 105.3220399  37.6744378  60.8206061 105.6175977
  38.6193436  60.5047283 104.3031855  38.1231652  66.5323758  99.5211488
  38.1183931  67.6856949  99.9390078  38.8003327  66.1423268  98.4147767
  38.7962295  65.1531005  98.2110276  39.6029763  67.0272582  97.5576578
  40.4157567  67.5068793  98.1030483  40.1837579  66.2423725  96.3468745
  39.3819843  65.6584402  95.8948984  40.7819195  67.2006579  95.2902782
  41.5841247  67.7846414  95.7414220  41.1794049  66.6211364  94.4570550
  40.0043502  67.8724556  94.9267221  41.2305347  65.2011228  96.8190182
  42.0785800  65.7722284  97.1968518  40.7666971  64.6543041  97.6399588
  41.7209546  64.1993394  95.7435535  42.1853577  64.7454303  94.9224479
  42.4495255  63.5193358  96.1850040  40.8734738  63.6275073  95.3655531
  38.7528150  68.2318546  97.1197227  39.1478049  69.3790096  97.3566474
  37.5645921  67.9502070  96.5324749  37.3635428  66.9732231  96.3737902
  36.6009691  68.9414919  96.0593458  37.0499367  69.5427310  95.2687519
  35.3548183  68.2585867  95.5044191  35.5834322  67.8823422  94.5072857
  35.0997742  67.4239749  96.1574702  34.2565295  69.1544404  95.4313576
  33.4911297  68.6942744  95.0792068  36.2148553  69.9281812  97.1526825
  36.2977382  71.1408392  96.9352862  35.7983541  69.4047814  98.3318108
  35.6507299  68.4072761  98.3891664  35.3967833  70.2306930  99.4676985
  34.7847064  71.0554886  99.1027692  34.5873489  69.4425813 100.5133083
  35.0872726  68.4834574 100.6484262  34.6302226  70.0083602 101.4439834
  33.1216509  69.2049891 100.1266713  33.2047429  68.6392340  99.1987070
  32.7170305  68.5622227 100.9084851  32.1900365  70.3959425  99.9145707
  32.4535932  71.4877117 100.4723485  31.1688657  70.2228788  99.2092290
  36.5776687  70.9772065 100.0964657  36.3839675  72.0935936 100.5702785
  37.8024601  70.4004968 100.0489572  37.8679090  69.4510505  99.7107745
  39.0163154  71.0384990 100.5694641  38.7915818  71.5045855 101.5288167
  40.1568562  70.0220166 100.7709994  39.7648954  69.2361242 101.4166301
  40.3822238  69.6060898  99.7890043  41.4361937  70.5981514 101.3871854
  42.1692811  69.7922750 101.4224977  41.7915947  71.3829194 100.7194046
  41.2429679  71.1725110 102.7903856  40.3683491  71.8229282 102.7804633
  41.0733916  70.3470055 103.4816771  42.4492230  71.9598396 103.2347227
  43.2613412  71.2592928 103.4291417  42.7354236  72.6315242 102.4253845
  42.1750133  72.7503143 104.4590489  41.9102126  72.1280654 105.2092400
  43.0052725  73.2614173 104.7227598  41.4228023  73.3998168 104.2789816
  39.4218839  72.1971056  99.6591460  39.7429824  73.2699780 100.1651564
  39.3312085  72.0038242  98.3209422  39.0811724  71.0783718  98.0029497
  39.5803359  73.0444882  97.3115043  40.6070264  73.4015147  97.3923616
  39.3671325  72.4793787  95.8998922  38.4523786  71.8869387  95.9183125
  39.2383282  73.3247668  95.2240013  40.5107674  71.6225046  95.4199932
  41.3953481  72.2548847  95.3444081  40.6830847  70.8450660  96.1643036
  40.2388959  70.9965500  94.1074766  39.5867298  70.1328936  94.2373840
  39.7586445  71.7176023  93.4460073  41.5366713  70.5553918  93.5059923
  42.0335281  71.4308736  93.0879426  42.1533784  70.1323259  94.2989532
  41.3408594  69.5494712  92.4467381  40.7697862  69.9414377  91.7116617
  42.2377547  69.2797049  92.0687104  40.8808584  68.7379739  92.8339981
  38.6343304  74.2293308  97.5181502  39.0485365  75.3928958  97.4485810
  37.3576599  73.9166414  97.7855949  37.0955157  72.9415356  97.7621779
  36.3127708  74.9073462  98.0019116  36.4278093  75.7327981  97.2994200
  34.9493878  74.2747487  97.7880417  34.8588716  73.4356155  98.4777964
  34.1932563  75.0229863  98.0257511  34.7482496  73.7897486  96.3811131
  34.9163718  74.6239166  95.6999380  35.4756347  73.0036357  96.1785311
  33.0932375  73.1427772  96.1247599  32.1789036  74.7166723  95.9342948
  32.5788811  75.2692416  95.0841277  31.1228706  74.5058602  95.7656139
  32.2896247  75.3136323  96.8395466  36.3966716  75.5865373  99.3627180
  35.9422332  76.7272449  99.4971496  36.9536931  74.8944702 100.3789539
  37.2024575  73.9241849 100.2494855  37.1053972  75.4784115 101.7146370
  36.3171526  76.2138342 101.8756433  37.0140343  74.4179159 102.8088929
  37.0462209  74.9321438 103.7694308  36.0539903  73.9135123 102.6993827
  38.0602314  73.4609932 102.7497197  37.9507565  72.8229564 103.4586091
  38.3999897  76.2855175 101.8234992  38.4765596  77.1630006 102.6817705
  39.3940674  76.0138532 100.9233286  39.2521341  75.2122982 100.3254459
  40.6928015  76.6984452 100.8736628  40.9270930  77.1331776 101.8453697
  41.8397842  75.7314568 100.4731467  41.7001658  75.4656126  99.4253233
  43.2145114  76.3389821 100.6606785  43.3550496  76.6046746 101.7084171
  43.9750614  75.6165655 100.3644066  43.3041433  77.2335318 100.0443608
  41.7677824  74.5388726 101.2424123  42.4809356  73.9494085 100.9863948
  40.6588322  77.9651512  99.9913834  40.7584745  77.8505518  98.7590067
  40.5763654  79.1834873 100.5988351  40.2092914  79.5581838 101.9472408
  41.1096979  79.5451772 102.5614062  39.5016119  78.8203297 102.3252092
  39.6005272  80.9378776 101.8384643  39.6938886  81.4780481 102.7805887
  38.5489457  80.8760268 101.5583710  40.4246391  81.6016648 100.7282556
  41.3777831  81.9811395 101.0965143  39.8979155  82.3958935 100.1992352
  40.6626234  80.4257069  99.7944968  39.8582991  80.4303637  99.0588754
  42.0077823  80.5010002  99.0770183  42.9915845  79.9636002  99.6005692
  42.0523383  81.1192032  97.8639330  41.1794438  81.4059624  97.4445003
  43.2804405  81.1878935  97.0431678  43.7851366  80.2267326  96.9454402
  43.1129326  81.8091329  95.6234675  43.9221256  81.4230389  95.0035987
  41.7735540  81.4918995  94.9660728  40.9638337  81.8781188  95.5851759
  41.7318290  81.9582837  93.9817734  41.6665389  80.4122814  94.8608386
  43.4015044  83.2867679  95.6031936  44.4275822  83.4615800  95.9267786
  43.2701150  83.6692978  94.5910141  42.7160179  83.8006425  96.2770942
  44.4377264  81.8211887  97.8571773  45.5726760  81.3577904  97.7728720
  44.1040994  82.8079092  98.7058732  43.1280616  83.0661648  98.6784240
  44.9950102  83.5509138  99.6033937  45.8210118  83.9848540  99.0399078
  44.2097258  84.6927827 100.2867156  43.3163925  84.2462757 100.7233922
  44.8453994  85.0836757 101.0812102  43.8044634  85.8322699  99.3517224
  43.3872885  86.5977291 100.0060451  44.7584242  86.1767848  98.9525140
  42.8394020  85.5658898  98.2021625  41.9795354  84.6584189  98.3183742
  42.9355385  86.2927509  97.1859728  45.6226695  82.6374674 100.6632473
  46.7524497  82.8888350 101.0954416  44.8880698  81.5757070 101.0691328
  43.9249542  81.5230034 100.7695832  45.3622723  80.6027269 102.0418042
  46.0421796  81.0643793 102.7578365  44.2068820  79.9064369 102.8282534
  43.5153921  79.4714503 102.1066388  44.7318037  78.8071776 103.7593298
  45.4230513  79.2415098 104.4815717  43.8961765  78.3481037 104.2876088
  45.2498915  78.0493272 103.1716655  43.3967652  80.9268538 103.6266700
  42.9641328  81.6604890 102.9464416  42.5983831  80.4164184 104.1653177
  44.0490894  81.4325736 104.3385839  46.3125600  79.6325897 101.3484261
  47.4050895  79.3752141 101.8635707  45.9145058  79.1164168 100.1761661
  44.9797607  79.3123909  99.8476163  46.7531008  78.2199564  99.3844394
  47.0312035  77.3460837  99.9735952  45.9750078  77.7469781  98.1372218
  45.2339682  77.0519507  98.5320592  45.4705803  78.6265287  97.7371672
  46.7819167  77.0550797  97.0068486  47.6895614  77.6327944  96.8321272
  47.1475976  75.6468293  97.3627730  46.2403916  75.0683389  97.5372002
  47.7114695  75.1993789  96.5442759  47.7574186  75.6465190  98.2662212
  46.0105653  77.0350551  95.7280007  45.7884043  78.0570742  95.4210466
  46.6011861  76.5441765  94.9544979  45.0783867  76.4892807  95.8738511
  48.1048729  78.8841886  98.9690339  49.1574253  78.2395745  99.0722427
  48.0601500  80.1694504  98.5258070  47.1441877  80.5920607  98.4756777
  49.2065056  80.9244089  97.9964597  49.9834286  80.2332220  97.6697328
  48.7815576  81.7820583  96.8027525  48.0773652  82.5519338  97.1181954
  49.6507582  82.2519759  96.3425702  47.9573410  80.8577418  95.4882489
  47.7611203  81.9008495  94.6867990  49.9613817  81.7641078  99.0389969
  50.8366587  82.5578556  98.6504076  49.6614205  81.5747980 100.3398759
  48.9224506  80.9249430 100.5672767  50.2935868  82.3217094 101.4355050
  50.1865859  83.3915405 101.2563085  49.6361281  81.9798366 102.7927497
  48.5574717  81.9441186 102.6400284  49.9923998  80.9953973 103.0961470
  49.9622934  82.9982636 103.8849674  50.9397536  83.4273110 103.6645342
  49.2059121  83.7823876 103.8512187  49.9839010  82.3744192 105.2722123
  48.9932707  81.9713707 105.4826937  50.7129159  81.5640881 105.2727539
  50.3521848  83.3826256 106.3329567  51.3070977  83.8319686 106.0603160
  49.5815143  84.1531560 106.3541484  50.4648175  82.7574373 107.6778029
  51.1791861  82.0437116 107.6584942  50.7117924  83.4626998 108.3572941
  49.5799552  82.3413784 107.9308106  51.7940989  82.0767191 101.4944547
  52.2286454  80.9269561 101.4395424  52.5551738  83.1653926 101.5906784
  52.0949610  84.0638815 101.6226357  54.0144680  83.1320683 101.6523798
  54.3480153  83.9951847 102.2284661  54.3100656  82.2170538 102.1656729
  54.6732578  83.1663020 100.2848192  55.9021073  83.2632708 100.1796913
  53.8529026  83.0909599  99.2221994  52.8689471  82.9380385  99.3911550
  54.3239242  83.0998113  97.8430702  55.4100312  83.0096165  97.8247514
  53.7155894  81.9164565  97.0503474  52.6336789  81.8204183  97.1417015
  53.9827958  82.0241114  95.9991047  54.3064853  80.6060125  97.5144298
  55.5645268  80.2053315  97.0890558  56.1117070  80.8245813  96.3782651
  56.1322555  79.0173018  97.5644520  57.1123191  78.7062238  97.2027802
  55.4569261  78.2395923  98.4878626  55.9102401  77.3265697  98.8738627
  54.2115633  78.6217797  98.9176222  53.6707079  78.0049231  99.6353015
  53.6344571  79.8043580  98.4347196  52.6459882  80.1085319  98.7789687
  54.0526705  84.4392547  97.1866810  53.2374675  85.1873845  97.7271871
  54.7119217  84.7945238  96.0483389  55.8175176  84.1918438  95.3514253
  55.4252011  83.4337428  94.6735825  56.4708175  83.7194800  96.0850264
  56.4972137  85.3278608  94.6211564  57.0387297  84.9593709  93.7499075
  57.1867793  85.8544234  95.2809536  55.3300618  86.2350087  94.2126723
  54.8166117  85.8975725  93.3123363  55.6264342  87.2770210  94.0923673
  54.4111264  86.0926170  95.4158548  54.6737329  86.8841304  96.1177398
  52.9323028  86.2152461  95.0395279  52.2919574  85.2260055  94.6804363
  52.3850420  87.4309462  95.1825695  52.9872685  88.1504368  95.5564090
  50.9886222  87.7662046  94.9160351  50.3930393  87.2738991  95.6848104
  50.7896912  89.2658821  95.0347617  51.3727778  89.7722903  94.2655668
  49.7339527  89.5042363  94.9055190  51.1192477  89.5998749  96.0186014
  50.4874877  87.2796082  93.5638483  49.3014713  86.9679642  93.4436479
  51.3908165  87.1867327  92.5670072  52.3234860  87.4897613  92.8086694
  51.1233525  86.7826677  91.1629778  50.4146881  87.4768503  90.7113093
  52.4058834  86.7928581  90.3410802  53.1748555  86.2925056  90.9296620
  52.2157908  86.2219590  89.4322132  52.8791000  88.1888639  89.9722335
  53.5170454  88.0508325  89.0992651  51.9554872  88.6837611  89.6720413
  53.6027368  89.0462389  90.9976636  53.8043910  88.5983127  92.1513233
  53.9992236  90.1727430  90.6239784  50.4296083  85.4287706  91.0369705
  49.5780269  85.2631847  90.1594966  50.7944386  84.4714135  91.9169832
  51.5974597  84.6584334  92.5003185  50.1907794  83.1482030  91.9773439
  50.1505003  82.7165801  90.9772547  51.0089831  82.2222508  92.8761805
  51.2291555  82.6561755  93.8515433  50.4851642  81.2757855  93.0100358
  52.3374094  81.8942354  92.2397645  52.4220101  80.9524698  91.2047170
  51.5195053  80.4263214  90.8936658  53.6462023  80.6826612  90.5705856
  53.6952844  79.9577028  89.7581036  54.7902144  81.3397117  90.9800021
  55.7456468  81.1301917  90.4990133  54.7195487  82.2745614  92.0133213
  55.6240750  82.7925234  92.3321438  53.4971451  82.5493727  92.6401196
  53.4507134  83.2806518  93.4470737  48.7152183  83.2076355  92.3812762
  47.8886340  82.4966654  91.7885833  48.3658982  84.0992207  93.3441123
  49.0808718  84.6106794  93.8414271  46.9782387  84.2992833  93.7326018
  46.4869282  83.3319514  93.8373979  46.8877455  85.0351652  95.0568174
  47.3674888  86.0096052  94.9650940  45.8404827  85.1703614  95.3271187
  47.3901795  84.4548041  95.8306651  46.2425963  85.0600579  92.6311672
  45.1247992  84.6867077  92.2936388  46.8892713  86.0736235  92.0210868
  47.7886915  86.3505688  92.3877529  46.3216812  86.8486604  90.8989156
  45.3941654  87.3199452  91.2240375  47.2897700  87.9489769  90.4108700
  48.2503055  87.4711313  90.2181669  46.8866316  88.3425202  89.4777552
  47.4791676  89.0827338  91.3963561  46.5348533  89.6194285  91.4876254
  47.7489012  88.6561766  92.3624796  48.7762592  90.2413619  90.8720619
  48.9776545  91.2406387  92.4166188  49.2772194  90.5873835  93.2361415
  49.7426716  92.0012599  92.2607191  48.0318590  91.7226787  92.6640246
  45.9324339  85.9231838  89.7298093  44.8492022  86.0809689  89.1529453
  46.8143851  84.9373428  89.4242926  47.6954279  84.9731470  89.9168177
  46.6410950  83.9235064  88.3896780  46.4388350  84.4088051  87.4348611
  47.9139039  83.0538037  88.2429104  48.7534123  83.6996169  87.9855194
  48.0971070  82.5894938  89.2119063  47.7640086  81.9811990  87.1917740
  47.1360553  80.7701334  87.4881312  46.8216953  80.5795753  88.5142719
  46.9096993  79.8172000  86.5046226  46.3742493  78.8978584  86.7417008
  47.3826855  80.0302599  85.2250577  47.1769046  79.0744142  84.2744456
  46.6997030  78.3108596  84.6074062  48.0410947  81.2096629  84.9109828
  48.4133445  81.3813139  83.9009994  48.2256608  82.1783263  85.8955749
  48.7393048  83.1091044  85.6549047  45.3923849  83.0756887  88.6516572
  44.5030542  83.0656480  87.7997698  45.3051490  82.4060702  89.8363019
  46.1204734  82.4037927  90.4324062  44.1518851  81.5679601  90.2237793
  43.9326816  80.8677024  89.4177468  44.4291995  80.7725986  91.5002000
  44.9456264  81.5230647  92.0987008  43.5167304  80.4658137  92.0114566
  45.3414044  79.5554910  91.3092543  46.1376319  79.8250602  90.6153847
  45.9482112  79.1064129  92.6247722  45.1525525  78.8362188  93.3190498
  46.5893220  78.2417171  92.4533701  46.5394612  79.9181144  93.0486406
  44.6231455  78.4299074  90.5539506  44.3163075  78.7890028  89.5716063
  45.2983557  77.5824176  90.4358255  43.7436982  78.1173969  91.1169857
  42.8280439  82.3433698  90.3277272  41.8050865  81.8506970  89.8483341
  42.8471771  83.5539477  90.8926201  43.6906506  83.8623470  91.3547259
  41.6666695  84.4083640  90.9652878  40.8359491  83.8495647  91.3962707
  41.9364696  85.6362905  91.8397581  42.9534985  85.9500211  91.6045464
  41.2399685  86.4291232  91.5669898  41.8370807  85.3974335  93.3273102
  41.0559113  84.5649755  93.8189494  42.6145143  86.1756347  94.0699304
  42.6074104  86.0793799  95.0753081  43.2096628  86.8605131  93.6262631
  41.1360772  84.8314351  89.5797057  39.9176889  84.8999530  89.3858575
  42.0481189  85.1158159  88.6223962  43.0221272  85.1126531  88.8895988
  41.7063267  85.4975587  87.2534435  41.0471080  86.3655144  87.2669621
  42.9837765  85.8580610  86.4520584  43.3089511  86.8106426  86.8703274
  43.7654040  85.1123495  86.5972233  42.7134837  86.0232032  84.9733695
  42.3091750  87.2470464  84.4508532  42.2409812  88.1059550  85.1184797
  41.9929943  87.3876842  83.0965782  41.6882052  88.3570056  82.7020892
  42.0378897  86.2851584  82.2631855  41.7176422  86.4131725  80.9399444
  41.4768555  87.3102681  80.6973731  42.4361340  85.0603706  82.7602591
  42.4854114  84.1918501  82.1034910  42.7758703  84.9363121  84.1067712
  43.0986737  83.9726780  84.5008618  40.9074377  84.3735589  86.5429648
  39.8823280  84.6544113  85.9052298  41.4255758  83.1120251  86.6499714
  42.2865694  83.0785748  87.1769158  40.9379136  81.8724970  86.0349131
  40.7677291  82.0288155  84.9696897  41.9677311  80.7541918  86.2065242
  42.1777730  80.5881868  87.2631338  41.6040997  79.8291162  85.7591906
  43.5649457  81.0960475  85.4247304  44.1421591  79.9522816  85.7818336
  39.6027005  81.4613535  86.5674249  38.7454348  80.9531003  85.8326704
  39.4405505  81.6502210  87.8723139  40.2263129  81.9685249  88.4212760
  38.2200475  81.2932753  88.5637381  37.8060940  80.3758206  88.1453860
  38.5127608  81.0653829  90.0461338  39.2159775  81.8289086  90.3787209
  37.5793402  81.1658812  90.5999624  39.1023194  79.6935302  90.2961714
  38.3197485  78.9653643  90.0829622  39.9213231  79.5635696  89.5887499
  39.6149133  79.4848252  91.7046932  39.8541600  78.4281743  91.8244803
  40.5212233  80.0780704  91.8261910  38.6579011  79.8706721  92.7459400
  37.8631242  80.4216354  92.4546182  38.7852012  79.5721849  94.0380968
  39.8083368  78.8239403  94.4576746  40.4874811  78.4836546  93.7920405
  39.8984579  78.6016406  95.4387763  37.8821651  79.9851828  94.9146608
  37.0914668  80.5301622  94.6017810  37.9884391  79.7532227  95.8919013
  37.1389984  82.3306268  88.3076297  35.9497708  82.0329347  88.4470830
  37.5765402  83.5136118  87.8769410  38.5797656  83.6117768  87.8136821
  36.7444006  84.6519671  87.4981696  35.8682373  84.6562981  88.1465662
  37.3237410  85.5600525  87.6650379  36.2878542  84.6163468  86.0513228
  35.4192291  85.4042729  85.6656845  36.8495542  83.7046352  85.2323814
  37.5983893  83.1132395  85.5634350  36.4500338  83.5993866  83.8209456
  36.3529462  84.6075400  83.4180812  37.4568607  82.8134524  82.9487392
  37.5116689  81.8516207  83.4586167  36.9766086  82.6831542  81.9789555
  38.8601288  83.3612310  82.7491409  39.2302722  83.7522597  83.6968704
  39.7772061  82.2698649  82.2644243  39.4079416  81.8786316  81.3164374
  40.7802607  82.6728772  82.1245554  39.8082571  81.4668912  83.0008817
  38.8847389  84.5000699  81.7896899  38.2557737  85.3067340  82.1662470
  39.9076485  84.8595884  81.6778702  38.5088309  84.1685578  80.8217581
  35.0685098  82.9702545  83.6378798  34.6925437  82.0329029  84.3661212
  34.3325259  83.4652817  82.6111662  34.6750359  84.2658967  82.0995003
  33.0512606  82.8975261  82.2253712  32.4876176  82.6396087  83.1219673
  32.2236120  83.8862179  81.3933519  32.8517603  84.1926237  80.5569044
  31.3627451  83.3334908  81.0171857  31.7430190  85.1240516  82.1490953
  31.1242738  84.7844450  82.9797111  32.6231794  85.6360896  82.5379871
  30.9359102  86.0897318  81.2721585  29.9417650  85.6693331  81.1203717
  30.8510528  87.0422139  81.7952994  31.5530897  86.3271812  79.9576729
  31.2667782  85.7007803  79.2189260  32.4402231  87.2842624  79.6735853
  32.8435262  88.1308626  80.6213030  32.4759952  88.0474507  81.5583533
  33.5147280  88.8517345  80.3978493  32.9311328  87.4021889  78.4424496
  32.6310211  86.7643034  77.7191688  33.6016084  88.1290414  78.2369095
  33.3523756  81.6336542  81.4135413  34.4193168  81.5097412  80.8122210
  32.4005807  80.7059680  81.4017627  31.6171320  80.8812313  82.0146169
  32.4482782  79.4367270  80.6870088  33.1299103  78.7504591  81.1895159
  31.0408471  78.7967792  80.6502060  30.7339851  78.5480265  81.6661081
  30.3117848  79.4749612  80.2067679  30.9787349  77.5150320  79.8540432
  31.6125292  76.3606465  80.3097314  32.1364775  76.3846865  81.2652418
  31.5826195  75.1873786  79.5618826  32.0792153  74.2907652  79.9327975
  30.9293766  75.1599647  78.3605316  30.9236901  74.2462351  77.7662540
  30.2777007  76.2873272  77.9000470  29.7363542  76.2516523  76.9546521
  30.3106806  77.4658851  78.6387530  29.8097269  78.3583538  78.2637265
  33.0491975  79.5307766  79.2840920  34.0277997  78.8481971  79.0216685
  32.4693169  80.3516163  78.4008601  31.6432504  80.8354127  78.7228144
  32.8861930  80.5395264  77.0084938  33.2896027  79.6148592  76.5957587
  31.6581677  80.9463852  76.1890374  31.9094832  80.7684337  75.1434404
  30.8504517  80.2778262  76.4869028  31.2085207  82.4002926  76.3655274
  32.0751530  82.9522107  76.0016101  30.3763898  82.5347122  75.6744494
  30.8150691  82.9230439  77.7414108  30.1931115  82.1706799  78.5325789
  31.0962839  84.1158085  78.0050183  34.0422832  81.5720053  76.7969903
  34.5135675  81.7529016  75.6630742  34.4721407  82.2480153  77.8823155
  33.9889424  82.0662174  78.7503986  35.4877287  83.2971153  77.8618431
  35.3353044  83.9469873  77.0001399  35.3959756  84.1389800  79.1290492
  34.3405363  84.3733073  79.2677496  35.7370746  83.5037848  79.9465323
  36.2032451  85.4266980  79.1177308  37.2368356  85.1488566  78.9113436
  35.8160807  86.0233291  78.2917561  36.1440755  86.2382174  80.3987746
  35.3790620  85.8738460  81.3242847  36.8796140  87.2487792  80.4761186
  36.9232053  82.8027883  77.6367794  37.4071381  81.8558014  78.2668159
  37.6105072  83.5082943  76.7429884  37.1177636  84.2712613  76.3011916
  38.9907231  83.2722553  76.3672776  39.1985310  82.2087268  76.2497096
  39.2708001  83.9708883  75.0464109  39.0759776  85.0382372  75.1508638
  40.3134400  83.8179482  74.7678219  38.6240774  83.5580974  74.2721676
  39.9308645  83.8225631  77.4249022  39.8312480  85.0115025  77.7773798
  40.9150941  83.0283592  77.8842302  40.9986614  81.5660022  77.9444683
  41.5961105  81.2192893  77.1012928  39.9905278  81.1589491  77.8665359
  41.6422587  81.2594820  79.2766207  42.1454176  80.2929168  79.2505104
  40.8996549  81.2605051  80.0745179  42.6434432  82.4074612  79.4589152
  43.5504129  82.2199195  78.8841690  42.9089710  82.6394120  80.4903188
  41.8748163  83.5684049  78.8474446  41.3471289  84.0697601  79.6587936
  42.7768378  84.5802393  78.1211868  42.9586144  84.4861581  76.9198417
  43.2486917  85.6124738  78.8203433  42.9726210  85.6845510  79.7892030
  44.1781631  86.6133322  78.2858459  44.0130337  86.7286713  77.2146183
  43.9698481  87.9829386  78.9674361  42.8977502  88.1373049  78.8454672
  44.2025620  87.8742834  80.0267464  44.7245940  89.1843409  78.4012656
  45.6963665  88.9817447  77.6454594  44.3848201  90.3348961  78.7820283
  45.5299043  86.0354392  78.6701015  46.0173217  86.2787766  79.7927129
  46.0911692  85.2085536  77.7593267  45.5655529  84.9958192  76.9235212
  47.3699985  84.5255879  77.9680672  47.3400768  83.9825528  78.9126924
  47.6616445  83.5285834  76.8382418  47.8592786  84.1420679  75.9592214
  48.5583901  82.9654384  77.0967278  46.5305921  82.5665152  76.5382295
  46.4303935  81.3445831  77.2016383  47.1750156  81.0882303  77.9552435
  45.3945411  80.4540767  76.9124377  45.3269533  79.5009019  77.4368340
  44.4583493  80.7778475  75.9311556  43.4151950  79.9522246  75.6144810
  43.4045181  79.1450995  76.1341297  44.5476140  81.9759876  75.2551215
  43.8150267  82.2321268  74.4897399  45.5801171  82.8607232  75.5542961
  45.6605472  83.8059885  75.0175424  48.5415340  85.4887734  78.1427565
  49.4718794  85.1833314  78.9028805  48.4974781  86.6398526  77.4416447
  47.7444653  86.7742622  76.7820955  49.5349700  87.6566397  77.5205206
  50.4988610  87.1852576  77.3286552  49.3333373  88.8033001  76.5004480
  49.1944253  88.3499974  75.5189597  48.4279674  89.3402002  76.7835447
  50.5337922  89.7997244  76.4478118  50.3887095  90.4658594  75.5973320
  50.5355915  90.3824878  77.3689446  52.1628196  88.9329349  76.2719602
  52.0204385  88.4991439  74.4644180  51.9190394  89.4123248  73.8779729
  52.9143863  87.9619117  74.1476537  51.1445235  87.8692096  74.3093149
  49.6272336  88.1971310  78.9193854  50.7254118  88.2882893  79.4479918
  48.4618151  88.5215403  79.5242353  47.6450493  88.5048354  78.9303381
  48.3090745  88.9853169  80.8926886  48.8959281  89.8916763  81.0417345
  46.8201345  89.3019778  81.2003320  46.5632324  90.2086689  80.6525987
  46.2297157  88.4685560  80.8196565  46.5236456  89.4996410  82.6673250
  46.8168178  90.7018230  83.3061516  47.2388379  91.5178511  82.7195541
  46.5805876  90.8728253  84.6684685  46.8670413  91.8039206  85.1574550
  46.0721904  89.8208382  85.4206616  45.7809128  89.9970632  86.7602960
  45.9674836  90.8860450  87.0709440  45.7635878  88.6189626  84.7996903
  45.3797030  87.7823510  85.3834831  45.9460587  88.4835972  83.4242989
  45.6342395  87.5686385  82.9205931  48.9069314  87.9785692  81.8668936
  49.7419853  88.3575861  82.6770246  48.5349527  86.7014494  81.7610172
  47.8096731  86.4651473  81.0990276  49.0333476  85.6497896  82.6493663
  48.9259280  85.9637892  83.6876170  48.2391859  84.3432316  82.4448393
  48.4145576  84.1538702  81.3858368  48.6731077  83.5357147  83.0345243
  46.7149628  84.4147455  82.7106846  46.2898853  85.2194701  82.1108276
  46.0484495  83.1121168  82.3479664  46.4727088  82.3069342  82.9477862
  44.9783889  83.1843762  82.5425161  46.2116523  82.9018507  81.2909643
  46.3977071  84.8629720  84.1977716  46.8232267  85.8499974  84.3789162
  45.3182131  84.9008661  84.3439156  46.8332288  84.1466888  84.8944480
  50.5388683  85.4113427  82.5333128  51.1774252  85.2057455  83.5552086
  51.1087459  85.4691607  81.2999326  50.4961156  85.5716702  80.5035186
  52.5468293  85.3168242  81.0558511  52.9068801  84.4307210  81.5786166
  52.8538903  85.1650434  79.5732365  52.0378154  85.6172748  79.0096695
  53.7802766  85.6992284  79.3621564  53.0058911  83.6995753  79.1625710
  53.6183915  83.2063299  79.9173246  52.0113788  83.2535075  79.1541596
  53.6536116  83.5263133  77.7879411  54.6881251  83.8684434  77.8167115
  53.6263715  82.4776928  77.4917107  52.9334021  84.3068793  76.8005947
  53.2061140  85.2711310  76.6743159  51.9240052  83.8373051  76.0852577
  51.5764945  82.5573270  76.1736341  52.0858094  81.9403460  76.7901020
  50.8047321  82.2076343  75.6239092  51.2731993  84.6359653  75.2471887
  51.5510071  85.6028527  75.1574575  50.5034459  84.2727874  74.7034239
  53.3111002  86.4874362  81.6409070  54.3279310  86.2762757  82.3125759
  52.7868598  87.7208112  81.4156978  51.9855762  87.7192831  80.8008469
  53.2703025  89.0024750  81.9189671  54.2826458  89.1830609  81.5575131
  52.3664100  90.1443891  81.4363455  51.3434044  89.7695503  81.4688210
  52.4779479  90.9571907  82.1539895  52.6724305  90.6551179  80.0443454
  52.6126009  89.8003738  79.3705992  51.9456847  91.4084023  79.7401988
  54.0514722  91.2497725  79.9455475  54.2453324  92.4250424  80.2743710
  55.0177340  90.4648218  79.4464958  55.9591932  90.8204231  79.3610335
  54.7995152  89.5216907  79.1584237  53.3544389  89.0595862  83.4276435
  54.2952317  89.6765045  83.9393013  52.3591237  88.4728323  84.1591764
  51.5972285  88.0268774  83.6685246  52.3628340  88.4282212  85.6301139
  52.2441895  89.4415718  86.0137063  51.2231853  87.5496717  86.1948771
  51.2830723  86.6673759  85.5576433  51.5290326  87.2872019  87.2076294
  49.7920692  88.0637819  86.2150833  49.4700185  88.2885791  85.1982989
  48.8829585  86.9972073  86.8110366  49.2041247  86.7721995  87.8280531
  47.8559752  87.3620964  86.8272260  48.9371639  86.0928493  86.2049849
  49.6811339  89.3590115  86.9958264  50.3144229  90.1170514  86.5349361
  48.6456365  89.6993365  86.9907953  50.0034885  89.1929884  88.0237480
  53.6730531  87.8134082  86.0813310  54.4002386  88.4272121  86.8683654
  54.0025771  86.6228766  85.5007437  53.3185320  86.2009158  84.8890815
  55.2025894  85.8569763  85.8311424  55.3912808  85.9210233  86.9027732
  55.0398270  84.3937100  85.4532072  54.8737961  84.3064164  84.3794694
  55.9172155  83.8107267  85.7332427  53.8516866  83.7411058  86.1300116
  53.6495935  83.8741613  87.5010866  54.3385817  84.4893174  88.0798596
  52.5828408  83.2332997  88.1364164  52.4514142  83.3331942  89.2138434
  51.6996526  82.4774016  87.4036718  50.8727537  81.9726937  87.9032797
  51.8585973  82.3560058  86.0320722  51.1406706  81.7806970  85.4475200
  52.9421085  82.9730127  85.3981929  53.0830955  82.8569589  84.3235980
  56.4898451  86.4498201  85.2697496  57.5213191  86.3737371  85.9378654
  56.4360071  87.0677132  84.0908189  55.5716635  87.0279293  83.5698326
  57.5912920  87.6962176  83.4648349  58.4514362  87.0278476  83.5039841
  57.2754120  88.0059400  81.9895215  57.0353074  87.0601277  81.5038384
  56.3992063  88.6541245  81.9746721  58.4122785  88.6779974  81.2502066
  58.0966305  89.6827175  80.9691286  59.2708173  88.7411569  81.9188051
  58.7893003  87.9193706  80.0319107  59.0376823  86.8926153  80.3005718
  57.9577092  87.9189798  79.3272437  59.9473735  88.5267421  79.3874167
  60.4879186  89.1971130  79.9151602  60.3331111  88.2336474  78.1574627
  59.6444227  87.3741025  77.4288607  58.8184999  86.9384224  77.8137429
  59.9468198  87.1563732  76.4901117  61.4083350  88.8149184  77.6396879
  61.9314413  89.4823071  78.1883701  61.6983813  88.5871261  76.6994313
  58.0525136  88.9344351  84.2411018  59.2583423  89.1166470  84.4470681
  57.0857146  89.7682124  84.6972387  56.1514127  89.6129992  84.3463993
  57.3362413  90.9738184  85.5114153  58.1926065  91.5277251  85.1268048
  56.0915136  91.9100575  85.5593277  55.2240810  91.3223054  85.8596750
  56.3003534  93.0527783  86.5517167  57.1673985  93.6412963  86.2517501
  55.4160817  93.6899652  86.5642580  56.4667862  92.6434867  87.5481502
  55.7755965  92.4720670  84.1301140  56.5281824  93.2306667  83.9150748
  55.8871127  91.6422792  83.4321771  54.3871949  93.0781627  83.9796651
  54.2750884  93.9083701  84.6770085  54.2569902  93.4407062  82.9600043
  53.6340184  92.3199826  84.1941132  57.8940792  90.5635522  86.8906961
  58.8123716  91.2134954  87.3850308  57.3965290  89.4495468  87.4710838
  56.5904620  89.0195224  87.0404628  57.8957833  88.8863836  88.7265847
  57.9288919  89.6595660  89.4941731  56.9619279  87.7481405  89.2101977
  56.0734428  88.3247807  89.4674516  56.7370569  87.0904135  88.3705976
  57.3943614  86.9013770  90.4247486  58.3147148  86.3806459  90.1603822
  57.6258868  87.7345817  91.6559411  56.7057826  88.2552911  91.9212120
  57.9281325  87.0890605  92.4805930  58.4117172  88.4638847  91.4592480
  56.4174868  85.8053387  90.6668786  56.3653839  85.1635155  89.7874199
  56.7366858  85.2168982  91.5270827  55.4337965  86.2315951  90.8637490
  59.3517988  88.4037851  88.5825802  60.1847360  88.7505325  89.4214549
  59.6564434  87.6419081  87.4921004  58.8824520  87.4378042  86.8761636
  60.9762116  87.0919095  87.1574683  61.3123269  86.3787721  87.9101705
  60.8403064  86.3780479  85.8493734  59.9045747  85.8263334  85.7592812
  60.8623355  87.1782818  85.1096163  61.9404558  85.4218964  85.4815100
  61.9644715  84.1294884  86.0050871  61.1979663  83.8320504  86.7206990
  62.9460746  83.2279135  85.6265860  62.9855585  82.2368759  86.0786768
  63.8748741  83.5884355  84.6744430  64.6257476  82.8660100  84.3544582
  63.8583763  84.8540765  84.1270750  64.6065820  85.1406427  83.3880430
  62.8845750  85.7653524  84.5198246  62.8563729  86.7592236  84.0731429
  62.0622978  88.1911210  87.0501003  63.1721747  88.0514422  87.5934501
  61.6999053  89.2979970  86.3933726  60.7689488  89.2772934  86.0022323
  62.5004342  90.4921370  86.2005198  63.4359237  90.2559817  85.6933814
  61.6995198  91.4717584  85.3241044  61.5319340  90.9700950  84.3710314
  60.7441198  91.6270530  85.8252974  62.3678857  92.8174118  85.0782838
  62.6346544  93.2517775  86.0417472  63.2718203  92.6522062  84.4920148
  61.4513683  93.7640052  84.3352367  62.0588950  94.4836121  83.7864415
  60.8466406  93.1897248  83.6333778  60.5570683  94.4952697  85.2364591
  60.8776392  94.6554031  86.1807530  59.3677111  94.9744482  84.8796965
  58.9024675  94.7707992  83.6503372  59.4549656  94.2497759  82.9844689
  57.9988380  95.1381242  83.3883719  58.6235159  95.6423119  85.7561419
  58.9630888  95.7860992  86.6964161  57.7220826  96.0027535  85.4775768
  62.7878047  91.1132066  87.5707591  63.9445582  91.3940421  87.8919036
  61.7236302  91.3139092  88.3702377  60.8237300  91.1606060  87.9380607
  61.7577957  91.8693975  89.7342068  62.2465211  92.8436423  89.7438852
  60.3239619  92.0361050  90.2455025  59.8661669  91.0472387  90.2713340
  60.2503012  92.6636395  91.6257762  60.7075188  93.6527902  91.6006244
  59.2073061  92.7536574  91.9293500  60.7831145  92.0357078  92.3398577
  59.6374417  92.8698387  89.3158730  58.7314013  92.9955530  89.6072269
  62.6760654  91.0495744  90.6859431  63.3932291  91.6318452  91.4934770
  62.6899420  89.7226024  90.5376240  61.9992463  89.3199030  89.9204757
  63.5338568  88.8220678  91.3106119  63.6588551  89.2063639  92.3229315
  62.8855502  87.4214838  91.3906185  62.7013968  87.1536691  90.3502042
  63.5966129  86.7191744  91.8256489  61.5584891  87.3649014  92.1791420
  60.9027520  88.1527267  91.8084116  60.8777086  86.0289707  92.0209609
  61.5326953  85.2406346  92.3919292  59.9474876  86.0250982  92.5890935
  60.6600732  85.8539939  90.9673394  61.7573772  87.6628004  93.6442951
  62.1780145  88.6618453  93.7586326  60.7981346  87.6118756  94.1594277
  62.4399175  86.9302686  94.0751490  64.9901837  88.7704431  90.8036743
  65.8314845  88.1136480  91.4388862  65.2875279  89.4888697  89.6805297
  64.4634687  89.8348172  89.2100553  66.6006197  89.6711977  89.0214315
  66.4711201  90.3182851  88.1539024  67.6569315  90.3115643  89.9656417
  67.8106561  89.6002876  90.7771548  68.5884984  90.4400728  89.4144895
  67.2586500  91.6460823  90.5607303  67.4785776  91.9131066  91.7479876
  66.6300566  92.5057929  89.7558192  66.3454731  93.4080970  90.1093151
  66.4419391  92.2499915  88.7970292  67.1331346  88.4006708  88.3580529
  68.3414164  88.2147938  88.2387723  66.2104615  87.5987005  87.8188007
  65.2541660  87.8981976  87.9448948  66.4568963  86.3480957  87.0985517
  67.4033084  85.9118003  87.4180037  65.3125285  85.3299707  87.3968915
  64.3368400  85.7120300  87.0966217  65.5448293  84.4347649  86.8200528
  65.1822892  84.8971663  88.8268356  66.2945106  84.6982121  89.6326487
  65.8208895  84.3109469  90.8039867  66.5418053  84.1237199  91.5998042
  64.4947868  84.2189280  90.7890841  63.8857776  83.9431605  91.5461574
  64.0752540  84.5736223  89.5287674  63.0139670  84.5512927  89.2812344
  66.5460843  86.5432388  85.5642340  65.8329754  87.3706289  84.9877599
  67.3670490  85.7097813  84.9065102  67.8764070  85.0390431  85.4639724
  67.5609586  85.6957964  83.4523918  67.0518119  86.5527770  83.0114233
  69.0428689  85.7679124  83.0882048  69.4208656  84.7505833  83.1894929
  69.0743723  86.0639519  82.0396495  69.9181628  86.7253889  83.9180874
  69.8523505  86.3695086  84.9462502  70.9521390  86.6644714  83.5785519
  69.4822808  88.1685533  83.8788250  69.0899569  88.6984044  82.8324610
  69.5922699  88.8518979  85.0161831  69.3148712  89.8225558  85.0474039
  69.9525994  88.3964872  85.8425397  66.9935692  84.3940420  82.8936668
  67.0095287  83.3655232  83.5744431  66.4861496  84.4277837  81.6599651
  66.3941207  85.3074172  81.1722409  65.9613659  83.2272051  81.0236953
  65.5659347  82.5486591  81.7795450  64.8221150  83.5949655  80.0453949
  65.2436304  84.4461032  79.5106158  64.6586048  82.7732340  79.3481705
  63.4945957  83.9980757  80.6750334  62.5783605  83.0290442  81.1084671
  62.8385020  81.9765851  80.9955260  61.3496666  83.3898822  81.6770517
  60.6844823  82.6251704  82.0781098  60.9832949  84.7319172  81.7361671
  59.7533044  85.0815806  82.2545376  59.2380152  84.3240527  82.5412920
  61.8575593  85.7103580  81.2640046  61.5717056  86.7617191  81.2960650
  63.1074844  85.3388074  80.7468834  63.7989259  86.1025773  80.3909842
  67.1538055  82.4737200  80.3372683  67.1299172  82.2540125  79.1289228
  68.2069915  82.1088104  81.1379239  68.1371036  82.4548255  82.0842265
  69.4384261  81.3912994  80.7428785  69.7214023  81.6854986  79.7322003
  70.5966339  81.7164609  81.6893222  71.4698739  81.1701180  81.3328667
  70.7559919  82.7857441  81.5502589  70.3841665  81.4237883  83.1667173
  69.4108569  80.6946532  83.5044263  71.2159551  81.8874259  83.9874158
  69.2964796  79.8620196  80.5996323  70.2818645  79.1872297  80.2669925
  68.0860671  79.3294713  80.8415246  67.4176730  79.9793951  81.2300446
  67.7173582  77.9066519  80.7739619  66.7153070  77.7884784  81.1863059
  67.7276679  77.3464872  79.3307837  68.6995363  77.3649502  78.8376000
  67.4126652  76.3127614  79.4732069  66.7154255  78.0670030  78.4741116
  65.3462188  77.9004904  78.6903859  65.0175878  77.1583105  79.4178955
  64.4050681  78.6616552  77.9966082  63.3407837  78.5232973  78.1870226
  64.8282268  79.6083153  77.0706290  63.9198225  80.3680381  76.3677634
  63.0085509  80.1658333  76.5920329  66.1823946  79.7865147  76.8356131
  66.5200424  80.5109752  76.0944980  67.1155280  79.0340139  77.5521648
  68.1820055  79.1966716  77.3963818  68.5163930  77.0303813  81.7516546
  68.7041413  75.8310996  81.5262589  68.9277791  77.6348906  82.8700172
  68.8631255  78.6407412  82.9346992  69.5853775  76.9202028  83.9406276
  69.9383413  75.9661203  83.5491658  70.7897747  77.6983410  84.4993372
  70.4256989  78.6502093  84.8859841  71.4969935  76.9516913  85.5933838
  71.8617824  75.9998505  85.2073426  72.3385203  77.5438685  85.9529083
  70.8047963  76.7685682  86.4152290  71.7240304  77.9090362  83.4454929
  72.4812477  78.3942026  83.7814034  68.4656776  76.6143512  84.9336876
  68.0911498  77.4797627  85.7297409  67.8532064  75.4226103  84.8036696
  68.1239776  74.8102333  84.0475104  66.7927555  74.9848558  85.7006036
  66.2014221  75.8440181  86.0172491  65.8689589  73.9872267  84.9996406
  66.5136333  73.1738205  84.6666775  65.1074224  73.5941425  85.6731738
  65.1458243  74.4909723  83.7789557  63.9461289  75.1858663  83.8972573
  63.5333871  75.3707768  84.8889993  63.2688951  75.6467807  82.7586431
  62.3562819  76.2318500  82.8723611  63.7554098  75.3612245  81.4935016
  63.2136692  75.6972088  80.6093457  64.9294034  74.6492667  81.3542895
  65.3251308  74.4343564  80.3616599  65.6182838  74.1989151  82.5017233
  66.5322228  73.6147029  82.3944316  67.4540824  74.3471671  86.9120659
  68.6809391  74.3048010  86.9734967  66.6738281  73.8760395  87.8849872
  65.6709209  73.9741565  87.8167996  67.2316562  73.2460960  89.0890341
  67.9555163  73.9165703  89.5522726  66.1287539  72.9435959  90.1017055
  65.3965355  72.3662125  89.5372733  66.5437512  72.3246259  90.8971635
  65.4587936  74.1527442  90.7038679  66.0429597  75.2548553  90.6437851
  64.3813096  73.9918752  91.2812503  67.9730873  71.9576153  88.7597404
  68.9997328  71.6482371  89.3862986  67.4265373  71.1918488  87.7974542
  66.5501680  71.4833491  87.3886709  67.9867403  69.9053857  87.3904218
  68.3196541  69.3589704  88.2728604  66.9504718  69.0599234  86.6555129
  67.4147108  68.1675921  86.2356008  66.1597518  68.7667560  87.3461031
  66.2838486  69.7721612  85.5178909  66.7621805  69.9286835  84.2519247
  67.7439113  69.5037984  84.0426951  65.8573131  70.6205761  83.4833281
  66.0100849  70.9242343  82.5322487  64.7442613  70.8864574  84.2331201
  63.5550456  71.5418123  83.8917144  63.4068337  71.8597928  82.8597162
  62.6380232  71.7437465  84.8989326  61.7051544  72.2624877  84.6781083
  62.8757947  71.2947347  86.2144853  62.1354440  71.4564882  86.9979495
  64.0454836  70.6400201  86.5521105  64.1792236  70.3117098  87.5828513
  65.0047180  70.4178484  85.5461551  69.2294561  70.0786048  86.5700746
  70.1005455  69.2075150  86.6088402  69.3241989  71.2055867  85.8462862
  68.5111440  71.8045411  85.8291211  70.4659969  71.5645272  85.0104752
  70.7299190  70.7931026  84.2870469  70.1360698  72.8594192  84.2496514
  69.7465253  73.5749627  84.9737735  71.3338256  73.4618772  83.5374363
  71.7236610  72.7470403  82.8127735  71.0300326  74.3726224  83.0213431
  72.1089634  73.6991305  84.2661152  69.0808093  72.5745048  83.3189558
  68.8592282  73.3719191  82.8325070  71.6928950  71.6444328  85.9102697
  72.7369505  71.0505860  85.6104778  71.4977310  72.2815083  87.0711808
  70.5905119  72.7163645  87.1603600  72.4730908  72.4974709  88.1288549
  73.4074433  72.8727217  87.7113965  71.9334330  73.5241819  89.1131755
  70.9719126  73.1672901  89.4822364  72.6355137  73.5994446  89.9435478
  71.7557888  74.8850429  88.4789573  72.7188869  75.1636809  88.0512848
  71.0237574  74.7692266  87.6796960  71.2080687  76.1831705  89.5995645
  72.5064153  76.1151359  90.8961509  73.4795554  76.3144701  90.4474157
  72.2982610  76.8651473  91.6592076  72.5132650  75.1253428  91.3526199
  72.9185092  71.2188553  88.8392222  74.1065995  71.0908332  89.1159998
  71.9932240  70.2804134  89.1357203  71.0206222  70.4857363  88.9568699
  72.3282833  69.0067446  89.7974520  72.9453225  69.2110124  90.6724586
  71.0708436  68.2473623  90.2496389  70.4627869  68.2072301  89.3458935
  71.3679872  67.2374155  90.5321509  70.2618495  68.8722684  91.3778476
  70.1093705  69.9294997  91.1607920  68.9275662  68.1905900  91.5111063
  69.0792375  67.1333417  91.7286393  68.3633606  68.6506258  92.3223645
  68.3718825  68.2931444  90.5790126  71.0115569  68.8230097  92.6911534
  71.9493729  69.3702317  92.5955050  70.4044257  69.2776377  93.4739729
  71.2217367  67.7856226  92.9514449  73.1960903  68.1172448  88.9136860
  73.9327218  67.2746224  89.4242764  73.1258535  68.3473599  87.5903037
  72.3989253  68.9899094  87.3095816  73.8965192  67.6707713  86.5444470
  74.2207506  66.6925531  86.8994997  73.0310725  67.4744181  85.2715415
  72.6886419  68.4535359  84.9366251  73.6556166  67.0248764  84.4995590
  71.8178401  66.5717998  85.5377899  72.2187639  65.5980115  85.8190321
  71.2946001  67.0082086  86.3885950  70.8384703  66.4030403  84.3665166
  70.4921666  67.3811638  84.0326794  71.3360112  65.8932893  83.5414673
  69.6504655  65.5763921  84.8295697  70.0470454  64.7152402  85.3673823
  69.0730231  66.1974008  85.5144111  68.7727488  65.1091159  83.7254487
  69.3075246  64.5333034  83.0909768  68.0093164  64.5695019  84.1076631
  68.4048247  65.9069361  83.2272380  75.2364247  68.4327726  86.2814863
  76.0351740  68.0281837  85.4313143  75.4745582  69.5150976  87.0562651
  74.7267822  69.7250140  87.7019163  76.6721778  70.3594366  87.0819169
  77.3960833  69.9833417  86.3589974  76.3335584  71.8235456  86.7252899
  75.5166470  72.1208940  87.3828148  77.2206125  72.4119566  86.9598267
  75.9294570  72.0678766  85.2655319  76.8359179  71.9627661  84.6693933
  75.2057779  71.3114414  84.9618935  75.3317586  73.4466886  85.0047561
  75.1469941  74.2751820  85.9105496  74.9797333  73.7165301  83.7517015
  74.5790047  74.6155952  83.5254272  75.1146013  73.0212601  83.0316241
  77.1789782  70.2983835  88.5257988  76.5273146  70.2075243  89.2782628
  78.1587928  70.3491490  88.7193762  74.7215155  53.3918895  62.5952856
  75.0252703  54.7742538  63.1602449  76.3157751  55.3151040  62.5542189
  77.4589939  54.3607171  62.6746741  77.1331625  53.0454543  62.9291829
  75.9167296  52.4508363  62.6927907  71.3660315  52.2649023  63.6534012
  72.0988566  51.8453212  64.7467699  73.5474451  52.1576673  64.5308432
  73.5369321  52.8183175  63.2263706  72.2910313  52.8630525  62.6738464
  69.3672517  51.4974477  64.6496476  70.0971347  51.0726062  65.7594379
  71.4794020  51.2337125  65.8355815  69.9905573  52.1023907  63.5763195
  72.0254246  53.3213242  61.5660566  72.1941691  50.8167747  66.9232123
  75.8318393  51.2519135  62.5456897  78.6207245  54.7003595  62.5610876
  76.1677617  55.5181931  61.6173989  76.5491063  56.1486268  62.9921292
  74.2913954  55.3782093  62.9684781  75.1081714  54.7264303  64.1253321
  71.7913083  50.4419780  67.5841137  73.0465763  50.9297347  66.9463632
  73.9002772  52.7356079  65.2255555  74.0924004  51.3556733  64.5253332
  77.7491308  52.5497906  63.2679359  69.4888133  52.4006245  62.8019530
  69.6295558  50.6527591  66.4988698  68.4063805  51.3664354  64.6313631
  74.5341772  53.5041522  61.6504584  44.7095561  58.7361582  92.3785883
  43.3444466  50.7078457  95.0115195  63.5213780  78.9465349  68.2163784
  32.2422055  60.6748573  75.1365982  77.5188548  69.7963974  71.8640625
  35.2369849  66.3117912  60.9188672  76.4956961  46.8161187  40.0338370
  77.1001938  47.3522501  40.5470401  75.6738400  47.3067532  40.0417270
  86.2314060  50.9440072  42.7487265  86.8359038  51.4801386  43.2619296
  85.4095499  51.4346416  42.7566165  70.8686676  56.1727835  32.6719427
  71.4731654  56.7089149  33.1851458  70.0468115  56.6634180  32.6798327
  85.5378081  59.0429218  23.9812173  86.1423058  59.5790532  24.4944205
  84.7159520  59.5335562  23.9891073  88.1560483  51.9981277  22.3255740
  88.7605461  52.5342591  22.8387771  87.3341922  52.4887621  22.3334640
  54.0873358  47.1049662  61.4526473  54.6918335  47.6410975  61.9658505
  53.2654797  47.5956006  61.4605373  61.4761489  57.9133756  61.5551053
  62.0806467  58.4495069  62.0683084  60.6542928  58.4040100  61.5629953
  55.6858170  43.7013841  73.4098805  56.2903148  44.2375155  73.9230836
  54.8639609  44.1920186  73.4177705  62.9395694  60.7317880  68.2215312
  63.5440672  61.2679194  68.7347343  62.1177133  61.2224225  68.2294212
  68.0956402  59.2708380  71.9687730  68.7001380  59.8069694  72.4819761
  67.2737841  59.7614724  71.9766630  50.9351075  61.5542946  74.0602932
  51.5396053  62.0904260  74.5734963  50.1132514  62.0449290  74.0681832
  38.6434829  58.0015766  67.3632639  39.2479807  58.5377080  67.8764670
  37.8216268  58.4922110  67.3711539  57.0533375  75.1280404  65.0263819
  57.6578352  75.6641718  65.5395851  56.2314814  75.6186749  65.0342720
  64.0687072  62.4542435  70.1615934  64.6732050  62.9903748  70.6747965
  63.2468511  62.9448779  70.1694834  56.0713857  60.6836904  91.5310071
  56.6758835  61.2198218  92.0442102  55.2495296  61.1743248  91.5388971
  60.0580641  59.7383928  89.0984232  60.6625618  60.2745242  89.6116263
  59.2362080  60.2290272  89.1063132  59.8945724  64.1243509  94.9692717
  60.4990702  64.6604823  95.4824748  59.0727163  64.6149854  94.9771617
  57.9817488  71.9009622  96.3985172  58.5862466  72.4370936  96.9117203
  57.1598927  72.3915967  96.4064072  65.7951835  72.5135588  93.9001254
  66.3996813  73.0496901  94.4133286  64.9733274  73.0041932  93.9080154
  63.5528247  79.7849061  95.4545423  64.1573225  80.3210375  95.9677454
  62.7309686  80.2755405  95.4624323  59.6612015  73.8913467  95.8642606
  60.2656993  74.4274781  96.3774637  58.8393454  74.3819812  95.8721506
  59.0749153  77.6912860  94.1723756  59.6794131  78.2274174  94.6855787
  58.2530592  78.1819204  94.1802656  64.7958592  81.2633505  92.5428733
  65.4003570  81.7994819  93.0560765  63.9740031  81.7539850  92.5507633
  66.3390810  77.5823733  87.8019326  66.9435788  78.1185047  88.3151357
  65.5172249  78.0730078  87.8098226  57.8964914  83.5330573  83.4649473
  58.5009892  84.0691886  83.9781504  57.0746353  84.0236917  83.4728373
  61.3501647  78.8033644  79.7104605  61.9546625  79.3394958  80.2236637
  60.5283086  79.2939988  79.7183505  56.7081424  81.2164384  76.3065481
  57.3126402  81.7525698  76.8197512  55.8862863  81.7070728  76.3144381
  55.6876008  83.9352940  81.8827047  56.2920985  84.4714254  82.3959078
  54.8657447  84.4259284  81.8905947  57.1308900  85.9890698  77.9923709
  57.7353878  86.5252011  78.5055740  56.3090339  86.4797042  78.0002609
  60.7481293  80.8923330  78.1999932  61.3526271  81.4284644  78.7131964
  59.9262732  81.3829675  78.2078832  58.6074778  78.4314427  73.7520499
  59.2119756  78.9675740  74.2652531  57.7856217  78.9220771  73.7599399
  47.3660400  78.5353805  66.1871143  47.9705378  79.0715119  66.7003174
  46.5441839  79.0260150  66.1950043  66.2686210  73.5597867  73.9896945
  66.8731188  74.0959180  74.5028976  65.4467649  74.0504211  73.9975845
  64.3119405  65.5557309  68.1588654  64.9164383  66.0918622  68.6720685
  63.4900844  66.0463653  68.1667554  41.8273797  80.3685722  73.1348604
  42.4318775  80.9047036  73.6480635  41.0055236  80.8592067  73.1427504
  29.4829466  80.8872278  71.4419463  30.0874444  81.4233592  71.9551494
  28.6610905  81.3778623  71.4498363  36.2707499  78.4598917  76.9345812
  36.8752477  78.9960231  77.4477843  35.4488938  78.9505262  76.9424712
  22.6781829  70.4106296  82.5943687  23.2826806  70.9467610  83.1075719
  21.8563268  70.9012641  82.6022587  36.8829435  79.6237819  79.2874358
  37.4874412  80.1599133  79.8006389  36.0610874  80.1144163  79.2953258
  41.6803096  76.8260889  95.8132692  42.2848074  77.3622202  96.3264723
  40.8584535  77.3167233  95.8211592  53.5551338  90.8406017  88.0675772
  54.1596316  91.3767331  88.5807804  52.7332777  91.3312361  88.0754672
  56.3389961  92.0071421  90.7674388  56.9434939  92.5432734  91.2806419
  55.5171400  92.4977765  90.7753288  44.3067266  88.3960540  93.4071624
  44.9112244  88.9321854  93.9203655  43.4848705  88.8866885  93.4150524
  38.4363765  86.9822334  85.5850502  39.0408743  87.5183647  86.0982533
  37.6145204  87.4728678  85.5929402  38.3691589  88.4287678  83.3025568
  38.9736567  88.9648991  83.8157599  37.5473028  88.9194022  83.3104468
  45.8730984  86.9567447  74.9570329  46.4775962  87.4928761  75.4702360
  45.0512423  87.4473791  74.9649229  55.1278428  87.7886609  78.1901154
  55.7323406  88.3247923  78.7033185  54.3059867  88.2792953  78.1980054
  61.2536525  90.8541762  81.3074839  61.8581503  91.3903075  81.8206870
  60.4317964  91.3448106  81.3153739  63.2090495  90.9561764  79.3714282
  63.8135473  91.4923078  79.8846313  62.3871934  91.4468108  79.3793182
  59.5176708  92.7112068  81.9289320  60.1221686  93.2473381  82.4421351
  58.6958147  93.2018412  81.9368220  58.7174410  95.5436199  88.6638364
  59.3219388  96.0797513  89.1770395  57.8955849  96.0342543  88.6717264
  55.7403441  96.7523896  85.3123158  56.3448418  97.2885210  85.8255189
  54.9184880  97.2430241  85.3202058  64.6922256  93.9899856  90.7266120
  65.2967233  94.5261170  91.2398151  63.8703695  94.4806201  90.7345020
  68.6867582  55.7770960 132.4480876  68.0129281  56.0802657 133.0565834
  69.0733404  56.5800041 132.0986333  70.7775052  47.5679173 130.9828316
  70.1604223  46.8426001 130.8861369  70.3091541  48.3288533 130.6395390
  72.6524323  53.3556444 133.7220699  73.3475228  53.9763136 133.9408014
  72.9947473  52.5051795 133.9973077  66.7439191  53.4618195 132.6295793
  66.1713158  54.0808383 132.1766265  67.3171985  54.0117557 133.1635715
  69.9636451  53.7455346 133.7604375  70.8967124  53.6800907 133.9637251
  69.8759664  54.5811612 133.3018908  72.5924468  53.0621216 130.7208323
  72.5138099  52.7281079 131.6144081  73.4134135  53.5542984 130.7199795
  70.1628420  50.3789211 130.3418301  70.8664270  50.5839214 130.9575957
  69.4391068  50.9465973 130.6067385  72.0715117  50.8171740 132.3916761
  72.9060721  50.3852939 132.2094236  71.9099460  50.6453754 133.3193656
  73.5328972  57.2709288 132.9051714  72.6966285  57.6083974 133.2260988
  73.3933742  57.1358268 131.9678851  73.4067353  57.1156515 130.1049620
  72.5296819  56.9945316 129.7411867  73.8825106  56.3242593 129.8528509
  71.1085821  58.0555518 133.6631276  70.4155066  58.1299873 133.0071312
  70.8637573  57.2915861 134.1852793  76.1522662  58.0520902 129.9066731
  75.2454117  57.7554015 129.9829444  76.4298643  57.7550720 129.0401017
  74.9221446  54.9107837 130.0478710  75.7840610  55.2362736 130.3074527
  75.1071790  54.1239333 129.5351776  75.8750889  52.1503880 133.3358419
  75.8629559  53.0945720 133.4926690  76.7674311  51.9674026 133.0417880
  68.6867583  32.7833083 119.1726183  68.0129282  33.0864780 119.7811141
  69.0733405  33.5862163 118.8231640  70.7775053  24.5741296 117.7073623
  70.1604224  23.8488124 117.6106676  70.3091542  25.3350656 117.3640697
  72.6524324  30.3618566 120.4466006  73.3475229  30.9825259 120.6653321
  72.9947474  29.5113918 120.7218384  66.7439193  30.4680318 119.3541100
  66.1713160  31.0870505 118.9011571  67.3171986  31.0179680 119.8881021
  69.9636452  30.7517468 120.4849682  70.8967126  30.6863030 120.6882557
  69.8759665  31.5873735 120.0264214  72.5924469  30.0683338 117.4453629
  72.5138101  29.7343202 118.3389387  73.4134136  30.5605106 117.4445102
  70.1628421  27.3851334 117.0663608  70.8664271  27.5901336 117.6821263
  69.4391070  27.9528096 117.3312691  72.0715118  27.8233863 119.1162068
  72.9060722  27.3915062 118.9339543  71.9099461  27.6515877 120.0438962
  80.6999393  38.3403514 129.2117244  81.3377803  38.2210262 128.5080585
  80.5820236  39.2884358 129.2705197  77.5089100  38.2930942 129.1478769
  77.1707611  38.1772007 128.2599304  78.3778868  37.8922107 129.1279775
  73.3675915  40.1466419 125.1375660  72.8040781  40.0556356 124.3691948
  73.2528310  39.3266323 125.6178153  78.9475474  43.8137386 120.4490125
  78.2963454  44.3991467 120.0624139  79.7419837  44.3443581 120.5085163
  72.8731101  40.9026524 120.8477259  73.6461977  40.3555511 120.7090135
  73.2256500  41.7670773 121.0591721  75.2097379  37.0619190 118.4795709
  75.4622900  36.5400711 117.7179172  74.2721938  36.8985335 118.5822393
  80.2540662  36.0654968 126.2870453  81.0403751  35.6474391 125.9360870
  80.5179366  36.9701060 126.4552101  80.4250739  41.5027818 120.9859109
  79.7896572  41.5762445 121.6980014  80.0948146  42.0921417 120.3078189
  74.9293668  38.9647296 120.6820084  74.8129926  38.2892199 121.3501169
  75.0395928  38.4779670 119.8652237  77.2725209  38.4257443 124.3866773
  76.9083416  37.8988064 125.0979695  78.1292325  38.0355912 124.2133259
  76.9130696  33.4547342 119.3828122  77.0805098  34.3227579 119.7498593
  76.7227865  33.6174624 118.4589411  79.6706029  41.9164321 131.0493952
  79.3706752  42.8189360 130.9409760  79.3257088  41.6496505 131.9015105
  76.8919917  35.9105000 120.3674789  76.7719542  36.3562051 121.2060269
  76.1972505  36.2590318 119.8088327  74.6526809  48.6808642 124.0164920
  74.5750838  49.6316467 124.0953401  74.0488452  48.3354514 124.6739846
  82.5904983  36.3826473 121.1955123  83.5022839  36.6153860 121.0202820
  82.0814630  36.9663517 120.6330201  81.1974565  41.3652292 128.5868704
  80.5683427  41.5298006 127.8844772  80.8100227  41.7793901 129.3579668
  85.0763797  42.3006729 125.9413068  84.3914835  42.6805631 125.3910101
  85.1607646  42.9102056 126.6745016  76.7502527  41.1026700 125.8518789
  77.2140872  41.3814403 125.0623412  76.4859325  40.2010144 125.6691880
  75.6871413  37.2249852 122.6608355  76.3895456  37.6770896 123.1282281
  75.3552041  36.5833671 123.2888248  83.4460557  42.8238644 130.7130769
  84.2678000  42.4218831 130.4313451  83.4422959  42.7206878 131.6646885
  76.9265178  44.0390795 122.7370460  76.7910852  44.8842330 123.1655308
  77.4674990  44.2410072 121.9736394  70.3794575  41.5566233 123.3098385
  70.8919096  42.3509483 123.4603950  71.0317288  40.8592523 123.2431986
  72.1889460  44.6731989 125.3921138  72.3656088  45.5949954 125.2042122
  72.9846293  44.3590408 125.8215518  73.3120775  46.1910163 131.3931480
  73.8628200  46.0627226 130.6208474  72.4732251  46.4905052 131.0426373
  68.3443492  39.8854887 124.0857955  69.1818714  40.2951895 123.8691663
  68.5221759  38.9454329 124.0558149  80.2407924  37.5529968 119.7741788
  79.7254547  38.3234572 120.0130176  79.9685232  36.8795104 120.3974850
  77.8255035  32.3979668 124.8327027  76.9696631  32.0086519 124.6532665
  78.2381987  32.4771629 123.9726812  85.2142198  40.3062322 121.7094962
  84.4371641  39.9673482 121.2650124  85.8933679  40.3114945 121.0349927
  80.0294227  35.4257060 121.6001570  79.7244363  35.7403209 122.4511713
  80.9824669  35.5038480 121.6428903  78.4740659  41.5847283 123.2494524
  77.9462020  40.8500043 122.9367761  77.9728162  42.3621959 123.0034492
  83.4533505  39.7796304 128.3661570  82.7957179  40.4695565 128.4541698
  84.2573904  40.1692735 128.7095556  82.2638964  38.1340676 126.4165512
  82.7770845  38.7670668 126.9187221  82.9140188  37.5341872 126.0508872
  73.5328974  34.2771410 119.6297020  72.6966286  34.6146097 119.9506295
  73.3933743  34.1420390 118.6924157  76.6193259  39.4027493 116.2529497
  75.7120321  39.1716747 116.4520646  77.1164291  38.6065113 116.4403478
  79.5261338  48.1125000 119.1726183  78.8523037  48.4156697 119.7811141
  79.9127160  48.9154081 118.8231640  79.5254842  37.0081547 123.7926532
  80.2726661  37.5202945 123.4833654  79.7946432  36.6865600 124.6530926
  77.7981493  39.5040088 120.7753487  76.8892712  39.2199121 120.8725956
  77.8276576  39.9239167 119.9156794  83.0300760  43.1146678 124.5444654
  82.5763087  42.2737588 124.6009845  82.3994727  43.7508076 124.8819434
  81.9733680  34.0438664 125.7745322  81.2356436  33.5316050 126.1055564
  82.2260453  33.6039045 124.9628599  81.4733699  44.9523174 125.4794472
  81.7656674  45.5128231 124.7606838  81.9832320  45.2451735 126.2347631
  76.3466387  37.1168709 126.8763282  76.4014996  36.1642545 126.8005759
  75.5357589  37.2728148 127.3604580  77.4957580  41.0448832 118.1141565
  77.0577010  40.3284691 117.6547203  78.2368021  41.2724947 117.5526657
  74.2858746  35.7345769 124.6353661  73.4726612  36.0339939 125.0418853
  74.7817741  35.3401457 125.3528143  76.4367324  45.7303525 126.5687926
  76.3943503  45.9564372 125.6396458  77.3530023  45.4966900 126.7173727
  85.6130695  39.3206029 124.1717884  85.4748594  39.5107625 123.2439073
  85.2566914  40.0825412 124.6285935  74.5533125  42.6066554 126.3649888
  75.3473724  42.1116875 126.1632463  73.8424818  42.0784418 126.0017594
  79.3727970  44.9884650 130.7162256  79.4264992  45.5575586 131.4839972
  78.5042751  45.1586535 130.3516293  70.8615889  36.7509636 122.4409641
  69.9313477  36.6894092 122.6579603  70.9573361  36.2285589 121.6446282
  77.1304401  43.1795576 130.0447725  76.9915487  42.8114361 130.9173663
  76.3418997  43.6943216 129.8731683  77.7252553  48.2804673 121.3873262
  77.9004309  47.8092716 122.2018885  77.0385341  48.9070439 121.6154523
  78.6809616  42.5577179 127.4336563  78.3459449  42.5177949 128.3294213
  78.1813562  41.8921895 126.9606973  81.6168808  39.9033213 117.7073623
  80.9997979  39.1780042 117.6106676  81.1485296  40.6642574 117.3640697
  72.2913638  51.4294036 128.1613122  72.5310237  52.0612560 128.8392141
  71.4482835  51.0782076 128.4478481  73.4067354  34.1218638 116.8294927
  72.5296820  34.0007439 116.4657174  73.8825107  33.3304716 116.5773816
  76.8041500  47.2373158 130.5654626  76.7311672  48.0428130 131.0773931
  76.3618893  47.4365124 129.7402647  76.5931280  46.4744928 124.0757448
  75.8098802  47.0166608 124.1695672  77.2924025  46.9918908 124.4751689
  79.9027930  32.2839558 126.7191653  80.3996630  31.5309520 126.3992723
  79.1314912  32.3203874 126.1534862  79.2640184  47.1359992 132.7212785
  79.9768156  47.7707457 132.6488686  78.7730212  47.2323858 131.9052787
  80.9857711  41.0411245 124.2930076  80.0513989  41.1612707 124.1234781
  81.1634379  40.1383712 124.0290086  84.3730262  36.8828564 124.8280111
  84.8390714  37.7156556 124.7540413  84.8237763  36.4173546 125.5325369
  82.4406493  43.2272385 121.8266263  82.7166337  43.1128980 122.7360137
  81.5710992  42.8289870 121.7878436  79.0760557  47.4758736 125.4699076
  79.2582952  46.6580392 125.9326829  79.8993543  47.6926428 125.0323966
  79.4102723  46.4026921 122.7314125  79.9390489  45.8919376 122.1184287
  79.6730942  46.0869452 123.5959658  72.7658471  47.4542038 125.4911901
  72.0968846  47.9388166 125.0075941  72.6271340  47.7011258 126.4055279
  76.9063739  49.4885782 132.0894559  77.4582047  49.6517403 132.8543644
  77.2469933  50.0790219 131.4174584  68.1346048  35.7160493 122.2707833
  68.4299489  34.8071171 122.2174886  67.2334083  35.6948232 121.9488835
  80.0432126  47.4367757 129.0758241  79.9183266  46.6357497 128.5669187
  80.7011218  47.9313950 128.5872211  82.1067035  45.2376777 130.7037791
  81.1597370  45.1182128 130.6316118  82.4549808  44.3499275 130.7864053
  69.8633889  33.3974591 122.3947158  69.5346595  32.5171970 122.2122264
  70.2173260  33.3422259 123.2823547  79.1113468  45.0329493 126.9042143
  78.9638431  44.1046201 127.0849713  79.9366962  45.0549584 126.4199219
  72.9775712  33.6847560 122.7622636  73.3171785  34.2133482 122.0401244
  73.4247833  34.0227967 123.5381202  82.7147590  45.8558052 127.9907016
  83.6394137  45.6500913 127.8531467  82.5462893  45.6074453 128.8996358
  74.9643860  32.1822182 120.9615928  75.6852222  32.5603435 120.4579645
  74.3409164  32.9011059 121.0650906  79.1074982  32.8867331 121.8974261
  79.3238597  33.7691969 121.5963089  78.6269050  32.4953544 121.1679903
  82.5042906  46.3743720 123.3469108  82.6779784  45.8090142 122.5942960
  82.9971797  47.1744614 123.1648598  75.1107483  31.7169973 123.7913465
  75.2323394  30.7886619 123.9904352  74.8209525  31.7308659 122.8791780
  88.3582297  39.1380143 124.9659407  88.8013443  38.3887468 124.5678531
  87.4808808  39.1290279 124.5833139  83.4918079  45.6910484 120.4466006
  84.1868983  46.3117177 120.6653321  83.8341229  44.8405835 120.7218384
  85.3909502  43.1410190 121.9753337  85.9160826  43.4797462 121.2502657
  85.3031854  42.2057205 121.7916471  77.0750163  49.2082173 126.3348590
  76.6355153  48.7158551 127.0281447  77.8258280  48.6655140 126.0940665
  69.5542502  45.3993714 126.3373218  70.3800521  45.0997486 125.9571861
  69.2036554  44.6301336 126.7863007  74.5224035  44.7520182 128.4070892
  73.9004044  44.0890887 128.1073119  75.1928902  44.7781314 127.7244539
  67.7551107  43.3180040 127.2962152  66.9183015  42.8902214 127.1146153
  67.7274752  43.5112483 128.2332943  74.0837542  43.3024105 121.8829352
  74.2325662  43.9859570 121.2296025  74.8903985  43.2829195 122.3978808
  71.8390175  39.3289283 122.8890421  71.5936217  38.4251613 123.0870631
  72.0086089  39.3306433 121.9469899  71.1085822  35.0617640 120.3876582
  70.4155067  35.1361995 119.7316618  70.8637574  34.2977984 120.9098099
  77.5832947  45.7972236 119.3541100  77.0106914  46.4162423 118.9011571
  78.1565741  46.3471597 119.8881021  80.8030207  46.0809386 120.4849682
  81.7360880  46.0154947 120.6882557  80.7153420  46.9165653 120.0264214
  83.4318224  45.3975256 117.4453629  83.3531855  45.0635120 118.3389387
  84.2527890  45.8897024 117.4445102  77.9679746  37.1333048 116.6957152
  78.9138850  37.0039257 116.7645570  77.5893991  36.3947710 117.1726580
  76.1522663  35.0583025 116.6312037  75.2454118  34.7616138 116.7074751
  76.4298644  34.7612843 115.7646323  77.7684729  29.6019915 122.7856279
  76.9585457  29.2566999 123.1611525  78.4569145  29.2927458 123.3743890
  74.9221447  31.9169960 116.7724016  75.7840611  32.2424858 117.0319834
  75.1071792  31.1301456 116.2597082  83.0754084  30.7898486 123.9159239
  82.4952753  31.4483291 123.5337292  82.8090017  29.9675831 123.5046657
  81.8578962  32.9498577 122.9715588  80.9704817  33.2348227 122.7535782
  82.2732951  32.7892340 122.1242865  69.8663212  47.5306328 128.0587032
  69.7317680  46.7706729 127.4925030  69.4495275  48.2547228 127.5915821
  81.0022175  42.7143252 117.0663608  81.7058026  42.9193254 117.6821263
  80.2784824  43.2820013 117.3312691  81.8319986  38.4653113 123.1865878
  81.7755187  38.9221664 122.3473510  82.3848328  37.7043797 123.0088721
  85.6424792  34.2542845 124.0115997  85.3861726  33.8539480 124.8424205
  85.0177660  34.9686639 123.8866137  73.0232338  48.4275645 128.2705475
  72.9064722  49.3721078 128.1684165  72.2024785  48.1249207 128.6591274
  82.9108873  43.1525781 119.1162068  83.7454477  42.7206979 118.9339543
  82.7493216  42.9807794 120.0438962  82.5654765  39.6557894 120.4818407
  82.5103569  39.4902165 119.5406851  81.9400820  40.3633927 120.6380597
  75.8750890  29.1566003 120.0603725  75.8629560  30.1007843 120.2171996
  76.7674312  28.9736148 119.7663187  74.0486852  49.0803907 131.4861403
  74.9514099  49.1127517 131.8027898  73.8224222  48.1504358 131.5007739
  75.8040454  47.8334893 128.1471482  74.8536085  47.8336755 128.0335854
  76.1072941  47.0867628 127.6307517  88.3482854  53.6222860 129.1478769
  88.0101366  53.5063925 128.2599304  89.2172622  53.2214025 129.1279775
  84.2069670  55.4758336 125.1375660  83.6434535  55.3848273 124.3691948
  84.0922065  54.6558241 125.6178153  81.7534102  56.9709528 127.9759881
  82.5455394  56.6300353 127.5606180  81.9930752  57.0804503 128.8962034
  89.7869229  59.1429304 120.4490125  89.1357208  59.7283384 120.0624139
  90.5813591  59.6735499 120.5085163  83.7124856  56.2318441 120.8477259
  84.4855732  55.6847428 120.7090135  84.0650255  57.0962691 121.0591721
  86.0491134  52.3911107 118.4795709  86.3016654  51.8692629 117.7179172
  85.1115693  52.2277253 118.5822393  91.0934416  51.3946886 126.2870453
  91.8797506  50.9766309 125.9360870  91.3573121  52.2992978 126.4552101
  91.2644494  56.8319736 120.9859109  90.6290327  56.9054363 121.6980014
  90.9341900  57.4213335 120.3078189  85.7687422  54.2939213 120.6820084
  85.6523680  53.6184117 121.3501169  85.8789682  53.8071587 119.8652237
  88.1118963  53.7549360 124.3866773  87.7477170  53.2279981 125.0979695
  88.9686079  53.3647829 124.2133259  87.7524450  48.7839260 119.3828122
  87.9198853  49.6519497 119.7498593  87.5621619  48.9466542 118.4589411
  83.9612265  53.6970036 127.0830657  83.0362761  53.5646250 127.2908349
  84.2096678  54.4764255 127.5800599  87.7313671  51.2396918 120.3674789
  87.6113296  51.6853968 121.2060269  87.0366259  51.5882235 119.8088327
  81.3221076  53.3403309 127.9174446  81.4513457  53.5937788 128.8313858
  80.6418527  53.9331017 127.5979101  85.4920563  64.0100559 124.0164920
  85.4144593  64.9608384 124.0953401  84.8882207  63.6646432 124.6739846
  93.4298737  51.7118391 121.1955123  94.3416593  51.9445778 121.0202820
  92.9208384  52.2955435 120.6330201  87.5896281  56.4318617 125.8518789
  88.0534627  56.7106320 125.0623412  87.3253080  55.5302062 125.6691880
  84.4820362  55.9790099 128.7898553  85.0521720  56.4077367 128.1516037
  85.0728474  55.6972684 129.4882738  86.5265167  52.5541770 122.6608355
  87.2289211  53.0062813 123.1282281  86.1945796  51.9125589 123.2888248
  80.2690501  50.8125322 127.9625488  79.4789555  51.0682851 127.4865599
  80.7601749  51.6273660 128.0677529  82.2205247  51.1769902 124.9208965
  81.4236410  51.2888596 125.4392461  81.9930839  51.5156554 124.0549855
  78.5528204  51.0655813 130.3940479  78.8036243  51.9502823 130.6598055
  79.0887753  50.8860414 129.6215571  87.7658932  59.3682712 122.7370460
  87.6304607  60.2134248 123.1655308  88.3068745  59.5701990 121.9736394
  81.2188329  56.8858150 123.3098385  81.7312850  57.6801401 123.4603950
  81.8711042  56.1884441 123.2431986  83.0283214  60.0023907 125.3921138
  83.2049843  60.9241871 125.2042122  83.8240048  59.6882326 125.8215518
  79.1837246  55.2146805 124.0857955  80.0212468  55.6243813 123.8691663
  79.3615514  54.2746247 124.0558149  91.0801678  52.8821885 119.7741788
  90.5648302  53.6526490 120.0130176  90.8078987  52.2087021 120.3974850
  88.6648789  47.7271586 124.8327027  87.8090386  47.3378436 124.6532665
  89.0775741  47.8063547 123.9726812  86.4390822  45.3456659 128.2384768
  87.3043819  45.1499468 127.8790658  86.5068331  45.1167011 129.1654125
  96.0535953  55.6354240 121.7094962  95.2765395  55.2965399 121.2650124
  96.7327433  55.6406863 121.0349927  90.8687982  50.7548977 121.6001570
  90.5638117  51.0695127 122.4511713  91.8218424  50.8330397 121.6428903
  89.3134413  56.9139201 123.2494524  88.7855775  56.1791960 122.9367761
  88.8121916  57.6913877 123.0034492  84.0453141  47.5758867 125.6101135
  84.6196893  47.3534048 124.8774328  84.6324123  47.6447561 126.3629736
  93.1032718  53.4632594 126.4165512  93.6164600  54.0962586 126.9187221
  93.7533942  52.8633789 126.0508872  84.3722728  49.6063328 119.6297020
  83.5360040  49.9438015 119.9506295  84.2327498  49.4712308 118.6924157
  86.3475809  44.4500116 124.3376204  85.6940221  44.1349133 123.7132819
  86.3056283  43.8275856 125.0636027  87.4587014  54.7319411 116.2529497
  86.5514075  54.5008664 116.4520646  87.9558046  53.9357030 116.4403478
  90.3655092  63.4416918 119.1726183  89.6916791  63.7448615 119.7811141
  90.7520914  64.2445999 118.8231640  89.5813549  50.9382049 128.6623852
  88.6636110  51.1596996 128.5045540  89.9973693  51.0128360 127.8035559
  90.3648597  52.3373465 123.7926532  91.1120416  52.8494862 123.4833654
  90.6340186  52.0157518 124.6530926  88.6375247  54.8332006 120.7753487
  87.7286466  54.5491039 120.8725956  88.6670331  55.2531084 119.9156794
  92.8127434  49.3730581 125.7745322  92.0750191  48.8607968 126.1055564
  93.0654208  48.9330963 124.9628599  79.2063417  52.5537520 124.7568689
  79.0087817  51.9606881 124.0319755  78.6510081  52.2489730 125.4744628
  87.1860141  52.4460626 126.8763282  87.2408751  51.4934463 126.8005759
  86.3751343  52.6020066 127.3604580  88.3351335  56.3740750 118.1141565
  87.8970765  55.6576608 117.6547203  89.0761776  56.6016864 117.5526657
  85.1252501  51.0637686 124.6353661  84.3120367  51.3631857 125.0418853
  85.6211495  50.6693375 125.3528143  96.4524450  54.6497947 124.1717884
  96.3142348  54.8399543 123.2439073  96.0960668  55.4117329 124.6285935
  84.6166576  48.6356042 130.2514896  85.2565955  48.4944801 129.5537859
  83.7844106  48.3490555 129.8753498  85.3926880  57.9358472 126.3649888
  86.1867478  57.4408792 126.1632463  84.6818572  57.4076335 126.0017594
  81.7009643  52.0801554 122.4409641  80.7707231  52.0186009 122.6579603
  81.7967115  51.5577507 121.6446282  81.6195192  48.6056367 125.0287883
  81.8802009  49.5201700 124.9197043  82.4412364  48.1380809 125.1784495
  83.0920117  50.0194124 132.1986707  83.7643171  49.8111486 131.5499356
  82.2649904  49.8216210 131.7591939  88.5646308  63.6096591 121.3873262
  88.7398063  63.1384634 122.2018885  87.8779096  64.2362357 121.6154523
  92.4562562  55.2325131 117.7073623  91.8391733  54.5071959 117.6106676
  91.9879051  55.9934491 117.3640697  84.2461108  49.4510555 116.8294927
  83.3690575  49.3299356 116.4657174  84.7218861  48.6596634 116.5773816
  75.7663248  54.2387715 126.9236434  76.4534288  53.9249445 126.3357450
  75.6111377  55.1429080 126.6503686  80.5697971  49.1277912 131.3521458
  80.4856159  48.5203581 130.6171868  79.7480677  49.6186930 131.3530954
  87.4325034  61.8036846 124.0757448  86.6492556  62.3458526 124.1695672
  88.1317780  62.3210825 124.4751689  90.7421684  47.6131475 126.7191653
  91.2390384  46.8601438 126.3992723  89.9708666  47.6495792 126.1534862
  91.8251465  56.3703163 124.2930076  90.8907744  56.4904625 124.1234781
  92.0028134  55.4675629 124.0290086  87.3256653  49.7548858 126.4463338
  86.9554441  49.2019899 127.1344243  87.8215746  49.1506992 125.8938338
  95.2124017  52.2120482 124.8280111  95.6784469  53.0448473 124.7540413
  95.6631517  51.7465463 125.5325369  93.2800248  58.5564303 121.8266263
  93.5560092  58.4420898 122.7360137  92.4104746  58.1581788 121.7878436
  90.2496477  61.7318839 122.7314125  90.7784244  61.2211294 122.1184287
  90.5124697  61.4161369 123.5959658  75.3431225  52.3188309 129.1953901
  75.3815324  51.7851899 129.9891019  74.8371517  51.7923514 128.5764879
  82.7221987  47.1652849 132.6916444  82.7863313  48.0267680 132.2793841
  82.6589107  46.5526851 131.9588802  78.9739802  51.0452411 122.2707833
  79.2693243  50.1363089 122.2174886  78.0727838  51.0240150 121.9488835
  82.5034049  49.1208407 128.2535381  81.7820635  49.7344375 128.1142855
  83.2927305  49.6566172 128.1752027  80.7027644  48.7266508 122.3947158
  80.3740350  47.8463887 122.2122264  81.0567014  48.6714177 123.2823547
  83.8169467  49.0139478 122.7622636  84.1565539  49.5425399 122.0401244
  84.2641587  49.3519884 123.5381202  85.8037614  47.5114100 120.9615928
  86.5245977  47.8895353 120.4579645  85.1802918  48.2302977 121.0650906
  89.9468737  48.2159249 121.8974261  90.1632351  49.0983887 121.5963089
  89.4662804  47.8245462 121.1679903  84.6867958  51.1744962 128.4745005
  84.5412539  51.4885265 129.3669287  84.2093162  51.7929862 127.9215904
  86.5464341  48.1647510 128.5225895  86.5325910  47.2688603 128.1858193
  87.2636769  48.1718174 129.1564181  88.3990472  48.5984850 130.5679022
  88.1408250  49.5201921 130.5663353  87.8675512  48.2015285 131.2579486
  79.1613620  53.7150306 131.4132666  78.6167089  54.4910114 131.5452941
  80.0392970  54.0621111 131.2551788  85.9501237  47.0461890 123.7913465
  86.0717148  46.1178536 123.9904352  85.6603280  47.0600576 122.8791780
  88.8192428  44.7316801 126.9280185  88.8414124  44.7956134 125.9732164
  89.2360487  43.8921309 127.1220691  94.3311833  61.0202402 120.4466006
  95.0262738  61.6409094 120.6653321  94.6734983  60.1697753 120.7218384
  96.2303256  58.4702107 121.9753337  96.7554580  58.8089380 121.2502657
  96.1425609  57.5349123 121.7916471  80.3936256  60.7285631 126.3373218
  81.2194276  60.4289403 125.9571861  80.0430308  59.9593254 126.7863007
  78.5944861  58.6471958 127.2962152  77.7576769  58.2194132 127.1146153
  78.5668507  58.8404401 128.2332943  84.9231296  58.6316023 121.8829352
  85.0719416  59.3151487 121.2296025  85.7297740  58.6121113 122.3978808
  82.6783929  54.6581201 122.8890421  82.4329971  53.7543531 123.0870631
  82.8479844  54.6598351 121.9469899  81.9479577  50.3909558 120.3876582
  81.2548822  50.4653913 119.7316618  81.7031329  49.6269902 120.9098099
  88.4226702  61.1264153 119.3541100  87.8500669  61.7454340 118.9011571
  88.9959495  61.6763515 119.8881021  91.6423961  61.4101303 120.4849682
  92.5754635  61.3446865 120.6882557  91.5547174  62.2457570 120.0264214
  94.2711978  60.7267174 117.4453629  94.1925610  60.3927037 118.3389387
  95.0921645  61.2188942 117.4445102  88.8073500  52.4624966 116.6957152
  89.7532605  52.3331174 116.7645570  88.4287745  51.7239628 117.1726580
  86.9916417  50.3874942 116.6312037  86.0847873  50.0908055 116.7074751
  87.2692398  50.0904761 115.7646323  77.9094358  51.7081306 127.0811084
  77.5897142  50.8546614 126.7885458  77.3627786  51.9229884 127.8369051
  81.6874265  54.4243747 130.7980590  81.9060275  55.3560855 130.8168624
  82.1000039  54.0651721 131.5835394  88.6078483  44.9311832 122.7856279
  87.7979211  44.5858917 123.1611525  89.2962900  44.6219376 123.3743890
  90.5369031  44.0089879 124.4080575  91.0900070  44.4285332 125.0670598
  90.7739118  43.0825627 124.4503531  85.7615202  47.2461878 116.7724016
  86.6234366  47.5716776 117.0319834  85.9465546  46.4593374 116.2597082
  77.7782618  55.3284217 129.0504205  77.0846089  54.9138170 128.5374160
  78.5255609  55.3704754 128.4537624  93.9147838  46.1190404 123.9159239
  93.3346507  46.7775208 123.5337292  93.6483771  45.2967749 123.5046657
  79.6919360  55.2602471 126.9270220  79.6690048  55.3590158 125.9752103
  80.0019997  56.1067622 127.2487386  92.6972716  48.2790495 122.9715588
  91.8098571  48.5640145 122.7535782  93.1126705  48.1184258 122.1242865
  91.8415930  58.0435169 117.0663608  92.5451780  58.2485172 117.6821263
  91.1178579  58.6111931 117.3312691  92.6713740  53.7945030 123.1865878
  92.6148942  54.2513582 122.3473510  93.2242083  53.0335715 123.0088721
  96.4818546  49.5834762 124.0115997  96.2255480  49.1831398 124.8424205
  95.8571414  50.2978556 123.8866137  93.7502627  58.4817698 119.1162068
  94.5848231  58.0498897 118.9339543  93.5886970  58.3099712 120.0438962
  93.4048519  54.9849812 120.4818407  93.3497323  54.8194083 119.5406851
  92.7794575  55.6925845 120.6380597  78.1941034  50.2217876 134.3079829
  78.8399898  49.7116830 134.7967054  77.9858186  50.9586558 134.8823255
  86.7144645  44.4857921 120.0603725  86.7023315  45.4299761 120.2171996
  87.6068067  44.3028066 119.7663187  90.5296764  41.0800697 124.3149662
  89.7629160  40.5259184 124.4606345  90.9407469  41.1522566 125.1763814
  95.2116483  64.9355246 119.6297020  94.3753795  65.2729932 119.9506295
  95.0721252  64.8004225 118.6924157  95.0854863  64.7802473 116.8294927
  94.2084329  64.6591274 116.4657174  95.5612616  63.9888551 116.5773816
  92.7873331  65.7201476 120.3876582  92.0942576  65.7945831 119.7316618
  92.5425083  64.9561819 120.9098099  97.8310172  65.7166860 116.6312037
  96.9241627  65.4199973 116.7074751  98.1086153  65.4196678 115.7646323
  96.6008956  62.5753795 116.7724016  97.4628120  62.9008694 117.0319834
  96.7859301  61.7885291 116.2597082  97.5538399  59.8149838 120.0603725
  97.5417069  60.7591678 120.2171996  98.4461821  59.6319984 119.7663187
  68.6867585   9.7895205 105.8971489  68.0129284  10.0926902 106.5056447
  69.0733407  10.5924286 105.5476946  70.7775055   1.5803418 104.4318929
  70.1604225   0.8550247 104.3351982  70.3091543   2.3412779 104.0886004
  72.6524325   7.3680689 107.1711313  73.3475230   7.9887382 107.3898627
  72.9947476   6.5176040 107.4463690  66.7439194   7.4742441 106.0786406
  66.1713161   8.0932628 105.6256878  67.3171988   8.0241802 106.6126328
  69.9636454   7.7579591 107.2094988  70.8967127   7.6925152 107.4127864
  69.8759667   8.5935858 106.7509521  72.5924470   7.0745461 104.1698936
  72.5138102   6.7405325 105.0634694  73.4134137   7.5667229 104.1690408
  70.1628422   4.3913456 103.7908914  70.8664272   4.5963459 104.4066570
  69.4391071   4.9590218 104.0557998  72.0715120   4.8295986 105.8407374
  72.9060723   4.3977184 105.6584849  71.9099462   4.6577999 106.7684269
  80.6999395  15.3465637 115.9362551  81.3377805  15.2272384 115.2325891
  80.5820238  16.2946481 115.9950503  77.5089101  15.2993065 115.8724076
  77.1707612  15.1834130 114.9844611  78.3778869  14.8984230 115.8525082
  73.3675917  17.1528541 111.8620967  72.8040782  17.0618478 111.0937255
  73.2528312  16.3328446 112.3423459  78.9475475  20.8199509 107.1735432
  78.2963455  21.4053589 106.7869445  79.7419838  21.3505704 107.2330469
  72.8731102  17.9088646 107.5722566  73.6461978  17.3617633 107.4335442
  73.2256501  18.7732895 107.7837027  75.2097380  14.0681312 105.2041016
  75.4622901  13.5462834 104.4424479  74.2721939  13.9047458 105.3067700
  80.2540663  13.0717091 113.0115759  81.0403752  12.6536514 112.6606176
  80.5179367  13.9763183 113.1797408  80.4250740  18.5089941 107.7104416
  79.7896573  18.5824567 108.4225321  80.0948147  19.0983540 107.0323495
  74.9293669  15.9709418 107.4065391  74.8129927  15.2954322 108.0746475
  75.0395929  15.4841792 106.5897544  77.2725210  15.4319565 111.1112080
  76.9083417  14.9050186 111.8225002  78.1292326  15.0418034 110.9378566
  76.9130697  10.4609465 106.1073429  77.0805099  11.3289701 106.4743900
  76.7227866  10.6236747 105.1834718  79.6706030  18.9226444 117.7739259
  79.3706753  19.8251483 117.6655066  79.3257090  18.6558627 118.6260412
  76.8919918  12.9167123 107.0920095  76.7719543  13.3624173 107.9305576
  76.1972506  13.2652440 106.5333634  74.6526810  25.6870764 110.7410227
  74.5750840  26.6378589 110.8198707  74.0488454  25.3416637 111.3985153
  82.5904984  13.3888596 107.9200430  83.5022840  13.6215982 107.7448127
  82.0814631  13.9725640 107.3575508  81.1974566  18.3714414 115.3114011
  80.5683429  18.5360128 114.6090079  80.8100228  18.7856024 116.0824975
  85.0763798  19.3068852 112.6658375  84.3914836  19.6867753 112.1155408
  85.1607648  19.9164179 113.3990322  76.7502528  18.1088822 112.5764096
  77.2140874  18.3876525 111.7868719  76.4859326  17.2072267 112.3937187
  75.6871414  14.2311975 109.3853661  76.3895458  14.6833018 109.8527588
  75.3552043  13.5895793 110.0133554  83.4460558  19.8300766 117.4376076
  84.2678001  19.4280954 117.1558757  83.4422961  19.7269001 118.3892191
  76.9265179  21.0452917 109.4615766  76.7910854  21.8904453 109.8900614
  77.4674991  21.2472195 108.6981700  70.3794576  18.5628355 110.0343692
  70.8919097  19.3571606 110.1849256  71.0317289  17.8654646 109.9677293
  72.1889461  21.6794112 112.1166445  72.3656089  22.6012076 111.9287429
  72.9846294  21.3652531 112.5460824  73.3120776  23.1972285 118.1176787
  73.8628202  23.0689349 117.3453781  72.4732252  23.4967174 117.7671680
  68.3443493  16.8917010 110.8103262  69.1818715  17.3014018 110.5936970
  68.5221761  15.9516452 110.7803456  80.2407925  14.5592090 106.4987095
  79.7254549  15.3296695 106.7375482  79.9685234  13.8857226 107.1220156
  77.8255036   9.4041791 111.5572333  76.9696633   9.0148641 111.3777972
  78.2381988   9.4833752 110.6972119  85.2142199  17.3124445 108.4340268
  84.4371642  16.9735604 107.9895431  85.8933680  17.3177068 107.7595234
  80.0294228  12.4319182 108.3246876  79.7244364  12.7465331 109.1757019
  80.9824670  12.5100602 108.3674209  78.4740660  18.5909406 109.9739830
  77.9462022  17.8562165 109.6613068  77.9728163  19.3684082 109.7279799
  83.4533506  16.7858426 115.0906876  82.7957181  17.4757688 115.1787005
  84.2573905  17.1754858 115.4340863  82.2638965  15.1402799 113.1410818
  82.7770847  15.7732791 113.6432528  82.9140189  14.5403994 112.7754178
  73.5328975  11.2833533 106.3542327  72.6966287  11.6208219 106.6751602
  73.3933745  11.1482513 105.4169464  76.6193260  16.4089616 102.9774803
  75.7120322  16.1778869 103.1765952  77.1164292  15.6127235 103.1648785
  79.5261339  25.1187123 105.8971489  78.8523038  25.4218820 106.5056447
  79.9127161  25.9216203 105.5476946  79.5254844  14.0143670 110.5171839
  80.2726663  14.5265067 110.2078961  79.7946433  13.6927723 111.3776233
  77.7981494  16.5102211 107.4998793  76.8892713  16.2261244 107.5971263
  77.8276578  16.9301289 106.6402100  83.0300761  20.1208800 111.2689961
  82.5763088  19.2799710 111.3255151  82.3994728  20.7570199 111.6064741
  81.9733681  11.0500786 112.4990628  81.2356438  10.5378172 112.8300871
  82.2260454  10.6101168 111.6873905  81.4733700  21.9585297 112.2039779
  81.7656675  22.5190354 111.4852145  81.9832321  22.2513858 112.9592938
  76.3466388  14.1230831 113.6008589  76.4014998  13.1704668 113.5251065
  75.5357590  14.2790270 114.0849887  77.4957582  18.0510954 104.8386872
  77.0577012  17.3346813 104.3792509  78.2368022  18.2787069 104.2771963
  74.2858748  12.7407891 111.3598968  73.4726613  13.0402062 111.7664160
  74.7817742  12.3463580 112.0773450  76.4367326  22.7365648 113.2933232
  76.3943504  22.9626494 112.3641764  77.3530024  22.5029023 113.4419033
  85.6130696  16.3268151 110.8963190  85.4748595  16.5169747 109.9684380
  85.2566915  17.0887534 111.3531242  74.5533126  19.6128677 113.0895195
  75.3473725  19.1178997 112.8877770  73.8424819  19.0846540 112.7262900
  79.3727971  21.9946773 117.4407563  79.4264993  22.5637709 118.2085278
  78.5042752  22.1648658 117.0761600  70.8615890  13.7571759 109.1654948
  69.9313478  13.6956214 109.3824910  70.9573362  13.2347712 108.3691589
  77.1304402  20.1857699 116.7693032  76.9915488  19.8176483 117.6418970
  76.3418999  20.7005338 116.5976990  77.7252554  25.2866796 108.1118569
  77.9004310  24.8154839 108.9264191  77.0385342  25.9132562 108.3399829
  78.6809618  19.5639302 114.1581870  78.3459450  19.5240072 115.0539520
  78.1813563  18.8984018 113.6852280  81.6168809  16.9095336 104.4318929
  80.9997980  16.1842164 104.3351982  81.1485298  17.6704696 104.0886004
  72.2913640  28.4356158 114.8858429  72.5310238  29.0674682 115.5637447
  71.4482836  28.0844198 115.1723788  73.4067355  11.1280760 103.5540234
  72.5296821  11.0069561 103.1902480  73.8825108  10.3366839 103.3019122
  76.8041502  24.2435281 117.2899933  76.7311673  25.0490252 117.8019237
  76.3618895  24.4427247 116.4647954  76.5931281  23.4807051 110.8002754
  75.8098803  24.0228731 110.8940979  77.2924026  23.9981030 111.1996995
  79.9027931   9.2901680 113.4436960  80.3996631   8.5371643 113.1238030
  79.1314913   9.3265997 112.8780169  79.2640185  24.1422115 119.4458091
  79.9768157  24.7769580 119.3733993  78.7730214  24.2385981 118.6298093
  80.9857712  18.0473367 111.0175383  80.0513991  18.1674830 110.8480087
  81.1634380  17.1445834 110.7535393  84.3730263  13.8890687 111.5525417
  84.8390716  14.7218678 111.4785720  84.8237764  13.4235668 112.2570676
  82.4406494  20.2334508 108.5511569  82.7166338  20.1191103 109.4605443
  81.5710993  19.8351993 108.5123742  79.0760558  24.4820859 112.1944383
  79.2582953  23.6642515 112.6572135  79.8993544  24.6988551 111.7569273
  79.4102724  23.4089044 109.4559431  79.9390490  22.8981499 108.8429593
  79.6730944  23.0931574 110.3204964  72.7658472  24.4604161 112.2157207
  72.0968847  24.9450288 111.7321247  72.6271342  24.7073381 113.1300586
  76.9063740  26.4947904 118.8139866  77.4582048  26.6579526 119.5788951
  77.2469934  27.0852342 118.1419890  68.1346049  12.7222616 108.9953139
  68.4299490  11.8133294 108.9420193  67.2334085  12.7010355 108.6734142
  80.0432128  24.4429880 115.8003548  79.9183267  23.6419620 115.2914493
  80.7011219  24.9376073 115.3117518  82.1067036  22.2438900 117.4283098
  81.1597372  22.1244251 117.3561425  82.4549809  21.3561398 117.5109359
  69.8633891  10.4036713 109.1192465  69.5346597   9.5234092 108.9367570
  70.2173261  10.3484382 110.0068854  79.1113469  22.0391616 113.6287450
  78.9638432  21.1108323 113.8095020  79.9366963  22.0611707 113.1444525
  72.9775714  10.6909683 109.4867942  73.3171786  11.2195604 108.7646551
  73.4247834  11.0290089 110.2626509  82.7147591  22.8620175 114.7152323
  83.6394139  22.6563036 114.5776774  82.5462895  22.6136576 115.6241664
  74.9643861   9.1884305 107.6861235  75.6852223   9.5665557 107.1824952
  74.3409165   9.9073181 107.7896213  79.1074984   9.8929454 108.6219567
  79.3238598  10.7754092 108.3208395  78.6269051   9.5015667 107.8925209
  82.5042907  23.3805842 110.0714414  82.6779785  22.8152265 109.3188267
  82.9971799  24.1806737 109.8893904  75.1107484   8.7232095 110.5158772
  75.2323395   7.7948741 110.7149659  74.8209526   8.7370781 109.6037087
  88.3582299  16.1442265 111.6904714  88.8013445  15.3949590 111.2923837
  87.4808809  16.1352401 111.3078446  83.4918080  22.6972607 107.1711313
  84.1868985  23.3179299 107.3898627  83.8341230  21.8467958 107.4463690
  85.3909503  20.1472312 108.6998643  85.9160827  20.4859585 107.9747963
  85.3031856  19.2119327 108.5161778  77.0750164  26.2144295 113.0593897
  76.6355154  25.7220674 113.7526753  77.8258281  25.6717263 112.8185972
  69.5542503  22.4055836 113.0618525  70.3800523  22.1059608 112.6817168
  69.2036555  21.6363459 113.5108313  74.5224036  21.7582304 115.1316198
  73.9004045  21.0953009 114.8318426  75.1928903  21.7843436 114.4489846
  67.7551108  20.3242163 114.0207458  66.9183016  19.8964337 113.8391459
  67.7274753  20.5174606 114.9578249  74.0837543  20.3086228 108.6074659
  74.2325663  20.9921692 107.9541331  74.8903986  20.2891318 109.1224114
  71.8390176  16.3351405 109.6135728  71.5936218  15.4313735 109.8115938
  72.0086090  16.3368556 108.6715206  71.1085823  12.0679763 107.1121889
  70.4155068  12.1424118 106.4561925  70.8637575  11.3040107 107.6343406
  77.5832948  22.8034358 106.0786406  77.0106915  23.4224545 105.6256878
  78.1565742  23.3533720 106.6126328  80.8030208  23.0871508 107.2094988
  81.7360881  23.0217070 107.4127864  80.7153421  23.9227775 106.7509521
  83.4318225  22.4037379 104.1698936  83.3531856  22.0697242 105.0634694
  84.2527892  22.8959147 104.1690408  77.9679747  14.1395171 103.4202459
  78.9138852  14.0101379 103.4890877  77.5893992  13.4009833 103.8971887
  76.1522664  12.0645147 103.3557344  75.2454119  11.7678260 103.4320057
  76.4298645  11.7674965 102.4891630  77.7684730   6.6082037 109.5101585
  76.9585458   6.2629122 109.8856831  78.4569147   6.2989581 110.0989197
  74.9221449   8.9232083 103.4969323  75.7840613   9.2486981 103.7565140
  75.1071793   8.1363579 102.9842389  83.0754085   7.7960609 110.6404546
  82.4952754   8.4545413 110.2582598  82.8090018   6.9737954 110.2291964
  81.8578963   9.9560699 109.6960894  80.9704818  10.2410350 109.4781089
  82.2732952   9.7954463 108.8488171  69.8663214  24.5368451 114.7832339
  69.7317682  23.7768851 114.2170337  69.4495276  25.2609350 114.3161128
  81.0022177  19.7205374 103.7908914  81.7058027  19.9255377 104.4066570
  80.2784825  20.2882136 104.0557998  81.8319987  15.4715235 109.9111184
  81.7755188  15.9283787 109.0718817  82.3848329  14.7105920 109.7334027
  85.6424793  11.2604967 110.7361304  85.3861727  10.8601603 111.5669512
  85.0177661  11.9748761 110.6111443  73.0232340  25.4337768 114.9950782
  72.9064724  26.3783200 114.8929472  72.2024786  25.1311329 115.3836581
  82.9108874  20.1587903 105.8407374  83.7454478  19.7269102 105.6584849
  82.7493217  19.9869917 106.7684269  82.5654766  16.6620017 107.2063714
  82.5103570  16.4964288 106.2652158  81.9400822  17.3696050 107.3625903
  75.8750892   6.1628126 106.7849032  75.8629562   7.1069966 106.9417303
  76.7674314   5.9798271 106.4908493  74.0486854  26.0866030 118.2106710
  74.9514100  26.1189640 118.5273205  73.8224224  25.1566480 118.2253046
  75.8040456  24.8397016 114.8716789  74.8536087  24.8398878 114.7581161
  76.1072942  24.0929751 114.3552823  91.5393149  30.6757554 115.9362551
  92.1771559  30.5564302 115.2325891  91.4213992  31.6238398 115.9950503
  88.3482855  30.6284983 115.8724076  88.0101367  30.5126047 114.9844611
  89.2172624  30.2276148 115.8525082  84.2069671  32.4820459 111.8620967
  83.6434536  32.3910396 111.0937255  84.0922066  31.6620363 112.3423459
  81.7534103  33.9771651 114.7005187  82.5455395  33.6362475 114.2851487
  81.9930753  34.0866626 115.6207341  89.7869230  36.1491427 107.1735432
  89.1357210  36.7345507 106.7869445  90.5813593  36.6797622 107.2330469
  83.7124857  33.2380564 107.5722566  84.4855733  32.6909551 107.4335442
  84.0650256  34.1024813 107.7837027  85.5509900  34.5656946 120.7789465
  85.2599766  35.4702577 120.6636132  86.1866884  34.6073474 121.4933535
  86.4766106  31.9433795 117.3690825  87.0729679  31.7189817 116.6547788
  86.5341078  31.2018540 117.9716273  86.0491135  29.3973230 105.2041016
  86.3016655  28.8754751 104.4424479  85.1115694  29.2339375 105.3067700
  91.0934418  28.4009008 113.0115759  91.8797507  27.9828431 112.6606176
  91.3573122  29.3055100 113.1797408  91.2644495  33.8381859 107.7104416
  90.6290328  33.9116485 108.4225321  90.9341901  34.4275457 107.0323495
  85.7687424  31.3001336 107.4065391  85.6523682  30.6246239 108.0746475
  85.8789683  30.8133710 106.5897544  88.1118964  30.7611483 111.1112080
  87.7477172  30.2342104 111.8225002  88.9686080  30.3709952 110.9378566
  87.7524451  25.7901383 106.1073429  87.9198854  26.6581619 106.4743900
  87.5621621  25.9528664 105.1834718  90.5099785  34.2518362 117.7739259
  90.2100508  35.1543400 117.6655066  90.1650844  33.9850545 118.6260412
  83.9612266  30.7032158 113.8075963  83.0362763  30.5708373 114.0153655
  84.2096679  31.4826378 114.3045906  87.7313672  28.2459040 107.0920095
  87.6113298  28.6916091 107.9305576  87.0366261  28.5944358 106.5333634
  81.3221077  30.3465432 114.6419753  81.4513458  30.5999911 115.5559164
  80.6418528  30.9393140 114.3224408  85.4920564  41.0162682 110.7410227
  85.4144594  41.9670507 110.8198707  84.8882208  40.6708554 111.3985153
  93.4298738  28.7180513 107.9200430  94.3416595  28.9507900 107.7448127
  92.9208386  29.3017558 107.3575508  86.2384167  30.9976001 122.9589561
  86.9798851  31.5361045 122.6824384  85.5321152  31.6242289 123.1161112
  88.0670576  28.0777748 118.9295279  88.9131771  28.5017162 119.0729928
  88.0069214  27.4211372 119.6233842  92.0368321  33.7006332 115.3114011
  91.4077183  33.8652046 114.6090079  91.6493983  34.1147941 116.0824975
  95.9157553  34.6360770 112.6658375  95.2308591  35.0159671 112.1155408
  96.0001402  35.2456096 113.3990322  87.5896283  33.4380740 112.5764096
  88.0534628  33.7168443 111.7868719  87.3253081  32.5364184 112.3937187
  84.4820364  32.9852221 115.5143859  85.0521721  33.4139490 114.8761344
  85.0728476  32.7034806 116.2128045  86.5265169  29.5603892 109.3853661
  87.2289212  30.0124936 109.8527588  86.1945797  28.9187711 110.0133554
  80.2690503  27.8187445 114.6870795  79.4789557  28.0744973 114.2110905
  80.7601750  28.6335783 114.7922835  94.2854312  35.1592684 117.4376076
  95.1071756  34.7572871 117.1558757  94.2816715  35.0560918 118.3892191
  82.2205248  28.1832024 111.6454271  81.4236411  28.2950718 112.1637767
  81.9930840  28.5218676 110.7795162  88.0510916  34.7076727 119.5936786
  88.1155348  35.1697135 120.4294958  87.3421840  34.0774092 119.7219096
  78.5528206  28.0717935 117.1185786  78.8036244  28.9564945 117.3843362
  79.0887754  27.8922537 116.3460877  87.7658933  36.3744835 109.4615766
  87.6304608  37.2196371 109.8900614  88.3068746  36.5764113 108.6981700
  81.2188331  33.8920273 110.0343692  81.7312851  34.6863523 110.1849256
  81.8711044  33.1946563 109.9677293  83.0283215  37.0086029 112.1166445
  83.2049844  37.9303994 111.9287429  83.8240049  36.6944448 112.5460824
  82.3135572  29.0550661 121.9928608  82.1989087  28.1535918 122.2935707
  81.4580090  29.3014358 121.6413424  89.3927410  36.9968401 123.5916109
  88.9491264  36.2104780 123.2737013  90.0544623  37.1847552 122.9259999
  84.1514531  38.5264203 118.1176787  84.7021956  38.3981266 117.3453781
  83.3126007  38.8259092 117.7671680  87.9481702  34.7915331 122.4621018
  88.4810039  34.0303619 122.2320326  87.4195783  34.4988983 123.2045173
  79.1837248  32.2208927 110.8103262  80.0212470  32.6305936 110.5936970
  79.3615515  31.2808369 110.7803456  91.0801680  29.8884008 106.4987095
  90.5648303  30.6588613 106.7375482  90.8078988  29.2149144 107.1220156
  88.6648791  24.7333709 111.5572333  87.8090387  24.3440559 111.3777972
  89.0775742  24.8125669 110.6972119  86.4390823  22.3518782 114.9630075
  87.3043820  22.1561590 114.6035964  86.5068332  22.1229133 115.8899432
  96.0535954  32.6416363 108.4340268  95.2765397  32.3027522 107.9895431
  96.7327435  32.6468986 107.7595234  90.8687983  27.7611100 108.3246876
  90.5638118  28.0757249 109.1757019  91.8218425  27.8392520 108.3674209
  89.3134415  33.9201323 109.9739830  88.7855776  33.1854083 109.6613068
  88.8121917  34.6976000 109.7279799  94.2927261  32.1150344 115.0906876
  93.6350935  32.8049605 115.1787005  95.0967660  32.5046776 115.4340863
  84.0453142  24.5820990 112.3346442  84.6196894  24.3596171 111.6019635
  84.6324125  24.6509684 113.0875043  93.1032719  30.4694716 113.1410818
  93.6164601  31.1024708 113.6432528  93.7533943  29.8695912 112.7754178
  84.3722729  26.6125451 106.3542327  83.5360042  26.9500137 106.6751602
  84.2327499  26.4774430 105.4169464  86.3475810  21.4562238 111.0621511
  85.6940222  21.1411256 110.4378126  86.3056284  20.8337979 111.7881334
  87.4587015  31.7381534 102.9774803  86.5514077  31.5070787 103.1765952
  87.9558047  30.9419153 103.1648785  90.3655094  40.4479041 105.8971489
  89.6916792  40.7510738 106.5056447  90.7520916  41.2508121 105.5476946
  89.5813550  27.9444172 115.3869159  88.6636112  28.1659119 115.2290847
  89.9973694  28.0190483 114.5280866  90.3648598  29.3435588 110.5171839
  91.1120417  29.8556985 110.2078961  90.6340188  29.0219640 111.3776233
  88.6375248  31.8394128 107.4998793  87.7286468  31.5553161 107.5971263
  88.6670332  32.2593207 106.6402100  93.8694516  35.4500718 111.2689961
  93.4156843  34.6091628 111.3255151  93.2388482  36.0862116 111.6064741
  92.8127435  26.3792704 112.4990628  92.0750192  25.8670090 112.8300871
  93.0654209  25.9393086 111.6873905  92.3127455  37.2877215 112.2039779
  92.6050429  37.8482272 111.4852145  92.8226076  37.5805776 112.9592938
  79.2063419  29.5599643 111.4813996  79.0087818  28.9669003 110.7565062
  78.6510083  29.2551853 112.1989934  87.1860142  29.4522749 113.6008589
  87.2408752  28.4996585 113.5251065  86.3751344  29.6082188 114.0849887
  88.3351336  33.3802872 104.8386872  87.8970766  32.6638731 104.3792509
  89.0761777  33.6078987 104.2771963  85.1252502  28.0699809 111.3598968
  84.3120368  28.3693979 111.7664160  85.6211496  27.6755498 112.0773450
  87.2761080  38.0657566 113.2933232  87.2337259  38.2918412 112.3641764
  88.1923779  37.8320940 113.4419033  96.4524451  31.6560069 110.8963190
  96.3142349  31.8461665 109.9684380  96.0960670  32.4179452 111.3531242
  84.6166577  25.6418164 116.9760202  85.2565956  25.5006923 116.2783166
  83.7844108  25.3552678 116.5998804  85.3926881  34.9420595 113.0895195
  86.1867479  34.4470915 112.8877770  84.6818573  34.4138458 112.7262900
  90.2121725  37.3238690 117.4407563  90.2658748  37.8929627 118.2085278
  89.3436507  37.4940575 117.0761600  81.7009644  29.0863676 109.1654948
  80.7707232  29.0248132 109.3824910  81.7967116  28.5639629 108.3691589
  81.6195193  25.6118489 111.7533189  81.8802011  26.5263823 111.6442350
  82.4412366  25.1442932 111.9029802  83.0920119  27.0256246 118.9232014
  83.7643172  26.8173609 118.2744663  82.2649905  26.8278332 118.4837246
  89.1709825  31.4898952 118.9994494  90.1001885  31.6410112 118.8263462
  88.7500855  31.5782973 118.1443141  87.9698157  35.5149617 116.7693032
  87.8309243  35.1468401 117.6418970  87.1812753  36.0297256 116.5976990
  88.5646309  40.6158713 108.1118569  88.7398065  40.1446756 108.9264191
  87.8779097  41.2424479 108.3399829  89.5203372  34.8931219 114.1581870
  89.1853205  34.8531989 115.0539520  89.0207318  34.2275935 113.6852280
  83.4947616  30.2998849 119.6834451  83.3567414  29.5679088 120.2845990
  84.4052539  30.2107750 119.4018639  92.4562564  32.2387254 104.4318929
  91.8391734  31.5134082 104.3351982  91.9879052  32.9996614 104.0886004
  86.1229917  30.0118809 119.1718131  86.8329535  29.3712001 119.1304749
  86.0799225  30.2631704 120.0944311  84.8358851  26.9984027 120.9913770
  84.2996208  26.5474765 121.6435366  84.2475559  27.1329935 120.2484234
  83.1307394  43.7648076 114.8858429  83.3703992  44.3966600 115.5637447
  82.2876591  43.4136116 115.1723788  84.2461110  26.4572678 103.5540234
  83.3690576  26.3361479 103.1902480  84.7218863  25.6658756 103.3019122
  75.7663250  31.2449838 113.6481741  76.4534290  30.9311568 113.0602756
  75.6111378  32.1491202 113.3748992  80.5697972  26.1340034 118.0766765
  80.4856161  25.5265704 117.3417175  79.7480678  26.6249053 118.0776261
  87.6435256  39.5727198 117.2899933  87.5705427  40.3782170 117.8019237
  87.2012649  39.7719164 116.4647954  87.4325036  38.8098968 110.8002754
  86.6492558  39.3520649 110.8940979  88.1317781  39.3272948 111.1996995
  90.7421686  24.6193598 113.4436960  91.2390385  23.8663560 113.1238030
  89.9708667  24.6557915 112.8780169  90.1033940  39.4714032 119.4458091
  90.8161912  40.1061497 119.3733993  89.6123968  39.5677898 118.6298093
  91.8251466  33.3765285 111.0175383  90.8907745  33.4966748 110.8480087
  92.0028135  32.4737752 110.7535393  87.3256655  26.7610981 113.1708644
  86.9554442  26.2082021 113.8589550  87.8215747  26.1569114 112.6183644
  95.2124018  29.2182604 111.5525417  95.6784470  30.0510596 111.4785720
  95.6631518  28.7527586 112.2570676  85.1545853  37.2208476 120.2663662
  85.8555313  37.8544959 120.4193056  84.6840968  37.5623207 119.5059301
  93.2800249  35.5626426 108.5511569  93.5560093  35.4483020 109.4605443
  92.4104748  35.1643911 108.5123742  89.9154313  39.8112777 112.1944383
  90.0976707  38.9934432 112.6572135  90.7387299  40.0280469 111.7569273
  90.2496478  38.7380962 109.4559431  90.7784245  38.2273416 108.8429593
  90.5124698  38.4223492 110.3204964  80.7513571  36.7544831 117.1994765
  81.3367008  36.0088519 117.3322669  80.5538410  37.0648788 118.0831429
  83.6052226  39.7896078 112.2157207  82.9362602  40.2742206 111.7321247
  83.4665096  40.0365299 113.1300586  75.3431226  29.3250431 115.9199208
  75.3815325  28.7914022 116.7136326  74.8371519  28.7985637 115.3010185
  87.7457495  41.8239822 118.8139866  88.2975803  41.9871443 119.5788951
  88.0863688  42.4144260 118.1419890  82.7221988  24.1714972 119.4161750
  82.7863315  25.0329803 119.0039148  82.6589108  23.5588973 118.6834109
  78.9739803  28.0514533 108.9953139  79.2693245  27.1425212 108.9420193
  78.0727839  28.0302273 108.6734142  90.8825882  39.7721797 115.8003548
  90.7577022  38.9711537 115.2914493  91.5404973  40.2667991 115.3117518
  82.5034050  26.1270530 114.9780688  81.7820636  26.7406498 114.8388161
  83.2927306  26.6628295 114.8997334  92.9460791  37.5730817 117.4283098
  91.9991126  37.4536169 117.3561425  93.2943564  36.6853315 117.5109359
  80.7027645  25.7328631 109.1192465  80.3740351  24.8526010 108.9367570
  81.0567016  25.6776300 110.0068854  89.9507224  37.3683534 113.6287450
  89.8032186  36.4400241 113.8095020  90.7760717  37.3903624 113.1444525
  83.8169468  26.0201601 109.4867942  84.1565541  26.5487522 108.7646551
  84.2641589  26.3582007 110.2626509  93.5541346  38.1912092 114.7152323
  94.4787893  37.9854954 114.5776774  93.3856649  37.9428494 115.6241664
  85.8037615  24.5176222 107.6861235  86.5245978  24.8957475 107.1824952
  85.1802919  25.2365099 107.7896213  89.9468738  25.2221371 108.6219567
  90.1632353  26.1046009 108.3208395  89.4662805  24.8307585 107.8925209
  84.6867960  28.1807085 115.1990312  84.5412540  28.4947388 116.0914593
  84.2093163  28.7991985 114.6461211  86.5464342  25.1709633 115.2471201
  86.5325911  24.2750726 114.9103499  87.2636771  25.1780296 115.8809488
  88.3990473  25.6046973 117.2924329  88.1408251  26.5264043 117.2908659
  87.8675514  25.2077407 117.9824793  93.3436662  38.7097760 110.0714414
  93.5173539  38.1444182 109.3188267  93.8365553  39.5098655 109.8893904
  79.1613622  30.7212429 118.1377973  78.6167090  31.4972237 118.2698247
  80.0392972  31.0683233 117.9797095  85.9501238  24.0524013 110.5158772
  86.0717150  23.1240659 110.7149659  85.6603281  24.0662699 109.6037087
  88.8192429  21.7378923 113.6525491  88.8414126  21.8018256 112.6977471
  89.2360488  20.8983432 113.8465998  99.1976053  31.4734183 111.6904714
  99.6407199  30.7241508 111.2923837  98.3202563  31.4644319 111.3078446
  94.3311834  38.0264524 107.1711313  95.0262739  38.6471217 107.3898627
  94.6734985  37.1759875 107.4463690  79.9479644  29.8482325 121.0308130
  79.2061380  29.9964961 121.6172760  79.6272388  30.1090591 120.1674879
  96.2303258  35.4764230 108.6998643  96.7554582  35.8151503 107.9747963
  96.1425610  34.5411245 108.5161778  87.8923306  39.3898303 120.8288520
  88.2010433  39.1447450 121.7011220  88.6898788  39.5944942 120.3407390
  87.9143918  41.5436213 113.0593897  87.4748909  41.0512592 113.7526753
  88.6652035  41.0009181 112.8185972  80.3936257  37.7347754 113.0618525
  81.2194277  37.4351526 112.6817168  80.0430309  36.9655376 113.5108313
  85.3617790  37.0874222 115.1316198  84.7397800  36.4244927 114.8318426
  86.0322657  37.1135354 114.4489846  78.5944862  35.6534080 114.0207458
  77.7576771  35.2256255 113.8391459  78.5668508  35.8466524 114.9578249
  84.9231297  35.6378145 108.6074659  85.0719418  36.3213610 107.9541331
  85.7297741  35.6183236 109.1224114  82.6783930  31.6643323 109.6135728
  82.4329972  30.7605653 109.8115938  82.8479845  31.6660474 108.6715206
  81.9479578  27.3971681 107.1121889  81.2548823  27.4716036 106.4561925
  81.7031330  26.6332024 107.6343406  88.4226703  38.1326276 106.0786406
  87.8500670  38.7516463 105.6256878  88.9959497  38.6825638 106.6126328
  91.6423963  38.4163426 107.2094988  92.5754636  38.3508988 107.4127864
  91.5547176  39.2519693 106.7509521  94.2711979  37.7329296 104.1698936
  94.1925611  37.3989160 105.0634694  95.0921646  38.2251064 104.1690408
  88.8073501  29.4687089 103.4202459  89.7532606  29.3393297 103.4890877
  88.4287746  28.7301751 103.8971887  86.9916419  27.3937065 103.3557344
  86.0847874  27.0970178 103.4320057  87.2692400  27.0966883 102.4891630
  77.9094359  28.7143428 113.8056390  77.5897143  27.8608737 113.5130764
  77.3627787  28.9292007 114.5614358  81.6874266  31.4305869 117.5225897
  81.9060276  32.3622977 117.5413931  82.1000040  31.0713844 118.3080701
  88.6078484  21.9373955 109.5101585  87.7979213  21.5921040 109.8856831
  89.2962901  21.6281499 110.0989197  90.5369033  21.0152002 111.1325882
  91.0900071  21.4347455 111.7915905  90.7739119  20.0887750 111.1748838
  85.7615203  24.2524000 103.4969323  86.6234367  24.5778899 103.7565140
  85.9465547  23.4655496 102.9842389  77.7782619  32.3346340 115.7749512
  77.0846090  31.9200293 115.2619466  78.5255610  32.3766876 115.1782931
  93.9147840  23.1252527 110.6404546  93.3346509  23.7837331 110.2582598
  93.6483772  22.3029871 110.2291964  79.6919361  32.2664594 113.6515527
  79.6690050  32.3652281 112.6997410  80.0019998  33.1129745 113.9732693
  82.3506739  34.3240749 117.7662141  83.3049993  34.2924691 117.6992073
  82.1519263  33.8631373 118.5812367  82.9406121  32.8941865 120.3332939
  83.7599010  33.3885944 120.3567776  83.2142929  31.9773833 120.3050506
  92.6972718  25.2852617 109.6960894  91.8098573  25.5702268 109.4781089
  93.1126707  25.1246381 108.8488171  80.7056968  39.8660368 114.7832339
  80.5711436  39.1060769 114.2170337  80.2889030  40.5901268 114.3161128
  91.8415931  35.0497292 103.7908914  92.5451781  35.2547294 104.4066570
  91.1178580  35.6174054 104.0557998  92.6713741  30.8007153 109.9111184
  92.6148943  31.2575705 109.0718817  93.2242084  30.0397838 109.7334027
  96.4818547  26.5896885 110.7361304  96.2255482  26.1893521 111.5669512
  95.8571415  27.3040679 110.6111443  83.8626094  40.7629685 114.9950782
  83.7458478  41.7075118 114.8929472  83.0418540  40.4603247 115.3836581
  93.7502629  35.4879821 105.8407374  94.5848232  35.0561019 105.6584849
  93.5886971  35.3161835 106.7684269  93.4048521  31.9911934 107.2063714
  93.3497325  31.8256206 106.2652158  92.7794576  32.6987967 107.3625903
  78.1941036  27.2279999 121.0325136  78.8399899  26.7178953 121.5212361
  77.9858187  27.9648680 121.6068561  86.7144646  21.4920043 106.7849032
  86.7023316  22.4361883 106.9417303  87.6068068  21.3090189 106.4908493
  84.8880608  41.4157947 118.2106710  85.7907855  41.4481557 118.5273205
  84.6617978  40.4858398 118.2253046  86.6434210  40.1688934 114.8716789
  85.6929841  40.1690795 114.7581161  86.9466696  39.4221668 114.3552823
  90.5296766  18.0862820 111.0394969  89.7629161  17.5321307 111.1851651
  90.9407471  18.1584689 111.9009120 102.3786904  46.0049472 115.9362551
 103.0165314  45.8856219 115.2325891 102.2607747  46.9530316 115.9950503
  99.1876610  45.9576900 115.8724076  98.8495121  45.8417965 114.9844611
 100.0566378  45.5568065 115.8525082  95.0463426  47.8112377 111.8620967
  94.4828291  47.7202314 111.0937255  94.9315821  46.9912281 112.3423459
  92.5927858  49.3063568 114.7005187  93.3849149  48.9654393 114.2851487
  92.8324508  49.4158543 115.6207341 100.6262984  51.4783344 107.1735432
  99.9750964  52.0637425 106.7869445 101.4207347  52.0089539 107.2330469
  94.5518611  48.5672481 107.5722566  95.3249487  48.0201469 107.4335442
  94.9044010  49.4316731 107.7837027  96.3903654  49.8948864 120.7789465
  96.0993520  50.7994495 120.6636132  97.0260638  49.9365391 121.4933535
  97.3159861  47.2725712 117.3690825  97.9123433  47.0481735 116.6547788
  97.3734832  46.5310458 117.9716273  96.8884889  44.7265148 105.2041016
  97.1410410  44.2046669 104.4424479  95.9509448  44.5631293 105.3067700
 101.9328172  43.7300926 113.0115759 102.7191261  43.3120349 112.6606176
 102.1966876  44.6347018 113.1797408 102.1038249  49.1673776 107.7104416
 101.4684082  49.2408403 108.4225321 101.7735656  49.7567375 107.0323495
  96.6081178  46.6293254 107.4065391  96.4917436  45.9538157 108.0746475
  96.7183438  46.1425628 106.5897544  98.9512719  46.0903401 111.1112080
  98.5870926  45.5634022 111.8225002  99.8079835  45.7001870 110.9378566
  98.5918206  41.1193300 106.1073429  98.7592608  41.9873537 106.4743900
  98.4015375  41.2820582 105.1834718 101.3493539  49.5810279 117.7739259
 101.0494262  50.4835318 117.6655066 101.0044599  49.3142462 118.6260412
  94.8006021  46.0324076 113.8075963  93.8756517  45.9000290 114.0153655
  95.0490434  46.8118295 114.3045906  98.5707427  43.5750958 107.0920095
  98.4507052  44.0208009 107.9305576  97.8760015  43.9236276 106.5333634
  92.1614832  45.6757350 114.6419753  92.2907213  45.9291829 115.5559164
  91.4812283  46.2685058 114.3224408  96.3314319  56.3454600 110.7410227
  96.2538349  57.2962425 110.8198707  95.7275963  56.0000472 111.3985153
 104.2692493  44.0472431 107.9200430 105.1810349  44.2799818 107.7448127
 103.7602140  44.6309475 107.3575508  97.0777921  46.3267918 122.9589561
  97.8192605  46.8652962 122.6824384  96.3714906  46.9534207 123.1161112
  98.9064331  43.4069666 118.9295279  99.7525526  43.8309079 119.0729928
  98.8462968  42.7503290 119.6233842 102.8762075  49.0298249 115.3114011
 102.2470938  49.1943964 114.6090079 102.4887737  49.4439859 116.0824975
 106.7551307  49.9652687 112.6658375 106.0702345  50.3451589 112.1155408
 106.8395156  50.5748014 113.3990322  98.4290037  48.7672658 112.5764096
  98.8928383  49.0460361 111.7868719  98.1646835  47.8656102 112.3937187
  95.3214118  48.3144139 115.5143859  95.8915475  48.7431407 114.8761344
  95.9122230  48.0326724 116.2128045  97.3658923  44.8895810 109.3853661
  98.0682967  45.3416854 109.8527588  97.0339552  44.2479629 110.0133554
  91.1084257  43.1479363 114.6870795  90.3183311  43.4036891 114.2110905
  91.5995505  43.9627700 114.7922835 105.1248067  50.4884602 117.4376076
 105.9465510  50.0864789 117.1558757 105.1210470  50.3852836 118.3892191
  93.0599003  43.5123942 111.6454271  92.2630166  43.6242636 112.1637767
  92.8324595  43.8510594 110.7795162  98.8904670  50.0368645 119.5936786
  98.9549103  50.4989052 120.4294958  98.1815594  49.4066010 119.7219096
  89.3921960  43.4009853 117.1185786  89.6429999  44.2856863 117.3843362
  89.9281509  43.2214455 116.3460877  98.6052688  51.7036753 109.4615766
  98.4698363  52.5488288 109.8900614  99.1462500  51.9056030 108.6981700
  92.0582085  49.2212191 110.0343692  92.5706606  50.0155441 110.1849256
  92.7104798  48.5238481 109.9677293  93.8676970  52.3377947 112.1166445
  94.0443598  53.2595912 111.9287429  94.6633803  52.0236366 112.5460824
  93.1529326  44.3842579 121.9928608  93.0382842  43.4827836 122.2935707
  92.2973844  44.6306276 121.6413424 100.2321164  52.3260319 123.5916109
  99.7885018  51.5396698 123.2737013 100.8938378  52.5139470 122.9259999
  94.9908285  53.8556121 118.1176787  95.5415711  53.7273184 117.3453781
  94.1519761  54.1551010 117.7671680  98.7875456  50.1207249 122.4621018
  99.3203793  49.3595537 122.2320326  98.2589538  49.8280900 123.2045173
  90.0231002  47.5500845 110.8103262  90.8606224  47.9597853 110.5936970
  90.2009270  46.6100287 110.7803456 101.9195434  45.2175926 106.4987095
 101.4042058  45.9880530 106.7375482 101.6472743  44.5441062 107.1220156
  99.5042545  40.0625626 111.5572333  98.6484142  39.6732477 111.3777972
  99.9169497  40.1417587 110.6972119  97.2784578  37.6810699 114.9630075
  98.1437574  37.4853508 114.6035964  97.3462087  37.4521051 115.8899432
 106.8929708  47.9708280 108.4340268 106.1159151  47.6319440 107.9895431
 107.5721189  47.9760903 107.7595234 101.7081737  43.0903018 108.3246876
 101.4031873  43.4049167 109.1757019 102.6612179  43.1684438 108.3674209
 100.1528169  49.2493241 109.9739830  99.6249531  48.5146001 109.6613068
  99.6515672  50.0267917 109.7279799 105.1321015  47.4442261 115.0906876
 104.4744690  48.1341523 115.1787005 105.9361414  47.8338693 115.4340863
  94.8846897  39.9112907 112.3346442  95.4590649  39.6888089 111.6019635
  95.4717879  39.9801602 113.0875043 103.9426474  45.7986634 113.1410818
 104.4558356  46.4316626 113.6432528 104.5927698  45.1987830 112.7754178
  95.2116484  41.9417368 106.3542327  94.3753796  42.2792055 106.6751602
  95.0721254  41.8066348 105.4169464  97.1869564  36.7854156 111.0621511
  96.5333977  36.4703173 110.4378126  97.1450039  36.1629897 111.7881334
  98.2980769  47.0673451 102.9774803  97.3907831  46.8362705 103.1765952
  98.7951801  46.2711070 103.1648785 101.2048848  55.7770958 105.8971489
 100.5310547  56.0802655 106.5056447 101.5914670  56.5800039 105.5476946
 100.4207305  43.2736090 115.3869159  99.5029866  43.4951037 115.2290847
 100.8367448  43.3482400 114.5280866 101.2042353  44.6727505 110.5171839
 101.9514172  45.1848903 110.2078961 101.4733942  44.3511558 111.3776233
  99.4769003  47.1686046 107.4998793  98.5680222  46.8845079 107.5971263
  99.5064087  47.5885125 106.6402100 104.7088270  50.7792636 111.2689961
 104.2550597  49.9383545 111.3255151 104.0782237  51.4154034 111.6064741
 103.6521190  41.7084622 112.4990628 102.9143947  41.1962008 112.8300871
 103.9047963  41.2685003 111.6873905 103.1521209  52.6169132 112.2039779
 103.4444184  53.1774189 111.4852145 103.6619830  52.9097693 112.9592938
  90.0457173  44.8891560 111.4813996  89.8481573  44.2960921 110.7565062
  89.4903837  44.5843770 112.1989934  98.0253897  44.7814667 113.6008589
  98.0802507  43.8288503 113.5251065  97.2145099  44.9374106 114.0849887
  99.1745091  48.7094790 104.8386872  98.7364520  47.9930649 104.3792509
  99.9155531  48.9370905 104.2771963  95.9646257  43.3991726 111.3598968
  95.1514122  43.6985897 111.7664160  96.4605251  43.0047415 112.0773450
  98.1154835  53.3949483 113.2933232  98.0731013  53.6210330 112.3641764
  99.0317533  53.1612858 113.4419033 107.2918205  46.9851987 110.8963190
 107.1536104  47.1753583 109.9684380 106.9354424  47.7471370 111.3531242
  95.4560331  40.9710082 116.9760202  96.0959711  40.8298841 116.2783166
  94.6237862  40.6844595 116.5998804  96.2320635  50.2712512 113.0895195
  97.0261234  49.7762833 112.8877770  95.5212328  49.7430376 112.7262900
 101.0515480  52.6530608 117.4407563 101.1052502  53.2221544 118.2085278
 100.1830261  52.8232493 117.0761600  92.5403399  44.4155594 109.1654948
  91.6100987  44.3540050 109.3824910  92.6360871  43.8931547 108.3691589
  92.4588948  40.9410407 111.7533189  92.7195765  41.8555740 111.6442350
  93.2806120  40.4734850 111.9029802  93.9313873  42.3548164 118.9232014
  94.6036927  42.1465526 118.2744663  93.1043660  42.1570250 118.4837246
 100.0103580  46.8190870 118.9994494 100.9395640  46.9702030 118.8263462
  99.5894610  46.9074891 118.1443141  98.8091911  50.8441534 116.7693032
  98.6702997  50.4760319 117.6418970  98.0206508  51.3589174 116.5976990
  99.4040063  55.9450631 108.1118569  99.5791819  55.4738674 108.9264191
  98.7172851  56.5716397 108.3399829 100.3597127  50.2223137 114.1581870
 100.0246959  50.1823907 115.0539520  99.8601072  49.5567853 113.6852280
  94.3341370  45.6290767 119.6834451  94.1961168  44.8971006 120.2845990
  95.2446294  45.5399667 119.4018639 103.2956318  47.5679171 104.4318929
 102.6785489  46.8426000 104.3351982 102.8272807  48.3288532 104.0886004
  96.9623671  45.3410726 119.1718131  97.6723290  44.7003919 119.1304749
  96.9192979  45.5923621 120.0944311  95.6752605  42.3275944 120.9913770
  95.1389962  41.8766683 121.6435366  95.0869314  42.4621853 120.2484234
  93.9701149  59.0939994 114.8858429  94.2097747  59.7258518 115.5637447
  93.1270345  58.7428034 115.1723788  95.0854864  41.7864596 103.5540234
  94.2084330  41.6653397 103.1902480  95.5612617  40.9950674 103.3019122
  86.6057004  46.5741755 113.6481741  87.2928044  46.2603485 113.0602756
  86.4505133  47.4783120 113.3748992  91.4091726  41.4631952 118.0766765
  91.3249915  40.8557622 117.3417175  90.5874433  41.9540970 118.0776261
  98.4829011  54.9019116 117.2899933  98.4099182  55.7074088 117.8019237
  98.0406404  55.1011082 116.4647954  98.2718790  54.1390886 110.8002754
  97.4886312  54.6812566 110.8940979  98.9711535  54.6564866 111.1996995
 101.5815440  39.9485516 113.4436960 102.0784140  39.1955478 113.1238030
 100.8102422  39.9849832 112.8780169 100.9427694  54.8005950 119.4458091
 101.6555666  55.4353415 119.3733993 100.4517723  54.8969816 118.6298093
 102.6645221  48.7057203 111.0175383 101.7301500  48.8258665 110.8480087
 102.8421889  47.8029670 110.7535393  98.1650409  42.0902899 113.1708644
  97.7948197  41.5373939 113.8589550  98.6609501  41.4861032 112.6183644
 106.0517772  44.5474522 111.5525417 106.5178224  45.3802514 111.4785720
 106.5025273  44.0819504 112.2570676  95.9939608  52.5500394 120.2663662
  96.6949067  53.1836877 120.4193056  95.5234723  52.8915125 119.5059301
 104.1194003  50.8918343 108.5511569 104.3953847  50.7774938 109.4605443
 103.2498502  50.4935828 108.5123742 100.7548067  55.1404694 112.1944383
 100.9370462  54.3226350 112.6572135 101.5781053  55.3572386 111.7569273
 101.0890233  54.0672879 109.4559431 101.6177999  53.5565334 108.8429593
 101.3518452  53.7515410 110.3204964  91.5907326  52.0836749 117.1994765
  92.1760762  51.3380437 117.3322669  91.3932164  52.3940705 118.0831429
  94.4445981  55.1187996 112.2157207  93.7756356  55.6034124 111.7321247
  94.3058851  55.3657216 113.1300586  86.1824980  44.6542349 115.9199208
  86.2209080  44.1205940 116.7136326  85.6765273  44.1277554 115.3010185
  98.5851249  57.1531740 118.8139866  99.1369557  57.3163361 119.5788951
  98.9257443  57.7436177 118.1419890  93.5615743  39.5006889 119.4161750
  93.6257069  40.3621720 119.0039148  93.4982863  38.8880891 118.6834109
  89.8133558  43.3806451 108.9953139  90.1086999  42.4717129 108.9420193
  88.9121594  43.3594190 108.6734142 101.7219637  55.1013715 115.8003548
 101.5970776  54.3003455 115.2914493 102.3798728  55.5959908 115.3117518
  93.3427805  41.4562448 114.9780688  92.6214391  42.0698415 114.8388161
  94.1321061  41.9920212 114.8997334 103.7854545  52.9022735 117.4283098
 102.8384881  52.7828086 117.3561425 104.1337318  52.0145233 117.5109359
  91.5421400  41.0620549 109.1192465  91.2134106  40.1817928 108.9367570
  91.8960770  41.0068217 110.0068854 100.7900978  52.6975451 113.6287450
 100.6425941  51.7692159 113.8095020 101.6154472  52.7195542 113.1444525
  94.6563223  41.3493518 109.4867942  94.9959295  41.8779440 108.7646551
  95.1035343  41.6873925 110.2626509 104.3935100  53.5204010 114.7152323
 105.3181648  53.3146871 114.5776774 104.2250404  53.2720411 115.6241664
  96.6431370  39.8468140 107.6861235  97.3639732  40.2249393 107.1824952
  96.0196674  40.5657017 107.7896213 100.7862493  40.5513289 108.6219567
 101.0026107  41.4337927 108.3208395 100.3056560  40.1599502 107.8925209
  95.5261714  43.5099002 115.1990312  95.3806295  43.8239305 116.0914593
  95.0486918  44.1283903 114.6461211  97.3858097  40.5001550 115.2471201
  97.3719666  39.6042644 114.9103499  98.1030525  40.5072214 115.8809488
  99.2384228  40.9338890 117.2924329  98.9802006  41.8555961 117.2908659
  98.7069268  40.5369325 117.9824793 104.1830416  54.0389678 110.0714414
 104.3567294  53.4736100 109.3188267 104.6759308  54.8390572 109.8893904
  90.0007376  46.0504347 118.1377973  89.4560844  46.8264155 118.2698247
  90.8786726  46.3975151 117.9797095  96.7894993  39.3815930 110.5158772
  96.9110904  38.4532577 110.7149659  96.4997035  39.3954616 109.6037087
  99.6586183  37.0670841 113.6525491  99.6807880  37.1310174 112.6977471
 100.0754242  36.2275350 113.8465998 110.0369808  46.8026100 111.6904714
 110.4800954  46.0533426 111.2923837 109.1596318  46.7936237 111.3078446
 105.1705589  53.3556442 107.1711313 105.8656494  53.9763135 107.3898627
 105.5128739  52.5051793 107.4463690  90.7873398  45.1774243 121.0308130
  90.0455134  45.3256878 121.6172760  90.4666142  45.4382508 120.1674879
 107.0697012  50.8056147 108.6998643 107.5948336  51.1443420 107.9747963
 106.9819365  49.8703163 108.5161778  98.7317061  54.7190221 120.8288520
  99.0404187  54.4739368 121.7011220  99.5292543  54.9236860 120.3407390
  98.7537673  56.8728131 113.0593897  98.3142663  56.3804509 113.7526753
  99.5045790  56.3301098 112.8185972  91.2330012  53.0639672 113.0618525
  92.0588032  52.7643443 112.6817168  90.8824064  52.2947294 113.5108313
  96.2011545  52.4166140 115.1316198  95.5791554  51.7536845 114.8318426
  96.8716412  52.4427272 114.4489846  89.4338617  50.9825998 114.0207458
  88.5970525  50.5548172 113.8391459  89.4062262  51.1758441 114.9578249
  95.7625052  50.9670063 108.6074659  95.9113172  51.6505528 107.9541331
  96.5691495  50.9475153 109.1224114  93.5177685  46.9935241 109.6135728
  93.2723727  46.0897571 109.8115938  93.6873599  46.9952391 108.6715206
  92.7873332  42.7263598 107.1121889  92.0942577  42.8007953 106.4561925
  92.5425084  41.9623942 107.6343406  99.2620457  53.4618194 106.0786406
  98.6894424  54.0808381 105.6256878  99.8353251  54.0117555 106.6126328
 102.4817717  53.7455344 107.2094988 103.4148390  53.6800905 107.4127864
 102.3940930  54.5811611 106.7509521 105.1105734  53.0621214 104.1698936
 105.0319365  52.7281078 105.0634694 105.9315401  53.5542982 104.1690408
  99.6467256  44.7979006 103.4202459 100.5926361  44.6685214 103.4890877
  99.2681501  44.0593668 103.8971887  97.8310173  42.7228983 103.3557344
  96.9241628  42.4262095 103.4320057  98.1086154  42.4258801 102.4891630
  88.7488113  44.0435346 113.8056390  88.4290898  43.1900654 113.5130764
  88.2021542  44.2583924 114.5614358  92.5268021  46.7597787 117.5225897
  92.7454031  47.6914895 117.5413931  92.9393795  46.4005762 118.3080701
  99.4472239  37.2665872 109.5101585  98.6372967  36.9212957 109.8856831
 100.1356656  36.9573416 110.0989197 101.3762787  36.3443919 111.1325882
 101.9293826  36.7639373 111.7915905 101.6132873  35.4179667 111.1748838
  96.6008958  39.5815918 103.4969323  97.4628122  39.9070816 103.7565140
  96.7859302  38.7947414 102.9842389  88.6176373  47.6638258 115.7749512
  87.9239845  47.2492210 115.2619466  89.3649364  47.7058794 115.1782931
 104.7541594  38.4544444 110.6404546 104.1740263  39.1129248 110.2582598
 104.4877527  37.6321789 110.2291964  90.5313116  47.5956511 113.6515527
  90.5083804  47.6944199 112.6997410  90.8413752  48.4421662 113.9732693
  93.1900494  49.6532666 117.7662141  94.1443747  49.6216609 117.6992073
  92.9913017  49.1923290 118.5812367  93.7799876  48.2233783 120.3332939
  94.5992765  48.7177861 120.3567776  94.0536684  47.3065751 120.3050506
 103.5366472  40.6144535 109.6960894 102.6492327  40.8994185 109.4781089
 103.9520461  40.4538298 108.8488171  91.5450723  55.1952286 114.7832339
  91.4105191  54.4352687 114.2170337  91.1282785  55.9193186 114.3161128
 102.6809686  50.3789209 103.7908914 103.3845536  50.5839212 104.4066570
 101.9572334  50.9465971 104.0557998 103.5107496  46.1299071 109.9111184
 103.4542697  46.5867622 109.0718817 104.0635838  45.3689755 109.7334027
 107.3212302  41.9188803 110.7361304 107.0649236  41.5185438 111.5669512
 106.6965170  42.6332597 110.6111443  94.7019848  56.0921603 114.9950782
  94.5852233  57.0367035 114.8929472  93.8812295  55.7895165 115.3836581
 104.5896383  50.8171739 105.8407374 105.4241987  50.3852937 105.6584849
 104.4280726  50.6453752 106.7684269 104.2442275  47.3203852 107.2063714
 104.1891079  47.1548123 106.2652158 103.6188330  48.0279885 107.3625903
  89.0334790  42.5571916 121.0325136  89.6793654  42.0470870 121.5212361
  88.8251941  43.2940598 121.6068561  97.5538401  36.8211961 106.7849032
  97.5417070  37.7653801 106.9417303  98.4461823  36.6382106 106.4908493
  95.7274363  56.7449865 118.2106710  96.6301609  56.7773475 118.5273205
  95.5011733  55.8150316 118.2253046  97.4827965  55.4980851 114.8716789
  96.5323596  55.4982713 114.7581161  97.7860451  54.7513586 114.3552823
 101.3690520  33.4154738 111.0394969 100.6022916  32.8613224 111.1851651
 101.7801225  33.4876606 111.9009120 110.0270364  61.2868818 115.8724076
 109.6888876  61.1709883 114.9844611 110.8960133  60.8859983 115.8525082
 105.8857180  63.1404294 111.8620967 105.3222045  63.0494231 111.0937255
 105.7709575  62.3204199 112.3423459 103.4321612  64.6355486 114.7005187
 104.2242904  64.2946311 114.2851487 103.6718262  64.7450461 115.6207341
 111.4656739  66.8075262 107.1735432 110.8144719  67.3929342 106.7869445
 112.2601102  67.3381457 107.2330469 105.3912366  63.8964399 107.5722566
 106.1643242  63.3493386 107.4335442 105.7437765  64.7608648 107.7837027
 107.7278644  60.0557065 105.2041016 107.9804164  59.5338587 104.4424479
 106.7903203  59.8923211 105.3067700 112.7721927  59.0592844 113.0115759
 113.5585016  58.6412267 112.6606176 113.0360631  59.9638936 113.1797408
 112.9432004  64.4965694 107.7104416 112.3077837  64.5700320 108.4225321
 112.6129410  65.0859293 107.0323495 107.4474933  61.9585171 107.4065391
 107.3311191  61.2830075 108.0746475 107.5577192  61.4717545 106.5897544
 109.7906473  61.4195318 111.1112080 109.4264681  60.8925939 111.8225002
 110.6473589  61.0293787 110.9378566 109.4311960  56.4485218 106.1073429
 109.5986363  57.3165454 106.4743900 109.2409130  56.6112500 105.1834718
 105.6399775  61.3615994 113.8075963 104.7150272  61.2292208 114.0153655
 105.8884188  62.1410213 114.3045906 109.4101181  58.9042876 107.0920095
 109.2900807  59.3499926 107.9305576 108.7153770  59.2528193 106.5333634
 103.0008586  61.0049267 114.6419753 103.1300967  61.2583746 115.5559164
 102.3206037  61.5976975 114.3224408 107.1708073  71.6746517 110.7410227
 107.0932103  72.6254342 110.8198707 106.5669717  71.3292390 111.3985153
 115.1086247  59.3764349 107.9200430 116.0204104  59.6091735 107.7448127
 114.5995895  59.9601393 107.3575508 109.2683792  64.0964575 112.5764096
 109.7322137  64.3752278 111.7868719 109.0040590  63.1948020 112.3937187
 106.1607873  63.6436057 115.5143859 106.7309230  64.0723325 114.8761344
 106.7515985  63.3618642 116.2128045 108.2052678  60.2187728 109.3853661
 108.9076721  60.6708771 109.8527588 107.8733306  59.5771546 110.0133554
 101.9478012  58.4771280 114.6870795 101.1577066  58.7328809 114.2110905
 102.4389259  59.2919618 114.7922835 103.8992757  58.8415860 111.6454271
 103.1023920  58.9534554 112.1637767 103.6718349  59.1802512 110.7795162
 100.2315715  58.7301771 117.1185786 100.4823753  59.6148781 117.3843362
 100.7675263  58.5506372 116.3460877 109.4446442  67.0328670 109.4615766
 109.3092117  67.8780206 109.8900614 109.9856255  67.2347948 108.6981700
 102.8975840  64.5504108 110.0343692 103.4100360  65.3447359 110.1849256
 103.5498553  63.8530399 109.9677293 104.7070724  67.6669865 112.1166445
 104.8837353  68.5887829 111.9287429 105.5027558  67.3528284 112.5460824
 100.8624757  62.8792763 110.8103262 101.6999979  63.2889771 110.5936970
 101.0403024  61.9392205 110.7803456 112.7589189  60.5467843 106.4987095
 112.2435812  61.3172448 106.7375482 112.4866497  59.8732979 107.1220156
 110.3436300  55.3917544 111.5572333 109.4877896  55.0024394 111.3777972
 110.7563251  55.4709505 110.6972119 108.1178332  53.0102617 114.9630075
 108.9831329  52.8145426 114.6035964 108.1855841  52.7812969 115.8899432
 117.7323463  63.3000198 108.4340268 116.9552906  62.9611357 107.9895431
 118.4114944  63.3052821 107.7595234 112.5475492  58.4194935 108.3246876
 112.2425627  58.7341085 109.1757019 113.5005934  58.4976355 108.3674209
 110.9921924  64.5785159 109.9739830 110.4643285  63.8437918 109.6613068
 110.4909426  65.3559835 109.7279799 105.7240651  55.2404825 112.3346442
 106.2984403  55.0180006 111.6019635 106.3111634  55.3093519 113.0875043
 114.7820228  61.1278552 113.1410818 115.2952110  61.7608544 113.6432528
 115.4321452  60.5279747 112.7754178 106.0510238  57.2709286 106.3542327
 105.2147551  57.6083973 106.6751602 105.9115008  57.1358266 105.4169464
 108.0263319  52.1146074 111.0621511 107.3727731  51.7995091 110.4378126
 107.9843793  51.4921814 111.7881334 109.1374524  62.3965369 102.9774803
 108.2301586  62.1654622 103.1765952 109.6345556  61.6002988 103.1648785
 112.0442603  71.1062876 105.8971489 111.3704301  71.4094573 106.5056447
 112.4308425  71.9091956 105.5476946 111.2601059  58.6028007 115.3869159
 110.3423621  58.8242954 115.2290847 111.6761203  58.6774318 114.5280866
 112.0436107  60.0019423 110.5171839 112.7907926  60.5140820 110.2078961
 112.3127697  59.6803476 111.3776233 110.3162757  62.4977964 107.4998793
 109.4073977  62.2136997 107.5971263 110.3457841  62.9177042 106.6402100
 114.4914944  57.0376539 112.4990628 113.7537701  56.5253926 112.8300871
 114.7441718  56.5976921 111.6873905 100.8850928  60.2183478 111.4813996
 100.6875327  59.6252839 110.7565062 100.3297592  59.9135688 112.1989934
 108.8647651  60.1106584 113.6008589 108.9196261  59.1580421 113.5251065
 108.0538853  60.2666023 114.0849887 110.0138845  64.0386707 104.8386872
 109.5758275  63.3222566 104.3792509 110.7549286  64.2662822 104.2771963
 106.8040011  58.7283644 111.3598968 105.9907877  59.0277815 111.7664160
 107.2999005  58.3339333 112.0773450 118.1311960  62.3143904 110.8963190
 117.9929858  62.5045500 109.9684380 117.7748179  63.0763287 111.3531242
 106.2954086  56.3002000 116.9760202 106.9353465  56.1590759 116.2783166
 105.4631617  56.0136513 116.5998804 107.0714390  65.6004430 113.0895195
 107.8654988  65.1054750 112.8877770 106.3606082  65.0722293 112.7262900
 103.3797153  59.7447512 109.1654948 102.4494741  59.6831967 109.3824910
 103.4754625  59.2223465 108.3691589 103.2982702  56.2702325 111.7533189
 103.5589520  57.1847658 111.6442350 104.1199875  55.8026767 111.9029802
 104.7707628  57.6840082 118.9232014 105.4430681  57.4757444 118.2744663
 103.9437414  57.4862168 118.4837246 110.2433818  71.2742549 108.1118569
 110.4185574  70.8030592 108.9264191 109.5566606  71.9008315 108.3399829
 114.1350073  62.8971089 104.4318929 113.5179243  62.1717917 104.3351982
 113.6666561  63.6580449 104.0886004 105.9248619  57.1156513 103.5540234
 105.0478085  56.9945314 103.1902480 106.4006372  56.3242592 103.3019122
  97.4450759  61.9033673 113.6481741  98.1321799  61.5895403 113.0602756
  97.2898887  62.8075038 113.3748992 102.2485481  56.7923870 118.0766765
 102.1643670  56.1849539 117.3417175 101.4268187  57.2832888 118.0776261
 109.1112545  69.4682804 110.8002754 108.3280067  70.0104484 110.8940979
 109.8105290  69.9856783 111.1996995 112.4209195  55.2777433 113.4436960
 112.9177894  54.5247396 113.1238030 111.6496176  55.3141750 112.8780169
 113.5038975  64.0349120 111.0175383 112.5695254  64.1550583 110.8480087
 113.6815644  63.1321587 110.7535393 109.0044163  57.4194816 113.1708644
 108.6341951  56.8665857 113.8589550 109.5003256  56.8152950 112.6183644
 116.8911527  59.8766440 111.5525417 117.3571979  60.7094431 111.4785720
 117.3419027  59.4111421 112.2570676 114.9587758  66.2210261 108.5511569
 115.2347602  66.1066856 109.4605443 114.0892257  65.8227746 108.5123742
 111.9283987  69.3964797 109.4559431 112.4571754  68.8857252 108.8429593
 112.1912207  69.0807327 110.3204964  97.0218735  59.9834266 115.9199208
  97.0602834  59.4497857 116.7136326  96.5159028  59.4569472 115.3010185
 104.4009497  54.8298807 119.4161750 104.4650824  55.6913638 119.0039148
 104.3376617  54.2172809 118.6834109 100.6527312  58.7098369 108.9953139
 100.9480754  57.8009047 108.9420193  99.7515348  58.6886108 108.6734142
 104.1821559  56.7854365 114.9780688 103.4608145  57.3990333 114.8388161
 104.9714815  57.3212130 114.8997334 102.3815154  56.3912466 109.1192465
 102.0527860  55.5109845 108.9367570 102.7354525  56.3360135 110.0068854
 105.4956977  56.6785436 109.4867942 105.8353050  57.2071357 108.7646551
 105.9429098  57.0165842 110.2626509 107.4825124  55.1760058 107.6861235
 108.2033487  55.5541310 107.1824952 106.8590428  55.8948935 107.7896213
 111.6256247  55.8805207 108.6219567 111.8419862  56.7629845 108.3208395
 111.1450314  55.4891420 107.8925209 106.3655469  58.8390920 115.1990312
 106.2200049  59.1531223 116.0914593 105.8880672  59.4575820 114.6461211
 108.2251851  55.8293468 115.2471201 108.2113420  54.9334561 114.9103499
 108.9424280  55.8364132 115.8809488 110.0777982  56.2630808 117.2924329
 109.8195760  57.1847879 117.2908659 109.5463023  55.8661243 117.9824793
 100.8401131  61.3796264 118.1377973 100.2954599  62.1556072 118.2698247
 101.7180481  61.7267069 117.9797095 107.6288747  54.7107848 110.5158772
 107.7504659  53.7824494 110.7149659 107.3390790  54.7246534 109.6037087
 110.4979938  52.3962759 113.6525491 110.5201635  52.4602092 112.6977471
 110.9147997  51.5567267 113.8465998 116.0099343  68.6848360 107.1711313
 116.7050248  69.3055052 107.3898627 116.3522494  67.8343711 107.4463690
 117.9090767  66.1348065 108.6998643 118.4342091  66.4735338 107.9747963
 117.8213119  65.1995080 108.5161778 102.0723766  68.3931589 113.0618525
 102.8981786  68.0935361 112.6817168 101.7217818  67.6239212 113.5108313
 100.2732371  66.3117916 114.0207458  99.4364280  65.8840090 113.8391459
 100.2456017  66.5050359 114.9578249 106.6018806  66.2961981 108.6074659
 106.7506927  66.9797445 107.9541331 107.4085250  66.2767071 109.1224114
 104.3571439  62.3227158 109.6135728 104.1117481  61.4189488 109.8115938
 104.5267354  62.3244309 108.6715206 103.6267087  58.0555516 107.1121889
 102.9336332  58.1299871 106.4561925 103.3818839  57.2915860 107.6343406
 110.1014212  68.7910111 106.0786406 109.5288179  69.4100298 105.6256878
 110.6747006  69.3409473 106.6126328 113.3211472  69.0747261 107.2094988
 114.2542145  69.0092823 107.4127864 113.2334684  69.9103528 106.7509521
 115.9499488  68.3913132 104.1698936 115.8713120  68.0572995 105.0634694
 116.7709155  68.8834900 104.1690408 110.4861010  60.1270924 103.4202459
 111.4320115  59.9977132 103.4890877 110.1075255  59.3885586 103.8971887
 108.6703928  58.0520900 103.3557344 107.7635383  57.7554013 103.4320057
 108.9479909  57.7550719 102.4891630  99.5881868  59.3727264 113.8056390
  99.2684652  58.5192572 113.5130764  99.0415296  59.5875842 114.5614358
 103.3661775  62.0889705 117.5225897 103.5847785  63.0206813 117.5413931
 103.7787549  61.7297679 118.3080701 110.2865993  52.5957790 109.5101585
 109.4766722  52.2504875 109.8856831 110.9750410  52.2865334 110.0989197
 112.2156542  51.6735837 111.1325882 112.7687580  52.0931290 111.7915905
 112.4526628  50.7471585 111.1748838 107.4402712  54.9107836 103.4969323
 108.3021876  55.2362734 103.7565140 107.6253056  54.1239332 102.9842389
  99.4570128  62.9930175 115.7749512  98.7633599  62.5784128 115.2619466
 100.2043119  63.0350712 115.1782931 115.5935349  53.7836362 110.6404546
 115.0134018  54.4421166 110.2582598 115.3271281  52.9613707 110.2291964
 101.3706870  62.9248429 113.6515527 101.3477559  63.0236116 112.6997410
 101.6807507  63.7713580 113.9732693 114.3760227  55.9436452 109.6960894
 113.4886082  56.2286103 109.4781089 114.7914216  55.7830216 108.8488171
 113.5203440  65.7081127 103.7908914 114.2239290  65.9131130 104.4066570
 112.7966089  66.2757889 104.0557998 114.3501250  61.4590988 109.9111184
 114.2936452  61.9159540 109.0718817 114.9029593  60.6981673 109.7334027
 118.1606056  57.2480720 110.7361304 117.9042991  56.8477356 111.5669512
 117.5358924  57.9624514 110.6111443 115.4290138  66.1463656 105.8407374
 116.2635741  65.7144855 105.6584849 115.2674480  65.9745670 106.7684269
 115.0836030  62.6495770 107.2063714 115.0284833  62.4840041 106.2652158
 114.4582085  63.3571803 107.3625903  99.8728545  57.8863834 121.0325136
 100.5187408  57.3762788 121.5212361  99.6645696  58.6232516 121.6068561
 108.3932155  52.1503879 106.7849032 108.3810825  53.0945719 106.9417303
 109.2855577  51.9674024 106.4908493 112.2084275  48.7446655 111.0394969
 111.4416670  48.1905142 111.1851651 112.6194980  48.8168524 111.9009120
 116.8903993  72.6001204 106.3542327 116.0541305  72.9375890 106.6751602
 116.7508762  72.4650183 105.4169464 116.7642373  72.4448431 103.5540234
 115.8871839  72.3237232 103.1902480 117.2400126  71.6534509 103.3019122
 114.4660841  73.3847434 107.1121889 113.7730086  73.4591789 106.4561925
 114.2212593  72.6207777 107.6343406 119.5097682  73.3812818 103.3557344
 118.6029137  73.0845931 103.4320057 119.7873663  73.0842636 102.4891630
 118.2796467  70.2399753 103.4969323 119.1415631  70.5654652 103.7565140
 118.4646811  69.4531249 102.9842389 119.2325910  67.4795796 106.7849032
 119.2204579  68.4237636 106.9417303 120.1249332  67.2965942 106.4908493
  74.6526811   2.6932887  97.4655533  74.5750841   3.6440712  97.5444014
  74.0488455   2.3478759  98.1230460  72.2913641   5.4418281 101.6103735
  72.5310239   6.0736805 102.2882754  71.4482837   5.0906321 101.8969095
  72.7658473   1.4666283  98.9402514  72.0968848   1.9512411  98.4566554
  72.6271343   1.7135504  99.8545892  76.9063742   3.5010027 105.5385172
  77.4582050   3.6641648 106.3034257  77.2469935   4.0914465 104.8665197
  77.0750165   3.2206418  99.7839203  76.6355155   2.7282797 100.4772060
  77.8258282   2.6779386  99.5431278  69.8663215   1.5430573 101.5077646
  69.7317683   0.7830974 100.9415644  69.4495277   2.2671473 101.0406435
  73.0232341   2.4399890 101.7196088  72.9064725   3.3845323 101.6174779
  72.2024787   2.1373452 102.1081888  74.0486855   3.0928152 104.9352017
  74.9514102   3.1251762 105.2518512  73.8224225   2.1628603 104.9498353
  88.3482857   7.6347105 102.5969382  88.0101368   7.5188170 101.7089917
  89.2172625   7.2338270 102.5770389  84.2069672   9.4882582  98.5866273
  83.6434538   9.3972519  97.8182561  84.0922067   8.6682486  99.0668766
  81.7534104  10.9833773 101.4250494  82.5455396  10.6424598 101.0096793
  81.9930754  11.0928748 102.3452647  89.7869231  13.1553549  93.8980738
  89.1357211  13.7407630  93.5114752  90.5813594  13.6859744  93.9575776
  83.7124858  10.2442686  94.2967873  84.4855734   9.6971674  94.1580748
  84.0650257  11.1086936  94.5082334  85.5509901  11.5719069 107.5034772
  85.2599767  12.4764700 107.3881438  86.1866885  11.6135596 108.2178842
  86.4766108   8.9495917 104.0936132  87.0729680   8.7251940 103.3793095
  86.5341079   8.2080663 104.6961579  86.0491136   6.4035353  91.9286323
  86.3016657   5.8816874  91.1669786  85.1115695   6.2401498  92.0313006
  91.2644496  10.8443981  94.4349723  90.6290329  10.9178608  95.1470627
  90.9341903  11.4337580  93.7568802  85.7687425   8.3063458  94.1310698
  85.6523683   7.6308362  94.7991782  85.8789685   7.8195832  93.3142851
  88.1118966   7.7673606  97.8357387  87.7477173   7.2404227  98.5470308
  88.9686082   7.3772075  97.6623872  90.5099786  11.2580484 104.4984566
  90.2100509  12.1605523 104.3900373  90.1650845  10.9912667 105.3505719
  83.9612267   7.7094281 100.5321270  83.0362764   7.5770495 100.7398962
  84.2096681   8.4888500 101.0291212  81.3221078   7.3527555 101.3665059
  81.4513460   7.6062034 102.2804471  80.6418530   7.9455263 101.0469714
  85.4920566  18.0224805  97.4655533  85.4144595  18.9732630  97.5444014
  84.8882209  17.6770677  98.1230460  86.2384168   8.0038123 109.6834867
  86.9798852   8.5423167 109.4069691  85.5321153   8.6304412 109.8406419
  92.0368322  10.7068454 102.0359318  91.4077184  10.8714169 101.3335385
  91.6493984  11.1210064 102.8070282  95.9157554  11.6422892  99.3903681
  95.2308592  12.0221794  98.8400715  96.0001403  12.2518219 100.1235629
  87.5896284  10.4442863  99.3009403  88.0534629  10.7230565  98.5114025
  87.3253082   9.5426307  99.1182493  84.4820365   9.9914344 102.2389166
  85.0521722  10.4201612 101.6006650  85.0728477   9.7096929 102.9373352
  86.5265170   6.5666015  96.1098968  87.2289213   7.0187059  96.5772894
  86.1945798   5.9249834  96.7378861  80.2690504   4.8249568 101.4116101
  79.4789558   5.0807096 100.9356212  80.7601751   5.6397905 101.5168142
  94.2854314  12.1654807 104.1621382  95.1071757  11.7634994 103.8804064
  94.2816716  12.0623041 105.1137498  82.2205249   5.1894147  98.3699578
  81.4236413   5.3012841  98.8883074  81.9930842   5.5280799  97.5040469
  88.0510917  11.7138850 106.3182093  88.1155349  12.1759257 107.1540265
  87.3421841  11.0836215 106.4464403  78.5528207   5.0780058 103.8431092
  78.8036245   5.9627068 104.1088668  79.0887755   4.8984660 103.0706184
  87.7658935  13.3806958  96.1861073  87.6304609  14.2258493  96.6145921
  88.3068747  13.5826235  95.4227007  81.2188332  10.8982396  96.7588998
  81.7312853  11.6925646  96.9094563  81.8711045  10.2008686  96.6922600
  83.0283217  14.0148152  98.8411751  83.2049845  14.9366117  98.6532735
  83.8240050  13.7006571  99.2706131  82.3135573   6.0612784 108.7173915
  82.1989088   5.1598041 109.0181013  81.4580091   6.3076480 108.3658731
  89.3927411  14.0030524 110.3161415  88.9491265  13.2166903 109.9982320
  90.0544625  14.1909675 109.6505306  84.1514532  15.5326326 104.8422094
  84.7021957  15.4043389 104.0699088  83.3126008  15.8321215 104.4916986
  87.9481703  11.7977453 109.1866325  88.4810040  11.0365742 108.9565633
  87.4195784  11.5051105 109.9290479  79.1837249   9.2271050  97.5348569
  80.0212471   9.6368058  97.3182276  79.3615516   8.2870492  97.5048763
  96.0535955   9.6478485  95.1585575  95.2765398   9.3089645  94.7140737
  96.7327436   9.6531108  94.4840540  89.3134416  10.9263446  96.6985137
  88.7855777  10.1916205  96.3858374  88.8121919  11.7038122  96.4525105
  94.2927262   9.1212466 101.8152183  93.6350936   9.8111728 101.9032312
  95.0967661   9.5108898 102.1586169  87.4587016   8.7443656  89.7020110
  86.5514078   8.5132910  89.9011259  87.9558048   7.9481275  89.8894091
  90.3655095  17.4541163  92.6216796  89.6916794  17.7572860  93.2301754
  90.7520917  18.2570244  92.2722253  88.6375250   8.8456251  94.2244100
  87.7286469   8.5615284  94.3216570  88.6670333   9.2655330  93.3647407
  93.8694517  12.4562841  97.9935268  93.4156844  11.6153750  98.0500458
  93.2388484  13.0924239  98.3310048  92.3127456  14.2939337  98.9285086
  92.6050431  14.8544394  98.2097451  92.8226077  14.5867898  99.6838245
  79.2063420   6.5661765  98.2059302  79.0087820   5.9731126  97.4810369
  78.6510084   6.2613975  98.9235241  88.3351337  10.3864995  91.5632179
  87.8970767   9.6700854  91.1037816  89.0761778  10.6141110  91.0017270
  87.2761081  15.0719688 100.0178539  87.2337260  15.2980535  99.0887071
  88.1923780  14.8383063 100.1664340  85.3926882  11.9482717  99.8140502
  86.1867481  11.4533037  99.6123077  84.6818575  11.4200580  99.4508207
  90.2121727  14.3300813 104.1652869  90.2658749  14.8991749 104.9330585
  89.3436508  14.5002698 103.8006906  81.7009646   6.0925799  95.8900254
  80.7707234   6.0310255  96.1070216  81.7967118   5.5701752  95.0936896
  89.1709826   8.4961075 105.7239801  90.1001886   8.6472235 105.5508768
  88.7500856   8.5845096 104.8688448  87.9698158  12.5211739 103.4938339
  87.8309244  12.1530524 104.3664277  87.1812754  13.0359379 103.3222296
  88.5646310  17.6220836  94.8363875  88.7398066  17.1508879  95.6509498
  87.8779098  18.2486602  95.0645136  89.5203373  11.8993342 100.8827176
  89.1853206  11.8594112 101.7784826  89.0207319  11.2338058 100.4097587
  83.4947617   7.3060972 106.4079758  83.3567415   6.5741211 107.0091297
  84.4052541   7.2169872 106.1263945  92.4562565   9.2449376  91.1564236
  91.8391736   8.5196205  91.0597289  91.9879053  10.0058737  90.8131310
  86.1229918   7.0180931 105.8963437  86.8329536   6.3774124 105.8550056
  86.0799226   7.2693826 106.8189618  83.1307395  20.7710199 101.6103735
  83.3703994  21.4028723 102.2882754  82.2876592  20.4198239 101.8969095
  75.7663251   8.2511960 100.3727048  76.4534291   7.9373690  99.7848063
  75.6111380   9.1553325 100.0994299  87.6435257  16.5789321 104.0145239
  87.5705429  17.3844292 104.5264544  87.2012650  16.7781287 103.1893261
  87.4325037  15.8161091  97.5248061  86.6492559  16.3582771  97.6186285
  88.1317782  16.3335071  97.9242302  90.1033941  16.4776155 106.1703398
  90.8161913  17.1123620 106.0979299  89.6123969  16.5740021 105.3543400
  91.8251468  10.3827408  97.7420690  90.8907746  10.5028870  97.5725394
  92.0028136   9.4799874  97.4780700  85.1545854  14.2270598 106.9908969
  85.8555314  14.8607081 107.1438363  84.6840969  14.5685330 106.2304608
  93.2800250  12.5688548  95.2756876  93.5560094  12.4545143  96.1850750
  92.4104749  12.1706033  95.2369049  89.9154314  16.8174899  98.9189689
  90.0976709  15.9996555  99.3817442  90.7387300  17.0342591  98.4814579
  90.2496480  15.7443084  96.1804738  90.7784246  15.2335539  95.5674900
  90.5124699  15.4285614  97.0450271  80.7513572  13.7606954 103.9240071
  81.3367009  13.0150641 104.0567976  80.5538411  14.0710910 104.8076735
  83.6052228  16.7958201  98.9402514  82.9362603  17.2804329  98.4566554
  83.4665097  17.0427421  99.8545892  75.3431227   6.3312554 102.6444515
  75.3815327   5.7976144 103.4381633  74.8371520   5.8047759 102.0255492
  87.7457496  18.8301944 105.5385172  88.2975804  18.9933566 106.3034257
  88.0863690  19.4206382 104.8665197  78.9739805   5.0576656  95.7198446
  79.2693246   4.1487334  95.6665500  78.0727840   5.0364395  95.3979448
  90.8825883  16.7783920 102.5248854  90.7577023  15.9773660 102.0159800
  91.5404975  17.2730113 102.0362824  92.9460792  14.5792940 104.1528404
  91.9991127  14.4598291 104.0806731  93.2943565  13.6915438 104.2354666
  89.9507225  14.3745656 100.3532757  89.8032188  13.4462364 100.5340327
  90.7760719  14.3965747  99.8689832  93.5541347  15.1974215 101.4397629
  94.4787894  14.9917076 101.3022081  93.3856650  14.9490616 102.3486971
  84.6867961   5.1869207 101.9235619  84.5412542   5.5009510 102.8159900
  84.2093164   5.8054107 101.3706517  93.3436663  15.7159882  96.7959721
  93.5173541  15.1506305  96.0433573  93.8365554  16.5160777  96.6139211
  79.1613623   7.7274552 104.8623280  78.6167091   8.5034359 104.9943554
  80.0392973   8.0745356 104.7042401  94.3311836  15.0326647  93.8956619
  95.0262740  15.6533340  94.1143934  94.6734986  14.1821998  94.1708997
  79.9479645   6.8544448 107.7553437  79.2061381   7.0027083 108.3418067
  79.6272389   7.1152713 106.8920186  96.2303259  12.4826352  95.4243950
  96.7554583  12.8213625  94.6993270  96.1425611  11.5473368  95.2407085
  87.8923308  16.3960426 107.5533827  88.2010434  16.1509573 108.4256526
  88.6898790  16.6007064 107.0652697  87.9143920  18.5498336  99.7839203
  87.4748910  18.0574714 100.4772060  88.6652037  18.0071303  99.5431278
  80.3936259  14.7409877  99.7863831  81.2194278  14.4413648  99.4062475
  80.0430311  13.9717499 100.2353620  85.3617792  14.0936345 101.8561505
  84.7397801  13.4307050 101.5563733  86.0322659  14.1197477 101.1735153
  78.5944864  12.6596203 100.7452765  77.7576772  12.2318377 100.5636766
  78.5668509  12.8528646 101.6823556  84.9231299  12.6440268  95.3319965
  85.0719419  13.3275732  94.6786638  85.7297742  12.6245358  95.8469421
  82.6783932   8.6705446  96.3381034  82.4329974   7.7667776  96.5361244
  82.8479846   8.6722596  95.3960512  88.4226704  15.1388399  92.8031713
  87.8500671  15.7578586  92.3502185  88.9959498  15.6887760  93.3371635
  91.6423964  15.4225549  93.9340295  92.5754637  15.3571110  94.1373171
  91.5547177  16.2581816  93.4754828  94.2711981  14.7391419  90.8944243
  94.1925612  14.4051283  91.7880001  95.0921647  15.2313187  90.8935715
  77.9094360   5.7205551 100.5301697  77.5897145   4.8670859 100.2376071
  77.3627788   5.9354129 101.2859664  81.6874268   8.4367992 104.2471203
  81.9060278   9.3685100 104.2659237  82.1000042   8.0775966 105.0326007
  77.7782620   9.3408463 102.4994819  77.0846092   8.9262415 101.9864773
  78.5255611   9.3828999 101.9028237  79.6919363   9.2726716 100.3760833
  79.6690051   9.3714404  99.4242716  80.0019999  10.1191867 100.6978000
  82.3506741  11.3302871 104.4907448  83.3049994  11.2986814 104.4237379
  82.1519264  10.8693495 105.3057674  82.9406123   9.9003987 107.0578245
  83.7599012  10.3948066 107.0813083  83.2142930   8.9835956 107.0295813
  80.7056969  16.8722491 101.5077646  80.5711437  16.1122892 100.9415644
  80.2889032  17.5963391 101.0406435  91.8415932  12.0559414  90.5154221
  92.5451783  12.2609417  91.1311877  91.1178581  12.6236176  90.7803304
  83.8626095  17.7691808 101.7196088  83.7458479  18.7137240 101.6174779
  83.0418542  17.4665369 102.1081888  93.7502630  12.4941944  92.5652681
  94.5848234  12.0623142  92.3830156  93.5886973  12.3223957  93.4929575
  93.4048522   8.9974057  93.9309020  93.3497326   8.8318328  92.9897464
  92.7794577   9.7050090  94.0871210  78.1941037   4.2342121 107.7570443
  78.8399901   3.7241075 108.2457668  77.9858188   4.9710803 108.3313868
  84.8880609  18.4220070 104.9352017  85.7907856  18.4543680 105.2518512
  84.6617979  17.4920521 104.9498353  86.6434211  17.1751056 101.5962095
  85.6929842  17.1752918 101.4826468  86.9466698  16.4283791 101.0798130
 102.3786905  23.0111595 102.6607858 103.0165315  22.8918342 101.9571198
 102.2607748  23.9592439 102.7195810  99.1876611  22.9639023 102.5969382
  98.8495123  22.8480088 101.7089917 100.0566379  22.5630188 102.5770389
  95.0463427  24.8174499  98.5866273  94.4828292  24.7264436  97.8182561
  94.9315822  23.9974404  99.0668766  92.5927859  26.3125691 101.4250494
  93.3849151  25.9716515 101.0096793  92.8324509  26.4220666 102.3452647
 100.6262986  28.4845467  93.8980738  99.9750965  29.0699547  93.5114752
 101.4207348  29.0151662  93.9575776  94.5518613  25.5734604  94.2967873
  95.3249489  25.0263591  94.1580748  94.9044012  26.4378853  94.5082334
  96.3903655  26.9010986 107.5034772  96.0993521  27.8056617 107.3881438
  97.0260640  26.9427514 108.2178842  97.3159862  24.2787835 104.0936132
  97.9123434  24.0543857 103.3793095  97.3734834  23.5372580 104.6961579
  96.8884891  21.7327270  91.9286323  97.1410411  21.2108791  91.1669786
  95.9509450  21.5693416  92.0313006 101.9328173  20.7363049  99.7361066
 102.7191263  20.3182472  99.3851483 102.1966878  21.6409141  99.9042714
 102.1038251  26.1735899  94.4349723 101.4684084  26.2470525  95.1470627
 101.7735657  26.7629498  93.7568802  96.6081179  23.6355376  94.1310698
  96.4917437  22.9600280  94.7991782  96.7183439  23.1487750  93.3142851
  98.9512720  23.0965523  97.8357387  98.5870927  22.5696144  98.5470308
  99.8079836  22.7063992  97.6623872  98.5918207  18.1255423  92.8318735
  98.7592610  18.9935659  93.1989206  98.4015376  18.2882705  91.9080025
 101.3493540  26.5872402 104.4984566 101.0494263  27.4897441 104.3900373
 101.0044600  26.3204585 105.3505719  94.8006022  23.0386199 100.5321270
  93.8756518  22.9062413 100.7398962  95.0490435  23.8180418 101.0291212
  98.5707428  20.5813080  93.8165402  98.4507053  21.0270131  94.6550882
  97.8760016  20.9298398  93.2578940  92.1614833  22.6819472 101.3665059
  92.2907214  22.9353951 102.2804471  91.4812284  23.2747180 101.0469714
  96.3314320  33.3516722  97.4655533  96.2538350  34.3024547  97.5444014
  95.7275964  33.0062595  98.1230460 104.2692494  21.0534554  94.6445736
 105.1810350  21.2861940  94.4693434 103.7602141  21.6371598  94.0820815
  97.0777922  23.3330041 109.6834867  97.8192607  23.8715085 109.4069691
  96.3714908  23.9596330 109.8406419  98.9064332  20.4131788 105.6540586
  99.7525527  20.8371202 105.7975235  98.8462970  19.7565413 106.3479149
 102.8762077  26.0360372 102.0359318 102.2470939  26.2006086 101.3335385
 102.4887739  26.4501982 102.8070282 106.7551308  26.9714810  99.3903681
 106.0702347  27.3513711  98.8400715 106.8395158  27.5810137 100.1235629
  98.4290038  25.7734780  99.3009403  98.8928384  26.0522483  98.5114025
  98.1646837  24.8718225  99.1182493  95.3214119  25.3206262 102.2389166
  95.8915477  25.7493530 101.6006650  95.9122231  25.0388846 102.9373352
  97.3658924  21.8957933  96.1098968  98.0682968  22.3478976  96.5772894
  97.0339553  21.2541751  96.7378861  91.1084258  20.1541485 101.4116101
  90.3183312  20.4099014 100.9356212  91.5995506  20.9689823 101.5168142
 105.1248068  27.4946724 104.1621382 105.9465512  27.0926912 103.8804064
 105.1210471  27.3914959 105.1137498  93.0599004  20.5186064  98.3699578
  92.2630167  20.6304759  98.8883074  92.8324596  20.8572717  97.5040469
  98.8904671  27.0430768 106.3182093  98.9549104  27.5051175 107.1540265
  98.1815595  26.4128133 106.4464403  89.3921961  20.4071976 103.8431092
  89.6430000  21.2918986 104.1088668  89.9281510  20.2276577 103.0706184
  98.6052689  28.7098875  96.1861073  98.4698364  29.5550411  96.6145921
  99.1462502  28.9118153  95.4227007  92.0582086  26.2274313  96.7588998
  92.5706607  27.0217563  96.9094563  92.7104799  25.5300604  96.6922600
  93.8676971  29.3440069  98.8411751  94.0443600  30.2658034  98.6532735
  94.6633805  29.0298489  99.2706131  93.1529328  21.3904701 108.7173915
  93.0382843  20.4889959 109.0181013  92.2973845  21.6368398 108.3658731
 100.2321165  29.3322442 110.3161415  99.7885020  28.5458820 109.9982320
 100.8938379  29.5201592 109.6505306  94.9908287  30.8618243 104.8422094
  95.5415712  30.7335307 104.0699088  94.1519763  31.1613132 104.4916986
  98.7875458  27.1269371 109.1866325  99.3203794  26.3657659 108.9565633
  98.2589539  26.8343023 109.9290479  90.0231003  24.5562968  97.5348569
  90.8606225  24.9659976  97.3182276  90.2009271  23.6162410  97.5048763
 101.9195435  22.2238048  93.2232402 101.4042059  22.9942653  93.4620789
 101.6472744  21.5503184  93.8465463  99.5042546  17.0687749  98.2817640
  98.6484143  16.6794599  98.1023279  99.9169498  17.1479710  97.4217426
  97.2784579  14.6872822 101.6875382  98.1437576  14.4915631 101.3281271
  97.3462088  14.4583174 102.6144738 106.8929710  24.9770403  95.1585575
 106.1159152  24.6381562  94.7140737 107.5721190  24.9823026  94.4840540
 101.7081739  20.0965140  95.0492183 101.4031874  20.4111289  95.9002326
 102.6612181  20.1746560  95.0919516 100.1528170  26.2555364  96.6985137
  99.6249532  25.5208123  96.3858374  99.6515673  27.0330040  96.4525105
 105.1321016  24.4504384 101.8152183 104.4744691  25.1403645 101.9032312
 105.9361416  24.8400816 102.1586169  94.8846898  16.9175030  99.0591748
  95.4590650  16.6950211  98.3264941  95.4717880  16.9863724  99.8120350
 103.9426475  22.8048757  99.8656125 104.4558357  23.4378749 100.3677835
 104.5927699  22.2049952  99.4999485  95.2116485  18.9479491  93.0787634
  94.3753797  19.2854177  93.3996908  95.0721255  18.8128471  92.1414771
  97.1869566  13.7916279  97.7866818  96.5333978  13.4765296  97.1623433
  97.1450040  13.1692019  98.5126641  98.2980771  24.0735574  89.7020110
  97.3907832  23.8424827  89.9011259  98.7951803  23.2773193  89.8894091
 101.2048849  32.7833081  92.6216796 100.5310548  33.0864778  93.2301754
 101.5914671  33.5862161  92.2722253 100.4207306  20.2798212 102.1114465
  99.5029867  20.5013159 101.9536153 100.8367450  20.3544523 101.2526173
 101.2042354  21.6789628  97.2417146 101.9514173  22.1911025  96.9324268
 101.4733943  21.3573681  98.1021539  99.4769004  24.1748169  94.2244100
  98.5680223  23.8907202  94.3216570  99.5064088  24.5947247  93.3647407
 104.7088271  27.7854758  97.9935268 104.2550599  26.9445668  98.0500458
 104.0782238  28.4216157  98.3310048 103.6521191  18.7146744  99.2235935
 102.9143948  18.2024130  99.5546178 103.9047965  18.2747126  98.4119212
 103.1521211  29.6231255  98.9285086 103.4444185  30.1836312  98.2097451
 103.6619831  29.9159816  99.6838245  90.0457174  21.8953683  98.2059302
  89.8481574  21.3023044  97.4810369  89.4903838  21.5905893  98.9235241
  98.0253898  21.7876789 100.3253895  98.0802508  20.8350626 100.2496372
  97.2145100  21.9436228 100.8095194  99.1745092  25.7156912  91.5632179
  98.7364522  24.9992771  91.1037816  99.9155533  25.9433027  91.0017270
  95.9646258  20.4053849  98.0844274  95.1514124  20.7048020  98.4909466
  96.4605252  20.0109538  98.8018756  98.1154836  30.4011606 100.0178539
  98.0731015  30.6272452  99.0887071  99.0317535  30.1674981 100.1664340
 107.2918207  23.9914109  97.6208497 107.1536105  24.1815705  96.6929686
 106.9354425  24.7533492  98.0776548  95.4560333  17.9772205 103.7005509
  96.0959712  17.8360964 103.0028472  94.6237863  17.6906718 103.3244111
  96.2320637  27.2774635  99.8140502  97.0261235  26.7824955  99.6123077
  95.5212329  26.7492498  99.4508207 101.0515481  29.6592731 104.1652869
 101.1052503  30.2283667 104.9330585 100.1830262  29.8294616 103.8006906
  92.5403400  21.4217717  95.8900254  91.6100988  21.3602172  96.1070216
  92.6360872  20.8993669  95.0936896  92.4588949  17.9472530  98.4778496
  92.7195766  18.8617863  98.3687656  93.2806121  17.4796972  98.6275109
  93.9313874  19.3610287 105.6477320  94.6036928  19.1527649 104.9989969
  93.1043661  19.1632373 105.2082553 100.0103581  23.8252993 105.7239801
 100.9395641  23.9764152 105.5508768  99.5894611  23.9137013 104.8688448
  98.8091913  27.8503657 103.4938339  98.6702998  27.4822441 104.3664277
  98.0206509  28.3651296 103.3222296  99.4040065  32.9512753  94.8363875
  99.5791820  32.4800797  95.6509498  98.7172853  33.5778520  95.0645136
 100.3597128  27.2285260 100.8827176 100.0246960  27.1886030 101.7784826
  99.8601073  26.5629976 100.4097587  94.3341372  22.6352890 106.4079758
  94.1961170  21.9033129 107.0091297  95.2446295  22.5461790 106.1263945
 103.2956319  24.5741294  91.1564236 102.6785490  23.8488122  91.0597289
 102.8272808  25.3350654  90.8131310  96.9623672  22.3472849 105.8963437
  97.6723291  21.7066041 105.8550056  96.9192981  22.5985744 106.8189618
  95.6752606  19.3338067 107.7159077  95.1389963  18.8828805 108.3680673
  95.0869315  19.4683976 106.9729541  93.9701150  36.1002116 101.6103735
  94.2097748  36.7320640 102.2882754  93.1270346  35.7490156 101.8969095
  95.0854865  18.7926718  90.2785540  94.2084332  18.6715519  89.9147787
  95.5612618  18.0012797  90.0264429  86.6057005  23.5803878 100.3727048
  87.2928045  23.2665608  99.7848063  86.4505134  24.4845243 100.0994299
  91.4091728  18.4694075 104.8012071  91.3249916  17.8619744 104.0662481
  90.5874434  18.9603093 104.8021568  98.4829012  31.9081239 104.0145239
  98.4099183  32.7136210 104.5264544  98.0406405  32.1073204 103.1893261
  98.2718791  31.1453009  97.5248061  97.4886313  31.6874689  97.6186285
  98.9711537  31.6626988  97.9242302 101.5815441  16.9547638 100.1682266
 102.0784141  16.2017600  99.8483337 100.8102423  16.9911955  99.6025476
 100.9427695  31.8068073 106.1703398 101.6555667  32.4415538 106.0979299
 100.4517724  31.9031939 105.3543400 102.6645222  25.7119325  97.7420690
 101.7301501  25.8320788  97.5725394 102.8421891  24.8091792  97.4780700
  98.1650410  19.0965021  99.8953951  97.7948198  18.5436062 100.5834856
  98.6609503  18.4923155  99.3428951 106.0517774  21.5536645  98.2770724
 106.5178226  22.3864636  98.2031026 106.5025274  21.0881626  98.9815982
  95.9939609  29.5562516 106.9908969  96.6949068  30.1898999 107.1438363
  95.5234724  29.8977248 106.2304608 104.1194005  27.8980466  95.2756876
 104.3953849  27.7837061  96.1850750 103.2498503  27.4997951  95.2369049
 100.7548069  32.1466817  98.9189689 100.9370463  31.3288473  99.3817442
 101.5781055  32.3634509  98.4814579 101.0890234  31.0735002  96.1804738
 101.6178001  30.5627457  95.5674900 101.3518454  30.7577532  97.0450271
  91.5907327  29.0898871 103.9240071  92.1760764  28.3442559 104.0567976
  91.3932165  29.4002828 104.8076735  94.4445982  32.1250119  98.9402514
  93.7756357  32.6096246  98.4566554  94.3058852  32.3719339  99.8545892
  86.1824982  21.6604471 102.6444515  86.2209081  21.1268062 103.4381633
  85.6765274  21.1339677 102.0255492  98.5851251  34.1593862 105.5385172
  99.1369559  34.3225484 106.3034257  98.9257444  34.7498300 104.8665197
  93.5615744  16.5069012 106.1407057  93.6257070  17.3683843 105.7284455
  93.4982864  15.8943014 105.4079415  89.8133559  20.3868574  95.7198446
  90.1087000  19.4779252  95.6665500  88.9121595  20.3656313  95.3979448
 101.7219638  32.1075838 102.5248854 101.5970777  31.3065577 102.0159800
 102.3798729  32.6022031 102.0362824  93.3427806  18.4624570 101.7025995
  92.6214392  19.0760538 101.5633468  94.1321062  18.9982335 101.6242641
 103.7854546  29.9084858 104.1528404 102.8384882  29.7890209 104.0806731
 104.1337319  29.0207356 104.2354666  91.5421401  18.0682671  95.8437771
  91.2134107  17.1880050  95.6612877  91.8960771  18.0130340  96.7314160
 100.7900980  29.7037574 100.3532757 100.6425942  28.7754281 100.5340327
 101.6154473  29.7257665  99.8689832  94.6563224  18.3555641  96.2113249
  94.9959296  18.8841562  95.4891857  95.1035344  18.6936047  96.9871815
 104.3935101  30.5266133 101.4397629 105.3181649  30.3208994 101.3022081
 104.2250405  30.2782534 102.3486971  96.6431371  16.8530263  94.4106542
  97.3639734  17.2311515  93.9070258  96.0196675  17.5719139  94.5141520
 100.7862494  17.5575412  95.3464874 101.0026108  18.4400049  95.0453702
 100.3056561  17.1661625  94.6170516  95.5261715  20.5161125 101.9235619
  95.3806296  20.8301428 102.8159900  95.0486919  21.1346025 101.3706517
  97.3858098  17.5063673 101.9716508  97.3719667  16.6104766 101.6348806
  98.1030526  17.5134337 102.6054794  99.2384229  17.9401013 104.0169636
  98.9802007  18.8618084 104.0153966  98.7069269  17.5431448 104.7070100
 104.1830418  31.0451800  96.7959721 104.3567295  30.4798223  96.0433573
 104.6759309  31.8452695  96.6139211  90.0007377  23.0566469 104.8623280
  89.4560846  23.8326277 104.9943554  90.8786727  23.4037274 104.7042401
  96.7894994  16.3878053  97.2404078  96.9110905  15.4594699  97.4394966
  96.4997037  16.4016739  96.3282394  99.6586185  14.0732964 100.3770798
  99.6807881  14.1372297  99.4222778 100.0754244  13.2337472 100.5711304
 110.0369809  23.8088223  98.4150021 110.4800955  23.0595548  98.0169144
 109.1596319  23.7998359  98.0323753 105.1705590  30.3618565  93.8956619
 105.8656495  30.9825257  94.1143934 105.5128740  29.5113916  94.1708997
  90.7873399  22.1836365 107.7553437  90.0455135  22.3319001 108.3418067
  90.4666144  22.4444631 106.8920186 107.0697013  27.8118270  95.4243950
 107.5948337  28.1505543  94.6993270 106.9819366  26.8765285  95.2407085
  98.7317062  31.7252344 107.5533827  99.0404188  31.4801490 108.4256526
  99.5292544  31.9298982 107.0652697  98.7537674  33.8790253  99.7839203
  98.3142664  33.3866632 100.4772060  99.5045791  33.3363221  99.5431278
  91.2330013  30.0701794  99.7863831  92.0588033  29.7705566  99.4062475
  90.8824065  29.3009417 100.2353620  96.2011546  29.4228262 101.8561505
  95.5791555  28.7598967 101.5563733  96.8716413  29.4489394 101.1735153
  89.4338618  27.9888121 100.7452765  88.5970526  27.5610295 100.5636766
  89.4062264  28.1820564 101.6823556  95.7625053  27.9732186  95.3319965
  95.9113173  28.6567650  94.6786638  96.5691497  27.9537276  95.8469421
  93.5177686  23.9997363  96.3381034  93.2723728  23.0959693  96.5361244
  93.6873601  24.0014514  95.3960512  92.7873334  19.7325721  93.8367196
  92.0942579  19.8070076  93.1807232  92.5425086  18.9686065  94.3588713
  99.2620459  30.4680316  92.8031713  98.6894426  31.0870503  92.3502185
  99.8353252  31.0179678  93.3371635 102.4817718  30.7517466  93.9340295
 103.4148392  30.6863028  94.1373171 102.3940931  31.5873733  93.4754828
 105.1105735  30.0683337  90.8944243 105.0319367  29.7343200  91.7880001
 105.9315402  30.5605105  90.8935715  99.6467257  21.8041129  90.1447765
 100.5926362  21.6747337  90.2136183  99.2681502  21.0655791  90.6217193
  97.8310174  19.7291105  90.0802651  96.9241630  19.4324218  90.1565364
  98.1086155  19.4320923  89.2136937  88.7488115  21.0497469 100.5301697
  88.4290899  20.1962777 100.2376071  88.2021543  21.2646047 101.2859664
  92.5268022  23.7659910 104.2471203  92.7454032  24.6977018 104.2659237
  92.9393796  23.4067884 105.0326007  99.4472240  14.2727995  96.2346892
  98.6372968  13.9275080  96.6102138 100.1356657  13.9635539  96.8234503
 101.3762788  13.3506042  97.8571188 101.9293827  13.7701495  98.5161212
 101.6132875  12.4241790  97.8994144  96.6008959  16.5878041  90.2214630
  97.4628123  16.9132939  90.4810447  96.7859303  15.8009536  89.7087696
  88.6176375  24.6700380 102.4994819  87.9239846  24.2554333 101.9864773
  89.3649366  24.7120917 101.9028237 104.7541595  15.4606567  97.3649853
 104.1740264  16.1191371  96.9827905 104.4877528  14.6383912  96.9537270
  90.5313117  24.6018634 100.3760833  90.5083805  24.7006321  99.4242716
  90.8413754  25.4483785 100.6978000  93.1900495  26.6594789 104.4907448
  94.1443749  26.6278731 104.4237379  92.9913019  26.1985413 105.3057674
  93.7799877  25.2295905 107.0578245  94.5992766  25.7239984 107.0813083
  94.0536685  24.3127873 107.0295813 103.5366473  17.6206657  96.4206201
 102.6492328  17.9056308  96.2026396 103.9520462  17.4600421  95.5733478
  91.5450724  32.2014409 101.5077646  91.4105192  31.4414809 100.9415644
  91.1282786  32.9255308 101.0406435 102.6809687  27.3851332  90.5154221
 103.3845537  27.5901335  91.1311877 101.9572336  27.9528094  90.7803304
 103.5107497  23.1361193  96.6356491 103.4542699  23.5929745  95.7964124
 104.0635840  22.3751878  96.4579334 107.3212303  18.9250925  97.4606611
 107.0649237  18.5247561  98.2914818 106.6965171  19.6394719  97.3356750
  94.7019850  33.0983726 101.7196088  94.5852234  34.0429158 101.6174779
  93.8812296  32.7957287 102.1081888 104.5896384  27.8233861  92.5652681
 105.4241988  27.3915060  92.3830156 104.4280727  27.6515875  93.4929575
 104.2442276  24.3265975  93.9309020 104.1891080  24.1610246  92.9897464
 103.6188332  25.0342008  94.0871210  89.0334791  19.5634039 107.7570443
  89.6793655  19.0532993 108.2457668  88.8251943  20.3002721 108.3313868
  97.5538402  13.8274084  93.5094339  97.5417072  14.7715924  93.6662610
  98.4461824  13.6444229  93.2153800  95.7274364  33.7511987 104.9352017
  96.6301611  33.7835598 105.2518512  95.5011734  32.8212438 104.9498353
  97.4827966  32.5042974 101.5962095  96.5323597  32.5044836 101.4826468
  97.7860452  31.7575709 101.0798130 113.2180659  38.3403512 102.6607858
 113.8559069  38.2210260 101.9571198 113.1001502  39.2884356 102.7195810
 110.0270366  38.2930941 102.5969382 109.6888877  38.1772005 101.7089917
 110.8960134  37.8922106 102.5770389 105.8857181  40.1466417  98.5866273
 105.3222046  40.0556354  97.8182561 105.7709576  39.3266321  99.0668766
 103.4321613  41.6417609 101.4250494 104.2242905  41.3008433 101.0096793
 103.6718263  41.7512584 102.3452647 111.4656740  43.8137385  93.8980738
 110.8144720  44.3991465  93.5114752 112.2601103  44.3443580  93.9575776
 105.3912367  40.9026522  94.2967873 106.1643243  40.3555509  94.1580748
 105.7437766  41.7670771  94.5082334 107.2297410  42.2302904 107.5034772
 106.9387276  43.1348535 107.3881438 107.8654394  42.2719432 108.2178842
 108.1553617  39.6079753 104.0936132 108.7517189  39.3835775 103.3793095
 108.2128588  38.8664498 104.6961579 107.7278645  37.0619188  91.9286323
 107.9804166  36.5400709  91.1669786 106.7903204  36.8985333  92.0313006
 112.7721928  36.0654966  99.7361066 113.5585017  35.6474389  99.3851483
 113.0360632  36.9701058  99.9042714 112.9432005  41.5027817  94.4349723
 112.3077838  41.5762443  95.1470627 112.6129412  42.0921415  93.7568802
 107.4474934  38.9647294  94.1310698 107.3311192  38.2892197  94.7991782
 107.5577194  38.4779668  93.3142851 109.7906475  38.4257441  97.8357387
 109.4264682  37.8988062  98.5470308 110.6473591  38.0355910  97.6623872
 109.4311962  33.4547341  92.8318735 109.5986364  34.3227577  93.1989206
 109.2409131  33.6174622  91.9080025 112.1887295  41.9164320 104.4984566
 111.8888018  42.8189358 104.3900373 111.8438354  41.6496503 105.3505719
 105.6399776  38.3678116 100.5321270 104.7150273  38.2354330 100.7398962
 105.8884190  39.1472336 101.0291212 109.4101183  35.9104998  93.8165402
 109.2900808  36.3562049  94.6550882 108.7153771  36.2590316  93.2578940
 103.0008587  38.0111390 101.3665059 103.1300969  38.2645869 102.2804471
 102.3206039  38.6039098 101.0469714 107.1708075  48.6808640  97.4655533
 107.0932104  49.6316465  97.5444014 106.5669718  48.3354512  98.1230460
 115.1086249  36.3826471  94.6445736 116.0204105  36.6153858  94.4693434
 114.5995896  36.9663516  94.0820815 107.9171677  38.6621959 109.6834867
 108.6586361  39.2007003 109.4069691 107.2108662  39.2888247 109.8406419
 109.7458086  35.7423706 105.6540586 110.5919282  36.1663119 105.7975235
 109.6856724  35.0857330 106.3479149 113.7155831  41.3652290 102.0359318
 113.0864693  41.5298004 101.3335385 113.3281493  41.7793899 102.8070282
 117.5945063  42.3006728  99.3903681 116.9096101  42.6805629  98.8400715
 117.6788912  42.9102054 100.1235629 109.2683793  41.1026698  99.3009403
 109.7322138  41.3814401  98.5114025 109.0040591  40.2010142  99.1182493
 106.1607874  40.6498179 102.2389166 106.7309231  41.0785448 101.6006650
 106.7515986  40.3680764 102.9373352 108.2052679  37.2249850  96.1098968
 108.9076722  37.6770894  96.5772894 107.8733307  36.5833669  96.7378861
 101.9478013  35.4833403 101.4116101 101.1577067  35.7390931 100.9356212
 102.4389260  36.2981741 101.5168142 115.9641822  42.8238642 104.1621382
 116.7859266  42.4218829 103.8804064 115.9604225  42.7206876 105.1137498
 103.8992758  35.8477982  98.3699578 103.1023922  35.9596676  98.8883074
 103.6718351  36.1864634  97.5040469 109.7298426  42.3722685 106.3182093
 109.7942858  42.8343093 107.1540265 109.0209350  41.7420050 106.4464403
 100.2315716  35.7363893 103.8431092 100.4823754  36.6210903 104.1088668
 100.7675264  35.5568495 103.0706184 109.4446444  44.0390793  96.1861073
 109.3092118  44.8842329  96.6145921 109.9856256  44.2410070  95.4227007
 102.8975841  41.5566231  96.7588998 103.4100362  42.3509481  96.9094563
 103.5498554  40.8592521  96.6922600 104.7070726  44.6731987  98.8411751
 104.8837354  45.5949952  98.6532735 105.5027559  44.3590406  99.2706131
 103.9923082  36.7196619 108.7173915 103.8776597  35.8181876 109.0181013
 103.1367600  36.9660316 108.3658731 111.0714920  44.6614359 110.3161415
 110.6278774  43.8750738 109.9982320 111.7332134  44.8493510 109.6505306
 105.8302041  46.1910161 104.8422094 106.3809466  46.0627224 104.0699088
 104.9913517  46.4905050 104.4916986 109.6269212  42.4561289 109.1866325
 110.1597549  41.6949577 108.9565633 109.0983293  42.1634941 109.9290479
 100.8624758  39.8854885  97.5348569 101.6999980  40.2951894  97.3182276
 101.0403025  38.9454327  97.5048763 112.7589190  37.5529966  93.2232402
 112.2435813  38.3234570  93.4620789 112.4866498  36.8795102  93.8465463
 110.3436301  32.3979667  98.2817640 109.4877897  32.0086517  98.1023279
 110.7563253  32.4771627  97.4217426 108.1178333  30.0164740 101.6875382
 108.9831330  29.8207548 101.3281271 108.1855842  29.7875091 102.6144738
 117.7323464  40.3062320  95.1585575 116.9552907  39.9673480  94.7140737
 118.4114945  40.3114944  94.4840540 112.5475493  35.4257058  95.0492183
 112.2425629  35.7403207  95.9002326 113.5005935  35.5038478  95.0919516
 110.9921925  41.5847281  96.6985137 110.4643286  40.8500041  96.3858374
 110.4909428  42.3621958  96.4525105 115.9714771  39.7796302 101.8152183
 115.3138445  40.4695563 101.9032312 116.7755170  40.1692734 102.1586169
 105.7240653  32.2466948  99.0591748 106.2984404  32.0242129  98.3264941
 106.3111635  32.3155642  99.8120350 114.7820230  38.1340674  99.8656125
 115.2952111  38.7670666 100.3677835 115.4321454  37.5341870  99.4999485
 106.0510240  34.2771409  93.0787634 105.2147552  34.6146095  93.3996908
 105.9115009  34.1420388  92.1414771 108.0263320  29.1208196  97.7866818
 107.3727733  28.8057214  97.1623433 107.9843794  28.4983937  98.5126641
 109.1374525  39.4027492  89.7020110 108.2301587  39.1716745  89.9011259
 109.6345557  38.6065111  89.8894091 112.0442604  48.1124999  92.6216796
 111.3704303  48.4156695  93.2301754 112.4308426  48.9154079  92.2722253
 111.2601061  35.6090130 102.1114465 110.3423622  35.8305077 101.9536153
 111.6761204  35.6836440 101.2526173 112.0436108  37.0081546  97.2417146
 112.7907927  37.5202943  96.9324268 112.3127698  36.6865598  98.1021539
 110.3162759  39.5040086  94.2244100 109.4073978  39.2199119  94.3216570
 110.3457842  39.9239165  93.3647407 115.5482026  43.1146676  97.9935268
 115.0944353  42.2737586  98.0500458 114.9175993  43.7508074  98.3310048
 114.4914945  34.0438662  99.2235935 113.7537702  33.5316048  99.5546178
 114.7441719  33.6039044  98.4119212 113.9914965  44.9523173  98.9285086
 114.2837940  45.5128230  98.2097451 114.5013586  45.2451734  99.6838245
 100.8850929  37.2245601  98.2059302 100.6875329  36.6314961  97.4810369
 100.3297593  36.9197811  98.9235241 108.8647653  37.1168707 100.3253895
 108.9196262  36.1642543 100.2496372 108.0538855  37.2728146 100.8095194
 110.0138846  41.0448830  91.5632179 109.5758276  40.3284689  91.1037816
 110.7549287  41.2724945  91.0017270 106.8040012  35.7345767  98.0844274
 105.9907878  36.0339937  98.4909466 107.2999007  35.3401456  98.8018756
 108.9548590  45.7303524 100.0178539 108.9124769  45.9564370  99.0887071
 109.8711289  45.4966898 100.1664340 118.1311961  39.3206027  97.6208497
 117.9929860  39.5107623  96.6929686 117.7748180  40.0825410  98.0776548
 106.2954087  33.3064122 103.7005509 106.9353467  33.1652881 103.0028472
 105.4631618  33.0198636 103.3244111 107.0714391  42.6066553  99.8140502
 107.8654990  42.1116873  99.6123077 106.3606084  42.0784416  99.4508207
 111.8909236  44.9884648 104.1652869 111.9446258  45.5575585 104.9330585
 111.0224017  45.1586533 103.8006906 103.3797155  36.7509634  95.8900254
 102.4494743  36.6894090  96.1070216 103.4754627  36.2285587  95.0936896
 103.2982704  33.2764447  98.4778496 103.5589521  34.1909780  98.3687656
 104.1199876  32.8088890  98.6275109 104.7707629  34.6902204 105.6477320
 105.4430682  34.4819567 104.9989969 103.9437416  34.4924290 105.2082553
 110.8497335  39.1544910 105.7239801 111.7789395  39.3056070 105.5508768
 110.4288365  39.2428931 104.8688448 109.6485667  43.1795575 103.4938339
 109.5096753  42.8114359 104.3664277 108.8600263  43.6943214 103.3222296
 110.2433819  48.2804671  94.8363875 110.4185575  47.8092714  95.6509498
 109.5566607  48.9070437  95.0645136 111.1990882  42.5577177 100.8827176
 110.8640715  42.5177947 101.7784826 110.6994828  41.8921893 100.4097587
 105.1735126  37.9644807 106.4079758 105.0354924  37.2325046 107.0091297
 106.0840050  37.8753707 106.1263945 114.1350074  39.9033212  91.1564236
 113.5179245  39.1780040  91.0597289 113.6666562  40.6642572  90.8131310
 107.8017427  37.6764767 105.8963437 108.5117045  37.0357959 105.8550056
 107.7586735  37.9277662 106.8189618 106.5146361  34.6629985 107.7159077
 105.9783718  34.2120723 108.3680673 105.9263069  34.7975893 106.9729541
 104.8094904  51.4294034 101.6103735 105.0491503  52.0612558 102.2882754
 103.9664101  51.0782074 101.8969095 105.9248620  34.1218636  90.2785540
 105.0478086  34.0007437  89.9147787 106.4006373  33.3304714  90.0264429
  97.4450760  38.9095796 100.3727048  98.1321800  38.5957526  99.7848063
  97.2898889  39.8137160 100.0994299 102.2485482  33.7985992 104.8012071
 102.1643671  33.1911662 104.0662481 101.4268189  34.2895011 104.8021568
 109.3222766  47.2373156 104.0145239 109.2492938  48.0428128 104.5264544
 108.8800159  47.4365122 103.1893261 109.1112546  46.4744926  97.5248061
 108.3280068  47.0166607  97.6186285 109.8105291  46.9918906  97.9242302
 112.4209196  32.2839556 100.1682266 112.9177896  31.5309518  99.8483337
 111.6496177  32.3203872  99.6025476 111.7821450  47.1359990 106.1703398
 112.4949422  47.7707455 106.0979299 111.2911478  47.2323856 105.3543400
 113.5038977  41.0411243  97.7420690 112.5695255  41.1612706  97.5725394
 113.6815645  40.1383710  97.4780700 109.0044165  34.4256939  99.8953951
 108.6341952  33.8727979 100.5834856 109.5003257  33.8215072  99.3428951
 116.8911528  36.8828562  98.2770724 117.3571980  37.7156554  98.2031026
 117.3419029  36.4173544  98.9815982 106.8333363  44.8854434 106.9908969
 107.5342823  45.5190917 107.1438363 106.3628478  45.2269165 106.2304608
 114.9587759  43.2272384  95.2756876 115.2347603  43.1128978  96.1850750
 114.0892258  42.8289868  95.2369049 111.5941823  47.4758734  98.9189689
 111.7764218  46.6580390  99.3817442 112.4174809  47.6926427  98.4814579
 111.9283989  46.4026920  96.1804738 112.4571755  45.8919374  95.5674900
 112.1912208  46.0869450  97.0450271 102.4301081  44.4190789 103.9240071
 103.0154518  43.6734477 104.0567976 102.2325920  44.7294746 104.8076735
 105.2839737  47.4542036  98.9402514 104.6150112  47.9388164  98.4566554
 105.1452606  47.7011257  99.8545892  97.0218736  36.9896389 102.6444515
  97.0602836  36.4559980 103.4381633  96.5159029  36.4631595 102.0255492
 109.4245005  49.4885780 105.5385172 109.9763313  49.6517401 106.3034257
 109.7651199  50.0790218 104.8665197 104.4009498  31.8360930 106.1407057
 104.4650825  32.6975760 105.7284455 104.3376619  31.2234931 105.4079415
 100.6527314  35.7160491  95.7198446 100.9480755  34.8071170  95.6665500
  99.7515349  35.6948231  95.3979448 112.5613392  47.4367755 102.5248854
 112.4364532  46.6357495 102.0159800 113.2192484  47.9313949 102.0362824
 104.1821561  33.7916488 101.7025995 103.4608146  34.4052456 101.5633468
 104.9714816  34.3274253 101.6242641 114.6248301  45.2376775 104.1528404
 113.6778636  45.1182127 104.0806731 114.9731074  44.3499273 104.2354666
 102.3815155  33.3974589  95.8437771 102.0527861  32.5171968  95.6612877
 102.7354526  33.3422258  96.7314160 111.6294734  45.0329492 100.3532757
 111.4819697  44.1046199 100.5340327 112.4548228  45.0549582  99.8689832
 105.4956978  33.6847559  96.2113249 105.8353051  34.2133480  95.4891857
 105.9429099  34.0227965  96.9871815 115.2328856  45.8558050 101.4397629
 116.1575403  45.6500912 101.3022081 115.0644159  45.6074452 102.3486971
 107.4825126  32.1822180  94.4106542 108.2033488  32.5603433  93.9070258
 106.8590430  32.9011057  94.5141520 111.6256248  32.8867329  95.3464874
 111.8419863  33.7691967  95.0453702 111.1450316  32.4953543  94.6170516
 106.3655470  35.8453042 101.9235619 106.2200051  36.1593346 102.8159900
 105.8880673  36.4637943 101.3706517 108.2251853  32.8355590 101.9716508
 108.2113421  31.9396684 101.6348806 108.9424281  32.8426254 102.6054794
 110.0777983  33.2692931 104.0169636 109.8195761  34.1910001 104.0153966
 109.5463024  32.8723365 104.7070100 115.0224172  46.3743718  96.7959721
 115.1961050  45.8090140  96.0433573 115.5153063  47.1744613  96.6139211
 100.8401132  38.3858387 104.8623280 100.2954600  39.1618195 104.9943554
 101.7180482  38.7329191 104.7042401 107.6288749  31.7169971  97.2404078
 107.7504660  30.7886617  97.4394966 107.3390791  31.7308657  96.3282394
 110.4979939  29.4024881 100.3770798 110.5201636  29.4664214  99.4222778
 110.9147998  28.5629390 100.5711304 120.8763563  39.1380141  98.4150021
 121.3194709  38.3887466  98.0169144 119.9990074  39.1290277  98.0323753
 116.0099345  45.6910482  93.8956619 116.7050249  46.3117175  94.1143934
 116.3522495  44.8405833  94.1708997 101.6267154  37.5128283 107.7553437
 100.8848890  37.6610919 108.3418067 101.3059898  37.7736549 106.8920186
 117.9090768  43.1410188  95.4243950 118.4342092  43.4797460  94.6993270
 117.8213120  42.2057203  95.2407085 109.5710816  47.0544261 107.5533827
 109.8797943  46.8093408 108.4256526 110.3686299  47.2590900 107.0652697
 109.5931429  49.2082171  99.7839203 109.1536419  48.7158550 100.4772060
 110.3439545  48.6655139  99.5431278 102.0723768  45.3993712  99.7863831
 102.8981787  45.0997484  99.4062475 101.7217820  44.6301334 100.2353620
 107.0405301  44.7520180 101.8561505 106.4185310  44.0890885 101.5563733
 107.7110168  44.7781312 101.1735153 100.2732373  43.3180038 100.7452765
  99.4364281  42.8902213 100.5636766 100.2456018  43.5112482 101.6823556
 106.6018808  43.3024103  95.3319965 106.7506928  43.9859568  94.6786638
 107.4085251  43.2829194  95.8469421 104.3571441  39.3289281  96.3381034
 104.1117483  38.4251611  96.5361244 104.5267355  39.3306432  95.3960512
 103.6267088  35.0617639  93.8367196 102.9336333  35.1361994  93.1807232
 103.3818840  34.2977982  94.3588713 110.1014213  45.7972234  92.8031713
 109.5288180  46.4162421  92.3502185 110.6747007  46.3471596  93.3371635
 113.3211473  46.0809384  93.9340295 114.2542146  46.0154946  94.1373171
 113.2334686  46.9165651  93.4754828 115.9499490  45.3975254  90.8944243
 115.8713121  45.0635118  91.7880001 116.7709156  45.8897022  90.8935715
 110.4861012  37.1333047  90.1447765 111.4320116  37.0039255  90.2136183
 110.1075257  36.3947709  90.6217193 108.6703929  35.0583023  90.0802651
 107.7635384  34.7616136  90.1565364 108.9479910  34.7612841  89.2136937
  99.5881869  36.3789386 100.5301697  99.2684654  35.5254695 100.2376071
  99.0415297  36.5937965 101.2859664 103.3661777  39.0951827 104.2471203
 103.5847786  40.0268935 104.2659237 103.7787551  38.7359802 105.0326007
 110.2865995  29.6019913  96.2346892 109.4766723  29.2566998  96.6102138
 110.9750411  29.2927456  96.8234503 112.2156543  28.6797960  97.8571188
 112.7687581  29.0993413  98.5161212 112.4526629  27.7533708  97.8994144
 107.4402713  31.9169958  90.2214630 108.3021877  32.2424857  90.4810447
 107.6253058  31.1301454  89.7087696  99.4570129  39.9992298 102.4994819
  98.7633601  39.5846251 101.9864773 100.2043120  40.0412834 101.9028237
 115.5935350  30.7898485  97.3649853 115.0134019  31.4483289  96.9827905
 115.3271283  29.9675829  96.9537270 101.3706872  39.9310552 100.3760833
 101.3477560  40.0298239  99.4242716 101.6807508  40.7775703 100.6978000
 104.0294250  41.9886707 104.4907448 104.9837503  41.9570649 104.4237379
 103.8306773  41.5277330 105.3057674 104.6193632  40.5587823 107.0578245
 105.4386521  41.0531901 107.0813083 104.8930439  39.6419791 107.0295813
 114.3760228  32.9498575  96.4206201 113.4886083  33.2348226  96.2026396
 114.7914217  32.7892338  95.5733478 102.3844478  47.5306326 101.5077646
 102.2498946  46.7706727 100.9415644 101.9676541  48.2547226 101.0406435
 113.5203441  42.7143250  90.5154221 114.2239291  42.9193252  91.1311877
 112.7966090  43.2820012  90.7803304 114.3501252  38.4653111  96.6356491
 114.2936453  38.9221662  95.7964124 114.9029594  37.7043796  96.4579334
 118.1606058  34.2542843  97.4606611 117.9042992  33.8539479  98.2914818
 117.5358926  34.9686637  97.3356750 105.5413604  48.4275643 101.7196088
 105.4245988  49.3721076 101.6174779 104.7206051  48.1249205 102.1081888
 115.4290139  43.1525779  92.5652681 116.2635743  42.7206977  92.3830156
 115.2674482  42.9807793  93.4929575 115.0836031  39.6557892  93.9309020
 115.0284835  39.4902164  92.9897464 114.4582086  40.3633925  94.0871210
  99.8728546  34.8925957 107.7570443 100.5187410  34.3824911 108.2457668
  99.6645697  35.6294638 108.3313868 108.3932156  29.1566001  93.5094339
 108.3810826  30.1007841  93.6662610 109.2855578  28.9736147  93.2153800
 106.5668118  49.0803905 104.9352017 107.4695365  49.1127515 105.2518512
 106.3405488  48.1504356 104.9498353 108.3221720  47.8334892 101.5962095
 107.3717351  47.8336753 101.4826468 108.6254207  47.0867626 101.0798130
 112.2084276  25.7508778  97.7640276 111.4416672  25.1967265  97.9096958
 112.6194981  25.8230647  98.6254427 120.8664120  53.6222858 102.5969382
 120.5282632  53.5063923 101.7089917 121.7353888  53.2214023 102.5770389
 116.7250936  55.4758335  98.5866273 116.1615801  55.3848272  97.8182561
 116.6103331  54.6558239  99.0668766 114.2715368  56.9709526 101.4250494
 115.0636660  56.6300351 101.0096793 114.5112018  57.0804501 102.3452647
 116.2306122  56.2318439  94.2967873 117.0036998  55.6847427  94.1580748
 116.5831521  57.0962689  94.5082334 118.0691164  57.5594822 107.5034772
 117.7781030  58.4640453 107.3881438 118.7048149  57.6011349 108.2178842
 118.9947371  54.9371670 104.0936132 119.5910943  54.7127693 103.3793095
 119.0522343  54.1956416 104.6961579 118.5672400  52.3911106  91.9286323
 118.8197920  51.8692627  91.1669786 117.6296959  52.2277251  92.0313006
 118.2868688  54.2939212  94.1310698 118.1704946  53.6184115  94.7991782
 118.3970948  53.8071585  93.3142851 120.6300229  53.7549359  97.8357387
 120.2658436  53.2279980  98.5470308 121.4867345  53.3647828  97.6623872
 120.2705716  48.7839258  92.8318735 120.4380119  49.6519495  93.1989206
 120.0802885  48.9466540  91.9080025 116.4793531  53.6970034 100.5321270
 115.5544027  53.5646248 100.7398962 116.7277944  54.4764253 101.0291212
 120.2494937  51.2396916  93.8165402 120.1294562  51.6853967  94.6550882
 119.5547525  51.5882233  93.2578940 113.8402342  53.3403308 101.3665059
 113.9694723  53.5937787 102.2804471 113.1599793  53.9331016 101.0469714
 118.0101829  64.0100558  97.4655533 117.9325859  64.9608383  97.5444014
 117.4063473  63.6646430  98.1230460 118.7565431  53.9913876 109.6834867
 119.4980116  54.5298920 109.4069691 118.0502417  54.6180165 109.8406419
 120.5851841  51.0715624 105.6540586 121.4313036  51.4955037 105.7975235
 120.5250479  50.4149248 106.3479149 120.1077547  56.4318616  99.3009403
 120.5715893  56.7106319  98.5114025 119.8434346  55.5302060  99.1182493
 117.0001628  55.9790097 102.2389166 117.5702986  56.4077365 101.6006650
 117.5909740  55.6972682 102.9373352 119.0446433  52.5541768  96.1098968
 119.7470477  53.0062812  96.5772894 118.7127062  51.9125587  96.7378861
 112.7871767  50.8125321 101.4116101 111.9970821  51.0682849 100.9356212
 113.2783015  51.6273658 101.5168142 114.7386513  51.1769900  98.3699578
 113.9417676  51.2888594  98.8883074 114.5112105  51.5156552  97.5040469
 120.5692180  57.7014603 106.3182093 120.6336613  58.1635010 107.1540265
 119.8603104  57.0711968 106.4464403 111.0709470  51.0655811 103.8431092
 111.3217509  51.9502821 104.1088668 111.6069019  50.8860413 103.0706184
 120.2840198  59.3682711  96.1861073 120.1485873  60.2134246  96.6145921
 120.8250011  59.5701988  95.4227007 113.7369595  56.8858149  96.7588998
 114.2494116  57.6801399  96.9094563 114.3892308  56.1884439  96.6922600
 115.5464480  60.0023905  98.8411751 115.7231109  60.9241870  98.6532735
 116.3421314  59.6882324  99.2706131 114.8316837  52.0488537 108.7173915
 114.7170352  51.1473794 109.0181013 113.9761354  52.2952233 108.3658731
 116.6695796  61.5202079 104.8422094 117.2203221  61.3919142 104.0699088
 115.8307272  61.8196968 104.4916986 120.4662967  57.7853206 109.1866325
 120.9991303  57.0241495 108.9565633 119.9377048  57.4926858 109.9290479
 111.7018512  55.2146803  97.5348569 112.5393734  55.6243811  97.3182276
 111.8796780  54.2746245  97.5048763 121.1830055  47.7271584  98.2817640
 120.3271652  47.3378435  98.1023279 121.5957007  47.8063545  97.4217426
 118.9572088  45.3456657 101.6875382 119.8225085  45.1499466 101.3281271
 119.0249597  45.1167009 102.6144738 121.8315679  56.9139199  96.6985137
 121.3037041  56.1791959  96.3858374 121.3303182  57.6913875  96.4525105
 116.5634407  47.5758865  99.0591748 117.1378159  47.3534047  98.3264941
 117.1505389  47.6447560  99.8120350 116.8903994  49.6063326  93.0787634
 116.0541306  49.9438013  93.3996908 116.7508764  49.4712306  92.1414771
 118.8657075  44.4500114  97.7866818 118.2121487  44.1349131  97.1623433
 118.8237549  43.8275855  98.5126641 119.9768280  54.7319409  89.7020110
 119.0695341  54.5008663  89.9011259 120.4739312  53.9357028  89.8894091
 121.1556513  54.8332004  94.2244100 120.2467732  54.5491037  94.3216570
 121.1851597  55.2531083  93.3647407 111.7244683  52.5537518  98.2059302
 111.5269083  51.9606879  97.4810369 111.1691347  52.2489728  98.9235241
 119.7041407  52.4460625 100.3253895 119.7590017  51.4934461 100.2496372
 118.8932609  52.6020064 100.8095194 120.8532601  56.3740748  91.5632179
 120.4152031  55.6576607  91.1037816 121.5943042  56.6016863  91.0017270
 117.6433767  51.0637684  98.0844274 116.8301633  51.3631855  98.4909466
 118.1392761  50.6693373  98.8018756 119.7942345  61.0595441 100.0178539
 119.7518524  61.2856288  99.0887071 120.7105044  60.8258816 100.1664340
 117.1347842  48.6356040 103.7005509 117.7747221  48.4944799 103.0028472
 116.3025372  48.3490553 103.3244111 117.9108146  57.9358470  99.8140502
 118.7048744  57.4408790  99.6123077 117.1999838  57.4076333  99.4508207
 114.2190909  52.0801552  95.8900254 113.2888497  52.0186008  96.1070216
 114.3148381  51.5577505  95.0936896 114.1376458  48.6056365  98.4778496
 114.3983275  49.5201698  98.3687656 114.9593630  48.1380807  98.6275109
 115.6101383  50.0194122 105.6477320 116.2824437  49.8111484 104.9989969
 114.7831170  49.8216208 105.2082553 120.4879422  58.5087492 103.4938339
 120.3490507  58.1406277 104.3664277 119.6994018  59.0235132 103.3222296
 121.0827574  63.6096589  94.8363875 121.2579329  63.1384632  95.6509498
 120.3960362  64.2362355  95.0645136 122.0384637  57.8869095 100.8827176
 121.7034469  57.8469865 101.7784826 121.5388582  57.2213811 100.4097587
 116.0128881  53.2936725 106.4079758 115.8748679  52.5616964 107.0091297
 116.9233804  53.2045625 106.1263945 118.6411181  53.0056684 105.8963437
 119.3510800  52.3649877 105.8550056 118.5980490  53.2569579 106.8189618
 117.3540115  49.9921902 107.7159077 116.8177472  49.5412641 108.3680673
 116.7656824  50.1267811 106.9729541 115.6488659  66.7585952 101.6103735
 115.8885257  67.3904476 102.2882754 114.8057855  66.4073992 101.8969095
 116.7642374  49.4510554  90.2785540 115.8871841  49.3299354  89.9147787
 117.2400127  48.6596632  90.0264429 108.2844514  54.2387713 100.3727048
 108.9715554  53.9249443  99.7848063 108.1292643  55.1429078 100.0994299
 113.0879237  49.1277910 104.8012071 113.0037425  48.5203580 104.0662481
 112.2661943  49.6186928 104.8021568 120.1616521  62.5665074 104.0145239
 120.0886692  63.3720046 104.5264544 119.7193914  62.7657040 103.1893261
 119.9506300  61.8036844  97.5248061 119.1673822  62.3458524  97.6186285
 120.6499046  62.3210824  97.9242302 119.8437919  49.7548856  99.8953951
 119.4735707  49.2019897 100.5834856 120.3397012  49.1506990  99.3428951
 117.6727118  60.2146352 106.9908969 118.3736577  60.8482834 107.1438363
 117.2022233  60.5561083 106.2304608 113.2694836  59.7482707 103.9240071
 113.8548273  59.0026394 104.0567976 113.0719674  60.0586663 104.8076735
 116.1233491  62.7833954  98.9402514 115.4543866  63.2680082  98.4566554
 115.9846361  63.0303174  99.8545892 107.8612491  52.3188307 102.6444515
 107.8996590  51.7851897 103.4381633 107.3552783  51.7923512 102.0255492
 120.2638760  64.8177697 105.5385172 120.8157068  64.9809319 106.3034257
 120.6044953  65.4082135 104.8665197 115.2403253  47.1652847 106.1407057
 115.3044579  48.0267678 105.7284455 115.1770373  46.5526849 105.4079415
 111.4921068  51.0452409  95.7198446 111.7874509  50.1363087  95.6665500
 110.5909104  51.0240148  95.3979448 115.0215315  49.1208405 101.7025995
 114.3001901  49.7344373 101.5633468 115.8108571  49.6566170 101.6242641
 113.2208910  48.7266507  95.8437771 112.8921616  47.8463886  95.6612877
 113.5748280  48.6714175  96.7314160 116.3350733  49.0139476  96.2113249
 116.6746805  49.5425398  95.4891857 116.7822853  49.3519883  96.9871815
 118.3218880  47.5114098  94.4106542 119.0427243  47.8895351  93.9070258
 117.6984184  48.2302975  94.5141520 117.2049224  51.1744960 101.9235619
 117.0593805  51.4885263 102.8159900 116.7274428  51.7929860 101.3706517
 119.0645607  48.1647508 101.9716508 119.0507176  47.2688601 101.6348806
 119.7818035  48.1718172 102.6054794 120.9171738  48.5984848 104.0169636
 120.6589516  49.5201919 104.0153966 120.3856778  48.2015283 104.7070100
 111.6794886  53.7150305 104.8623280 111.1348355  54.4910113 104.9943554
 112.5574236  54.0621109 104.7042401 118.4682503  47.0461888  97.2404078
 118.5898414  46.1178535  97.4394966 118.1784546  47.0600574  96.3282394
 121.3373694  44.7316799 100.3770798 121.3595390  44.7956132  99.4222778
 121.7541753  43.8921308 100.5711304 112.4660908  52.8420201 107.7553437
 111.7242644  52.9902836 108.3418067 112.1453653  53.1028466 106.8920186
 120.4104571  62.3836179 107.5533827 120.7191697  62.1385326 108.4256526
 121.2080053  62.5882818 107.0652697 120.4325183  64.5374089  99.7839203
 119.9930173  64.0450467 100.4772060 121.1833300  63.9947056  99.5431278
 112.9117522  60.7285630  99.7863831 113.7375542  60.4289401  99.4062475
 112.5611574  59.9593252 100.2353620 117.8799055  60.0812098 101.8561505
 117.2579064  59.4182803 101.5563733 118.5503922  60.1073230 101.1735153
 111.1126127  58.6471956 100.7452765 110.2758035  58.2194130 100.5636766
 111.0849772  58.8404399 101.6823556 117.4412562  58.6316021  95.3319965
 117.5900682  59.3151486  94.6786638 118.2479006  58.6121111  95.8469421
 115.1965195  54.6581199  96.3381034 114.9511237  53.7543529  96.5361244
 115.3661110  54.6598349  95.3960512 114.4660843  50.3909556  93.8367196
 113.7730088  50.4653911  93.1807232 114.2212595  49.6269900  94.3588713
 120.9407968  61.1264152  92.8031713 120.3681935  61.7454339  92.3502185
 121.5140761  61.6763513  93.3371635 121.3254766  52.4624964  90.1447765
 122.2713871  52.3331172  90.2136183 120.9469011  51.7239626  90.6217193
 119.5097683  50.3874941  90.0802651 118.6029139  50.0908053  90.1565364
 119.7873664  50.0904759  89.2136937 110.4275624  51.7081304 100.5301697
 110.1078408  50.8546612 100.2376071 109.8809052  51.9229882 101.2859664
 114.2055531  54.4243745 104.2471203 114.4241541  55.3560853 104.2659237
 114.6181305  54.0651720 105.0326007 121.1259749  44.9311830  96.2346892
 120.3160477  44.5858915  96.6102138 121.8144166  44.6219374  96.8234503
 118.2796468  47.2461876  90.2214630 119.1415632  47.5716774  90.4810447
 118.4646812  46.4593372  89.7087696 110.2963884  55.3284216 102.4994819
 109.6027355  54.9138168 101.9864773 111.0436875  55.3704752 101.9028237
 112.2100626  55.2602469 100.3760833 112.1871314  55.3590157  99.4242716
 112.5201263  56.1067620 100.6978000 114.8688004  57.3178624 104.4907448
 115.8231258  57.2862567 104.4237379 114.6700528  56.8569248 105.3057674
 115.4587386  55.8879740 107.0578245 116.2780275  56.3823819 107.0813083
 115.7324194  54.9711709 107.0295813 113.2238233  62.8598244 101.5077646
 113.0892701  62.0998645 100.9415644 112.8070295  63.5839144 101.0406435
 116.3807359  63.7567561 101.7196088 116.2639743  64.7012993 101.6174779
 115.5599805  63.4541122 102.1081888 110.7122300  50.2217874 107.7570443
 111.3581164  49.7116828 108.2457668 110.5039452  50.9586556 108.3313868
 119.2325911  44.4857919  93.5094339 119.2204581  45.4299759  93.6662610
 120.1249333  44.3028064  93.2153800 117.4061873  64.4095823 104.9352017
 118.3089120  64.4419433 105.2518512 117.1799243  63.4796274 104.9498353
 119.1615475  63.1626809 101.5962095 118.2111106  63.1628671 101.4826468
 119.4647961  62.4159544 101.0798130 121.9103225  66.3947729 103.8431092
 122.1611263  67.2794739 104.1088668 122.4462773  66.2152330 103.0706184
 119.1238269  69.5679631 100.3727048 119.8109309  69.2541361  99.7848063
 118.9686398  70.4720996 100.0994299 118.7006245  67.6480224 102.6444515
 118.7390345  67.1143815 103.4381633 118.1946538  67.1215430 102.0255492
 121.9519882  73.9763874 100.7452765 121.1151790  73.5486048 100.5636766
 121.9243527  74.1696317 101.6823556 121.2669378  67.0373222 100.5301697
 120.9472162  66.1838530 100.2376071 120.7202806  67.2521800 101.2859664
 121.1357638  70.6576133 102.4994819 120.4421110  70.2430086 101.9864773
 121.8830629  70.6996670 101.9028237 121.5516055  65.5509792 107.7570443
 122.1974919  65.0408746 108.2457668 121.3433206  66.2878474 108.3313868
  96.3314321  10.3578845  84.1900840  96.2538351  11.3086670  84.2689321
  95.7275965  10.0124717  84.8475766  93.9701151  13.1064239  88.3349042
  94.2097749  13.7382763  89.0128061  93.1270348  12.7552279  88.6214401
  94.4445983   9.1312241  85.6647821  93.7756359   9.6158369  85.1811861
  94.3058853   9.3781462  86.5791199  98.5851252  11.1655985  92.2630479
  99.1369560  11.3287606  93.0279564  98.9257445  11.7560423  91.5910504
  98.7537675  10.8852376  86.5084510  98.3142666  10.3928755  87.2017367
  99.5045792  10.3425344  86.2676585  91.5450725   9.2076531  88.2322952
  91.4105193   8.4476932  87.6660950  91.1282787   9.9317431  87.7651741
  94.7019851  10.1045848  88.4441395  94.5852235  11.0491281  88.3420085
  93.8812297   9.8019410  88.8327194  95.7274365  10.7574110  91.6597323
  96.6301612  10.7897720  91.9763818  95.5011735   9.8274561  91.6743659
 110.0270367  15.2993063  89.3214689 109.6888878  15.1834128  88.4335224
 110.8960135  14.8984228  89.3015695 105.8857183  17.1528540  85.3111580
 105.3222048  17.0618476  84.5427868 105.7709578  16.3328444  85.7914073
 103.4321615  18.6479731  88.1495801 104.2242906  18.3070556  87.7342100
 103.6718265  18.7574706  89.0697954 111.4656741  20.8199507  80.6226045
 110.8144721  21.4053588  80.2360059 112.2601104  21.3505702  80.6821082
 105.3912368  17.9088644  81.0213179 106.1643244  17.3617631  80.8826055
 105.7437767  18.7732894  81.2327641 107.2297411  19.2365027  94.2280079
 106.9387277  20.1410657  94.1126745 107.8654395  19.2781554  94.9424148
 108.1553618  16.6141875  90.8181438 108.7517190  16.3897898  90.1038401
 108.2128589  15.8726621  91.4206886 107.7278646  14.0681310  78.6531629
 107.9804167  13.5462832  77.8915092 106.7903205  13.9047456  78.7558313
 112.9432006  18.5089939  81.1595029 112.3077839  18.5824566  81.8715934
 112.6129413  19.0983538  80.4814109 107.4474935  15.9709416  80.8556004
 107.3311193  15.2954320  81.5237088 107.5577195  15.4841790  80.0388157
 109.7906476  15.4319564  84.5602693 109.4264683  14.9050185  85.2715615
 110.6473592  15.0418033  84.3869179 112.1887296  18.9226442  91.2229872
 111.8888019  19.8251481  91.1145680 111.8438356  18.6558625  92.0751025
 105.6399778  15.3740239  87.2566577 104.7150274  15.2416453  87.4644268
 105.8884191  16.1534458  87.7536519 103.0008589  15.0173513  88.0910366
 103.1300970  15.2707991  89.0049777 102.3206040  15.6101221  87.7715021
 107.1708076  25.6870762  84.1900840 107.0932106  26.6378588  84.2689321
 106.5669720  25.3416635  84.8475766 107.9171678  15.6684081  96.4080174
 108.6586362  16.2069125  96.1314998 107.2108663  16.2950370  96.5651726
 113.7155832  18.3714412  88.7604624 113.0864695  18.5360126  88.0580692
 113.3281494  18.7856022  89.5315588 117.5945064  19.3068850  86.1148988
 116.9096102  19.6867752  85.5646021 117.6788914  19.9164177  86.8480936
 109.2683794  18.1088820  86.0254709 109.7322140  18.3876523  85.2359332
 109.0040592  17.2072265  85.8427800 106.1607875  17.6560302  88.9634473
 106.7309232  18.0847570  88.3251957 106.7515987  17.3742887  89.6618658
 108.2052680  14.2311973  82.8344274 108.9076724  14.6833016  83.3018201
 107.8733309  13.5895792  83.4624168 101.9478014  12.4895525  88.1361408
 101.1577068  12.7453054  87.6601519 102.4389262  13.3043863  88.2413449
 115.9641824  19.8300765  90.8866689 116.7859267  19.4280952  90.6049371
 115.9604227  19.7268999  91.8382805 103.8992760  12.8540105  85.0944885
 103.1023923  12.9658799  85.6128380 103.6718352  13.1926757  84.2285775
 109.7298427  19.3784808  93.0427399 109.7942860  19.8405215  93.8785571
 109.0209351  18.7482173  93.1709709 100.2315717  12.7426016  90.5676399
 100.4823756  13.6273026  90.8333975 100.7675266  12.5630617  89.7951491
 109.4446445  21.0452915  82.9106380 109.3092120  21.8904451  83.3391228
 109.9856257  21.2472193  82.1472314 102.8975842  18.5628353  83.4834305
 103.4100363  19.3571604  83.6339869 103.5498555  17.8654644  83.4167906
 104.7070727  21.6794110  85.5657058 104.8837355  22.6012074  85.3778042
 105.5027560  21.3652529  85.9951438 103.9923083  13.7258742  95.4419221
 103.8776599  12.8243999  95.7426320 103.1367601  13.9722438  95.0904038
 111.0714921  21.6676482  97.0406722 110.6278775  20.8812861  96.7227626
 111.7332135  21.8555632  96.3750613 105.8302042  23.1972284  91.5667400
 106.3809468  23.0689347  90.7944394 104.9913518  23.4967173  91.2162293
 109.6269213  19.4623411  95.9111631 110.1597550  18.7011700  95.6810939
 109.0983295  19.1697063  96.6535786 100.8624759  16.8917008  84.2593875
 101.6999981  17.3014016  84.0427583 101.0403027  15.9516450  84.2294069
 117.7323465  17.3124443  81.8830882 116.9552908  16.9735603  81.4386044
 118.4114946  17.3177066  81.2085847 110.9921926  18.5909404  83.4230443
 110.4643288  17.8562163  83.1103681 110.4909429  19.3684080  83.1770412
 115.9714772  16.7858424  88.5397490 115.3138447  17.4757686  88.6277618
 116.7755171  17.1754856  88.8831476 109.1374526  16.4089614  76.4265416
 108.2301588  16.1778868  76.6256565 109.6345558  15.6127233  76.6139398
 112.0442605  25.1187121  79.3462103 111.3704304  25.4218818  79.9547060
 112.4308427  25.9216202  78.9967560 110.3162760  16.5102209  80.9489407
 109.4073979  16.2261242  81.0461876 110.3457844  16.9301288  80.0892713
 115.5482027  20.1208798  84.7180574 115.0944354  19.2799708  84.7745765
 114.9175994  20.7570197  85.0555354 113.9914966  21.9585295  85.6530392
 114.2837941  22.5190352  84.9342758 114.5013587  22.2513856  86.4083551
 100.8850930  14.2307723  84.9304609 100.6875330  13.6377084  84.2055675
 100.3297594  13.9259933  85.6480548 110.0138848  18.0510953  78.2877485
 109.5758278  17.3346812  77.8283122 110.7549288  18.2787067  77.7262577
 108.9548592  22.7365646  86.7423845 108.9124770  22.9626493  85.8132378
 109.8711290  22.5029021  86.8909647 107.0714392  19.6128675  86.5385808
 107.8654991  19.1178995  86.3368383 106.3606085  19.0846538  86.1753514
 111.8909237  21.9946771  90.8898176 111.9446259  22.5637707  91.6575892
 111.0224018  22.1648656  90.5252213 103.3797156  13.7571757  82.6145561
 102.4494744  13.6956212  82.8315523 103.4754628  13.2347710  81.8182202
 110.8497337  16.1607033  92.4485108 111.7789397  16.3118192  92.2754075
 110.4288367  16.2491054  91.5933754 109.6485668  20.1857697  90.2183645
 109.5096754  19.8176482  91.0909583 108.8600265  20.7005337  90.0467603
 110.2433820  25.2866794  81.5609182 110.4185576  24.8154837  82.3754805
 109.5566608  25.9132560  81.7890443 111.1990884  19.5639300  87.6072483
 110.8640716  19.5240070  88.5030133 110.6994829  18.8984016  87.1342893
 105.1735128  14.9706930  93.1325064 105.0354925  14.2387169  93.7336603
 106.0840051  14.8815830  92.8509252 114.1350075  16.9095334  77.8809543
 113.5179246  16.1842162  77.7842595 113.6666564  17.6704695  77.5376617
 107.8017428  14.6826889  92.6208744 108.5117047  14.0420082  92.5795362
 107.7586736  14.9339784  93.5434925 104.8094906  28.4356156  88.3349042
 105.0491504  29.0674681  89.0128061 103.9664102  28.0844197  88.6214401
  97.4450761  15.9157918  87.0972354  98.1321801  15.6019648  86.5093369
  97.2898890  16.8199283  86.8239606 109.3222768  24.2435279  90.7390546
 109.2492939  25.0490250  91.2509851 108.8800161  24.4427245  89.9138567
 109.1112547  23.4807049  84.2493368 108.3280069  24.0228729  84.3431592
 109.8105292  23.9981029  84.6487609 111.7821451  24.1422113  92.8948705
 112.4949423  24.7769578  92.8224606 111.2911480  24.2385979  92.0788706
 113.5038978  18.0473366  84.4665996 112.5695257  18.1674828  84.2970701
 113.6815646  17.1445832  84.2026006 106.8333365  21.8916556  93.7154275
 107.5342824  22.5253039  93.8683670 106.3628480  22.2331288  92.9549915
 114.9587760  20.2334506  82.0002182 115.2347604  20.1191101  82.9096057
 114.0892259  19.8351991  81.9614356 111.5941824  24.4820857  85.6434996
 111.7764219  23.6642513  86.1062748 112.4174810  24.6988549  85.2059886
 111.9283990  23.4089042  82.9050045 112.4571756  22.8981497  82.2920207
 112.1912209  23.0931572  83.7695578 102.4301083  21.4252911  90.6485378
 103.0154519  20.6796599  90.7813282 102.2325921  21.7356868  91.5322042
 105.2839738  24.4604159  85.6647821 104.6150113  24.9450286  85.1811861
 105.1452608  24.7073379  86.5791199  97.0218737  13.9958512  89.3689821
  97.0602837  13.4622102  90.1626939  96.5159030  13.4693717  88.7500798
 109.4245006  26.4947902  92.2630479 109.9763314  26.6579524  93.0279564
 109.7651200  27.0852340  91.5910504 100.6527315  12.7222614  82.4443753
 100.9480756  11.8133292  82.3910806  99.7515351  12.7010353  82.1224755
 112.5613394  24.4429878  89.2494161 112.4364533  23.6419618  88.7405107
 113.2192485  24.9376071  88.7608131 114.6248302  22.2438898  90.8773711
 113.6778638  22.1244249  90.8052038 114.9731075  21.3561396  90.9599973
 111.6294735  22.0391614  87.0778063 111.4819698  21.1108322  87.2585633
 112.4548229  22.0611705  86.5935139 115.2328857  22.8620173  88.1642936
 116.1575405  22.6563034  88.0267387 115.0644161  22.6136574  89.0732278
 106.3655471  12.8515165  88.6480925 106.2200052  13.1655468  89.5405207
 105.8880675  13.4700065  88.0951824 115.0224173  23.3805840  83.5205028
 115.1961051  22.8152263  82.7678880 115.5153065  24.1806735  83.3384518
 100.8401133  15.3920509  91.5868586 100.2954601  16.1680317  91.7188861
 101.7180483  15.7391314  91.4287708 116.0099346  22.6972605  80.6201926
 116.7050251  23.3179297  80.8389240 116.3522496  21.8467956  80.8954304
 101.6267155  14.5190406  94.4798743 100.8848891  14.6673041  95.0663374
 101.3059899  14.7798671  93.6165493 117.9090769  20.1472310  82.1489257
 118.4342093  20.4859583  81.4238577 117.8213122  19.2119326  81.9652391
 109.5710818  24.0606384  94.2779133 109.8797944  23.8155531  95.1501833
 110.3686300  24.2653022  93.7898003 109.5931430  26.2144294  86.5084510
 109.1536420  25.7220672  87.2017367 110.3439547  25.6717261  86.2676585
 102.0723769  22.4055834  86.5109138 102.8981789  22.1059606  86.1307781
 101.7217821  21.6363457  86.9598927 107.0405302  21.7582303  88.5806811
 106.4185311  21.0953008  88.2809039 107.7110169  21.7843435  87.8980459
 100.2732374  20.3242161  87.4698071  99.4364282  19.8964335  87.2882073
 100.2456019  20.5174604  88.4068863 106.6018809  20.3086226  82.0565272
 106.7506929  20.9921690  81.4031945 107.4085252  20.2891316  82.5714728
 104.3571442  16.3351404  83.0626341 104.1117484  15.4313734  83.2606551
 104.5267356  16.3368554  82.1205819 110.1014214  22.8034356  79.5277019
 109.5288181  23.4224544  79.0747491 110.6747008  23.3533718  80.0616941
 113.3211474  23.0871507  80.6585602 114.2542147  23.0217068  80.8618477
 113.2334687  23.9227773  80.2000134 115.9499491  22.4037377  77.6189549
 115.8713122  22.0697241  78.5125307 116.7709158  22.8959145  77.6181022
  99.5881870  13.3851509  87.2547004  99.2684655  12.5316817  86.9621378
  99.0415299  13.6000087  88.0104971 103.3661778  16.1013950  90.9716510
 103.5847788  17.0331058  90.9904544 103.7787552  15.7421924  91.7571314
  99.4570130  17.0054421  89.2240125  98.7633602  16.5908373  88.7110080
 100.2043121  17.0474957  88.6273544 101.3706873  16.9372674  87.1006140
 101.3477561  17.0360362  86.1488023 101.6807509  17.7837825  87.4223306
 104.0294251  18.9948829  91.2152754 104.9837504  18.9632772  91.1482686
 103.8306774  18.5339453  92.0302980 104.6193633  17.5649945  93.7823552
 105.4386522  18.0594024  93.8058389 104.8930441  16.6481914  93.7541120
 102.3844480  24.5368449  88.2322952 102.2498948  23.7768850  87.6660950
 101.9676542  25.2609349  87.7651741 113.5203443  19.7205372  77.2399528
 114.2239293  19.9255375  77.8557183 112.7966091  20.2882134  77.5048611
 105.5413605  25.4337766  88.4441395 105.4245990  26.3783198  88.3420085
 104.7206052  25.1311327  88.8327194 115.4290140  20.1587902  79.2897988
 116.2635744  19.7269100  79.1075462 115.2674483  19.9869915  80.2174882
 115.0836032  16.6620015  80.6554327 115.0284836  16.4964286  79.7142771
 114.4582087  17.3696048  80.8116517  99.8728547  11.8988079  94.4815749
 100.5187411  11.3887033  94.9702974  99.6645698  12.6356761  95.0559174
 106.5668120  26.0866028  91.6597323 107.4695366  26.1189638  91.9763818
 106.3405490  25.1566479  91.6743659 108.3221722  24.8397014  88.3207402
 107.3717353  24.8398876  88.2071774 108.6254208  24.0929749  87.8043437
 120.8664121  30.6284981  89.3214689 120.5282633  30.5126045  88.4335224
 121.7353890  30.2276146  89.3015695 116.7250937  32.4820457  85.3111580
 116.1615802  32.3910394  84.5427868 116.6103332  31.6620362  85.7914073
 114.2715369  33.9771649  88.1495801 115.0636661  33.6362473  87.7342100
 114.5112019  34.0866624  89.0697954 116.2306123  33.2380562  81.0213179
 117.0036999  32.6909549  80.8826055 116.5831522  34.1024811  81.2327641
 118.0691166  34.5656944  94.2280079 117.7781032  35.4702575  94.1126745
 118.7048150  34.6073472  94.9424148 118.9947372  31.9433793  90.8181438
 119.5910945  31.7189815  90.1038401 119.0522344  31.2018538  91.4206886
 118.5672401  29.3973228  78.6531629 118.8197921  28.8754749  77.8915092
 117.6296960  29.2339374  78.7558313 118.2868690  31.3001334  80.8556004
 118.1704948  30.6246237  81.5237088 118.3970949  30.8133708  80.0388157
 120.6300230  30.7611481  84.5602693 120.2658438  30.2342102  85.2715615
 121.4867346  30.3709950  84.3869179 120.2705717  25.7901381  79.5564042
 120.4380120  26.6581617  79.9234513 120.0802887  25.9528663  78.6325331
 116.4793532  30.7032157  87.2566577 115.5544029  30.5708371  87.4644268
 116.7277945  31.4826376  87.7536519 120.2494938  28.2459038  80.5410709
 120.1294564  28.6916089  81.3796189 119.5547527  28.5944356  79.9824247
 113.8402343  30.3465430  88.0910366 113.9694724  30.5999909  89.0049777
 113.1599794  30.9393138  87.7715021 118.0101830  41.0162680  84.1900840
 117.9325860  41.9670505  84.2689321 117.4063474  40.6708553  84.8475766
 118.7565432  30.9975999  96.4080174 119.4980117  31.5361043  96.1314998
 118.0502418  31.6242288  96.5651726 120.5851842  28.0777746  92.3785892
 121.4313037  28.5017160  92.5220541 120.5250480  27.4211371  93.0724455
 120.1077549  33.4380738  86.0254709 120.5715894  33.7168441  85.2359332
 119.8434347  32.5364183  85.8427800 117.0001630  32.9852220  88.9634473
 117.5702987  33.4139488  88.3251957 117.5909742  32.7034804  89.6618658
 119.0446435  29.5603891  82.8344274 119.7470478  30.0124934  83.3018201
 118.7127063  28.9187709  83.4624168 112.7871769  27.8187443  88.1361408
 111.9970823  28.0744972  87.6601519 113.2783016  28.6335781  88.2413449
 114.7386514  28.1832022  85.0944885 113.9417677  28.2950717  85.6128380
 114.5112106  28.5218675  84.2285775 120.5692182  34.7076726  93.0427399
 120.6336614  35.1697133  93.8785571 119.8603106  34.0774091  93.1709709
 111.0709472  28.0717934  90.5676399 111.3217510  28.9564944  90.8333975
 111.6069020  27.8922535  89.7951491 120.2840199  36.3744833  82.9106380
 120.1485874  37.2196369  83.3391228 120.8250012  36.5764111  82.1472314
 113.7369597  33.8920271  83.4834305 114.2494117  34.6863521  83.6339869
 114.3892310  33.1946562  83.4167906 115.5464481  37.0086027  85.5657058
 115.7231110  37.9303992  85.3778042 116.3421315  36.6944447  85.9951438
 114.8316838  29.0550659  95.4419221 114.7170353  28.1535917  95.7426320
 113.9761356  29.3014356  95.0904038 116.6695797  38.5264201  91.5667400
 117.2203222  38.3981265  90.7944394 115.8307273  38.8259090  91.2162293
 120.4662968  34.7915329  95.9111631 120.9991305  34.0303617  95.6810939
 119.9377049  34.4988981  96.6535786 111.7018514  32.2208925  84.2593875
 112.5393736  32.6305934  84.0427583 111.8796781  31.2808368  84.2294069
 121.1830057  24.7333707  85.0062947 120.3271653  24.3440557  84.8268585
 121.5957008  24.8125668  84.1462732 118.9572089  22.3518780  88.4120688
 119.8225086  22.1561589  88.0526578 119.0249598  22.1229132  89.3390045
 121.8315681  33.9201322  83.4230443 121.3037042  33.1854081  83.1103681
 121.3303183  34.6975998  83.1770412 116.5634408  24.5820988  85.7837055
 117.1378160  24.3596169  85.0510248 117.1505391  24.6509682  86.5365656
 116.8903995  26.6125449  79.8032940 116.0541308  26.9500135  80.1242215
 116.7508765  26.4774429  78.8660077 118.8657076  21.4562237  84.5112124
 118.2121488  21.1411254  83.8868739 118.8237550  20.8337977  85.2371947
 119.9768281  31.7381532  76.4265416 119.0695343  31.5070785  76.6256565
 120.4739313  30.9419151  76.6139398 121.1556514  31.8394127  80.9489407
 120.2467734  31.5553159  81.0461876 121.1851598  32.2593205  80.0892713
 111.7244685  29.5599641  84.9304609 111.5269084  28.9669001  84.2055675
 111.1691349  29.2551851  85.6480548 119.7041408  29.4522747  87.0499202
 119.7590018  28.4996584  86.9741679 118.8932610  29.6082186  87.5340500
 120.8532602  33.3802870  78.2877485 120.4152032  32.6638729  77.8283122
 121.5943043  33.6078985  77.7262577 117.6433768  28.0699807  84.8089581
 116.8301634  28.3693978  85.2154773 118.1392762  27.6755496  85.5264063
 119.7942346  38.0657564  86.7423845 119.7518525  38.2918410  85.8132378
 120.7105045  37.8320939  86.8909647 117.1347843  25.6418163  90.4250816
 117.7747222  25.5006922  89.7273779 116.3025374  25.3552676  90.0489418
 117.9108147  34.9420593  86.5385808 118.7048745  34.4470913  86.3368383
 117.1999839  34.4138456  86.1753514 114.2190910  29.0863675  82.6145561
 113.2888498  29.0248130  82.8315523 114.3148382  28.5639627  81.8182202
 114.1376459  25.6118488  85.2023803 114.3983277  26.5263821  85.0932963
 114.9593632  25.1442930  85.3520415 115.6101385  27.0256245  92.3722627
 116.2824438  26.8173607  91.7235276 114.7831171  26.8278331  91.9327859
 120.4879423  35.5149615  90.2183645 120.3490509  35.1468399  91.0909583
 119.6994019  36.0297254  90.0467603 121.0827575  40.6158711  81.5609182
 121.2579331  40.1446755  82.3754805 120.3960363  41.2424478  81.7890443
 122.0384638  34.8931218  87.6072483 121.7034471  34.8531988  88.5030133
 121.5388584  34.2275934  87.1342893 116.0128882  30.2998848  93.1325064
 115.8748680  29.5679086  93.7336603 116.9233805  30.2107748  92.8509252
 118.6411183  30.0118807  92.6208744 119.3510801  29.3711999  92.5795362
 118.5980491  30.2631702  93.5434925 117.3540117  26.9984025  94.4404383
 116.8177474  26.5474763  95.0925980 116.7656825  27.1329934  93.6974848
 115.6488660  43.7648074  88.3349042 115.8885258  44.3966598  89.0128061
 114.8057857  43.4136114  88.6214401 116.7642376  26.4572676  77.0030847
 115.8871842  26.3361477  76.6393094 117.2400129  25.6658755  76.7509736
 108.2844516  31.2449836  87.0972354 108.9715556  30.9311566  86.5093369
 108.1292644  32.1491201  86.8239606 113.0879238  26.1340033  91.5257378
 113.0037427  25.5265702  90.7907788 112.2661944  26.6249051  91.5266874
 120.1616522  39.5727197  90.7390546 120.0886693  40.3782168  91.2509851
 119.7193915  39.7719162  89.9138567 119.9506302  38.8098967  84.2493368
 119.1673824  39.3520647  84.3431592 120.6499047  39.3272946  84.6487609
 119.8437920  26.7610979  86.6199258 119.4735708  26.2082019  87.3080163
 120.3397013  26.1569113  86.0674258 117.6727119  37.2208474  93.7154275
 118.3736579  37.8544957  93.8683670 117.2022234  37.5623206  92.9549915
 113.2694837  36.7544829  90.6485378 113.8548274  36.0088517  90.7813282
 113.0719676  37.0648786  91.5322042 116.1233492  39.7896077  85.6647821
 115.4543868  40.2742204  85.1811861 115.9846362  40.0365297  86.5791199
 107.8612492  29.3250429  89.3689821 107.8996591  28.7914020  90.1626939
 107.3552785  28.7985635  88.7500798 120.2638761  41.8239820  92.2630479
 120.8157069  41.9871442  93.0279564 120.6044954  42.4144258  91.5910504
 115.2403254  24.1714970  92.8652364 115.3044581  25.0329801  92.4529761
 115.1770374  23.5588972  92.1324722 111.4921069  28.0514532  82.4443753
 111.7874511  27.1425210  82.3910806 110.5909105  28.0302271  82.1224755
 115.0215316  26.1270528  88.4271301 114.3001902  26.7406496  88.2878775
 115.8108572  26.6628293  88.3487947 113.2208911  25.7328629  82.5683078
 112.8921617  24.8526008  82.3858184 113.5748282  25.6776298  83.4559467
 116.3350734  26.0201599  82.9358556 116.6746807  26.5487520  82.2137164
 116.7822855  26.3582005  83.7117122 118.3218881  24.5176221  81.1351848
 119.0427244  24.8957473  80.6315565 117.6984185  25.2365097  81.2386826
 117.2049226  28.1807083  88.6480925 117.0593806  28.4947386  89.5405207
 116.7274429  28.7991983  88.0951824 119.0645608  25.1709631  88.6961815
 119.0507177  24.2750724  88.3594113 119.7818037  25.1780294  89.3300101
 120.9171739  25.6046971  90.7414942 120.6589517  26.5264042  90.7399273
 120.3856780  25.2077405  91.4315406 111.6794888  30.7212427  91.5868586
 111.1348356  31.4972235  91.7188861 112.5574238  31.0683232  91.4287708
 118.4682504  24.0524011  83.9649385 118.5898416  23.1240657  84.1640272
 118.1784547  24.0662697  83.0527700 121.3373695  21.7378921  87.1016105
 121.3595392  21.8018255  86.1468084 121.7541754  20.8983430  87.2956611
 112.4660910  29.8482323  94.4798743 111.7242646  29.9964959  95.0663374
 112.1453654  30.1090589  93.6165493 120.4104572  39.3898302  94.2779133
 120.7191699  39.1447448  95.1501833 121.2080054  39.5944940  93.7898003
 120.4325184  41.5436211  86.5084510 119.9930175  41.0512590  87.2017367
 121.1833301  41.0009179  86.2676585 112.9117523  37.7347752  86.5109138
 113.7375543  37.4351524  86.1307781 112.5611575  36.9655375  86.9598927
 117.8799056  37.0874220  88.5806811 117.2579066  36.4244925  88.2809039
 118.5503923  37.1135352  87.8980459 111.1126128  35.6534079  87.4698071
 110.2758037  35.2256253  87.2882073 111.0849774  35.8466522  88.4068863
 117.4412563  35.6378144  82.0565272 117.5900684  36.3213608  81.4031945
 118.2479007  35.6183234  82.5714728 115.1965196  31.6643321  83.0626341
 114.9511238  30.7605651  83.2606551 115.3661111  31.6660472  82.1205819
 114.4660844  27.3971679  80.5612502 113.7730089  27.4716034  79.9052538
 114.2212596  26.6332023  81.0834019 120.9407969  38.1326274  79.5277019
 120.3681936  38.7516461  79.0747491 121.5140763  38.6825636  80.0616941
 121.3254767  29.4687087  76.8693072 122.2713872  29.3393295  76.9381490
 120.9469012  28.7301749  77.3462500 119.5097685  27.3937063  76.8047957
 118.6029140  27.0970176  76.8810671 119.7873666  27.0966881  75.9382243
 110.4275625  28.7143427  87.2547004 110.1078409  27.8608735  86.9621378
 109.8809053  28.9292005  88.0104971 114.2055532  31.4305868  90.9716510
 114.4241542  32.3622976  90.9904544 114.6181306  31.0713842  91.7571314
 121.1259750  21.9373953  82.9592198 120.3160479  21.5921038  83.3347445
 121.8144167  21.6281497  83.5479810 118.2796469  24.2523999  76.9459936
 119.1415633  24.5778897  77.2055754 118.4646813  23.4655494  76.4333002
 110.2963885  32.3346338  89.2240125 109.6027356  31.9200291  88.7110080
 111.0436876  32.3766875  88.6273544 112.2100627  32.2664592  87.1006140
 112.1871316  32.3652279  86.1488023 112.5201264  33.1129743  87.4223306
 114.8688005  34.3240747  91.2152754 115.8231259  34.2924689  91.1482686
 114.6700529  33.8631371  92.0302980 115.4587387  32.8941863  93.7823552
 116.2780276  33.3885942  93.8058389 115.7324195  31.9773831  93.7541120
 113.2238234  39.8660367  88.2322952 113.0892702  39.1060767  87.6660950
 112.8070296  40.5901266  87.7651741 116.3807360  40.7629684  88.4441395
 116.2639744  41.7075116  88.3420085 115.5599806  40.4603245  88.8327194
 110.7122302  27.2279997  94.4815749 111.3581165  26.7178951  94.9702974
 110.5039453  27.9648679  95.0559174 119.2325912  21.4920042  80.2339645
 119.2204582  22.4361881  80.3907916 120.1249334  21.3090187  79.9399107
 117.4061874  41.4157945  91.6597323 118.3089121  41.4481556  91.9763818
 117.1799244  40.4858396  91.6743659 119.1615476  40.1688932  88.3207402
 118.2111107  40.1690794  88.2071774 119.4647962  39.4221667  87.8043437
 121.9103226  43.4009851  90.5676399 122.1611265  44.2856861  90.8333975
 122.4462775  43.2214453  89.7951491 119.1238270  46.5741754  87.0972354
 119.8109310  46.2603484  86.5093369 118.9686399  47.4783118  86.8239606
 118.7006246  44.6542347  89.3689821 118.7390346  44.1205938  90.1626939
 118.1946539  44.1277553  88.7500798 121.9519883  50.9825996  87.4698071
 121.1151791  50.5548171  87.2882073 121.9243528  51.1758440  88.4068863
 121.2669379  44.0435344  87.2547004 120.9472164  43.1900653  86.9621378
 120.7202808  44.2583923  88.0104971 121.1357639  47.6638256  89.2240125
 120.4421111  47.2492209  88.7110080 121.8830630  47.7058792  88.6273544
 121.5516056  42.5571915  94.4815749 122.1974920  42.0470869  94.9702974
 121.3433207  43.2940596  95.0559174 118.0101832  18.0224803  70.9146147
 117.9325861  18.9732628  70.9934627 117.4063475  17.6770675  71.5721073
 115.6488661  20.7710197  75.0594349 115.8885260  21.4028721  75.7373367
 114.8057858  20.4198237  75.3459708 116.1233494  16.7958199  72.3893127
 115.4543869  17.2804327  71.9057167 115.9846363  17.0427420  73.3036506
 120.2638762  18.8301943  78.9875786 120.8157070  18.9933564  79.7524871
 120.6044956  19.4206380  78.3155810 120.4325186  18.5498334  73.2329816
 119.9930176  18.0574713  73.9262673 121.1833303  18.0071302  72.9921892
 113.2238235  16.8722489  74.9568259 113.0892703  16.1122890  74.3906257
 112.8070298  17.5963389  74.4897048 116.3807361  17.7691806  75.1686702
 116.2639745  18.7137239  75.0665392 115.5599808  17.4665368  75.5572501
 117.4061875  18.4220068  78.3842630 118.3089122  18.4543678  78.7009125
 117.1799245  17.4920519  78.3988966 121.9103227  20.4071974  77.2921705
 122.1611266  21.2918984  77.5579281 122.4462776  20.2276575  76.5196797
 119.1238271  23.5803876  73.8217661 119.8109311  23.2665606  73.2338676
 118.9686400  24.4845241  73.5484912 118.7006248  21.6604470  76.0935128
 118.7390347  21.1268060  76.8872246 118.1946540  21.1339675  75.4746105
 121.9519884  27.9888119  74.1943378 121.1151792  27.5610293  74.0127379
 121.9243529  28.1820562  75.1314169 121.2669381  21.0497467  73.9792310
 120.9472165  20.1962775  73.6866684 120.7202809  21.2646045  74.7350278
 121.1357641  24.6700378  75.9485432 120.4421112  24.2554331  75.4355386
 121.8830632  24.7120915  75.3518851 121.5516057  19.5634037  81.2061056
 122.1974921  19.0532991  81.6948281 121.3433209  20.3002719  81.7804481
  47.0080073  71.1062878 132.4480873  46.3341772  71.4094575 133.0565831
  47.3945895  71.9091958 132.0986330  49.0987543  62.8971091 130.9828313
  48.4816714  62.1717919 130.8861366  48.6304032  63.6580451 130.6395387
  50.9736814  68.6848361 133.7220696  51.6687719  69.3055054 133.9408011
  51.3159964  67.8343713 133.9973074  45.0651682  68.7910113 132.6295790
  44.4925650  69.4100300 132.1766262  45.6384476  69.3409475 133.1635712
  48.2848942  69.0747263 133.7604372  49.2179615  69.0092825 133.9637248
  48.1972155  69.9103530 133.3018905  50.9136959  68.3913134 130.7208320
  50.8350590  68.0572997 131.6144078  51.7346626  68.8834901 130.7199792
  48.4840911  65.7081129 130.3418298  49.1876761  65.9131131 130.9575954
  47.7603559  66.2757891 130.6067381  50.3927608  66.1463658 132.3916758
  51.2273212  65.7144857 132.2094233  50.2311951  65.9745672 133.3193653
  51.8541463  72.6001205 132.9051711  51.0178776  72.9375892 133.2260985
  51.7146233  72.4650185 131.9678848  51.7279844  72.4448433 130.1049617
  50.8509310  72.3237234 129.7411864  52.2037597  71.6534511 129.8528506
  49.4298312  73.3847436 133.6631273  48.7367557  73.4591790 133.0071309
  49.1850064  72.6207779 134.1852790  54.4735153  73.3812820 129.9066728
  53.5666608  73.0845933 129.9829441  54.7511134  73.0842638 129.0401014
  53.2433937  70.2399755 130.0478707  54.1053101  70.5654653 130.3074524
  53.4284281  69.4531251 129.5351773  54.1963380  67.4795798 133.3358416
  54.1842050  68.4237638 133.4926687  55.0886802  67.2965944 133.0417877
  47.0080075  48.1125000 119.1726180  46.3341773  48.4156697 119.7811137
  47.3945896  48.9154081 118.8231637  49.0987544  39.9033213 117.7073620
  48.4816715  39.1780042 117.6106672  48.6304033  40.6642574 117.3640694
  50.9736815  45.6910484 120.4466003  51.6687720  46.3117177 120.6653318
  51.3159965  44.8405835 120.7218381  45.0651684  45.7972236 119.3541096
  44.4925651  46.4162423 118.9011568  45.6384477  46.3471597 119.8881018
  48.2848943  46.0809386 120.4849679  49.2179617  46.0154947 120.6882554
  48.1972156  46.9165653 120.0264211  50.9136960  45.3975256 117.4453626
  50.8350592  45.0635120 118.3389384  51.7346627  45.8897024 117.4445099
  48.4840912  42.7143252 117.0663605  49.1876762  42.9193254 117.6821260
  47.7603561  43.2820013 117.3312688  50.3927609  43.1525781 119.1162065
  51.2273213  42.7206979 118.9339539  50.2311952  42.9807794 120.0438959
  59.0211884  53.6695432 129.2117241  59.6590294  53.5502179 128.5080581
  58.9032727  54.6176276 129.2705194  55.8301591  53.6222860 129.1478766
  55.4920102  53.5063925 128.2599301  56.6991359  53.2214025 129.1279772
  51.6888406  55.4758336 125.1375657  51.1253272  55.3848273 124.3691945
  51.5740801  54.6558241 125.6178150  57.2687965  59.1429304 120.4490122
  56.6175945  59.7283384 120.0624136  58.0632328  59.6735499 120.5085159
  51.1943592  56.2318441 120.8477256  51.9674468  55.6847428 120.7090132
  51.5468991  57.0962691 121.0591718  53.5309870  52.3911107 118.4795706
  53.7835391  51.8692629 117.7179169  52.5934429  52.2277253 118.5822390
  58.5753153  51.3946886 126.2870449  59.3616242  50.9766309 125.9360866
  58.8391857  52.2992978 126.4552098  58.7463230  56.8319736 120.9859106
  58.1109063  56.9054363 121.6980011  58.4160637  57.4213335 120.3078186
  63.9761580  51.3322119 127.1903428  64.7086752  50.7621336 127.4241257
  63.2200936  50.9443719 127.6309934  53.2506159  54.2939213 120.6820081
  53.1342417  53.6184117 121.3501165  53.3608419  53.8071587 119.8652234
  55.5937700  53.7549360 124.3866770  55.2295907  53.2279981 125.0979692
  56.4504816  53.3647829 124.2133256  55.2343187  48.7839260 119.3828119
  55.4017589  49.6519497 119.7498590  55.0440356  48.9466542 118.4589408
  57.9918520  57.2456239 131.0493949  57.6919243  58.1481278 130.9409757
  57.6469579  56.9788422 131.9015102  61.3915664  49.7638779 128.7291387
  60.4832541  49.6954188 128.4350148  61.3403259  50.2410724 129.5573212
  55.2132408  51.2396918 120.3674786  55.0932033  51.6853968 121.2060266
  54.5184996  51.5882235 119.8088324  52.9739300  64.0100559 124.0164917
  52.8963329  64.9608384 124.0953398  52.3700943  63.6646432 124.6739843
  60.9117474  51.7118391 121.1955120  61.8235330  51.9445778 121.0202817
  60.4027121  52.2955435 120.6330198  59.5187056  56.6944209 128.5868701
  58.8895919  56.8589923 127.8844769  59.1312718  57.1085819 129.3579665
  63.3976288  57.6298647 125.9413065  62.7127326  58.0097548 125.3910098
  63.4820137  58.2393974 126.6745013  55.0715018  56.4318617 125.8518786
  55.5353363  56.7106320 125.0623409  54.8071816  55.5302062 125.6691877
  54.0083904  52.5541770 122.6608352  54.7107947  53.0062813 123.1282278
  53.6764532  51.9125589 123.2888245  61.7673048  58.1530562 130.7130766
  62.5890491  57.7510749 130.4313448  61.7635450  58.0498796 131.6646882
  69.8579041  54.4969310 127.0615737  69.1042749  53.9276708 126.9059742
  69.9926582  54.4631975 128.0086372  55.2477669  59.3682712 122.7370457
  55.1123343  60.2134248 123.1655305  55.7887481  59.5701990 121.9736391
  48.7007066  56.8858150 123.3098382  49.2131587  57.6801401 123.4603946
  49.3529779  56.1884441 123.2431983  50.5101951  60.0023907 125.3921135
  50.6868579  60.9241871 125.2042119  51.3058784  59.6882326 125.8215515
  51.6333266  61.5202080 131.3931477  52.1840691  61.3919144 130.6208471
  50.7944742  61.8196969 131.0426370  46.6655983  55.2146805 124.0857952
  47.5031205  55.6243813 123.8691660  46.8434250  54.2746247 124.0558146
  58.5620415  52.8821885 119.7741785  58.0467038  53.6526490 120.0130173
  58.2897723  52.2087021 120.3974847  56.1467526  47.7271586 124.8327024
  55.2909122  47.3378436 124.6532662  56.5594478  47.8063547 123.9726809
  63.5354689  55.6354240 121.7094959  62.7584132  55.2965399 121.2650121
  64.2146170  55.6406863 121.0349924  58.3506718  50.7548977 121.6001566
  58.0456854  51.0695127 122.4511710  59.3037160  50.8330397 121.6428899
  56.7953150  56.9139201 123.2494520  56.2674512  56.1791960 122.9367758
  56.2940653  57.6913877 123.0034489  61.7745996  55.1088221 128.3661567
  61.1169670  55.7987483 128.4541695  62.5786395  55.4984653 128.7095553
  60.5851455  53.4632594 126.4165509  61.0983336  54.0962586 126.9187218
  61.2352679  52.8633789 126.0508869  51.8541465  49.6063328 119.6297017
  51.0178777  49.9438015 119.9506292  51.7146234  49.4712308 118.6924154
  54.9405750  54.7319411 116.2529493  54.0332812  54.5008664 116.4520642
  55.4376782  53.9357030 116.4403475  57.8473829  63.4416918 119.1726180
  57.1735528  63.7448615 119.7811137  58.2339651  64.2445999 118.8231637
  57.8467333  52.3373465 123.7926529  58.5939152  52.8494862 123.4833651
  58.1158923  52.0157518 124.6530923  56.1193984  54.8332006 120.7753484
  55.2105203  54.5491039 120.8725953  56.1489067  55.2531084 119.9156790
  61.3513251  58.4438595 124.5444651  60.8975578  57.6029505 124.6009842
  60.7207218  59.0799994 124.8819431  60.2946171  49.3730581 125.7745319
  59.5568927  48.8607968 126.1055561  60.5472944  48.9330963 124.9628595
  59.7946190  60.2815092 125.4794469  60.0869165  60.8420149 124.7606835
  60.3044811  60.5743653 126.2347628  54.6678878  52.4460626 126.8763279
  54.7227487  51.4934463 126.8005756  53.8570080  52.6020066 127.3604577
  55.8170071  56.3740750 118.1141562  55.3789501  55.6576608 117.6547199
  56.5580512  56.6016864 117.5526654  52.6071238  51.0637686 124.6353658
  51.7939103  51.3631857 125.0418850  53.1030232  50.6693375 125.3528140
  54.7579815  61.0595443 126.5687922  54.7155994  61.2856289 125.6396455
  55.6742514  60.8258818 126.7173724  63.9343186  54.6497947 124.1717881
  63.7961085  54.8399543 123.2439070  63.5779405  55.4117329 124.6285932
  63.9612566  56.7174474 129.1829152  64.3949072  56.6249763 130.0312206
  64.6744146  56.6931974 128.5449168  52.8745616  57.9358472 126.3649885
  53.6686215  57.4408792 126.1632460  52.1637309  57.4076335 126.0017591
  57.6940461  60.3176568 130.7162253  57.7477483  60.8867504 131.4839969
  56.8255242  60.4878453 130.3516290  49.1828380  52.0801554 122.4409638
  48.2525968  52.0186009 122.6579600  49.2785852  51.5577507 121.6446279
  64.8228115  56.7598174 131.7162038  65.0164005  57.6643985 131.9621313
  64.7228733  56.3005593 132.5500623  55.4516892  58.5087494 130.0447722
  55.3127978  58.1406279 130.9173660  54.6631488  59.0235134 129.8731680
  56.0465044  63.6096591 121.3873259  56.2216800  63.1384634 122.2018882
  55.3597832  64.2362357 121.6154520  57.0022107  57.8869097 127.4336560
  56.6671940  57.8469867 128.3294210  56.5026053  57.2213813 126.9606970
  59.9381299  55.2325131 117.7073620  59.3210470  54.5071959 117.6106672
  59.4697787  55.9934491 117.3640694  50.6126129  66.7585953 128.1613119
  50.8522728  67.3904478 128.8392138  49.7695326  66.4073993 128.4478478
  51.7279845  49.4510555 116.8294924  50.8509311  49.3299356 116.4657171
  52.2037598  48.6596634 116.5773813  55.1253991  62.5665076 130.5654623
  55.0524163  63.3720047 131.0773928  54.6831384  62.7657042 129.7402644
  54.9143771  61.8036846 124.0757445  54.1311293  62.3458526 124.1695669
  55.6136516  62.3210825 124.4751686  58.2240421  47.6131475 126.7191650
  58.7209121  46.8601438 126.3992720  57.4527403  47.6495792 126.1534859
  66.0770178  53.3171841 128.3609941  66.0660055  54.1996556 127.9903875
  65.2087558  52.9643392 128.1664478  57.5852675  62.4651910 132.7212782
  58.2980647  63.0999375 132.6488683  57.0942703  62.5615776 131.9052783
  59.3070202  56.3703163 124.2930073  58.3726480  56.4904625 124.1234778
  59.4846870  55.4675629 124.0290083  62.6942753  52.2120482 124.8280107
  63.1603205  53.0448473 124.7540410  63.1450254  51.7465463 125.5325366
  60.7618984  58.5564303 121.8266259  61.0378828  58.4420898 122.7360134
  59.8923483  58.1581788 121.7878433  57.3973048  62.8050654 125.4699073
  57.5795443  61.9872310 125.9326825  58.2206034  63.0218346 125.0323963
  57.7315214  61.7318839 122.7314122  58.2602980  61.2211294 122.1184284
  57.9943433  61.4161369 123.5959655  51.0870962  62.7833956 125.4911898
  50.4181337  63.2680083 125.0075938  50.9483831  63.0303176 126.4055276
  55.2276230  64.8177699 132.0894556  55.7794538  64.9809321 132.8543641
  55.5682424  65.4082137 131.4174581  46.4558539  51.0452411 122.2707830
  46.7511980  50.1363089 122.2174883  45.5546574  51.0240150 121.9488832
  58.3644617  62.7659675 129.0758238  58.2395757  61.9649415 128.5669184
  59.0223709  63.2605868 128.5872208  60.4279526  60.5668695 130.7037788
  59.4809861  60.4474046 130.6316115  60.7762299  59.6791193 130.7864050
  48.1846380  48.7266508 122.3947155  47.8559086  47.8463887 122.2122261
  48.5385751  48.6714177 123.2823544  57.4325959  60.3621411 126.9042140
  57.2850922  59.4338118 127.0849710  58.2579453  60.3841502 126.4199216
  51.2988203  49.0139478 122.7622633  51.6384276  49.5425399 122.0401241
  51.7460324  49.3519884 123.5381199  61.0360081  61.1849970 127.9907013
  61.9606628  60.9792831 127.8531464  60.8675384  60.9366371 128.8996355
  53.2856351  47.5114100 120.9615925  54.0064713  47.8895353 120.4579642
  52.6621655  48.2302977 121.0650903  57.4287473  48.2159249 121.8974258
  57.6451088  49.0983887 121.5963086  56.9481541  47.8245462 121.1679900
  60.8255397  61.7035637 123.3469105  60.9992275  61.1382060 122.5942957
  61.3184288  62.5036532 123.1648595  53.4319974  47.0461890 123.7913462
  53.5535885  46.1178536 123.9904349  53.1422016  47.0600576 122.8791777
  66.6794788  54.4672060 124.9659404  67.1225934  53.7179385 124.5678528
  65.8021299  54.4582197 124.5833136  61.8130570  61.0202402 120.4466003
  62.5081474  61.6409094 120.6653318  62.1553720  60.1697753 120.7218381
  63.7121993  58.4702107 121.9753334  64.2373317  58.8089380 121.2502654
  63.6244345  57.5349123 121.7916468  55.3962654  64.5374090 126.3348587
  54.9567644  64.0450469 127.0281444  56.1470771  63.9947058 126.0940662
  47.8754993  60.7285631 126.3373215  48.7013012  60.4289403 125.9571858
  47.5249045  59.9593254 126.7863004  52.8436526  60.0812100 128.4070888
  52.2216535  59.4182805 128.1073116  53.5141393  60.1073231 127.7244536
  46.0763598  58.6471958 127.2962148  45.2395506  58.2194132 127.1146150
  46.0487243  58.8404401 128.2332940  52.4050033  58.6316023 121.8829349
  52.5538153  59.3151487 121.2296022  53.2116476  58.6121113 122.3978805
  65.0231971  58.3724419 134.8379282  64.7316779  58.7354399 135.6742743
  64.4104102  57.6591427 134.6592614  66.2227653  55.9377299 127.3581852
  67.0574544  56.3767103 127.5219412  66.3586782  55.4615952 126.5390098
  50.1602666  54.6581201 122.8890418  49.9148708  53.7543531 123.0870628
  50.3298580  54.6598351 121.9469896  49.4298313  50.3909558 120.3876579
  48.7367558  50.4653913 119.7316615  49.1850065  49.6269902 120.9098096
  55.9045438  61.1264153 119.3541096  55.3319405  61.7454340 118.9011568
  56.4778232  61.6763515 119.8881018  59.1242698  61.4101303 120.4849679
  60.0573371  61.3446865 120.6882554  59.0365911  62.2457570 120.0264211
  61.7530715  60.7267174 117.4453626  61.6744346  60.3927037 118.3389384
  62.5740381  61.2188942 117.4445099  64.4508906  53.5928913 130.6529945
  64.4185226  52.6544914 130.8389629  65.0609529  53.6712950 129.9195770
  56.2892237  52.4624966 116.6957149  57.2351341  52.3331174 116.7645567
  55.9106482  51.7239628 117.1726577  70.2685456  54.6544920 129.7935982
  70.9988844  54.3930208 130.3543685  69.6592401  53.9173642 129.8338050
  68.3500753  52.7952783 130.3910433  67.6233916  52.6608747 129.7826924
  67.9348040  53.1029611 131.1967151  54.4735154  50.3874942 116.6312034
  53.5666609  50.0908055 116.7074748  54.7511135  50.0904761 115.7646320
  56.0897220  44.9311832 122.7856275  55.2797948  44.5858917 123.1611522
  56.7781636  44.6219376 123.3743887  53.2433938  47.2461878 116.7724013
  54.1053102  47.5716776 117.0319831  53.4284283  46.4593374 116.2597079
  61.3966575  46.1190404 123.9159236  60.8165244  46.7775208 123.5337289
  61.1302508  45.2967749 123.5046654  60.1791453  48.2790495 122.9715585
  59.2917308  48.5640145 122.7535779  60.5945442  48.1184258 122.1242862
  63.5305989  48.3037016 126.6869924  64.3066379  48.7933468 126.9594541
  62.8054123  48.7295070 127.1441793  65.9678548  49.0164635 127.7443865
  66.5623039  48.7760371 127.0337173  66.0405131  48.2971765 128.3717401
  48.1875703  62.8598246 128.0587029  48.0530171  62.0998647 127.4925027
  47.7707766  63.5839146 127.5915818  59.3234666  58.0435169 117.0663605
  60.0270517  58.2485172 117.6821260  58.5997315  58.6111931 117.3312688
  60.1532477  53.7945030 123.1865875  60.0967678  54.2513582 122.3473507
  60.7060819  53.0335715 123.0088718  63.9637283  49.5834762 124.0115994
  63.7074217  49.1831398 124.8424202  63.3390151  50.2978556 123.8866133
  68.2749620  52.3230836 126.5187286  67.7149178  52.3924025 127.2918848
  67.6693124  52.1471820 125.7986782  51.3444829  63.7567563 128.2705472
  51.2277213  64.7012995 128.1684162  50.5237276  63.4541124 128.6591271
  61.2321364  58.4817698 119.1162065  62.0666968  58.0498897 118.9339539
  61.0705707  58.3099712 120.0438959  60.8867256  54.9849812 120.4818404
  60.8316060  54.8194083 119.5406848  60.2613311  55.6925845 120.6380594
  54.1963381  44.4857921 120.0603722  54.1842051  45.4299761 120.2171993
  55.0886803  44.3028066 119.7663184  52.3699343  64.4095825 131.4861400
  53.2726590  64.4419435 131.8027895  52.1436713  63.4796276 131.5007736
  54.1252945  63.1626811 128.1471479  53.1748576  63.1628673 128.0335851
  54.4285432  62.4159546 127.6307514  66.6695345  68.9514778 129.1478766
  66.3313857  68.8355842 128.2599301  67.5385113  68.5505943 129.1279772
  62.5282161  70.8050254 125.1375657  61.9647026  70.7140191 124.3691945
  62.4134556  69.9850159 125.6178150  60.0746593  72.3001446 127.9759878
  60.8667885  71.9592270 127.5606177  60.3143243  72.4096421 128.8962031
  68.1081720  74.4721222 120.4490122  67.4569699  75.0575302 120.0624136
  68.9026082  75.0027417 120.5085159  62.0337347  71.5610359 120.8477256
  62.8068223  71.0139346 120.7090132  62.3862746  72.4254608 121.0591718
  64.3703625  67.7203025 118.4795706  64.6229145  67.1984546 117.7179169
  63.4328184  67.5569170 118.5822390  69.4146907  66.7238803 126.2870449
  70.2009997  66.3058227 125.9360866  69.6785612  67.6284896 126.4552098
  69.5856985  72.1611654 120.9859106  68.9502818  72.2346280 121.6980011
  69.2554391  72.7505253 120.3078186  74.8155335  66.6614037 127.1903428
  75.5480506  66.0913253 127.4241257  74.0594690  66.2735637 127.6309934
  64.0899913  69.6231131 120.6820081  63.9736171  68.9476034 121.3501165
  64.2002173  69.1363505 119.8652234  66.4331454  69.0841278 124.3866770
  66.0689661  68.5571899 125.0979692  67.2898570  68.6939747 124.2133256
  72.3380755  60.3735611 131.6498037  72.0064080  61.2431022 131.4259252
  71.7426368  60.0571895 132.3292067  66.0736941  64.1131178 119.3828119
  66.2411344  64.9811414 119.7498590  65.8834110  64.2758459 118.4589408
  62.2824756  69.0261954 127.0830654  61.3575252  68.8938168 127.2908345
  62.5309169  69.8056173 127.5800596  66.0526162  66.5688835 120.3674786
  65.9325787  67.0145886 121.2060266  65.3578750  66.9174153 119.8088324
  59.6433567  68.6695227 127.9174443  59.7725948  68.9229706 128.8313855
  58.9631018  69.2622935 127.5979098  63.8133054  79.3392477 124.0164917
  63.7357084  80.2900302 124.0953398  63.2094698  78.9938350 124.6739843
  71.7511228  67.0410308 121.1955120  72.6629084  67.2737695 121.0202817
  71.2420875  67.6247353 120.6330198  69.0947203  63.2168344 129.4444981
  68.2331682  63.5149598 129.7361718  69.1209638  63.4338743 128.5126013
  65.9108772  71.7610535 125.8518786  66.3747118  72.0398238 125.0623409
  65.6465571  70.8593980 125.6691877  62.8032854  71.3082017 128.7898550
  63.3734211  71.7369285 128.1516034  63.3940965  71.0264601 129.4882735
  64.8477658  67.8833687 122.6608352  65.5501702  68.3354731 123.1282278
  64.5158287  67.2417506 123.2888245  58.5902992  66.1417240 127.9625485
  57.8002046  66.3974769 127.4865596  59.0814240  66.9565578 128.0677526
  60.5417738  66.5061819 124.9208962  59.7448901  66.6180514 125.4392457
  60.3143330  66.8448471 124.0549852  56.8740695  66.3947730 130.3940476
  57.1248734  67.2794740 130.6598052  57.4100244  66.2152332 129.6215568
  66.0871423  74.6974630 122.7370457  65.9517098  75.5426166 123.1655305
  66.6281236  74.8993908 121.9736391  59.5400821  72.2150068 123.3098382
  60.0525341  73.0093318 123.4603946  60.1923533  71.5176358 123.2431983
  61.3495705  75.3315824 125.3921135  61.5262334  76.2533789 125.2042119
  62.1452539  75.0174244 125.8215515  69.4363887  58.2205192 131.2669350
  69.0928156  59.1106834 131.1908461  69.8042849  58.0306850 130.4038935
  57.5049737  70.5438722 124.0857952  58.3424959  70.9535731 123.8691660
  57.6828005  69.6038164 124.0558146  69.4014169  68.2113803 119.7741785
  68.8860793  68.9818408 120.0130173  69.1291478  67.5378939 120.3974847
  66.9861280  63.0563504 124.8327024  66.1302877  62.6670354 124.6532662
  67.3988232  63.1355465 123.9726809  68.5160427  60.5909847 129.2318583
  68.0125223  60.5539982 128.4186389  68.8091034  61.5002590 129.2915240
  64.7603313  60.6748577 128.2384765  65.6256310  60.4791385 127.8790655
  64.8280822  60.4458929 129.1654122  74.3748444  70.9646158 121.7094959
  73.5977886  70.6257317 121.2650121  75.0539925  70.9698781 121.0349924
  69.1900473  66.0840895 121.6001566  68.8850608  66.3987044 122.4511710
  70.1430915  66.1622315 121.6428899  67.6346904  72.2431118 123.2494520
  67.1068266  71.5083878 122.9367758  67.1334407  73.0205795 123.0034489
  62.3665632  62.9050785 125.6101132  62.9409384  62.6825966 124.8774325
  62.9536614  62.9739479 126.3629733  71.4245209  68.7924512 126.4165509
  71.9377091  69.4254503 126.9187218  72.0746433  68.1925707 126.0508869
  62.6935219  64.9355246 119.6297017  61.8572531  65.2729932 119.9506292
  62.5539989  64.8004225 118.6924154  64.6688300  59.7792034 124.3376201
  64.0152712  59.4641051 123.7132816  64.6268774  59.1567774 125.0636024
  65.7799505  70.0611329 116.2529493  64.8726566  69.8300582 116.4520642
  66.2770537  69.2648948 116.4403475  68.6867583  78.7708836 119.1726180
  68.0129282  79.0740533 119.7811137  69.0733405  79.5737916 118.8231637
  67.9026040  66.2673967 128.6623849  66.9848601  66.4888914 128.5045537
  68.3186184  66.3420278 127.8035556  68.6861088  67.6665383 123.7926529
  69.4332907  68.1786780 123.4833651  68.9552677  67.3449436 124.6530923
  66.9587738  70.1623924 120.7753484  66.0498957  69.8782956 120.8725953
  66.9882822  70.5823002 119.9156790  71.1339925  64.7022499 125.7745319
  70.3962682  64.1899885 126.1055561  71.3866699  64.2622881 124.9628595
  71.2351552  57.4798751 126.3687088  71.5410429  56.6196114 126.0813003
  71.9604157  58.0716371 126.1686082  57.5275908  67.8829438 124.7568686
  57.3300308  67.2898798 124.0319752  56.9722572  67.5781648 125.4744625
  65.5072632  67.7752544 126.8763279  65.5621242  66.8226381 126.8005756
  64.6963834  67.9311983 127.3604577  66.6563826  71.7032667 118.1141562
  66.2183256  70.9868526 117.6547199  67.3974267  71.9308782 117.5526654
  63.4464992  66.3929604 124.6353658  62.6332858  66.6923774 125.0418850
  63.9423986  65.9985293 125.3528140  74.7736941  69.9789864 124.1717881
  74.6354839  70.1691460 123.2439070  74.4173159  70.7409247 124.6285932
  62.9379067  63.9647959 130.2514893  63.5778446  63.8236718 129.5537856
  62.1056597  63.6782473 129.8753495  63.7139371  73.2650390 126.3649885
  64.5079969  72.7700710 126.1632460  63.0031063  72.7368253 126.0017591
  60.0222134  67.4093472 122.4409638  59.0919722  67.3477927 122.6579600
  60.1179606  66.8869424 121.6446279  59.9407683  63.9348284 125.0287880
  60.2014500  64.8493618 124.9197040  60.7624856  63.4672727 125.1784492
  61.4132609  65.3486042 132.1986704  62.0855662  65.1403404 131.5499353
  60.5862395  65.1508128 131.7591936  66.8858799  78.9388508 121.3873259
  67.0610554  78.4676551 122.2018882  66.1991587  79.5654274 121.6154520
  70.7775053  70.5617049 117.7073620  70.1604224  69.8363877 117.6106672
  70.3091542  71.3226409 117.3640694  62.5673599  64.7802473 116.8294924
  61.6903066  64.6591274 116.4657171  63.0431352  63.9888551 116.5773813
  54.0875739  69.5679633 126.9236431  54.7746779  69.2541363 126.3357446
  53.9323868  70.4720998 126.6503683  58.8910462  64.4569829 131.3521455
  58.8068650  63.8495499 130.6171865  58.0693168  64.9478848 131.3530951
  65.7537525  77.1328763 124.0757445  64.9705047  77.6750444 124.1695669
  66.4530271  77.6502743 124.4751686  69.0634176  62.9423393 126.7191650
  69.5602875  62.1893355 126.3992720  68.2921157  62.9787710 126.1534859
  70.1463956  71.6995080 124.2930073  69.2120235  71.8196543 124.1234778
  70.3240625  70.7967547 124.0290083  65.6469144  65.0840776 126.4463335
  65.2766932  64.5311816 127.1344240  66.1428237  64.4798909 125.8938335
  73.5336508  67.5412399 124.8280107  73.9996960  68.3740391 124.7540410
  73.9844008  67.0757381 125.5325366  71.6012739  73.8856221 121.8266259
  71.8772583  73.7712815 122.7360134  70.7317237  73.4873706 121.7878433
  71.5053170  59.9092986 128.8671009  70.5916250  60.1397213 129.0353216
  71.9346272  59.9931431 129.7185041  68.5708968  77.0610757 122.7314122
  69.0996735  76.5503211 122.1184284  68.8337188  76.7453287 123.5959655
  53.6643716  67.6480226 129.1953898  53.7027815  67.1143817 129.9891016
  53.1584008  67.1215432 128.5764875  61.0434478  62.4944767 132.6916441
  61.1075804  63.3559598 132.2793838  60.9801598  61.8818768 131.9588799
  57.2952293  66.3744328 122.2707830  57.5905734  65.4655007 122.2174883
  56.3940329  66.3532068 121.9488832  60.8246540  64.4500325 128.2535378
  60.1033126  65.0636293 128.1142852  61.6139796  64.9858090 128.1752024
  59.0240135  64.0558426 122.3947155  58.6952841  63.1755805 122.2122261
  59.3779505  64.0006095 123.2823544  62.1381958  64.3431396 122.7622633
  62.4778030  64.8717317 122.0401241  62.5854078  64.6811802 123.5381199
  64.8325399  62.7268447 132.2125701  64.4922219  61.9276260 132.6146380
  64.1264405  63.0270157 131.6402534  65.4841871  59.8117759 130.6653024
  66.3067940  59.3378237 130.5431914  65.7279934  60.5908243 131.1651710
  64.1250105  62.8406017 120.9615925  64.8458468  63.2187270 120.4579642
  63.5015409  63.5594894 121.0650903  68.2681228  63.5451166 121.8974258
  68.4844842  64.4275804 121.5963086  67.7875295  63.1537380 121.1679900
  63.0080449  66.5036880 128.4745002  62.8625030  66.8177183 129.3669284
  62.5305653  67.1221780 127.9215901  64.8676832  63.4939428 128.5225892
  64.8538401  62.5980521 128.1858190  65.5849260  63.5010091 129.1564178
  66.7202963  63.9276768 130.5679019  66.4620741  64.8493838 130.5663350
  66.1888003  63.5307202 131.2579483  57.4826112  69.0442224 131.4132663
  56.9379580  69.8202032 131.5452938  58.3605461  69.3913028 131.2551785
  64.2713728  62.3753808 123.7913462  64.3929639  61.4470454 123.9904349
  63.9815771  62.3892494 122.8791777  67.1404919  60.0608718 126.9280182
  67.1626615  60.1248051 125.9732161  67.5572978  59.2213227 127.1220688
  72.6524324  76.3494319 120.4466003  73.3475229  76.9701012 120.6653318
  72.9947474  75.4989671 120.7218381  74.5515747  73.7994025 121.9753334
  75.0767071  74.1381298 121.2502654  74.4638100  72.8641040 121.7916468
  58.7148747  76.0577549 126.3373215  59.5406767  75.7581321 125.9571858
  58.3642799  75.2885171 126.7863004  56.9157352  73.9763875 127.2962148
  56.0789260  73.5486050 127.1146150  56.8880998  74.1696319 128.2332940
  63.2443787  73.9607941 121.8829349  63.3931907  74.6443405 121.2296022
  64.0510231  73.9413031 122.3978805  60.9996420  69.9873118 122.8890418
  60.7542462  69.0835448 123.0870628  61.1692335  69.9890269 121.9469896
  68.6893130  60.8596795 132.2715174  69.2075074  61.5957822 131.9461662
  68.3348263  61.1660788 133.1061933  60.2692068  65.7201476 120.3876579
  59.5761313  65.7945831 119.7316615  60.0243820  64.9561819 120.9098096
  68.9405724  57.2797077 127.7916070  69.2207478  56.6120266 128.4176497
  69.7256331  57.4726173 127.2790734  66.7439193  76.4556071 119.3541096
  66.1713160  77.0746258 118.9011568  67.3171986  77.0055433 119.8881018
  69.9636452  76.7393221 120.4849679  70.8967126  76.6738783 120.6882554
  69.8759665  77.5749488 120.0264211  72.5924469  76.0559091 117.4453626
  72.5138101  75.7218955 118.3389384  73.4134136  76.5480859 117.4445099
  67.1285991  67.7916884 116.6957149  68.0745096  67.6623092 116.7645567
  66.7500236  67.0531546 117.1726577  73.1007876  59.4572890 126.6584041
  72.9032697  59.1487978 127.5427373  73.7107581  60.1834529 126.7881971
  65.3128908  65.7166860 116.6312034  64.4060364  65.4199973 116.7074748
  65.5904889  65.4196678 115.7646320  56.2306849  67.0373224 127.0811081
  55.9109633  66.1838532 126.7885455  55.6840277  67.2521802 127.8369048
  60.0086756  69.7535665 130.7980587  60.2272766  70.6852772 130.8168621
  60.4212530  69.3943639 131.5835391  66.9290974  60.2603750 122.7856275
  66.1191702  59.9150835 123.1611522  67.6175391  59.9511294 123.3743887
  68.8581522  59.3381797 124.4080572  69.4112561  59.7577250 125.0670595
  69.0951609  58.4117545 124.4503528  64.0827693  62.5753795 116.7724013
  64.9446857  62.9008694 117.0319831  64.2678037  61.7885291 116.2597079
  56.0995109  70.6576135 129.0504202  55.4058580  70.2430088 128.5374157
  56.8468100  70.6996672 128.4537621  72.2360329  61.4482322 123.9159236
  71.6558998  62.1067126 123.5337289  71.9696262  60.6259666 123.5046654
  70.6863896  60.8487380 126.1180557  71.1863674  60.9603914 125.3094876
  71.3299504  60.5448432 126.7581365  58.0131851  70.5894389 126.9270217
  57.9902539  70.6882076 125.9752100  58.3232488  71.4359540 127.2487383
  71.0185207  63.6082412 122.9715585  70.1311062  63.8932063 122.7535779
  71.4339197  63.4476176 122.1242862  74.3699744  63.6328933 126.6869924
  75.1460134  64.1225386 126.9594541  73.6447878  64.0586987 127.1441793
  76.8072302  64.3456552 127.7443865  77.4016793  64.1052288 127.0337173
  76.8798886  63.6263683 128.3717401  70.1628421  73.3727087 117.0663605
  70.8664271  73.5777089 117.6821260  69.4391070  73.9403849 117.3312688
  70.9926231  69.1236948 123.1865875  70.9361433  69.5805500 122.3473507
  71.5454574  68.3627633 123.0088718  74.8031037  64.9126680 124.0115994
  74.5467971  64.5123316 124.8424202  74.1783905  65.6270474 123.8866133
  72.0715118  73.8109616 119.1162065  72.9060722  73.3790815 118.9339539
  71.9099461  73.6391630 120.0438959  71.7261010  70.3141729 120.4818404
  71.6709814  70.1486001 119.5406848  71.1007066  71.0217762 120.6380594
  56.5153525  65.5509794 134.3079826  57.1612389  65.0408748 134.7967051
  56.3070677  66.2878475 134.8823251  65.0357136  59.8149838 120.0603722
  65.0235806  60.7591678 120.2171993  65.9280558  59.6319984 119.7663184
  68.8509255  56.4092615 124.3149659  68.0841651  55.8551102 124.4606342
  69.2619960  56.4814484 125.1763811  73.5328974  80.2647163 119.6297017
  72.6966286  80.6021850 119.9506292  73.3933743  80.1296143 118.6924154
  73.4067354  80.1094391 116.8294924  72.5296820  79.9883192 116.4657171
  73.8825107  79.3180469 116.5773813  71.1085822  81.0493393 120.3876579
  70.4155067  81.1237748 119.7316615  70.8637574  80.2853737 120.9098096
  76.1522663  81.0458778 116.6312034  75.2454118  80.7491891 116.7074748
  76.4298644  80.7488596 115.7646320  74.9221447  77.9045713 116.7724013
  75.7840611  78.2300611 117.0319831  75.1071792  77.1177209 116.2597079
  75.8750890  75.1441756 120.0603722  75.8629560  76.0883596 120.2171993
  76.7674312  74.9611901 119.7663184  47.0080076  25.1187123 105.8971486
  46.3341775  25.4218820 106.5056444  47.3945898  25.9216203 105.5476943
  49.0987546  16.9095336 104.4318926  48.4816716  16.1842164 104.3351979
  48.6304034  17.6704696 104.0886001  50.9736816  22.6972607 107.1711309
  51.6687721  23.3179299 107.3898624  51.3159967  21.8467958 107.4463687
  45.0651685  22.8034358 106.0786403  44.4925652  23.4224545 105.6256875
  45.6384479  23.3533720 106.6126325  48.2848945  23.0871508 107.2094985
  49.2179618  23.0217070 107.4127861  48.1972158  23.9227775 106.7509518
  50.9136961  22.4037379 104.1698933  50.8350593  22.0697242 105.0634691
  51.7346628  22.8959147 104.1690405  48.4840913  19.7205374 103.7908911
  49.1876763  19.9255377 104.4066567  47.7603562  20.2882136 104.0557995
  50.3927611  20.1587903 105.8407371  51.2273215  19.7269102 105.6584846
  50.2311953  19.9869917 106.7684266  59.0211886  30.6757554 115.9362548
  59.6590296  30.5564302 115.2325888  58.9032729  31.6238398 115.9950500
  55.8301592  30.6284983 115.8724073  55.4920103  30.5126047 114.9844608
  56.6991360  30.2276148 115.8525079  51.6888408  32.4820459 111.8620964
  51.1253273  32.3910396 111.0937251  51.5740803  31.6620363 112.3423456
  57.2687966  36.1491427 107.1735429  56.6175946  36.7345507 106.7869442
  58.0632329  36.6797622 107.2330466  51.1943594  33.2380564 107.5722563
  51.9674470  32.6909551 107.4335439  51.5468992  34.1024813 107.7837024
  53.5309871  29.3973230 105.2041013  53.7835392  28.8754751 104.4424476
  52.5934430  29.2339375 105.3067696  58.5753154  28.4009008 113.0115756
  59.3616243  27.9828431 112.6606173  58.8391858  29.3055100 113.1797404
  58.7463232  33.8381859 107.7104413  58.1109064  33.9116485 108.4225318
  58.4160638  34.4275457 107.0323492  63.9761581  28.3384242 113.9148735
  64.7086753  27.7683458 114.1486564  63.2200937  27.9505842 114.3555240
  53.2506160  31.3001336 107.4065388  53.1342418  30.6246239 108.0746472
  53.3608420  30.8133710 106.5897541  55.5937701  30.7611483 111.1112077
  55.2295908  30.2342104 111.8224999  56.4504817  30.3709952 110.9378562
  55.2343188  25.7901383 106.1073426  55.4017590  26.6581619 106.4743897
  55.0440357  25.9528664 105.1834715  57.9918521  34.2518362 117.7739256
  57.6919244  35.1543400 117.6655063  57.6469581  33.9850545 118.6260409
  61.3915665  26.7700902 115.4536693  60.4832542  26.7016310 115.1595454
  61.3403261  27.2472847 116.2818519  55.2132409  28.2459040 107.0920092
  55.0932034  28.6916091 107.9305573  54.5184997  28.5944358 106.5333631
  52.9739301  41.0162682 110.7410224  52.8963331  41.9670507 110.8198704
  52.3700945  40.6708554 111.3985150  60.9117475  28.7180513 107.9200426
  61.8235331  28.9507900 107.7448124  60.4027122  29.3017558 107.3575505
  59.5187057  33.7006332 115.3114008  58.8895920  33.8652046 114.6090076
  59.1312719  34.1147941 116.0824972  63.3976289  34.6360770 112.6658372
  62.7127327  35.0159671 112.1155405  63.4820139  35.2456096 113.3990319
  55.0715019  33.4380740 112.5764093  55.5353365  33.7168443 111.7868715
  54.8071817  32.5364184 112.3937184  54.0083905  29.5603892 109.3853658
  54.7107949  30.0124936 109.8527585  53.6764534  28.9187711 110.0133551
  61.7673049  35.1592684 117.4376073  62.5890493  34.7572871 117.1558754
  61.7635452  35.0560918 118.3892188  69.8579042  31.5031433 113.7861044
  69.1042750  30.9338831 113.6305048  69.9926583  31.4694097 114.7331679
  55.2477670  36.3744835 109.4615763  55.1123345  37.2196371 109.8900611
  55.7887482  36.5764113 108.6981697  48.7007067  33.8920273 110.0343688
  49.2131588  34.6863523 110.1849253  49.3529780  33.1946563 109.9677290
  50.5101952  37.0086029 112.1166442  50.6868580  37.9303994 111.9287426
  51.3058785  36.6944448 112.5460821  51.6333267  38.5264203 118.1176784
  52.1840693  38.3981266 117.3453778  50.7944743  38.8259092 117.7671677
  46.6655984  32.2208927 110.8103259  47.5031206  32.6305936 110.5936967
  46.8434252  31.2808369 110.7803453  58.5620416  29.8884008 106.4987092
  58.0467040  30.6588613 106.7375479  58.2897725  29.2149144 107.1220153
  56.1467527  24.7333709 111.5572330  55.2909124  24.3440559 111.3777969
  56.5594479  24.8125669 110.6972116  63.5354690  32.6416363 108.4340265
  62.7584133  32.3027522 107.9895427  64.2146171  32.6468986 107.7595230
  58.3506719  27.7611100 108.3246873  58.0456855  28.0757249 109.1757016
  59.3037161  27.8392520 108.3674206  56.7953151  33.9201323 109.9739827
  56.2674513  33.1854083 109.6613065  56.2940654  34.6976000 109.7279795
  61.7745997  32.1150344 115.0906873  61.1169672  32.8049605 115.1787002
  62.5786396  32.5046776 115.4340860  60.5851456  30.4694716 113.1410815
  61.0983338  31.1024708 113.6432525  61.2352680  29.8695912 112.7754175
  51.8541466  26.6125451 106.3542324  51.0178778  26.9500137 106.6751599
  51.7146236  26.4774430 105.4169461  54.9405751  31.7381534 102.9774800
  54.0332813  31.5070787 103.1765949  55.4376783  30.9419153 103.1648782
  57.8473830  40.4479041 105.8971486  57.1735529  40.7510738 106.5056444
  58.2339652  41.2508121 105.5476943  57.8467335  29.3435588 110.5171836
  58.5939154  29.8556985 110.2078958  58.1158924  29.0219640 111.3776229
  56.1193985  31.8394128 107.4998790  55.2105204  31.5553161 107.5971260
  56.1489069  32.2593207 106.6402097  61.3513252  35.4500718 111.2689958
  60.8975579  34.6091628 111.3255148  60.7207219  36.0862116 111.6064738
  60.2946172  26.3792704 112.4990625  59.5568929  25.8670090 112.8300868
  60.5472945  25.9393086 111.6873902  59.7946191  37.2877215 112.2039776
  60.0869166  37.8482272 111.4852142  60.3044812  37.5805776 112.9592935
  54.6678879  29.4522749 113.6008586  54.7227489  28.4996585 113.5251062
  53.8570081  29.6082188 114.0849884  55.8170073  33.3802872 104.8386869
  55.3789503  32.6638731 104.3792506  56.5580513  33.6078987 104.2771960
  52.6071239  28.0699809 111.3598964  51.7939104  28.3693979 111.7664157
  53.1030233  27.6755498 112.0773447  54.7579817  38.0657566 113.2933229
  54.7155995  38.2918412 112.3641761  55.6742516  37.8320940 113.4419030
  63.9343187  31.6560069 110.8963187  63.7961086  31.8461665 109.9684377
  63.5779406  32.4179452 111.3531238  63.9612567  33.7236596 115.9074459
  64.3949074  33.6311885 116.7557513  64.6744148  33.6994097 115.2694475
  52.8745617  34.9420595 113.0895192  53.6686216  34.4470915 112.8877767
  52.1637310  34.4138458 112.7262897  57.6940462  37.3238690 117.4407559
  57.7477484  37.8929627 118.2085275  56.8255243  37.4940575 117.0761597
  49.1828381  29.0863676 109.1654945  48.2525969  29.0248132 109.3824907
  49.2785853  28.5639629 108.3691586  64.8228117  33.7660297 118.4407344
  65.0164007  34.6706107 118.6866619  64.7228735  33.3067716 119.2745929
  55.4516893  35.5149617 116.7693029  55.3127979  35.1468401 117.6418967
  54.6631490  36.0297256 116.5976987  56.0465045  40.6158713 108.1118565
  56.2216801  40.1446756 108.9264188  55.3597833  41.2424479 108.3399826
  57.0022109  34.8931219 114.1581867  56.6671941  34.8531989 115.0539517
  56.5026054  34.2275935 113.6852277  59.9381300  32.2387254 104.4318926
  59.3210471  31.5134082 104.3351979  59.4697789  32.9996614 104.0886001
  50.6126131  43.7648076 114.8858426  50.8522729  44.3966600 115.5637444
  49.7695327  43.4136116 115.1723785  51.7279846  26.4572678 103.5540231
  50.8509312  26.3361479 103.1902477  52.2037599  25.6658756 103.3019119
  55.1253993  39.5727198 117.2899930  55.0524164  40.3782170 117.8019234
  54.6831386  39.7719164 116.4647951  54.9143772  38.8098968 110.8002751
  54.1311294  39.3520649 110.8940976  55.6136517  39.3272948 111.1996992
  58.2240422  24.6193598 113.4436957  58.7209122  23.8663560 113.1238027
  57.4527404  24.6557915 112.8780166  66.0770180  30.3233963 115.0855248
  66.0660056  31.2058679 114.7149181  65.2087559  29.9705514 114.8909785
  57.5852676  39.4714032 119.4458088  58.2980648  40.1061497 119.3733990
  57.0942705  39.5677898 118.6298090  59.3070203  33.3765285 111.0175380
  58.3726482  33.4966748 110.8480084  59.4846871  32.4737752 110.7535390
  62.6942754  29.2182604 111.5525414  63.1603207  30.0510596 111.4785717
  63.1450255  28.7527586 112.2570673  60.7618985  35.5626426 108.5511566
  61.0378829  35.4483020 109.4605440  59.8923484  35.1643911 108.5123739
  57.3973049  39.8112777 112.1944380  57.5795444  38.9934432 112.6572132
  58.2206035  40.0280469 111.7569270  57.7315215  38.7380962 109.4559428
  58.2602981  38.2273416 108.8429590  57.9943435  38.4223492 110.3204961
  51.0870963  39.7896078 112.2157204  50.4181338  40.2742206 111.7321244
  50.9483833  40.0365299 113.1300583  55.2276231  41.8239822 118.8139863
  55.7794540  41.9871443 119.5788948  55.5682425  42.4144260 118.1419887
  46.4558540  28.0514533 108.9953136  46.7511981  27.1425212 108.9420190
  45.5546576  28.0302273 108.6734139  58.3644619  39.7721797 115.8003545
  58.2395758  38.9711537 115.2914490  59.0223710  40.2667991 115.3117515
  60.4279527  37.5730817 117.4283095  59.4809863  37.4536169 117.3561422
  60.7762300  36.6853315 117.5109356  48.1846382  25.7328631 109.1192461
  47.8559088  24.8526010 108.9367567  48.5385752  25.6776300 110.0068851
  57.4325960  37.3683534 113.6287447  57.2850923  36.4400241 113.8095017
  58.2579454  37.3903624 113.1444522  51.2988205  26.0201601 109.4867939
  51.6384277  26.5487522 108.7646548  51.7460325  26.3582007 110.2626506
  61.0360082  38.1912092 114.7152320  61.9606630  37.9854954 114.5776771
  60.8675386  37.9428494 115.6241661  53.2856352  24.5176222 107.6861232
  54.0064714  24.8957475 107.1824949  52.6621656  25.2365099 107.7896210
  57.4287475  25.2221371 108.6219564  57.6451089  26.1046009 108.3208392
  56.9481542  24.8307585 107.8925206  60.8255398  38.7097760 110.0714411
  60.9992276  38.1444182 109.3188264  61.3184290  39.5098655 109.8893901
  53.4319975  24.0524013 110.5158769  53.5535886  23.1240659 110.7149656
  53.1422017  24.0662699 109.6037084  66.6794790  31.4734183 111.6904711
  67.1225936  30.7241508 111.2923834  65.8021300  31.4644319 111.3078443
  61.8130571  38.0264524 107.1711309  62.5081476  38.6471217 107.3898624
  62.1553721  37.1759875 107.4463687  63.7121994  35.4764230 108.6998640
  64.2373318  35.8151503 107.9747960  63.6244347  34.5411245 108.5161775
  55.3962655  41.5436213 113.0593893  54.9567645  41.0512592 113.7526750
  56.1470772  41.0009181 112.8185969  47.8754994  37.7347754 113.0618522
  48.7013014  37.4351526 112.6817165  47.5249046  36.9655376 113.5108310
  52.8436527  37.0874222 115.1316195  52.2216536  36.4244927 114.8318423
  53.5141394  37.1135354 114.4489843  46.0763599  35.6534080 114.0207455
  45.2395507  35.2256255 113.8391456  46.0487244  35.8466524 114.9578246
  52.4050034  35.6378145 108.6074656  52.5538154  36.3213610 107.9541328
  53.2116477  35.6183236 109.1224111  65.0231972  35.3786541 121.5624588
  64.7316780  35.7416522 122.3988049  64.4104103  34.6653550 121.3837920
  66.2227654  32.9439421 114.0827159  67.0574546  33.3829225 114.2464719
  66.3586783  32.4678074 113.2635404  50.1602667  31.6643323 109.6135725
  49.9148709  30.7605653 109.8115935  50.3298581  31.6660474 108.6715203
  49.4298314  27.3971681 107.1121886  48.7367559  27.4716036 106.4561922
  49.1850066  26.6332024 107.6343403  55.9045439  38.1326276 106.0786403
  55.3319407  38.7516463 105.6256875  56.4778233  38.6825638 106.6126325
  59.1242699  38.4163426 107.2094985  60.0573372  38.3508988 107.4127861
  59.0365912  39.2519693 106.7509518  61.7530716  37.7329296 104.1698933
  61.6744347  37.3989160 105.0634691  62.5740383  38.2251064 104.1690405
  64.4508907  30.5991036 117.3775252  64.4185227  29.6607036 117.5634935
  65.0609531  30.6775072 116.6441076  56.2892238  29.4687089 103.4202456
  57.2351343  29.3393297 103.4890874  55.9106483  28.7301751 103.8971884
  70.2685457  31.6607043 116.5181288  70.9988845  31.3992331 117.0788992
  69.6592402  30.9235765 116.5583356  68.3500754  29.8014905 117.1155740
  67.6233918  29.6670870 116.5072231  67.9348041  30.1091734 117.9212458
  54.4735155  27.3937065 103.3557341  53.5666610  27.0970178 103.4320054
  54.7511136  27.0966883 102.4891627  56.0897221  21.9373955 109.5101582
  55.2797949  21.5921040 109.8856828  56.7781638  21.6281499 110.0989194
  53.2433940  24.2524000 103.4969320  54.1053104  24.5778899 103.7565137
  53.4284284  23.4655496 102.9842386  61.3966576  23.1252527 110.6404543
  60.8165245  23.7837331 110.2582595  61.1302509  22.3029871 110.2291960
  60.1791454  25.2852617 109.6960891  59.2917309  25.5702268 109.4781086
  60.5945443  25.1246381 108.8488168  63.5305990  25.3099138 113.4115231
  64.3066380  25.7995591 113.6839847  62.8054124  25.7357192 113.8687100
  65.9678549  26.0226757 114.4689171  66.5623040  25.7822493 113.7582479
  66.0405133  25.3033888 115.0962707  48.1875705  39.8660368 114.7832336
  48.0530173  39.1060769 114.2170334  47.7707767  40.5901268 114.3161125
  59.3234668  35.0497292 103.7908911  60.0270518  35.2547294 104.4066567
  58.5997316  35.6174054 104.0557995  60.1532478  30.8007153 109.9111181
  60.0967679  31.2575705 109.0718814  60.7060820  30.0397838 109.7334024
  63.9637284  26.5896885 110.7361301  63.7074218  26.1893521 111.5669509
  63.3390152  27.3040679 110.6111440  68.2749622  29.3292958 113.2432592
  67.7149180  29.3986148 114.0164154  67.6693125  29.1533943 112.5232089
  51.3444831  40.7629685 114.9950779  51.2277215  41.7075118 114.8929469
  50.5237277  40.4603247 115.3836578  61.2321365  35.4879821 105.8407371
  62.0666969  35.0561019 105.6584846  61.0705708  35.3161835 106.7684266
  60.8867257  31.9911934 107.2063711  60.8316061  31.8256206 106.2652155
  60.2613313  32.6987967 107.3625900  54.1963383  21.4920043 106.7849029
  54.1842053  22.4361883 106.9417300  55.0886805  21.3090189 106.4908490
  52.3699345  41.4157947 118.2106707  53.2726591  41.4481557 118.5273202
  52.1436715  40.4858398 118.2253043  54.1252947  40.1688934 114.8716786
  53.1748578  40.1690795 114.7581158  54.4285433  39.4221668 114.3552820
  69.8605640  46.0049472 115.9362548  70.4984050  45.8856219 115.2325888
  69.7426483  46.9530316 115.9950500  66.6695346  45.9576900 115.8724073
  66.3313858  45.8417965 114.9844608  67.5385115  45.5568065 115.8525079
  62.5282162  47.8112377 111.8620964  61.9647027  47.7202314 111.0937251
  62.4134557  46.9912281 112.3423456  67.1515129  47.1111752 121.8310278
  67.1403770  46.7164550 120.9590782  67.3135769  46.3777825 122.4244050
  60.0746594  49.3063568 114.7005184  60.8667886  48.9654393 114.2851483
  60.3143244  49.4158543 115.6207337  68.1081721  51.4783344 107.1735429
  67.4569701  52.0637425 106.7869442  68.9026084  52.0089539 107.2330466
  62.0337348  48.5672481 107.5722563  62.8068224  48.0201469 107.4335439
  62.3862747  49.4316731 107.7837024  63.8722391  49.8948864 120.7789462
  63.5812257  50.7994495 120.6636129  64.5079375  49.9365391 121.4933532
  64.7978597  47.2725712 117.3690822  65.3942170  47.0481735 116.6547785
  64.8553569  46.5310458 117.9716270  64.3703626  44.7265148 105.2041013
  64.6229147  44.2046669 104.4424476  63.4328185  44.5631293 105.3067696
  69.4146909  43.7300926 113.0115756  70.2009998  43.3120349 112.6606173
  69.6785613  44.6347018 113.1797404  69.5856986  49.1673776 107.7104413
  68.9502819  49.2408403 108.4225318  69.2554392  49.7567375 107.0323492
  74.8155336  43.6676159 113.9148735  75.5480508  43.0975376 114.1486564
  74.0594691  43.2797760 114.3555240  64.0899915  46.6293254 107.4065388
  63.9736173  45.9538157 108.0746472  64.2002174  46.1425628 106.5897541
  66.4331455  46.0903401 111.1112077  66.0689663  45.5634022 111.8224999
  67.2898571  45.7001870 110.9378562  72.3380756  37.3797733 118.3743343
  72.0064081  38.2493144 118.1504558  71.7426370  37.0634017 119.0537374
  66.0736942  41.1193300 106.1073426  66.2411345  41.9873537 106.4743897
  65.8834112  41.2820582 105.1834715  68.8312276  49.5810279 117.7739256
  68.5312999  50.4835318 117.6655063  68.4863335  49.3142462 118.6260409
  62.2824757  46.0324076 113.8075960  61.3575254  45.9000290 114.0153652
  62.5309170  46.8118295 114.3045903  72.2309419  42.0992819 115.4536693
  71.3226297  42.0308228 115.1595454  72.1797015  42.5764764 116.2818519
  66.0526163  43.5750958 107.0920092  65.9325789  44.0208009 107.9305573
  65.3578752  43.9236276 106.5333631  59.6433568  45.6757350 114.6419749
  59.7725949  45.9291829 115.5559161  58.9631019  46.2685058 114.3224404
  63.8133055  56.3454600 110.7410224  63.7357085  57.2962425 110.8198704
  63.2094699  56.0000472 111.3985150  66.3050285  43.5182465 123.3971591
  65.5283619  44.0776385 123.3874455  66.9440848  44.0039248 123.9186461
  74.0971066  40.3009258 117.2314567  73.4545446  40.5941791 116.5854362
  73.5925994  40.1862178 118.0367764  71.7511230  44.0472431 107.9200426
  72.6629086  44.2799818 107.7448124  71.2420877  44.6309475 107.3575505
  64.5596658  46.3267918 122.9589558  65.3011342  46.8652962 122.6824381
  63.8533643  46.9534207 123.1161109  70.0351997  48.4697059 121.5561719
  70.4435353  48.0279469 120.8116351  69.3129259  47.8949686 121.8095912
  66.3883067  43.4069666 118.9295276  67.2344262  43.8309079 119.0729925
  66.3281705  42.7503290 119.6233839  70.3580812  49.0298249 115.3114008
  69.7289674  49.1943964 114.6090076  69.9706474  49.4439859 116.0824972
  74.2370044  49.9652687 112.6658372  73.5521082  50.3451589 112.1155405
  74.3213893  50.5748014 113.3990319  69.5382513  41.0674034 120.5876450
  69.2943444  41.8216095 120.0510725  69.8142443  41.4459382 121.4223697
  71.4920975  47.6112646 119.2653715  71.7037871  48.2544406 118.5888096
  71.4450724  46.7774963 118.7975645  69.0947204  40.2230467 116.1690287
  68.2331683  40.5211721 116.4607025  69.1209639  40.4400866 115.2371320
  65.9108774  48.7672658 112.5764093  66.3747119  49.0460361 111.7868715
  65.6465572  47.8656102 112.3937184  62.8032855  48.3144139 115.5143856
  63.3734212  48.7431407 114.8761341  63.3940967  48.0326724 116.2128042
  64.8477660  44.8895810 109.3853658  65.5501703  45.3416854 109.8527585
  64.5158288  44.2479629 110.0133551  63.2958021  43.4807567 123.7604868
  62.6656682  44.1623847 123.9940264  63.1894109  43.3690648 122.8158006
  58.5902994  43.1479363 114.6870792  57.8002048  43.4036891 114.2110902
  59.0814241  43.9627700 114.7922832  72.6066803  50.4884602 117.4376073
  73.4284247  50.0864789 117.1558754  72.6029206  50.3852836 118.3892188
  60.5417739  43.5123942 111.6454268  59.7448902  43.6242636 112.1637764
  60.3143331  43.8510594 110.7795159  66.3723407  50.0368645 119.5936783
  66.4367839  50.4989052 120.4294955  65.6634331  49.4066010 119.7219093
  56.8740697  43.4009853 117.1185782  57.1248735  44.2856863 117.3843358
  57.4100245  43.2214455 116.3460874  80.6972796  46.8323350 113.7861044
  79.9436505  46.2630748 113.6305048  80.8320338  46.7986015 114.7331679
  66.0871424  51.7036753 109.4615763  65.9517099  52.5488288 109.8900611
  66.6281237  51.9056030 108.6981697  59.5400822  49.2212191 110.0343688
  60.0525342  50.0155441 110.1849253  60.1923535  48.5238481 109.9677290
  61.3495706  52.3377947 112.1166442  61.5262335  53.2595912 111.9287426
  62.1452540  52.0236366 112.5460821  65.4906725  39.1986212 123.7150375
  66.2316438  39.7993365 123.6354838  65.7224648  38.4563849 123.1568418
  60.6348063  44.3842579 121.9928605  60.5201578  43.4827836 122.2935704
  59.7792581  44.6306276 121.6413421  67.7139901  52.3260319 123.5916105
  67.2703755  51.5396698 123.2737010  68.3757114  52.5139470 122.9259996
  62.4727022  53.8556121 118.1176784  63.0234447  53.7273184 117.3453778
  61.6338498  54.1551010 117.7671677  69.8121139  52.6063119 121.6197507
  69.7939614  53.4272000 121.1277776  70.7341059  52.4817194 121.8447648
  66.2694193  50.1207249 122.4621015  66.8022530  49.3595537 122.2320323
  65.7408274  49.8280900 123.2045170  69.4363888  35.2267314 117.9914657
  69.0928157  36.1168956 117.9153767  69.8042851  35.0368972 117.1284242
  57.5049739  47.5500845 110.8103259  58.3424961  47.9597853 110.5936967
  57.6828006  46.6100287 110.7803453  69.4014171  45.2175926 106.4987092
  68.8860794  45.9880530 106.7375479  69.1291479  44.5441062 107.1220153
  66.9861282  40.0625626 111.5572330  66.1302878  39.6732477 111.3777969
  67.3988233  40.1417587 110.6972116  68.5160428  37.5971970 115.9563890
  68.0125224  37.5602105 115.1431695  68.8091035  38.5064712 116.0160547
  64.7603314  37.6810699 114.9630072  65.6256311  37.4853508 114.6035961
  64.8280823  37.4521051 115.8899429  74.3748445  47.9708280 108.4340265
  73.5977888  47.6319440 107.9895427  75.0539926  47.9760903 107.7595230
  69.1900474  43.0903018 108.3246873  68.8850609  43.4049167 109.1757016
  70.1430916  43.1684438 108.3674206  67.6346906  49.2493241 109.9739827
  67.1068267  48.5146001 109.6613065  67.1334408  50.0267917 109.7279795
  72.6139752  47.4442261 115.0906873  71.9563426  48.1341523 115.1787002
  73.4180151  47.8338693 115.4340860  62.3665633  39.9112907 112.3346439
  62.9409385  39.6888089 111.6019632  62.9536616  39.9801602 113.0875040
  71.4245211  45.7986634 113.1410815  71.9377092  46.4316626 113.6432525
  72.0746434  45.1987830 112.7754175  62.6935220  41.9417368 106.3542324
  61.8572533  42.2792055 106.6751599  62.5539990  41.8066348 105.4169461
  64.6688301  36.7854156 111.0621508  64.0152713  36.4703173 110.4378123
  64.6268775  36.1629897 111.7881331  65.7799506  47.0673451 102.9774800
  64.8726568  46.8362705 103.1765949  66.2770538  46.2711070 103.1648782
  68.6867585  55.7770958 105.8971486  68.0129284  56.0802655 106.5056444
  69.0733407  56.5800039 105.5476943  67.9026041  43.2736090 115.3869156
  66.9848603  43.4951037 115.2290844  68.3186185  43.3482400 114.5280863
  68.6861089  44.6727505 110.5171836  69.4332908  45.1848903 110.2078958
  68.9552679  44.3511558 111.3776229  66.9587739  47.1686046 107.4998790
  66.0498959  46.8845079 107.5971260  66.9882823  47.5885125 106.6402097
  72.1907007  50.7792636 111.2689958  71.7369334  49.9383545 111.3255148
  71.5600973  51.4154034 111.6064738  71.1339926  41.7084622 112.4990625
  70.3962683  41.1962008 112.8300868  71.3866700  41.2685003 111.6873902
  70.6339946  52.6169132 112.2039776  70.9262920  53.1774189 111.4852142
  71.1438567  52.9097693 112.9592935  71.2351554  34.4860874 113.0932395
  71.5410430  33.6258237 112.8058310  71.9604158  35.0778494 112.8931388
  57.5275910  44.8891560 111.4813992  57.3300309  44.2960921 110.7565059
  56.9722574  44.5843770 112.1989931  65.5072633  44.7814667 113.6008586
  65.5621243  43.8288503 113.5251062  64.6963835  44.9374106 114.0849884
  66.6563827  48.7094790 104.8386869  66.2183257  47.9930649 104.3792506
  67.3974268  48.9370905 104.2771960  63.4464993  43.3991726 111.3598964
  62.6332859  43.6985897 111.7664157  63.9423987  43.0047415 112.0773447
  65.5973571  53.3949483 113.2933229  65.5549750  53.6210330 112.3641761
  66.5136270  53.1612858 113.4419030  69.0439205  43.8633551 120.1913858
  69.3988593  44.0905024 121.0508324  69.6911336  44.1951928 119.5691114
  74.7736942  46.9851987 110.8963187  74.6354840  47.1753583 109.9684377
  74.4173161  47.7471370 111.3531238  62.9379068  40.9710082 116.9760199
  63.5778447  40.8298841 116.2783163  62.1056599  40.6844595 116.5998801
  74.8006321  49.0528514 115.9074459  75.2342828  48.9603803 116.7557513
  75.5137902  49.0286014 115.2694475  63.7139372  50.2712512 113.0895192
  64.5079970  49.7762833 112.8877767  63.0031064  49.7430376 112.7262897
  68.5334216  52.6530608 117.4407559  68.5871239  53.2221544 118.2085275
  67.6648998  52.8232493 117.0761597  60.0222135  44.4155594 109.1654945
  59.0919723  44.3540050 109.3824907  60.1179607  43.8931547 108.3691586
  59.9407684  40.9410407 111.7533186  60.2014502  41.8555740 111.6442347
  60.7624857  40.4734850 111.9029799  61.4132610  42.3548164 118.9232011
  62.0855663  42.1465526 118.2744660  60.5862396  42.1570250 118.4837243
  75.6621871  49.0952214 118.4407344  75.8557761  49.9998025 118.6866619
  75.5622489  48.6359634 119.2745929  67.3158182  38.9810105 120.9397672
  66.6686097  39.6800055 120.8462148  68.0859197  39.4146249 121.3073920
  70.7236980  49.2458957 124.0148225  70.5722486  49.0169509 123.0978309
  70.7141659  50.2029559 124.0279570  67.4922316  46.8190870 118.9994491
  68.4214376  46.9702030 118.8263459  67.0713346  46.9074891 118.1443138
  66.2910648  50.8441534 116.7693029  66.1521734  50.4760319 117.6418967
  65.5025244  51.3589174 116.5976987  66.8858800  55.9450631 108.1118565
  67.0610556  55.4738674 108.9264188  66.1991588  56.5716397 108.3399826
  67.8415863  50.2223137 114.1581867  67.5065696  50.1823907 115.0539517
  67.3419809  49.5567853 113.6852277  61.8160107  45.6290767 119.6834448
  61.6779905  44.8971006 120.2845987  62.7265030  45.5399667 119.4018636
  70.7775055  47.5679171 104.4318926  70.1604225  46.8426000 104.3351979
  70.3091543  48.3288532 104.0886001  64.4442408  45.3410726 119.1718128
  65.1542026  44.7003919 119.1304746  64.4011716  45.5923621 120.0944308
  72.4329186  52.2778080 122.0924707  72.3741733  51.5937300 121.4255290
  72.8348705  53.0197070 121.6405333  63.1571342  42.3275944 120.9913767
  62.6208699  41.8766683 121.6435363  62.5688050  42.4621853 120.2484231
  61.4519885  59.0939994 114.8858426  61.6916483  59.7258518 115.5637444
  60.6089082  58.7428034 115.1723785  62.5673601  41.7864596 103.5540231
  61.6903067  41.6653397 103.1902477  63.0431354  40.9950674 103.3019119
  72.4346594  50.2417664 120.3238686  71.5473372  49.9043586 120.4465085
  73.0045145  49.5100695 120.5607452  54.0875741  46.5741755 113.6481738
  54.7746781  46.2603485 113.0602753  53.9323869  47.4783120 113.3748989
  58.8910463  41.4631952 118.0766762  58.8068652  40.8557622 117.3417171
  58.0693169  41.9540970 118.0776258  65.9647747  54.9019116 117.2899930
  65.8917919  55.7074088 117.8019234  65.5225140  55.1011082 116.4647951
  65.7537527  54.1390886 110.8002751  64.9705049  54.6812566 110.8940976
  66.4530272  54.6564866 111.1996992  69.0634177  39.9485516 113.4436957
  69.5602876  39.1955478 113.1238027  68.2921158  39.9849832 112.8780166
  76.9163934  45.6525881 115.0855248  76.9053810  46.5350597 114.7149181
  76.0481314  45.2997432 114.8909785  68.4246431  54.8005950 119.4458088
  69.1374403  55.4353415 119.3733990  67.9336459  54.8969816 118.6298090
  70.1463957  48.7057203 111.0175380  69.2120236  48.8258665 110.8480084
  70.3240626  47.8029670 110.7535390  65.6469146  42.0902899 113.1708641
  65.2766933  41.5373939 113.8589547  66.1428238  41.4861032 112.6183641
  73.5336509  44.5474522 111.5525414  73.9996961  45.3802514 111.4785717
  73.9844009  44.0819504 112.2570673  63.4758344  52.5500394 120.2663659
  64.1767804  53.1836877 120.4193053  63.0053459  52.8915125 119.5059298
  71.6012740  50.8918343 108.5511566  71.8772584  50.7774938 109.4605440
  70.7317239  50.4935828 108.5123739  71.5053172  36.9155109 115.5916315
  70.5916251  37.1459336 115.7598522  71.9346273  36.9993553 116.4430348
  71.2759630  45.1045001 118.0916209  70.6231080  45.3520908 117.4368662
  71.6540010  44.2909139 117.7578687  68.2366804  55.1404694 112.1944380
  68.4189198  54.3226350 112.6572132  69.0599790  55.3572386 111.7569270
  68.5708969  54.0672879 109.4559428  69.0996736  53.5565334 108.8429590
  68.8337189  53.7515410 110.3204961  67.3247203  45.8464812 124.5782247
  66.6487840  45.7458941 125.2484622  68.1474837  45.6904026 125.0418244
  59.0726062  52.0836749 117.1994762  59.6579499  51.3380437 117.3322666
  58.8750901  52.3940705 118.0831426  61.9264717  55.1187996 112.2157204
  61.2575093  55.6034124 111.7321244  61.7877587  55.3657216 113.1300583
  53.6643717  44.6542349 115.9199205  53.7027816  44.1205940 116.7136323
  53.1584010  44.1277554 115.3010182  66.0669986  57.1531740 118.8139863
  66.6188294  57.3163361 119.5788948  66.4076179  57.7436177 118.1419887
  61.0434479  39.5006889 119.4161747  61.1075806  40.3621720 119.0039145
  60.9801599  38.8880891 118.6834106  60.5186752  41.5730022 123.0634782
  61.1458791  41.1907099 123.6772306  59.6614671  41.3544224 123.4290474
  70.9180860  51.9792997 124.6688517  71.4620764  52.5922955 124.1743472
  70.3367705  52.5372575 125.1855530  57.2952294  43.3806451 108.9953136
  57.5905736  42.4717129 108.9420190  56.3940330  43.3594190 108.6734139
  69.2038373  55.1013715 115.8003545  69.0789513  54.3003455 115.2914490
  69.8617464  55.5959908 115.3117515  60.8246541  41.4562448 114.9780685
  60.1033127  42.0698415 114.8388158  61.6139797  41.9920212 114.8997331
  71.2673282  52.9022735 117.4283095  70.3203617  52.7828086 117.3561422
  71.6156055  52.0145233 117.5109356  63.6272855  38.7916874 121.2521337
  64.1507257  39.0379171 122.0147646  63.4085188  39.6236909 120.8324474
  59.0240136  41.0620549 109.1192461  58.6952842  40.1817928 108.9367567
  59.3779507  41.0068217 110.0068851  68.2719715  52.6975451 113.6287447
  68.1244677  51.7692159 113.8095017  69.0973208  52.7195542 113.1444522
  62.1381959  41.3493518 109.4867939  62.4778032  41.8779440 108.7646548
  62.5854080  41.6873925 110.2626506  71.8753837  53.5204010 114.7152320
  72.8000384  53.3146871 114.5776771  71.7069140  53.2720411 115.6241661
  64.8325400  39.7330569 118.9371007  64.4922220  38.9338382 119.3391687
  64.1264406  40.0332280 118.3647840  65.4841872  36.8179882 117.3898330
  66.3067941  36.3440360 117.2677221  65.7279935  37.5970365 117.8897017
  64.1250106  39.8468140 107.6861232  64.8458469  40.2249393 107.1824949
  63.5015410  40.5657017 107.7896210  68.2681229  40.5513289 108.6219564
  68.4844844  41.4337927 108.3208392  67.7875296  40.1599502 107.8925206
  63.0080451  43.5099002 115.1990309  62.8625031  43.8239305 116.0914590
  62.5305654  44.1283903 114.6461207  64.8676833  40.5001550 115.2471198
  64.8538402  39.6042644 114.9103496  65.5849262  40.5072214 115.8809484
  66.7202964  40.9338890 117.2924326  66.4620742  41.8555961 117.2908656
  66.1888005  40.5369325 117.9824790  71.6649153  54.0389678 110.0714411
  71.8386031  53.4736100 109.3188264  72.1578044  54.8390572 109.8893901
  57.4826113  46.0504347 118.1377970  56.9379581  46.8264155 118.2698244
  58.3605463  46.3975151 117.9797091  64.2713729  39.3815930 110.5158769
  64.3929641  38.4532577 110.7149656  63.9815772  39.3954616 109.6037084
  67.1404920  37.0670841 113.6525488  67.1626617  37.1310174 112.6977468
  67.5572979  36.2275350 113.8465995  77.5188544  46.8026100 111.6904711
  77.9619690  46.0533426 111.2923834  76.6415054  46.7936237 111.3078443
  72.6524325  53.3556442 107.1711309  73.3475230  53.9763135 107.3898624
  72.9947476  52.5051793 107.4463687  58.2692135  45.1774243 121.0308127
  57.5273871  45.3256878 121.6172757  57.9484879  45.4382508 120.1674876
  74.5515749  50.8056147 108.6998640  75.0767073  51.1443420 107.9747960
  74.4638101  49.8703163 108.5161775  66.2135797  54.7190221 120.8288517
  66.5222924  54.4739368 121.7011216  67.0111279  54.9236860 120.3407387
  66.2356409  56.8728131 113.0593893  65.7961400  56.3804509 113.7526750
  66.9864526  56.3301098 112.8185969  58.7148748  53.0639672 113.0618522
  59.5406768  52.7643443 112.6817165  58.3642800  52.2947294 113.5108310
  63.6830281  52.4166140 115.1316195  63.0610291  51.7536845 114.8318423
  64.3535148  52.4427272 114.4489843  56.9157353  50.9825998 114.0207455
  56.0789262  50.5548172 113.8391456  56.8880999  51.1758441 114.9578246
  63.7554809  40.8947928 124.7248701  63.8042964  41.7710051 124.3426471
  64.2977323  40.3525321 124.1520344  74.2409655  51.4389051 124.0049838
  73.4505198  51.4213190 123.4654338  74.0043009  51.9777345 124.7598875
  74.3607530  48.2881517 121.3182567  74.4105535  48.1231525 122.2598090
  74.2521453  47.4208776 120.9280448  63.2443788  50.9670063 108.6074656
  63.3931909  51.6505528 107.9541328  64.0510232  50.9475153 109.1224111
  71.6511292  44.2712445 122.6341873  72.5521155  44.1318910 122.3425871
  71.7259267  44.4366900 123.5740051  65.9854097  41.6479300 121.4795060
  65.1157407  41.9412866 121.2077648  66.2213578  42.2319745 122.2002323
  75.8625727  50.7078459 121.5624588  75.5710535  51.0708440 122.3988049
  75.2497858  49.9945467 121.3837920  77.0621409  48.2731339 114.0827159
  77.8968300  48.7121143 114.2464719  77.1980538  47.7969992 113.2635404
  74.1112915  45.8311074 120.0304646  74.5867036  46.0238720 119.2223498
  73.1878480  45.8870259 119.7848030  60.9996421  46.9935241 109.6135725
  60.7542463  46.0897571 109.8115935  61.1692336  46.9952391 108.6715203
  68.6893131  37.8658917 118.9960480  69.2075075  38.6019944 118.6706969
  68.3348264  38.1722910 119.8307239  60.2692069  42.7263598 107.1121886
  59.5761314  42.8007953 106.4561922  60.0243821  41.9623942 107.6343403
  68.9405725  34.2859200 114.5161377  69.2207479  33.6182389 115.1421803
  69.7256332  34.4788295 114.0036041  66.7439194  53.4618194 106.0786403
  66.1713161  54.0808381 105.6256875  67.3171988  54.0117555 106.6126325
  72.8114584  42.7076834 118.2632952  73.7632007  42.8074931 118.2845176
  72.6418034  41.9155102 118.7731036  70.8328963  39.7932417 118.4492353
  70.2378895  40.0737430 117.7538841  70.5478660  40.2826318 119.2209094
  69.9636454  53.7455344 107.2094985  70.8967127  53.6800905 107.4127861
  69.8759667  54.5811611 106.7509518  72.5924470  53.0621214 104.1698933
  72.5138102  52.7281078 105.0634691  73.4134137  53.5542982 104.1690405
  75.2902662  45.9282953 117.3775252  75.2578982  44.9898954 117.5634935
  75.9003285  46.0066990 116.6441076  67.1285992  44.7979006 103.4202456
  68.0745097  44.6685214 103.4890874  66.7500237  44.0593668 103.8971884
  75.4397150  42.7193997 117.4233535  74.9236199  41.9352453 117.2363464
  76.3237099  42.3912713 117.5880054  73.1007877  36.4635012 113.3829347
  72.9032698  36.1550101 114.2672679  73.7107583  37.1896651 113.5127277
  81.1079211  46.9898960 116.5181288  81.8382600  46.7284248 117.0788992
  80.4986157  46.2527682 116.5583356  79.1894509  45.1306823 117.1155740
  78.4627672  44.9962788 116.5072231  78.7741795  45.4383651 117.9212458
  67.0124685  48.8496752 124.8803113  67.9327694  49.0275352 125.0743159
  66.9774268  47.9052798 124.7282812  65.3128910  42.7228983 103.3557341
  64.4060365  42.4262095 103.4320054  65.5904891  42.4258801 102.4891627
  56.2306850  44.0435346 113.8056387  55.9109634  43.1900654 113.5130761
  55.6840278  44.2583924 114.5614355  60.0086757  46.7597787 117.5225894
  60.2272767  47.6914895 117.5413928  60.4212531  46.4005762 118.3080698
  66.9290975  37.2665872 109.5101582  66.1191704  36.9212957 109.8856828
  67.6175392  36.9573416 110.0989194  68.8581524  36.3443919 111.1325879
  69.4112562  36.7639373 111.7915902  69.0951610  35.4179667 111.1748835
  64.0827694  39.5815918 103.4969320  64.9446858  39.9070816 103.7565137
  64.2678038  38.7947414 102.9842386  56.0995110  47.6638258 115.7749509
  55.4058581  47.2492210 115.2619463  56.8468101  47.7058794 115.1782928
  72.2360331  38.4544444 110.6404543  71.6559000  39.1129248 110.2582595
  71.9696263  37.6321789 110.2291960  70.6863897  37.8549502 112.8425863
  71.1863675  37.9666037 112.0340182  71.3299505  37.5510555 113.4826672
  64.7445893  45.7628132 125.7293704  64.2612975  46.5628492 125.9357593
  64.8306832  45.7736077 124.7761148  58.0131852  47.5956511 113.6515524
  57.9902541  47.6944199 112.6997407  58.3232489  48.4421662 113.9732690
  60.6719230  49.6532666 117.7662138  61.6262484  49.6216609 117.6992070
  60.4731754  49.1923290 118.5812364  61.2618612  48.2233783 120.3332936
  62.0811501  48.7177861 120.3567773  61.5355420  47.3065751 120.3050503
  71.0185209  40.6144535 109.6960891  70.1311064  40.8994185 109.4781086
  71.4339198  40.4538298 108.8488168  74.3699745  40.6391056 113.4115231
  75.1460135  41.1287508 113.6839847  73.6447879  41.0649110 113.8687100
  76.8072303  41.3518675 114.4689171  77.4016794  41.1114411 113.7582479
  76.8798887  40.6325806 115.0962707  59.0269459  55.1952286 114.7832336
  58.8923927  54.4352687 114.2170334  58.6101521  55.9193186 114.3161125
  70.1628422  50.3789209 103.7908911  70.8664272  50.5839212 104.4066567
  69.4391071  50.9465971 104.0557995  70.9926232  46.1299071 109.9111181
  70.9361434  46.5867622 109.0718814  71.5454575  45.3689755 109.7334024
  74.8031038  41.9188803 110.7361301  74.5467973  41.5185438 111.5669509
  74.1783906  42.6332597 110.6111440  79.1143376  44.6584876 113.2432592
  78.5542934  44.7278065 114.0164154  78.5086880  44.4825860 112.5232089
  62.1838585  56.0921603 114.9950779  62.0670969  57.0367035 114.8929469
  61.3631031  55.7895165 115.3836578  72.0715120  50.8171739 105.8407371
  72.9060723  50.3852937 105.6584846  71.9099462  50.6453752 106.7684266
  71.7261012  47.3203852 107.2063711  71.6709816  47.1548123 106.2652155
  71.1007067  48.0279885 107.3625900  56.5153527  42.5571916 121.0325133
  57.1612390  42.0470870 121.5212358  56.3070678  43.2940598 121.6068558
  69.0406919  49.6252764 126.5317273  69.9098079  49.7993416 126.1703908
  68.5613670  50.4447181 126.4093003  65.0357137  36.8211961 106.7849029
  65.0235807  37.7653801 106.9417300  65.9280559  36.6382106 106.4908490
  63.2093099  56.7449865 118.2106707  64.1120346  56.7773475 118.5273202
  62.9830469  55.8150316 118.2253043  64.9646701  55.4980851 114.8716786
  64.0142332  55.4982713 114.7581158  65.2679187  54.7513586 114.3552820
  68.8509257  33.4154738 111.0394966  68.0841652  32.8613224 111.1851648
  69.2619962  33.4876606 111.9009117  80.6999395  61.3341390 115.9362548
  81.3377805  61.2148137 115.2325888  80.5820238  62.2822234 115.9950500
  77.5089101  61.2868818 115.8724073  77.1707612  61.1709883 114.9844608
  78.3778869  60.8859983 115.8525079  73.3675917  63.1404294 111.8620964
  72.8040782  63.0494231 111.0937251  73.2528312  62.3204199 112.3423456
  77.9908884  62.4403670 121.8310278  77.9797525  62.0456468 120.9590782
  78.1529523  61.7069742 122.4244050  70.9140349  64.6355486 114.7005184
  71.7061640  64.2946311 114.2851483  71.1536999  64.7450461 115.6207337
  78.9475475  66.8075262 107.1735429  78.2963455  67.3929342 106.7869442
  79.7419838  67.3381457 107.2330466  72.8731102  63.8964399 107.5722563
  73.6461978  63.3493386 107.4335439  73.2256501  64.7608648 107.7837024
  74.7116145  65.2240781 120.7789462  74.4206011  66.1286412 120.6636129
  75.3473129  65.2657309 121.4933532  75.6372352  62.6017630 117.3690822
  76.2335924  62.3773652 116.6547785  75.6947323  61.8602375 117.9716270
  75.2097380  60.0557065 105.2041013  75.4622901  59.5338587 104.4424476
  74.2721939  59.8923211 105.3067696  80.2540663  59.0592844 113.0115756
  81.0403752  58.6412267 112.6606173  80.5179367  59.9638936 113.1797404
  80.4250740  64.4965694 107.7104413  79.7896573  64.5700320 108.4225318
  80.0948147  65.0859293 107.0323492  85.6549090  58.9968077 113.9148735
  86.3874262  58.4267294 114.1486564  84.8988446  58.6089677 114.3555240
  74.9293669  61.9585171 107.4065388  74.8129927  61.2830075 108.0746472
  75.0395929  61.4717545 106.5897541  77.2725210  61.4195318 111.1112077
  76.9083417  60.8925939 111.8224999  78.1292326  61.0293787 110.9378562
  83.1774511  52.7089651 118.3743343  82.8457835  53.5785062 118.1504558
  82.5820124  52.3925935 119.0537374  76.9130697  56.4485218 106.1073426
  77.0805099  57.3165454 106.4743897  76.7227866  56.6112500 105.1834715
  79.6706030  64.9102197 117.7739256  79.3706753  65.8127236 117.6655063
  79.3257090  64.6434380 118.6260409  73.1218512  61.3615994 113.8075960
  72.1969008  61.2292208 114.0153652  73.3702925  62.1410213 114.3045903
  83.0703174  57.4284737 115.4536693  82.1620051  57.3600146 115.1595454
  83.0190770  57.9056682 116.2818519  76.8919918  58.9042876 107.0920092
  76.7719543  59.3499926 107.9305573  76.1972506  59.2528193 106.5333631
  70.4827323  61.0049267 114.6419749  70.6119704  61.2583746 115.5559161
  69.8024774  61.5976975 114.3224404  74.6526810  71.6746517 110.7410224
  74.5750840  72.6254342 110.8198704  74.0488454  71.3292390 111.3985150
  77.1444040  58.8474383 123.3971591  76.3677374  59.4068303 123.3874455
  77.7834603  59.3331166 123.9186461  84.9364820  55.6301176 117.2314567
  84.2939201  55.9233709 116.5854362  84.4319749  55.5154096 118.0367764
  82.5904984  59.3764349 107.9200426  83.5022840  59.6091735 107.7448124
  82.0814631  59.9601393 107.3575505  75.3990412  61.6559836 122.9589558
  76.1405096  62.1944880 122.6824381  74.6927397  62.2826125 123.1161109
  80.8745752  63.7988977 121.5561719  81.2829108  63.3571387 120.8116351
  80.1523013  63.2241604 121.8095912  77.2276822  58.7361583 118.9295276
  78.0738017  59.1600997 119.0729925  77.1675459  58.0795208 119.6233839
  81.1974566  64.3590167 115.3114008  80.5683429  64.5235881 114.6090076
  80.8100228  64.7731777 116.0824972  85.0763798  65.2944605 112.6658372
  84.3914836  65.6743506 112.1155405  85.1607648  65.9039932 113.3990319
  80.3776267  56.3965952 120.5876450  80.1337199  57.1508012 120.0510725
  80.6536198  56.7751299 121.4223697  82.3314730  62.9404564 119.2653715
  82.5431625  63.5836324 118.5888096  82.2844478  62.1066881 118.7975645
  79.9340959  55.5522385 116.1690287  79.0725438  55.8503638 116.4607025
  79.9603393  55.7692784 115.2371320  76.7502528  64.0964575 112.5764093
  77.2140874  64.3752278 111.7868715  76.4859326  63.1948020 112.3937184
  73.6426609  63.6436057 115.5143856  74.2127966  64.0723325 114.8761341
  74.2334721  63.3618642 116.2128042  75.6871414  60.2187728 109.3853658
  76.3895458  60.6708771 109.8527585  75.3552043  59.5771546 110.0133551
  74.1351776  58.8099484 123.7604868  73.5050436  59.4915765 123.9940264
  74.0287864  58.6982566 122.8158006  69.4296748  58.4771280 114.6870792
  68.6395802  58.7328809 114.2110902  69.9207996  59.2919618 114.7922832
  83.4460558  65.8176519 117.4376073  84.2678001  65.4156707 117.1558754
  83.4422961  65.7144754 118.3892188  71.3811494  58.8415860 111.6454268
  70.5842657  58.9534554 112.1637764  71.1537086  59.1802512 110.7795159
  77.2117161  65.3660563 119.5936783  77.2761594  65.8280970 120.4294955
  76.5028085  64.7357928 119.7219093  67.7134451  58.7301771 117.1185782
  67.9642490  59.6148781 117.3843358  68.2494000  58.5506372 116.3460874
  91.5366551  62.1615268 113.7861044  90.7830259  61.5922666 113.6305048
  91.6714092  62.1277932 114.7331679  76.9265179  67.0328670 109.4615763
  76.7910854  67.8780206 109.8900611  77.4674991  67.2347948 108.6981697
  73.4132518  53.1120250 126.1230119  73.0199464  52.5586449 126.7977763
  74.2298659  53.4230829 126.5136636  70.3794576  64.5504108 110.0343688
  70.8919097  65.3447359 110.1849253  71.0317289  63.8530399 109.9677290
  72.1889461  67.6669865 112.1166442  72.3656089  68.5887829 111.9287426
  72.9846294  67.3528284 112.5460821  76.3300479  54.5278129 123.7150375
  77.0710193  55.1285282 123.6354838  76.5618402  53.7855767 123.1568418
  71.4741817  59.7134496 121.9928605  71.3595333  58.8119754 122.2935704
  70.6186335  59.9598193 121.6413421  78.5533655  67.6552237 123.5916105
  78.1097509  66.8688615 123.2737010  79.2150869  67.8431387 122.9259996
  73.3120776  69.1848038 118.1176784  73.8628202  69.0565102 117.3453778
  72.4732252  69.4842927 117.7671677  80.6514893  67.9355037 121.6197507
  80.6333369  68.7563918 121.1277776  81.5734813  67.8109112 121.8447648
  77.1087947  65.4499166 122.4621015  77.6416284  64.6887454 122.2320323
  76.5802029  65.1572818 123.2045170  80.2757642  50.5559232 117.9914657
  79.9321912  51.4460874 117.9153767  80.6436605  50.3660890 117.1284242
  68.3443493  62.8792763 110.8103259  69.1818715  63.2889771 110.5936967
  68.5221761  61.9392205 110.7803453  80.2407925  60.5467843 106.4987092
  79.7254549  61.3172448 106.7375479  79.9685234  59.8732979 107.1220153
  77.8255036  55.3917544 111.5572330  76.9696633  55.0024394 111.3777969
  78.2381988  55.4709505 110.6972116  79.3554183  52.9263887 115.9563890
  78.8518978  52.8894022 115.1431695  79.6484790  53.8356630 116.0160547
  75.5997069  53.0102617 114.9630072  76.4650065  52.8145426 114.6035961
  75.6674578  52.7812969 115.8899429  85.2142199  63.3000198 108.4340265
  84.4371642  62.9611357 107.9895427  85.8933680  63.3052821 107.7595230
  80.0294228  58.4194935 108.3246873  79.7244364  58.7341085 109.1757016
  80.9824670  58.4976355 108.3674206  78.4740660  64.5785159 109.9739827
  77.9462022  63.8437918 109.6613065  77.9728163  65.3559835 109.7279795
  83.4533506  62.7734179 115.0906873  82.7957181  63.4633441 115.1787002
  84.2573905  63.1630611 115.4340860  73.2059388  55.2404825 112.3346439
  73.7803140  55.0180006 111.6019632  73.7930370  55.3093519 113.0875040
  82.2638965  61.1278552 113.1410815  82.7770847  61.7608544 113.6432525
  82.9140189  60.5279747 112.7754175  73.5328975  57.2709286 106.3542324
  72.6966287  57.6083973 106.6751599  73.3933745  57.1358266 105.4169461
  75.5082055  52.1146074 111.0621508  74.8546468  51.7995091 110.4378123
  75.4662530  51.4921814 111.7881331  76.6193260  62.3965369 102.9774800
  75.7120322  62.1654622 103.1765949  77.1164292  61.6002988 103.1648782
  79.5261339  71.1062876 105.8971486  78.8523038  71.4094573 106.5056444
  79.9127161  71.9091956 105.5476943  78.7419796  58.6028007 115.3869156
  77.8242357  58.8242954 115.2290844  79.1579939  58.6774318 114.5280863
  79.5254844  60.0019423 110.5171836  80.2726663  60.5140820 110.2078958
  79.7946433  59.6803476 111.3776229  77.7981494  62.4977964 107.4998790
  76.8892713  62.2136997 107.5971260  77.8276578  62.9177042 106.6402097
  83.0300761  66.1084553 111.2689958  82.5763088  65.2675463 111.3255148
  82.3994728  66.7445952 111.6064738  81.9733681  57.0376539 112.4990625
  81.2356438  56.5253926 112.8300868  82.2260454  56.5976921 111.6873902
  81.4733700  67.9461050 112.2039776  81.7656675  68.5066107 111.4852142
  81.9832321  68.2389611 112.9592935  82.0745308  49.8152791 113.0932395
  82.3804185  48.9550155 112.8058310  82.7997913  50.4070412 112.8931388
  68.3669664  60.2183478 111.4813992  68.1694064  59.6252839 110.7565059
  67.8116328  59.9135688 112.1989931  76.3466388  60.1106584 113.6008586
  76.4014998  59.1580421 113.5251062  75.5357590  60.2666023 114.0849884
  77.4957582  64.0386707 104.8386869  77.0577012  63.3222566 104.3792506
  78.2368022  64.2662822 104.2771960  74.2858748  58.7283644 111.3598964
  73.4726613  59.0277815 111.7664157  74.7817742  58.3339333 112.0773447
  76.4367326  68.7241401 113.2933229  76.3943504  68.9502247 112.3641761
  77.3530024  68.4904776 113.4419030  79.8832959  59.1925469 120.1913858
  80.2382347  59.4196942 121.0508324  80.5305091  59.5243845 119.5691114
  85.6130696  62.3143904 110.8963187  85.4748595  62.5045500 109.9684377
  85.2566915  63.0763287 111.3531238  73.7772823  56.3002000 116.9760199
  74.4172202  56.1590759 116.2783163  72.9450353  56.0136513 116.5998801
  85.6400076  64.3820431 115.9074459  86.0736583  64.2895721 116.7557513
  86.3531657  64.3577932 115.2694475  74.5533126  65.6004430 113.0895192
  75.3473725  65.1054750 112.8877767  73.8424819  65.0722293 112.7262897
  79.3727971  67.9822526 117.4407559  79.4264993  68.5513462 118.2085275
  78.5042752  68.1524411 117.0761597  70.8615890  59.7447512 109.1654945
  69.9313478  59.6831967 109.3824907  70.9573362  59.2223465 108.3691586
  70.7801439  56.2702325 111.7533186  71.0408256  57.1847658 111.6442347
  71.6018611  55.8026767 111.9029799  72.2526364  57.6840082 118.9232011
  72.9249418  57.4757444 118.2744660  71.4256151  57.4862168 118.4837243
  86.5015626  64.4244132 118.4407344  86.6951516  65.3289943 118.6866619
  86.4016244  63.9651551 119.2745929  78.1551936  54.3102023 120.9397672
  77.5079851  55.0091972 120.8462148  78.9252952  54.7438167 121.3073920
  81.5630734  64.5750875 124.0148225  81.4116241  64.3461427 123.0978309
  81.5535414  65.5321476 124.0279570  78.3316071  62.1482788 118.9994491
  79.2608131  62.2993947 118.8263459  77.9107101  62.2366808 118.1443138
  77.1304402  66.1733452 116.7693029  76.9915488  65.8052236 117.6418967
  76.3418999  66.6881091 116.5976987  77.7252554  71.2742549 108.1118565
  77.9004310  70.8030592 108.9264188  77.0385342  71.9008315 108.3399826
  78.6809618  65.5515055 114.1581867  78.3459450  65.5115825 115.0539517
  78.1813563  64.8859771 113.6852277  72.6553862  60.9582685 119.6834448
  72.5173659  60.2262924 120.2845987  73.5658785  60.8691585 119.4018636
  81.6168809  62.8971089 104.4318926  80.9997980  62.1717917 104.3351979
  81.1485298  63.6580449 104.0886001  75.2836162  60.6702644 119.1718128
  75.9935781  60.0295836 119.1304746  75.2405470  60.9215539 120.0944308
  83.2722941  67.6069997 122.0924707  83.2135487  66.9229218 121.4255290
  83.6742459  68.3488987 121.6405333  73.9965096  57.6567862 120.9913767
  73.4602453  57.2058600 121.6435363  73.4081805  57.7913771 120.2484231
  72.2913640  74.4231911 114.8858426  72.5310238  75.0550435 115.5637444
  71.4482836  74.0719951 115.1723785  73.4067355  57.1156513 103.5540231
  72.5296821  56.9945314 103.1902477  73.8825108  56.3242592 103.3019119
  83.2740348  65.5709581 120.3238686  82.3867127  65.2335503 120.4465085
  83.8438899  64.8392613 120.5607452  64.9269495  61.9033673 113.6481738
  65.6140535  61.5895403 113.0602753  64.7717624  62.8075038 113.3748989
  69.7304217  56.7923870 118.0766762  69.6462406  56.1849539 117.3417171
  68.9086924  57.2832888 118.0776258  76.8041502  70.2311034 117.2899930
  76.7311673  71.0366005 117.8019234  76.3618895  70.4303000 116.4647951
  76.5931281  69.4682804 110.8002751  75.8098803  70.0104484 110.8940976
  77.2924026  69.9856783 111.1996992  79.9027931  55.2777433 113.4436957
  80.3996631  54.5247396 113.1238027  79.1314913  55.3141750 112.8780166
  87.7557689  60.9817799 115.0855248  87.7447565  61.8642514 114.7149181
  86.8875068  60.6289350 114.8909785  79.2640185  70.1297868 119.4458088
  79.9768157  70.7645333 119.3733990  78.7730214  70.2261734 118.6298090
  80.9857712  64.0349120 111.0175380  80.0513991  64.1550583 110.8480084
  81.1634380  63.1321587 110.7535390  76.4862900  57.4194816 113.1708641
  76.1160688  56.8665857 113.8589547  76.9821992  56.8152950 112.6183641
  84.3730263  59.8766440 111.5525414  84.8390716  60.7094431 111.4785717
  84.8237764  59.4111421 112.2570673  74.3152099  67.8792311 120.2663659
  75.0161558  68.5128794 120.4193053  73.8447214  68.2207043 119.5059298
  82.4406494  66.2210261 108.5511566  82.7166338  66.1066856 109.4605440
  81.5710993  65.8227746 108.5123739  82.3446926  52.2447027 115.5916315
  81.4310006  52.4751254 115.7598522  82.7740028  52.3285471 116.4430348
  82.1153385  60.4336919 118.0916209  81.4624835  60.6812826 117.4368662
  82.4933764  59.6201057 117.7578687  79.0760558  70.4696612 112.1944380
  79.2582953  69.6518268 112.6572132  79.8993544  70.6864304 111.7569270
  79.4102724  69.3964797 109.4559428  79.9390490  68.8857252 108.8429590
  79.6730944  69.0807327 110.3204961  78.1640958  61.1756730 124.5782247
  77.4881595  61.0750859 125.2484622  78.9868591  61.0195943 125.0418244
  69.9119817  67.4128666 117.1994762  70.4973253  66.6672354 117.3322666
  69.7144655  67.7232623 118.0831426  72.7658472  70.4479914 112.2157204
  72.0968847  70.9326041 111.7321244  72.6271342  70.6949134 113.1300583
  64.5037471  59.9834266 115.9199205  64.5421571  59.4497857 116.7136323
  63.9977764  59.4569472 115.3010182  76.9063740  72.4823657 118.8139863
  77.4582048  72.6455279 119.5788948  77.2469934  73.0728095 118.1419887
  71.8828234  54.8298807 119.4161747  71.9469560  55.6913638 119.0039145
  71.8195354  54.2172809 118.6834106  71.3580506  56.9021940 123.0634782
  71.9852545  56.5199017 123.6772306  70.5008425  56.6836141 123.4290474
  68.1346049  58.7098369 108.9953136  68.4299490  57.8009047 108.9420190
  67.2334085  58.6886108 108.6734139  80.0432128  70.4305633 115.8003545
  79.9183267  69.6295373 115.2914490  80.7011219  70.9251826 115.3117515
  71.6640296  56.7854365 114.9780685  70.9426882  57.3990333 114.8388158
  72.4533552  57.3212130 114.8997331  82.1067036  68.2314653 117.4283095
  81.1597372  68.1120004 117.3561422  82.4549809  67.3437151 117.5109356
  74.4666609  54.1208792 121.2521337  74.9901011  54.3671088 122.0147646
  74.2478943  54.9528827 120.8324474  69.8633891  56.3912466 109.1192461
  69.5346597  55.5109845 108.9367567  70.2173261  56.3360135 110.0068851
  79.1113469  68.0267369 113.6287447  78.9638432  67.0984076 113.8095017
  79.9366963  68.0487460 113.1444522  72.9775714  56.6785436 109.4867939
  73.3171786  57.2071357 108.7646548  73.4247834  57.0165842 110.2626506
  82.7147591  68.8495928 114.7152320  83.6394139  68.6438789 114.5776771
  82.5462895  68.6012329 115.6241661  75.6719155  55.0622487 118.9371007
  75.3315975  54.2630300 119.3391687  74.9658161  55.3624198 118.3647840
  76.3235626  52.1471799 117.3898330  77.1461696  51.6732277 117.2677221
  76.5673690  52.9262283 117.8897017  74.9643861  55.1760058 107.6861232
  75.6852223  55.5541310 107.1824949  74.3409165  55.8948935 107.7896210
  79.1074984  55.8805207 108.6219564  79.3238598  56.7629845 108.3208392
  78.6269051  55.4891420 107.8925206  73.8474205  58.8390920 115.1990309
  73.7018786  59.1531223 116.0914590  73.3699409  59.4575820 114.6461207
  75.7070588  55.8293468 115.2471198  75.6932157  54.9334561 114.9103496
  76.4243016  55.8364132 115.8809484  77.5596719  56.2630808 117.2924326
  77.3014497  57.1847879 117.2908656  77.0281759  55.8661243 117.9824790
  82.5042907  69.3681595 110.0714411  82.6779785  68.8028018 109.3188264
  82.9971799  70.1682490 109.8893901  68.3219867  61.3796264 118.1377970
  67.7773335  62.1556072 118.2698244  69.1999217  61.7267069 117.9797091
  75.1107484  54.7107848 110.5158769  75.2323395  53.7824494 110.7149656
  74.8209526  54.7246534 109.6037084  77.9798674  52.3962759 113.6525488
  78.0020371  52.4602092 112.6977468  78.3966733  51.5567267 113.8465995
  88.3582299  62.1318018 111.6904711  88.8013445  61.3825343 111.2923834
  87.4808809  62.1228155 111.3078443  83.4918080  68.6848360 107.1711309
  84.1868985  69.3055052 107.3898624  83.8341230  67.8343711 107.4463687
  69.1085889  60.5066161 121.0308127  68.3667625  60.6548796 121.6172757
  68.7878633  60.7674426 120.1674876  85.3909503  66.1348065 108.6998640
  85.9160827  66.4735338 107.9747960  85.3031856  65.1995080 108.5161775
  77.0529552  70.0482139 120.8288517  77.3616678  69.8031286 121.7011216
  77.8505034  70.2528777 120.3407387  77.0750164  72.2020048 113.0593893
  76.6355154  71.7096427 113.7526750  77.8258281  71.6593016 112.8185969
  69.5542503  68.3931589 113.0618522  70.3800523  68.0935361 112.6817165
  69.2036555  67.6239212 113.5108310  74.5224036  67.7458058 115.1316195
  73.9004045  67.0828763 114.8318423  75.1928903  67.7719189 114.4489843
  67.7551108  66.3117916 114.0207455  66.9183016  65.8840090 113.8391456
  67.7274753  66.5050359 114.9578246  74.5948563  56.2239846 124.7248701
  74.6436719  57.1001968 124.3426471  75.1371078  55.6817239 124.1520344
  85.2001284  63.6173435 121.3182567  85.2499289  63.4523443 122.2598090
  85.0915208  62.7500694 120.9280448  74.0837543  66.2961981 108.6074656
  74.2325663  66.9797445 107.9541328  74.8903986  66.2767071 109.1224111
  82.4905047  59.6004363 122.6341873  83.3914909  59.4610828 122.3425871
  82.5653021  59.7658818 123.5740051  76.8247852  56.9771218 121.4795060
  75.9551161  57.2704784 121.2077648  77.0607332  57.5611663 122.2002323
  86.7019481  66.0370377 121.5624588  86.4104289  66.4000357 122.3988049
  86.0891612  65.3237385 121.3837920  87.9015163  63.6023256 114.0827159
  88.7362055  64.0413061 114.2464719  88.0374292  63.1261910 113.2635404
  84.9506669  61.1602991 120.0304646  85.4260791  61.3530638 119.2223498
  84.0272235  61.2162177 119.7848030  71.8390176  62.3227158 109.6135725
  71.5936218  61.4189488 109.8115935  72.0086090  62.3244309 108.6715203
  79.5286886  53.1950835 118.9960480  80.0468830  53.9311862 118.6706969
  79.1742019  53.5014828 119.8307239  71.1085823  58.0555516 107.1121886
  70.4155068  58.1299871 106.4561922  70.8637575  57.2915860 107.6343403
  79.7799480  49.6151117 114.5161377  80.0601234  48.9474306 115.1421803
  80.5650087  49.8080213 114.0036041  77.5832948  68.7910111 106.0786403
  77.0106915  69.4100298 105.6256875  78.1565742  69.3409473 106.6126325
  83.6508338  58.0368751 118.2632952  84.6025761  58.1366849 118.2845176
  83.4811789  57.2447020 118.7731036  81.6722718  55.1224335 118.4492353
  81.0772650  55.4029347 117.7538841  81.3872414  55.6118236 119.2209094
  80.8030208  69.0747261 107.2094985  81.7360881  69.0092823 107.4127861
  80.7153421  69.9103528 106.7509518  83.4318225  68.3913132 104.1698933
  83.3531856  68.0572995 105.0634691  84.2527892  68.8834900 104.1690405
  86.1296416  61.2574871 117.3775252  86.0972736  60.3190872 117.5634935
  86.7397040  61.3358908 116.6441076  77.9679747  60.1270924 103.4202456
  78.9138852  59.9977132 103.4890874  77.5893992  59.3885586 103.8971884
  86.2790905  58.0485914 117.4233535  85.7629953  57.2644371 117.2363464
  87.1630853  57.7204631 117.5880054  83.9401631  51.7926930 113.3829347
  83.7426453  51.4842018 114.2672679  84.5501337  52.5188569 113.5127277
  91.9472966  62.3190878 116.5181288  92.6776354  62.0576166 117.0788992
  91.3379911  61.5819600 116.5583356  90.0288263  60.4598740 117.1155740
  89.3021427  60.3254705 116.5072231  89.6135550  60.7675569 117.9212458
  77.8518439  64.1788670 124.8803113  78.7721449  64.3567269 125.0743159
  77.8168022  63.2344716 124.7282812  76.1522664  58.0520900 103.3557341
  75.2454119  57.7554013 103.4320054  76.4298645  57.7550719 102.4891627
  67.0700604  59.3727264 113.8056387  66.7503389  58.5192572 113.5130761
  66.5234033  59.5875842 114.5614355  70.8480512  62.0889705 117.5225894
  71.0666522  63.0206813 117.5413928  71.2606286  61.7297679 118.3080698
  77.7684730  52.5957790 109.5101582  76.9585458  52.2504875 109.8856828
  78.4569147  52.2865334 110.0989194  79.6975278  51.6735837 111.1325879
  80.2506317  52.0931290 111.7915902  79.9345364  50.7471585 111.1748835
  75.7208377  57.6622911 126.9128643  75.6205104  58.6117268 126.8440734
  75.5029919  57.3341149 126.0404713  74.9221449  54.9107836 103.4969320
  75.7840613  55.2362734 103.7565137  75.1071793  54.1239332 102.9842386
  66.9388864  62.9930175 115.7749509  66.2452336  62.5784128 115.2619463
  67.6861855  63.0350712 115.1782928  83.0754085  53.7836362 110.6404543
  82.4952754  54.4421166 110.2582595  82.8090018  52.9613707 110.2291960
  81.5257652  53.1841420 112.8425863  82.0257430  53.2957954 112.0340182
  82.1693259  52.8802473 113.4826672  75.5839647  61.0920049 125.7293704
  75.1006729  61.8920410 125.9357593  75.6700586  61.1027994 124.7761148
  68.8525607  62.9248429 113.6515524  68.8296295  63.0236116 112.6997407
  69.1626243  63.7713580 113.9732690  71.5112985  64.9824584 117.7662138
  72.4656238  64.9508526 117.6992070  71.3125508  64.5215208 118.5812364
  72.1012367  63.5525700 120.3332936  72.9205256  64.0469779 120.3567773
  72.3749175  62.6357668 120.3050503  81.8578963  55.9436452 109.6960891
  80.9704818  56.2286103 109.4781086  82.2732952  55.7830216 108.8488168
  85.2093499  55.9682973 113.4115231  85.9853889  56.4579426 113.6839847
  84.4841633  56.3941028 113.8687100  87.6466058  56.6810593 114.4689171
  88.2410549  56.4406329 113.7582479  87.7192642  55.9617723 115.0962707
  69.8663214  70.5244204 114.7832336  69.7317682  69.7644605 114.2170334
  69.4495276  71.2485103 114.3161125  81.0022177  65.7081127 103.7908911
  81.7058027  65.9131130 104.4066567  80.2784825  66.2757889 104.0557995
  81.8319987  61.4590988 109.9111181  81.7755188  61.9159540 109.0718814
  82.3848329  60.6981673 109.7334024  85.6424793  57.2480720 110.7361301
  85.3861727  56.8477356 111.5669509  85.0177661  57.9624514 110.6111440
  89.9537131  59.9876794 113.2432592  89.3936689  60.0569983 114.0164154
  89.3480634  59.8117778 112.5232089  73.0232340  71.4213521 114.9950779
  72.9064724  72.3658953 114.8929469  72.2024786  71.1187082 115.3836578
  82.9108874  66.1463656 105.8407371  83.7454478  65.7144855 105.6584846
  82.7493217  65.9745670 106.7684266  82.5654766  62.6495770 107.2063711
  82.5103570  62.4840041 106.2652155  81.9400822  63.3571803 107.3625900
  67.3547281  57.8863834 121.0325133  68.0006145  57.3762788 121.5212358
  67.1464432  58.6232516 121.6068558  75.8750892  52.1503879 106.7849029
  75.8629562  53.0945719 106.9417300  76.7674314  51.9674024 106.4908490
  74.0486854  72.0741783 118.2106707  74.9514100  72.1065393 118.5273202
  73.8224224  71.1442233 118.2253043  75.8040456  70.8272769 114.8716786
  74.8536087  70.8274631 114.7581158  76.1072942  70.0805504 114.3552820
  79.6903011  48.7446655 111.0394966  78.9235407  48.1905142 111.1851648
  80.1013716  48.8168524 111.9009117  71.6944772  55.0331451 125.1300147
  72.5576234  54.6768256 125.3403472  71.1210183  54.6945346 125.8175551
  88.3482855  76.6160736 115.8724073  88.0101367  76.5001800 114.9844608
  89.2172624  76.2151901 115.8525079  84.2069671  78.4696212 111.8620964
  83.6434536  78.3786149 111.0937251  84.0922066  77.6496116 112.3423456
  81.7534103  79.9647404 114.7005184  82.5455395  79.6238228 114.2851483
  81.9930753  80.0742379 115.6207337  89.7869230  82.1367180 107.1735429
  89.1357210  82.7221260 106.7869442  90.5813593  82.6673375 107.2330466
  83.7124857  79.2256317 107.5722563  84.4855733  78.6785304 107.4335439
  84.0650256  80.0900566 107.7837024  86.0491135  75.3848983 105.2041013
  86.3016655  74.8630504 104.4424476  85.1115694  75.2215128 105.3067696
  91.0934418  74.3884761 113.0115756  91.8797507  73.9704184 112.6606173
  91.3573122  75.2930854 113.1797404  91.2644495  79.8257612 107.7104413
  90.6290328  79.8992238 108.4225318  90.9341901  80.4151210 107.0323492
  96.4942845  74.3259995 113.9148735  97.2268017  73.7559211 114.1486564
  95.7382200  73.9381595 114.3555240  85.7687424  77.2877089 107.4065388
  85.6523682  76.6121992 108.0746472  85.8789683  76.8009463 106.5897541
  88.1118964  76.7487236 111.1112077  87.7477172  76.2217857 111.8224999
  88.9686080  76.3585705 110.9378562  94.0168265  68.0381569 118.3743343
  93.6851590  68.9076980 118.1504558  93.4213878  67.7217853 119.0537374
  87.7524451  71.7777136 106.1073426  87.9198854  72.6457372 106.4743897
  87.5621621  71.9404417 105.1834715  83.9612266  76.6907911 113.8075960
  83.0362763  76.5584126 114.0153652  84.2096679  77.4702131 114.3045903
  87.7313672  74.2334793 107.0920092  87.6113298  74.6791844 107.9305573
  87.0366261  74.5820111 106.5333631  81.3221077  76.3341185 114.6419749
  81.4513458  76.5875664 115.5559161  80.6418528  76.9268893 114.3224404
  85.4920564  87.0038435 110.7410224  85.4144594  87.9546260 110.8198704
  84.8882208  86.6584307 111.3985150  93.4298738  74.7056266 107.9200426
  94.3416595  74.9383653 107.7448124  92.9208386  75.2893311 107.3575505
  90.7734713  70.8814302 116.1690287  89.9119192  71.1795556 116.4607025
  90.7997148  71.0984701 115.2371320  87.5896283  79.4256493 112.5764093
  88.0534628  79.7044196 111.7868715  87.3253081  78.5239938 112.3937184
  84.4820364  78.9727974 115.5143856  85.0521721  79.4015243 114.8761341
  85.0728476  78.6910559 116.2128042  86.5265169  75.5479645 109.3853658
  87.2289212  76.0000689 109.8527585  86.1945797  74.9063464 110.0133551
  80.2690503  73.8063198 114.6870792  79.4789557  74.0620727 114.2110902
  80.7601750  74.6211536 114.7922832  82.2205248  74.1707777 111.6454268
  81.4236411  74.2826471 112.1637764  81.9930840  74.5094429 110.7795159
  78.5528206  74.0593688 117.1185782  78.8036244  74.9440698 117.3843358
  79.0887754  73.8798290 116.3460874  87.7658933  82.3620588 109.4615763
  87.6304608  83.2072124 109.8900611  88.3068746  82.5639866 108.6981697
  81.2188331  79.8796026 110.0343688  81.7312851  80.6739276 110.1849253
  81.8711044  79.1822316 109.9677290  83.0283215  82.9961782 112.1166442
  83.2049844  83.9179747 111.9287426  83.8240049  82.6820201 112.5460821
  91.1151397  65.8851150 117.9914657  90.7715666  66.7752791 117.9153767
  91.4830360  65.6952807 117.1284242  79.1837248  78.2084680 110.8103259
  80.0212470  78.6181689 110.5936967  79.3615515  77.2684122 110.7803453
  91.0801680  75.8759761 106.4987092  90.5648303  76.6464366 106.7375479
  90.8078988  75.2024897 107.1220153  88.6648791  70.7209462 111.5572330
  87.8090387  70.3316312 111.3777969  89.0775742  70.8001423 110.6972116
  90.1947937  68.2555805 115.9563890  89.6912733  68.2185940 115.1431695
  90.4878544  69.1648548 116.0160547  86.4390823  68.3394535 114.9630072
  87.3043820  68.1437343 114.6035961  86.5068332  68.1104886 115.8899429
  96.0535954  78.6292116 108.4340265  95.2765397  78.2903275 107.9895427
  96.7327435  78.6344739 107.7595230  90.8687983  73.7486853 108.3246873
  90.5638118  74.0633002 109.1757016  91.8218425  73.8268273 108.3674206
  89.3134415  79.9077076 109.9739827  88.7855776  79.1729836 109.6613065
  88.8121917  80.6851753 109.7279795  84.0453142  70.5696743 112.3346439
  84.6196894  70.3471924 111.6019632  84.6324125  70.6385437 113.0875040
  93.1032719  76.4570470 113.1410815  93.6164601  77.0900461 113.6432525
  93.7533943  75.8571665 112.7754175  84.3722729  72.6001204 106.3542324
  83.5360042  72.9375890 106.6751599  84.2327499  72.4650183 105.4169461
  86.3475810  67.4437992 111.0621508  85.6940222  67.1287009 110.4378123
  86.3056284  66.8213732 111.7881331  87.4587015  77.7257287 102.9774800
  86.5514077  77.4946540 103.1765949  87.9558047  76.9294906 103.1648782
  90.3655094  86.4354794 105.8971486  89.6916792  86.7386491 106.5056444
  90.7520916  87.2383874 105.5476943  89.5813550  73.9319925 115.3869156
  88.6636112  74.1534872 115.2290844  89.9973694  74.0066236 114.5280863
  90.3648598  75.3311341 110.5171836  91.1120417  75.8432738 110.2078958
  90.6340188  75.0095393 111.3776229  88.6375248  77.8269881 107.4998790
  87.7286468  77.5428914 107.5971260  88.6670332  78.2468960 106.6402097
  92.8127435  72.3668457 112.4990625  92.0750192  71.8545843 112.8300868
  93.0654209  71.9268839 111.6873902  92.9139063  65.1444709 113.0932395
  93.2197939  64.2842072 112.8058310  93.6391667  65.7362329 112.8931388
  79.2063419  75.5475396 111.4813992  79.0087818  74.9544756 110.7565059
  78.6510083  75.2427606 112.1989931  87.1860142  75.4398502 113.6008586
  87.2408752  74.4872338 113.5251062  86.3751344  75.5957941 114.0849884
  88.3351336  79.3678625 104.8386869  87.8970766  78.6514484 104.3792506
  89.0761777  79.5954740 104.2771960  85.1252502  74.0575562 111.3598964
  84.3120368  74.3569732 111.7664157  85.6211496  73.6631251 112.0773447
  96.4524451  77.6435822 110.8963187  96.3142349  77.8337418 109.9684377
  96.0960670  78.4055205 111.3531238  84.6166577  71.6293917 116.9760199
  85.2565956  71.4882676 116.2783163  83.7844108  71.3428431 116.5998801
  85.3926881  80.9296348 113.0895192  86.1867479  80.4346668 112.8877767
  84.6818573  80.4014211 112.7262897  81.7009644  75.0739429 109.1654945
  80.7707232  75.0123885 109.3824907  81.7967116  74.5515382 108.3691586
  81.6195193  71.5994242 111.7533186  81.8802011  72.5139576 111.6442347
  82.4412366  71.1318685 111.9029799  83.0920119  73.0131999 118.9232011
  83.7643172  72.8049362 118.2744660  82.2649905  72.8154085 118.4837243
  88.5646309  86.6034466 108.1118565  88.7398065  86.1322509 108.9264188
  87.8779097  87.2300232 108.3399826  92.4562564  78.2263007 104.4318926
  91.8391734  77.5009835 104.3351979  91.9879052  78.9872367 104.0886001
  84.2461110  72.4448431 103.5540231  83.3690576  72.3237232 103.1902477
  84.7218863  71.6534509 103.3019119  75.7663250  77.2325591 113.6481738
  76.4534290  76.9187321 113.0602753  75.6111378  78.1366955 113.3748989
  80.5697972  72.1215787 118.0766762  80.4856161  71.5141457 117.3417171
  79.7480678  72.6124806 118.0776258  87.4325036  84.7974721 110.8002751
  86.6492558  85.3396402 110.8940976  88.1317781  85.3148701 111.1996992
  90.7421686  70.6069351 113.4436957  91.2390385  69.8539313 113.1238027
  89.9708667  70.6433668 112.8780166  91.8251466  79.3641038 111.0175380
  90.8907745  79.4842501 110.8480084  92.0028135  78.4613505 110.7535390
  87.3256655  72.7486734 113.1708641  86.9554442  72.1957774 113.8589547
  87.8215747  72.1444867 112.6183641  95.2124018  75.2058357 111.5525414
  95.6784470  76.0386349 111.4785717  95.6631518  74.7403339 112.2570673
  93.2800249  81.5502179 108.5511566  93.5560093  81.4358773 109.4605440
  92.4104748  81.1519664 108.5123739  93.1840681  67.5738944 115.5916315
  92.2703760  67.8043171 115.7598522  93.6133782  67.6577388 116.4430348
  90.2496478  84.7256715 109.4559428  90.7784245  84.2149169 108.8429590
  90.5124698  84.4099245 110.3204961  75.3431226  75.3126184 115.9199205
  75.3815325  74.7789775 116.7136323  74.8371519  74.7861390 115.3010182
  82.7221988  70.1590725 119.4161747  82.7863315  71.0205556 119.0039145
  82.6589108  69.5464726 118.6834106  78.9739803  74.0390286 108.9953136
  79.2693245  73.1300965 108.9420190  78.0727839  74.0178026 108.6734139
  82.5034050  72.1146283 114.9780685  81.7820636  72.7282251 114.8388158
  83.2927306  72.6504048 114.8997331  80.7027645  71.7204384 109.1192461
  80.3740351  70.8401763 108.9367567  81.0567016  71.6652053 110.0068851
  83.8169468  72.0077354 109.4867939  84.1565541  72.5363275 108.7646548
  84.2641589  72.3457760 110.2626506  86.5112909  70.3914405 118.9371007
  86.1709729  69.5922218 119.3391687  85.8051915  70.6916115 118.3647840
  87.1629381  67.4763717 117.3898330  87.9855450  67.0024195 117.2677221
  87.4067444  68.2554201 117.8897017  85.8037615  70.5051975 107.6861232
  86.5245978  70.8833228 107.1824949  85.1802919  71.2240852 107.7896210
  89.9468738  71.2097124 108.6219564  90.1632353  72.0921762 108.3208392
  89.4662805  70.8183338 107.8925206  84.6867960  74.1682838 115.1990309
  84.5412540  74.4823141 116.0914590  84.2093163  74.7867738 114.6461207
  86.5464342  71.1585386 115.2471198  86.5325911  70.2626479 114.9103496
  87.2636771  71.1656049 115.8809484  88.3990473  71.5922726 117.2924326
  88.1408251  72.5139796 117.2908656  87.8675514  71.1953160 117.9824790
  79.1613622  76.7088182 118.1377970  78.6167090  77.4847990 118.2698244
  80.0392972  77.0558986 117.9797091  85.9501238  70.0399766 110.5158769
  86.0717150  69.1116412 110.7149656  85.6603281  70.0538452 109.6037084
  88.8192429  67.7254676 113.6525488  88.8414126  67.7894009 112.6977468
  89.2360488  66.8859185 113.8465995  94.3311834  84.0140277 107.1711309
  95.0262739  84.6346970 107.3898624  94.6734985  83.1635629 107.4463687
  96.2303258  81.4639983 108.6998640  96.7554582  81.8027256 107.9747960
  96.1425610  80.5286998 108.5161775  80.3936257  83.7223507 113.0618522
  81.2194277  83.4227279 112.6817165  80.0430309  82.9531129 113.5108310
  78.5944862  81.6409833 114.0207455  77.7576771  81.2132008 113.8391456
  78.5668508  81.8342277 114.9578246  84.9231297  81.6253899 108.6074656
  85.0719418  82.3089363 107.9541328  85.7297741  81.6058989 109.1224111
  82.6783930  77.6519076 109.6135725  82.4329972  76.7481406 109.8115935
  82.8479845  77.6536227 108.6715203  90.3680640  68.5242753 118.9960480
  90.8862584  69.2603779 118.6706969  90.0135773  68.8306746 119.8307239
  81.9479578  73.3847434 107.1121886  81.2548823  73.4591789 106.4561922
  81.7031330  72.6207777 107.6343403  90.6193234  64.9443035 114.5161377
  90.8994988  64.2766224 115.1421803  91.4043841  65.1372131 114.0036041
  88.4226703  84.1202029 106.0786403  87.8500670  84.7392216 105.6256875
  88.9959497  84.6701391 106.6126325  91.6423963  84.4039179 107.2094985
  92.5754636  84.3384741 107.4127861  91.5547176  85.2395446 106.7509518
  94.2711979  83.7205049 104.1698933  94.1925611  83.3864913 105.0634691
  95.0921646  84.2126817 104.1690405  88.8073501  75.4562842 103.4202456
  89.7532606  75.3269050 103.4890874  88.4287746  74.7177504 103.8971884
  94.7795386  67.1218848 113.3829347  94.5820207  66.8133936 114.2672679
  95.3895092  67.8480487 113.5127277  86.9916419  73.3812818 103.3557341
  86.0847874  73.0845931 103.4320054  87.2692400  73.0842636 102.4891627
  77.9094359  74.7019182 113.8056387  77.5897143  73.8484490 113.5130761
  77.3627787  74.9167760 114.5614355  81.6874266  77.4181623 117.5225894
  81.9060276  78.3498730 117.5413928  82.1000040  77.0589597 118.3080698
  88.6078484  67.9249708 109.5101582  87.7979213  67.5796793 109.8856828
  89.2962901  67.6157252 110.0989194  90.5369033  67.0027755 111.1325879
  91.0900071  67.4223208 111.7915902  90.7739119  66.0763503 111.1748835
  85.7615203  70.2399753 103.4969320  86.6234367  70.5654652 103.7565137
  85.9465547  69.4531249 102.9842386  77.7782619  78.3222093 115.7749509
  77.0846090  77.9076046 115.2619463  78.5255610  78.3642630 115.1782928
  93.9147840  69.1128280 110.6404543  93.3346509  69.7713084 110.2582595
  93.6483772  68.2905624 110.2291960  92.3651406  68.5133338 112.8425863
  92.8651184  68.6249872 112.0340182  93.0087014  68.2094390 113.4826672
  79.6919361  78.2540347 113.6515524  79.6690050  78.3528034 112.6997407
  80.0019998  79.1005498 113.9732690  92.6972718  71.2728370 109.6960891
  91.8098573  71.5578021 109.4781086  93.1126707  71.1122134 108.8488168
  96.0487254  71.2974891 113.4115231  96.8247644  71.7871344 113.6839847
  95.3235388  71.7232945 113.8687100  98.4859812  72.0102510 114.4689171
  99.0804303  71.7698246 113.7582479  98.5586396  71.2909641 115.0962707
  91.8415931  81.0373045 103.7908911  92.5451781  81.2423047 104.4066567
  91.1178580  81.6049807 104.0557995  92.6713741  76.7882906 109.9111181
  92.6148943  77.2451458 109.0718814  93.2242084  76.0273591 109.7334024
  96.4818547  72.5772638 110.7361301  96.2255482  72.1769274 111.5669509
  95.8571415  73.2916432 110.6111440  93.7502629  81.4755574 105.8407371
  94.5848232  81.0436773 105.6584846  93.5886971  81.3037588 106.7684266
  93.4048521  77.9787687 107.2063711  93.3497325  77.8131959 106.2652155
  92.7794576  78.6863720 107.3625900  78.1941036  73.2155752 121.0325133
  78.8399899  72.7054706 121.5212358  77.9858187  73.9524433 121.6068558
  86.7144646  67.4795796 106.7849029  86.7023316  68.4237636 106.9417300
  87.6068068  67.2965942 106.4908490  90.5296766  64.0738573 111.0394966
  89.7629161  63.5197060 111.1851648  90.9407471  64.1460442 111.9009117
  95.2116484  87.9293121 106.3542324  94.3753796  88.2667808 106.6751599
  95.0721254  87.7942101 105.4169461  95.0854864  87.7740349 103.5540231
  94.2084330  87.6529150 103.1902477  95.5612617  86.9826427 103.3019119
  92.7873332  88.7139351 107.1121886  92.0942577  88.7883706 106.4561922
  92.5425084  87.9499695 107.6343403  97.8310173  88.7104736 103.3557341
  96.9241628  88.4137848 103.4320054  98.1086154  88.4134554 102.4891627
  96.6008958  85.5691671 103.4969320  97.4628122  85.8946569 103.7565137
  96.7859302  84.7823167 102.9842386  97.5538401  82.8087714 106.7849029
  97.5417070  83.7529554 106.9417300  98.4461823  82.6257859 106.4908490
  47.0080077   2.1249246  92.6216793  46.3341776   2.4280942  93.2301751
  47.3945899   2.9278326  92.2722250  49.0987547  -6.0842541  91.1564233
  48.4816718  -6.8095713  91.0597286  48.6304035  -5.3233181  90.8131307
  50.9736818  -0.2965271  93.8956616  51.6687722   0.3241422  94.1143931
  51.3159968  -1.1469920  94.1708994  45.0651686  -0.1903519  92.8031710
  44.4925653   0.4286668  92.3502182  45.6384480   0.3595843  93.3371632
  48.2848946   0.0933631  93.9340292  49.2179619   0.0279193  94.1373168
  48.1972159   0.9289898  93.4754825  50.9136963  -0.5900499  90.8944240
  50.8350594  -0.9240635  91.7879997  51.7346629  -0.0978731  90.8935712
  48.4840914  -3.2732503  90.5154218  49.1876765  -3.0682501  91.1311873
  47.7603563  -2.7055741  90.7803301  50.3927612  -2.8349974  92.5652678
  51.2273216  -3.2668776  92.3830153  50.2311955  -3.0067960  93.4929572
  59.0211887   7.6819677 102.6607855  59.6590297   7.5626424 101.9571195
  58.9032730   8.6300521 102.7195807  55.8301593   7.6347105 102.5969379
  55.4920105   7.5188170 101.7089914  56.6991361   7.2338270 102.5770386
  51.6888409   9.4882582  98.5866270  51.1253274   9.3972519  97.8182558
  51.5740804   8.6682486  99.0668763  57.2687968  13.1553549  93.8980735
  56.6175947  13.7407630  93.5114749  58.0632330  13.6859744  93.9575773
  51.1943595  10.2442686  94.2967870  51.9674471   9.6971674  94.1580745
  51.5468994  11.1086936  94.5082331  53.5309873   6.4035353  91.9286319
  53.7835393   5.8816874  91.1669782  52.5934432   6.2401498  92.0313003
  58.5753155   5.4071131  99.7361063  59.3616245   4.9890554  99.3851480
  58.8391860   6.3117223  99.9042711  58.7463233  10.8443981  94.4349720
  58.1109066  10.9178608  95.1470624  58.4160639  11.4337580  93.7568799
  63.9761583   5.3446364 100.6394041  64.7086754   4.7745581 100.8731871
  63.2200938   4.9567965 101.0800547  53.2506161   8.3063458  94.1310694
  53.1342419   7.6308362  94.7991779  53.3608421   7.8195832  93.3142847
  55.5937702   7.7673606  97.8357384  55.2295909   7.2404227  98.5470305
  56.4504818   7.3772075  97.6623869  55.2343189   2.7963505  92.8318732
  55.4017592   3.6643742  93.1989203  55.0440358   2.9590787  91.9080021
  57.9918522  11.2580484 104.4984563  57.6919246  12.1605523 104.3900370
  57.6469582  10.9912667 105.3505715  61.3915666   3.7763024 102.1782000
  60.4832544   3.7078433 101.8840761  61.3403262   4.2534969 103.0063825
  55.2132410   5.2521163  93.8165399  55.0932035   5.6978214  94.6550879
  54.5184998   5.6006480  93.2578937  52.9739302  18.0224805  97.4655530
  52.8963332  18.9732630  97.5444011  52.3700946  17.6770677  98.1230457
  60.9117476   5.7242636  94.6445733  61.8235332   5.9570023  94.4693431
  60.4027123   6.3079680  94.0820812  59.5187059  10.7068454 102.0359315
  58.8895921  10.8714169 101.3335382  59.1312721  11.1210064 102.8070279
  63.3976290  11.6422892  99.3903678  62.7127329  12.0221794  98.8400712
  63.4820140  12.2518219 100.1235626  55.0715020  10.4442863  99.3009400
  55.5353366  10.7230565  98.5114022  54.8071819   9.5426307  99.1182490
  54.0083907   6.5666015  96.1098965  54.7107950   7.0187059  96.5772891
  53.6764535   5.9249834  96.7378858  61.7673050  12.1654807 104.1621379
  62.5890494  11.7634994 103.8804061  61.7635453  12.0623041 105.1137495
  69.8579043   8.5093555 100.5106351  69.1042751   7.9400953 100.3550355
  69.9926584   8.4756220 101.4576985  55.2477671  13.3806958  96.1861070
  55.1123346  14.2258493  96.6145918  55.7887484  13.5826235  95.4227004
  48.7007069  10.8982396  96.7588995  49.2131589  11.6925646  96.9094560
  49.3529781  10.2008686  96.6922597  50.5101953  14.0148152  98.8411748
  50.6868582  14.9366117  98.6532732  51.3058787  13.7006571  99.2706128
  51.6333269  15.5326326 104.8422091  52.1840694  15.4043389 104.0699085
  50.7944745  15.8321215 104.4916983  46.6655985   9.2271050  97.5348566
  47.5031207   9.6368058  97.3182273  46.8434253   8.2870492  97.5048759
  58.5620417   6.8946130  93.2232399  58.0467041   7.6650735  93.4620786
  58.2897726   6.2211267  93.8465460  56.1467528   1.7395831  98.2817637
  55.2909125   1.3502682  98.1023276  56.5594480   1.8187792  97.4217422
  63.5354692   9.6478485  95.1585572  62.7584134   9.3089645  94.7140734
  64.2146173   9.6531108  94.4840537  58.3506721   4.7673223  95.0492180
  58.0456856   5.0819372  95.9002323  59.3037163   4.8454642  95.0919513
  56.7953152  10.9263446  96.6985134  56.2674514  10.1916205  96.3858371
  56.2940655  11.7038122  96.4525102  61.7745998   9.1212466 101.8152180
  61.1169673   9.8111728 101.9032309  62.5786398   9.5108898 102.1586166
  60.5851457   7.4756839  99.8656122  61.0983339   8.1086831 100.3677832
  61.2352681   6.8758035  99.4999482  51.8541467   3.6187573  93.0787631
  51.0178779   3.9562260  93.3996905  51.7146237   3.4836553  92.1414767
  54.9405753   8.7443656  89.7020107  54.0332814   8.5132910  89.9011256
  55.4376785   7.9481275  89.8894088  57.8473832  17.4541163  92.6216793
  57.1735530  17.7572860  93.2301751  58.2339653  18.2570244  92.2722250
  57.8467336   6.3497710  97.2417143  58.5939155   6.8619108  96.9324265
  58.1158925   6.0281763  98.1021536  56.1193986   8.8456251  94.2244097
  55.2105205   8.5615284  94.3216567  56.1489070   9.2655330  93.3647404
  61.3513253  12.4562841  97.9935264  60.8975581  11.6153750  98.0500455
  60.7207220  13.0924239  98.3310045  60.2946173   3.3854827  99.2235932
  59.5568930   2.8732213  99.5546174  60.5472947   2.9455208  98.4119209
  59.7946193  14.2939337  98.9285083  60.0869167  14.8544394  98.2097448
  60.3044813  14.5867898  99.6838242  54.6678880   6.4584872 100.3253892
  54.7227490   5.5058708 100.2496369  53.8570082   6.6144311 100.8095191
  55.8170074  10.3864995  91.5632175  55.3789504   9.6700854  91.1037813
  56.5580515  10.6141110  91.0017267  52.6071240   5.0761931  98.0844271
  51.7939106   5.3756102  98.4909463  53.1030234   4.6817620  98.8018753
  54.7579818  15.0719688 100.0178536  54.7155997  15.2980535  99.0887068
  55.6742517  14.8383063 100.1664337  63.9343189   8.6622192  97.6208494
  63.7961087   8.8523788  96.6929683  63.5779407   9.4241575  98.0776545
  63.9612568  10.7298719 102.6319766  64.3949075  10.6374008 103.4802820
  64.6744149  10.7056219 101.9939782  52.8745619  11.9482717  99.8140498
  53.6686217  11.4533037  99.6123073  52.1637311  11.4200580  99.4508204
  57.6940463  14.3300813 104.1652866  57.7477485  14.8991749 104.9330582
  56.8255245  14.5002698 103.8006903  49.1828382   6.0925799  95.8900251
  48.2525970   6.0310255  96.1070213  49.2785854   5.5701752  95.0936892
  64.8228118  10.7722419 105.1652651  65.0164008  11.6768230 105.4111926
  64.7228736  10.3129838 105.9991236  55.4516895  12.5211739 103.4938336
  55.3127980  12.1530524 104.3664274  54.6631491  13.0359379 103.3222293
  56.0465047  17.6220836  94.8363872  56.2216802  17.1508879  95.6509495
  55.3597835  18.2486602  95.0645133  57.0022110  11.8993342 100.8827173
  56.6671942  11.8594112 101.7784823  56.5026056  11.2338058 100.4097584
  59.9381301   9.2449376  91.1564233  59.3210472   8.5196205  91.0597286
  59.4697790  10.0058737  90.8131307  50.6126132  20.7710199 101.6103732
  50.8522730  21.4028723 102.2882751  49.7695328  20.4198239 101.8969092
  51.7279847   3.4634801  90.2785537  50.8509314   3.3423601  89.9147784
  52.2037600   2.6720879  90.0264426  55.1253994  16.5789321 104.0145236
  55.0524165  17.3844292 104.5264541  54.6831387  16.7781287 103.1893258
  54.9143773  15.8161091  97.5248058  54.1311295  16.3582771  97.6186282
  55.6136519  16.3335071  97.9242299  58.2240424   1.6255720 100.1682263
  58.7209123   0.8725683  99.8483333  57.4527405   1.6620037  99.6025473
  66.0770181   7.3296086 101.8100555  66.0660057   8.2120801 101.4394488
  65.2087560   6.9767637 101.6155092  57.5852677  16.4776155 106.1703395
  58.2980650  17.1123620 106.0979296  57.0942706  16.5740021 105.3543397
  59.3070204  10.3827408  97.7420687  58.3726483  10.5028870  97.5725391
  59.4846873   9.4799874  97.4780696  62.6942756   6.2244727  98.2770721
  63.1603208   7.0572719  98.2031023  63.1450256   5.7589709  98.9815979
  60.7618987  12.5688548  95.2756873  61.0378831  12.4545143  96.1850747
  59.8923485  12.1706033  95.2369046  57.3973051  16.8174899  98.9189686
  57.5795445  15.9996555  99.3817439  58.2206037  17.0342591  98.4814576
  57.7315216  15.7443084  96.1804735  58.2602983  15.2335539  95.5674897
  57.9943436  15.4285614  97.0450268  51.0870964  16.7958201  98.9402511
  50.4181339  17.2804329  98.4566551  50.9483834  17.0427421  99.8545889
  55.2276233  18.8301944 105.5385169  55.7794541  18.9933566 106.3034254
  55.5682426  19.4206382 104.8665194  46.4558541   5.0576656  95.7198443
  46.7511982   4.1487334  95.6665497  45.5546577   5.0364395  95.3979445
  58.3644620  16.7783920 102.5248851  58.2395759  15.9773660 102.0159797
  59.0223711  17.2730113 102.0362821  60.4279528  14.5792940 104.1528401
  59.4809864  14.4598291 104.0806728  60.7762301  13.6915438 104.2354663
  48.1846383   2.7390754  95.8437768  47.8559089   1.8588132  95.6612874
  48.5385754   2.6838422  96.7314157  57.4325962  14.3745656 100.3532754
  57.2850924  13.4462364 100.5340324  58.2579455  14.3965747  99.8689829
  51.2988206   3.0263723  96.2113246  51.6384278   3.5549645  95.4891854
  51.7460326   3.3644129  96.9871812  61.0360084  15.1974215 101.4397626
  61.9606631  14.9917076 101.3022078  60.8675387  14.9490616 102.3486968
  53.2856353   1.5238345  94.4106539  54.0064716   1.9019598  93.9070255
  52.6621657   2.2427222  94.5141517  57.4287476   2.2283494  95.3464871
  57.6451090   3.1108132  95.0453699  56.9481543   1.8369707  94.6170513
  60.8255400  15.7159882  96.7959718  60.9992277  15.1506305  96.0433570
  61.3184291  16.5160777  96.6139208  53.4319976   1.0586135  97.2404075
  53.5535887   0.1302782  97.4394963  53.1422019   1.0724821  96.3282391
  66.6794791   8.4796305  98.4150018  67.1225937   7.7303631  98.0169141
  65.8021301   8.4706442  98.0323750  61.8130572  15.0326647  93.8956616
  62.5081477  15.6533340  94.1143931  62.1553722  14.1821998  94.1708994
  63.7121995  12.4826352  95.4243947  64.2373319  12.8213625  94.6993267
  63.6244348  11.5473368  95.2407082  55.3962656  18.5498336  99.7839200
  54.9567646  18.0574714 100.4772057  56.1470773  18.0071303  99.5431275
  47.8754995  14.7409877  99.7863828  48.7013015  14.4413648  99.4062472
  47.5249047  13.9717499 100.2353617  52.8436528  14.0936345 101.8561502
  52.2216538  13.4307050 101.5563730  53.5141395  14.1197477 101.1735150
  46.0763600  12.6596203 100.7452762  45.2395508  12.2318377 100.5636763
  46.0487246  12.8528646 101.6823553  52.4050035  12.6440268  95.3319962
  52.5538156  13.3275732  94.6786635  53.2116479  12.6245358  95.8469418
  65.0231973  12.3848664 108.2869895  64.7316782  12.7478644 109.1233356
  64.4104105  11.6715672 108.1083227  66.2227656   9.9501544 100.8072465
  67.0574547  10.3891348 100.9710026  66.3586784   9.4740197  99.9880711
  50.1602668   8.6705446  96.3381031  49.9148710   7.7667776  96.5361241
  50.3298583   8.6722596  95.3960509  49.4298316   4.4033803  93.8367193
  48.7367561   4.4778158  93.1807229  49.1850068   3.6394147  94.3588710
  55.9045441  15.1388399  92.8031710  55.3319408  15.7578586  92.3502182
  56.4778234  15.6887760  93.3371632  59.1242700  15.4225549  93.9340292
  60.0573374  15.3571110  94.1373168  59.0365913  16.2581816  93.4754825
  61.7530717  14.7391419  90.8944240  61.6744349  14.4051283  91.7879997
  62.5740384  15.2313187  90.8935712  64.4508908   7.6053158 104.1020558
  64.4185228   6.6669159 104.2880242  65.0609532   7.6837195 103.3686383
  56.2892239   6.4749211  90.1447762  57.2351344   6.3455419  90.2136180
  55.9106484   5.7363873  90.6217190  70.2685458   8.6669165 103.2426595
  70.9988847   8.4054453 103.8034298  69.6592404   7.9297887 103.2828663
  68.3500755   6.8077028 103.8401046  67.6233919   6.6732993 103.2317538
  67.9348042   7.1153856 104.6457764  54.4735156   4.3999188  90.0802647
  53.5666612   4.1032300  90.1565361  54.7511137   4.1029006  89.2136934
  56.0897222  -1.0563923  96.2346889  55.2797950  -1.4016838  96.6102135
  56.7781639  -1.3656379  96.8234500  53.2433941   1.2586123  90.2214627
  54.1053105   1.5841021  90.4810444  53.4284285   0.4717619  89.7087692
  61.3966577   0.1314649  97.3649850  60.8165246   0.7899453  96.9827902
  61.1302510  -0.6908006  96.9537267  60.1791455   2.2914740  96.4206198
  59.2917310   2.5764390  96.2026393  60.5945445   2.1308503  95.5733475
  63.5305992   2.3161261 100.1360537  64.3066382   2.8057713 100.4085154
  62.8054126   2.7419315 100.5932407  65.9678550   3.0288880 101.1934478
  66.5623041   2.7884616 100.4827786  66.0405134   2.3096011 101.8208014
  48.1875706  16.8722491 101.5077643  48.0530174  16.1122892 100.9415641
  47.7707768  17.5963391 101.0406431  59.3234669  12.0559414  90.5154218
  60.0270519  12.2609417  91.1311873  58.5997318  12.6236176  90.7803301
  60.1532479   7.8069276  96.6356488  60.0967681   8.2637827  95.7964120
  60.7060822   7.0459960  96.4579331  63.9637285   3.5959008  97.4606608
  63.7074219   3.1955643  98.2914815  63.3390153   4.3102801  97.3356747
  68.2749623   6.3355081  99.9677899  67.7149181   6.4048270 100.7409461
  67.6693126   6.1596065  99.2477395  51.3444832  17.7691808 101.7196085
  51.2277216  18.7137240 101.6174775  50.5237278  17.4665369 102.1081884
  61.2321366  12.4941944  92.5652678  62.0666970  12.0623142  92.3830153
  61.0705709  12.3223957  93.4929572  60.8867259   8.9974057  93.9309017
  60.8316062   8.8318328  92.9897461  60.2613314   9.7050090  94.0871207
  54.1963384  -1.5017834  93.5094336  54.1842054  -0.5575994  93.6662606
  55.0886806  -1.6847689  93.2153797  52.3699346  18.4220070 104.9352014
  53.2726593  18.4543680 105.2518509  52.1436716  17.4920521 104.9498349
  54.1252948  17.1751056 101.5962092  53.1748579  17.1752918 101.4826465
  54.4285434  16.4283791 101.0798127  69.8605641  23.0111595 102.6607855
  70.4984051  22.8918342 101.9571195  69.7426484  23.9592439 102.7195807
  66.6695348  22.9639023 102.5969379  66.3313859  22.8480088 101.7089914
  67.5385116  22.5630188 102.5770386  62.5282163  24.8174499  98.5866270
  61.9647029  24.7264436  97.8182558  62.4134558  23.9974404  99.0668763
  67.1515131  24.1173875 108.5555585  67.1403771  23.7226673 107.6836089
  67.3135770  23.3839947 109.1489356  60.0746595  26.3125691 101.4250491
  60.8667887  25.9716515 101.0096790  60.3143245  26.4220666 102.3452644
  68.1081722  28.4845467  93.8980735  67.4569702  29.0699547  93.5114749
  68.9026085  29.0151662  93.9575773  62.0337349  25.5734604  94.2967870
  62.8068225  25.0263591  94.1580745  62.3862748  26.4378853  94.5082331
  63.8722392  26.9010986 107.5034769  63.5812258  27.8056617 107.3881435
  64.5079376  26.9427514 108.2178838  64.7978599  24.2787835 104.0936129
  65.3942171  24.0543857 103.3793091  64.8553570  23.5372580 104.6961576
  64.3703627  21.7327270  91.9286319  64.6229148  21.2108791  91.1669782
  63.4328186  21.5693416  92.0313003  69.4146910  20.7363049  99.7361063
  70.2009999  20.3182472  99.3851480  69.6785614  21.6409141  99.9042711
  69.5856987  26.1735899  94.4349720  68.9502820  26.2470525  95.1470624
  69.2554394  26.7629498  93.7568799  74.8155337  20.6738282 100.6394041
  75.5480509  20.1037499 100.8731871  74.0594693  20.2859882 101.0800547
  64.0899916  23.6355376  94.1310694  63.9736174  22.9600280  94.7991779
  64.2002176  23.1487750  93.3142847  66.4331457  23.0965523  97.8357384
  66.0689664  22.5696144  98.5470305  67.2898573  22.7063992  97.6623869
  72.3380757  14.3859856 105.0988650  72.0064082  15.2555267 104.8749865
  71.7426371  14.0696140 105.7782680  66.0736944  18.1255423  92.8318732
  66.2411346  18.9935659  93.1989203  65.8834113  18.2882705  91.9080021
  68.8312277  26.5872402 104.4984563  68.5313000  27.4897441 104.3900370
  68.4863336  26.3204585 105.3505715  62.2824758  23.0386199 100.5321267
  61.3575255  22.9062413 100.7398959  62.5309172  23.8180418 101.0291209
  72.2309421  19.1054942 102.1782000  71.3226298  19.0370350 101.8840761
  72.1797016  19.5826887 103.0063825  66.0526165  20.5813080  93.8165399
  65.9325790  21.0270131  94.6550879  65.3578753  20.9298398  93.2578937
  59.6433569  22.6819472 101.3665056  59.7725951  22.9353951 102.2804468
  58.9631021  23.2747180 101.0469711  63.8133057  33.3516722  97.4655530
  63.7357086  34.3024547  97.5444011  63.2094700  33.0062595  98.1230457
  66.3050286  20.5244588 110.1216897  65.5283621  21.0838508 110.1119762
  66.9440850  21.0101371 110.6431767  74.0971067  17.3071380 103.9559874
  73.4545447  17.6003914 103.3099668  73.5925996  17.1924301 104.7613070
  71.7511231  21.0534554  94.6445733  72.6629087  21.2861940  94.4693431
  71.2420878  21.6371598  94.0820812  64.5596659  23.3330041 109.6834864
  65.3011343  23.8715085 109.4069688  63.8533644  23.9596330 109.8406416
  70.0351998  25.4759181 108.2807026  70.4435354  25.0341592 107.5361658
  69.3129260  24.9011809 108.5341219  66.3883068  20.4131788 105.6540583
  67.2344264  20.8371202 105.7975232  66.3281706  19.7565413 106.3479146
  70.3580813  26.0360372 102.0359315  69.7289676  26.2006086 101.3335382
  69.9706475  26.4501982 102.8070279  74.2370045  26.9714810  99.3903678
  73.5521083  27.3513711  98.8400712  74.3213894  27.5810137 100.1235626
  69.5382514  18.0736157 107.3121756  69.2943446  18.8278217 106.7756032
  69.8142444  18.4521504 108.1469003  71.4920977  24.6174769 105.9899022
  71.7037872  25.2606529 105.3133403  71.4450725  23.7837086 105.5220952
  69.0947206  17.2292590 102.8935594  68.2331685  17.5273843 103.1852332
  69.1209640  17.4462989 101.9616627  65.9108775  25.7734780  99.3009400
  66.3747120  26.0522483  98.5114022  65.6465573  24.8718225  99.1182490
  62.8032856  25.3206262 102.2389163  63.3734213  25.7493530 101.6006647
  63.3940968  25.0388846 102.9373349  64.8477661  21.8957933  96.1098965
  65.5501704  22.3478976  96.5772891  64.5158290  21.2541751  96.7378858
  63.2958023  20.4869689 110.4850174  62.6656683  21.1685970 110.7185571
  63.1894110  20.3752771 109.5403312  58.5902995  20.1541485 101.4116098
  57.8002049  20.4099014 100.9356209  59.0814242  20.9689823 101.5168139
  72.6066805  27.4946724 104.1621379  73.4284248  27.0926912 103.8804061
  72.6029207  27.3914959 105.1137495  60.5417740  20.5186064  98.3699575
  59.7448904  20.6304759  98.8883071  60.3143333  20.8572717  97.5040466
  66.3723408  27.0430768 106.3182090  66.4367840  27.5051175 107.1540262
  65.6634332  26.4128133 106.4464400  56.8740698  20.4071976 103.8431089
  57.1248736  21.2918986 104.1088665  57.4100246  20.2276577 103.0706181
  80.6972798  23.8385473 100.5106351  79.9436506  23.2692871 100.3550355
  80.8320339  23.8048137 101.4576985  66.0871426  28.7098875  96.1861070
  65.9517100  29.5550411  96.6145918  66.6281238  28.9118153  95.4227004
  59.5400823  26.2274313  96.7588995  60.0525344  27.0217563  96.9094560
  60.1923536  25.5300604  96.6922597  61.3495708  29.3440069  98.8411748
  61.5262336  30.2658034  98.6532732  62.1452541  29.0298489  99.2706128
  65.4906726  16.2048334 110.4395682  66.2316440  16.8055487 110.3600144
  65.7224649  15.4625972 109.8813724  60.6348064  21.3904701 108.7173911
  60.5201579  20.4889959 109.0181010  59.7792582  21.6368398 108.3658728
  67.7139902  29.3322442 110.3161412  67.2703756  28.5458820 109.9982317
  68.3757116  29.5201592 109.6505303  62.4727023  30.8618243 104.8422091
  63.0234448  30.7335307 104.0699085  61.6338499  31.1613132 104.4916983
  69.8121140  29.6125242 108.3442813  69.7939615  30.4334123 107.8523083
  70.7341060  29.4879317 108.5692955  66.2694194  27.1269371 109.1866322
  66.8022531  26.3657659 108.9565630  65.7408275  26.8343023 109.9290476
  69.4363889  12.2329437 104.7159963  69.0928159  13.1231079 104.6399074
  69.8042852  12.0431095 103.8529548  57.5049740  24.5562968  97.5348566
  58.3424962  24.9659976  97.3182273  57.6828008  23.6162410  97.5048759
  69.4014172  22.2238048  93.2232399  68.8860795  22.9942653  93.4620786
  69.1291480  21.5503184  93.8465460  66.9861283  17.0687749  98.2817637
  66.1302879  16.6794599  98.1023276  67.3988235  17.1479710  97.4217422
  68.5160430  14.6034092 102.6809197  68.0125225  14.5664227 101.8677002
  68.8091036  15.5126835 102.7405853  64.7603315  14.6872822 101.6875378
  65.6256312  14.4915631 101.3281268  64.8280824  14.4583174 102.6144735
  74.3748446  24.9770403  95.1585572  73.5977889  24.6381562  94.7140734
  75.0539927  24.9823026  94.4840537  69.1900475  20.0965140  95.0492180
  68.8850611  20.4111289  95.9002323  70.1430917  20.1746560  95.0919513
  67.6346907  26.2555364  96.6985134  67.1068269  25.5208123  96.3858371
  67.1334410  27.0330040  96.4525102  72.6139753  24.4504384 101.8152180
  71.9563427  25.1403645 101.9032309  73.4180152  24.8400816 102.1586166
  62.3665635  16.9175030  99.0591745  62.9409386  16.6950211  98.3264938
  62.9536617  16.9863724  99.8120347  71.4245212  22.8048757  99.8656122
  71.9377094  23.4378749 100.3677832  72.0746436  22.2049952  99.4999482
  62.6935222  18.9479491  93.0787631  61.8572534  19.2854177  93.3996905
  62.5539991  18.8128471  92.1414767  64.6688302  13.7916279  97.7866815
  64.0152715  13.4765296  97.1623429  64.6268776  13.1692019  98.5126638
  65.7799507  24.0735574  89.7020107  64.8726569  23.8424827  89.9011256
  66.2770539  23.2773193  89.8894088  68.6867586  32.7833081  92.6216793
  68.0129285  33.0864778  93.2301751  69.0733408  33.5862161  92.2722250
  67.9026043  20.2798212 102.1114462  66.9848604  20.5013159 101.9536150
  68.3186186  20.3544523 101.2526170  68.6861090  21.6789628  97.2417143
  69.4332909  22.1911025  96.9324265  68.9552680  21.3573681  98.1021536
  66.9587741  24.1748169  94.2244097  66.0498960  23.8907202  94.3216567
  66.9882824  24.5947247  93.3647404  72.1907008  27.7854758  97.9935264
  71.7369335  26.9445668  98.0500455  71.5600975  28.4216157  98.3310045
  71.1339928  18.7146744  99.2235932  70.3962684  18.2024130  99.5546174
  71.3866701  18.2747126  98.4119209  70.6339947  29.6231255  98.9285083
  70.9262922  30.1836312  98.2097448  71.1438568  29.9159816  99.6838242
  71.2351555  11.4922996  99.8177701  71.5410432  10.6320360  99.5303616
  71.9604160  12.0840616  99.6176695  57.5275911  21.8953683  98.2059299
  57.3300311  21.3023044  97.4810366  56.9722575  21.5905893  98.9235238
  65.5072635  21.7876789 100.3253892  65.5621244  20.8350626 100.2496369
  64.6963837  21.9436228 100.8095191  66.6563828  25.7156912  91.5632175
  66.2183258  24.9992771  91.1037813  67.3974269  25.9433027  91.0017267
  63.4464995  20.4053849  98.0844271  62.6332860  20.7048020  98.4909463
  63.9423989  20.0109538  98.8018753  65.5973572  30.4011606 100.0178536
  65.5549751  30.6272452  99.0887068  66.5136271  30.1674981 100.1664337
  69.0439206  20.8695674 106.9159165  69.3988594  21.0967147 107.7753631
  69.6911337  21.2014050 106.2936420  74.7736943  23.9914109  97.6208494
  74.6354842  24.1815705  96.6929683  74.4173162  24.7533492  98.0776545
  62.9379069  17.9772205 103.7005506  63.5778449  17.8360964 103.0028469
  62.1056600  17.6906718 103.3244108  74.8006323  26.0590636 102.6319766
  75.2342829  25.9665926 103.4802820  75.5137903  26.0348137 101.9939782
  63.7139373  27.2774635  99.8140498  64.5079972  26.7824955  99.6123073
  63.0031066  26.7492498  99.4508204  68.5334218  29.6592731 104.1652866
  68.5871240  30.2283667 104.9330582  67.6648999  29.8294616 103.8006903
  60.0222137  21.4217717  95.8900251  59.0919725  21.3602172  96.1070213
  60.1179609  20.8993669  95.0936892  59.9407686  17.9472530  98.4778493
  60.2014503  18.8617863  98.3687653  60.7624858  17.4796972  98.6275106
  61.4132611  19.3610287 105.6477317  62.0855664  19.1527649 104.9989966
  60.5862398  19.1632373 105.2082550  75.6621872  26.1014337 105.1652651
  75.8557762  27.0060148 105.4111926  75.5622490  25.6421756 105.9991236
  67.3158183  15.9872228 107.6642978  66.6686098  16.6862177 107.5707455
  68.0859198  16.4208372 108.0319226  70.7236981  26.2521080 110.7393532
  70.5722487  26.0231632 109.8223615  70.7141660  27.2091681 110.7524877
  67.4922317  23.8252993 105.7239798  68.4214377  23.9764152 105.5508765
  67.0713347  23.9137013 104.8688444  66.2910649  27.8503657 103.4938336
  66.1521735  27.4822441 104.3664274  65.5025245  28.3651296 103.3222293
  66.8858801  32.9512753  94.8363872  67.0610557  32.4800797  95.6509495
  66.1991589  33.5778520  95.0645133  67.8415864  27.2285260 100.8827173
  67.5065697  27.1886030 101.7784823  67.3419810  26.5629976 100.4097584
  61.8160108  22.6352890 106.4079755  61.6779906  21.9033129 107.0091294
  62.7265032  22.5461790 106.1263942  70.7775056  24.5741294  91.1564233
  70.1604227  23.8488122  91.0597286  70.3091544  25.3350654  90.8131307
  64.4442409  22.3472849 105.8963434  65.1542027  21.7066041 105.8550053
  64.4011717  22.5985744 106.8189615  72.4329188  29.2840202 108.8170013
  72.3741734  28.5999423 108.1500596  72.8348706  30.0259192 108.3650639
  63.1571343  19.3338067 107.7159074  62.6208700  18.8828805 108.3680670
  62.5688051  19.4683976 106.9729538  61.4519886  36.1002116 101.6103732
  61.6916485  36.7320640 102.2882751  60.6089083  35.7490156 101.8969092
  62.5673602  18.7926718  90.2785537  61.6903068  18.6715519  89.9147784
  63.0431355  18.0012797  90.0264426  72.4346595  27.2479786 107.0483993
  71.5473374  26.9105708 107.1710392  73.0045146  26.5162818 107.2852758
  54.0875742  23.5803878 100.3727044  54.7746782  23.2665608  99.7848060
  53.9323871  24.4845243 100.0994296  58.8910464  18.4694075 104.8012068
  58.8068653  17.8619744 104.0662478  58.0693171  18.9603093 104.8021564
  65.9647748  31.9081239 104.0145236  65.8917920  32.7136210 104.5264541
  65.5225141  32.1073204 103.1893258  65.7537528  31.1453009  97.5248058
  64.9705050  31.6874689  97.6186282  66.4530273  31.6626988  97.9242299
  69.0634178  16.9547638 100.1682263  69.5602878  16.2017600  99.8483333
  68.2921160  16.9911955  99.6025473  76.9163935  22.6588004 101.8100555
  76.9053812  23.5412719 101.4394488  76.0481315  22.3059555 101.6155092
  68.4246432  31.8068073 106.1703395  69.1374404  32.4415538 106.0979296
  67.9336460  31.9031939 105.3543397  70.1463959  25.7119325  97.7420687
  69.2120237  25.8320788  97.5725391  70.3240627  24.8091792  97.4780696
  65.6469147  19.0965021  99.8953948  65.2766934  18.5436062 100.5834853
  66.1428239  18.4923155  99.3428948  73.5336510  21.5536645  98.2770721
  73.9996962  22.3864636  98.2031023  73.9844011  21.0881626  98.9815979
  63.4758345  29.5562516 106.9908966  64.1767805  30.1898999 107.1438360
  63.0053460  29.8977248 106.2304605  71.6012741  27.8980466  95.2756873
  71.8772585  27.7837061  96.1850747  70.7317240  27.4997951  95.2369046
  71.5053173  13.9217232 102.3161622  70.5916253  14.1521458 102.4843829
  71.9346274  14.0055676 103.1675654  71.2759631  22.1107124 104.8161516
  70.6231082  22.3583031 104.1613969  71.6540011  21.2971262 104.4823993
  68.2366805  32.1466817  98.9189686  68.4189200  31.3288473  99.3817439
  69.0599791  32.3634509  98.4814576  68.5708971  31.0735002  96.1804735
  69.0996737  30.5627457  95.5674897  68.8337190  30.7577532  97.0450268
  67.3247204  22.8526935 111.3027553  66.6487841  22.7521064 111.9729928
  68.1474838  22.6966148 111.7663550  59.0726063  29.0898871 103.9240068
  59.6579500  28.3442559 104.0567973  58.8750902  29.4002828 104.8076732
  61.9264719  32.1250119  98.9402511  61.2575094  32.6096246  98.4566551
  61.7877588  32.3719339  99.8545889  53.6643718  21.6604471 102.6444512
  53.7027818  21.1268062 103.4381630  53.1584011  21.1339677 102.0255489
  66.0669987  34.1593862 105.5385169  66.6188295  34.3225484 106.3034254
  66.4076181  34.7498300 104.8665194  61.0434480  16.5069012 106.1407054
  61.1075807  17.3683843 105.7284452  60.9801601  15.8943014 105.4079412
  60.5186753  18.5792144 109.7880088  61.1458792  18.1969222 110.4017612
  59.6614672  18.3606346 110.1535781  70.9180862  28.9855120 111.3933824
  71.4620766  29.5985078 110.8988778  70.3367706  29.5434698 111.9100837
  57.2952296  20.3868574  95.7198443  57.5905737  19.4779252  95.6665497
  56.3940331  20.3656313  95.3979445  69.2038374  32.1075838 102.5248851
  69.0789514  31.3065577 102.0159797  69.8617466  32.6022031 102.0362821
  60.8246543  18.4624570 101.7025992  60.1033128  19.0760538 101.5633465
  61.6139798  18.9982335 101.6242637  71.2673283  29.9084858 104.1528401
  70.3203618  29.7890209 104.0806728  71.6156056  29.0207356 104.2354663
  63.6272856  15.7978997 107.9766643  64.1507258  16.0441293 108.7392953
  63.4085190  16.6299031 107.5569781  59.0240137  18.0682671  95.8437768
  58.6952843  17.1880050  95.6612874  59.3779508  18.0130340  96.7314157
  68.2719716  29.7037574 100.3532754  68.1244679  28.7754281 100.5340324
  69.0973210  29.7257665  99.8689829  62.1381960  18.3555641  96.2113246
  62.4778033  18.8841562  95.4891854  62.5854081  18.6936047  96.9871812
  71.8753838  30.5266133 101.4397626  72.8000385  30.3208994 101.3022078
  71.7069141  30.2782534 102.3486968  64.8325401  16.7392692 105.6616314
  64.4922222  15.9400505 106.0636994  64.1264408  17.0394403 105.0893147
  65.4841873  13.8242004 104.1143637  66.3067942  13.3502482 103.9922527
  65.7279937  14.6032488 104.6142323  64.1250108  16.8530263  94.4106539
  64.8458470  17.2311515  93.9070255  63.5015412  17.5719139  94.5141517
  68.2681230  17.5575412  95.3464871  68.4844845  18.4400049  95.0453699
  67.7875298  17.1661625  94.6170513  63.0080452  20.5161125 101.9235615
  62.8625033  20.8301428 102.8159897  62.5305656  21.1346025 101.3706514
  64.8676835  17.5063673 101.9716505  64.8538404  16.6104766 101.6348803
  65.5849263  17.5134337 102.6054791  66.7202965  17.9401013 104.0169632
  66.4620743  18.8618084 104.0153963  66.1888006  17.5431448 104.7070097
  71.6649154  31.0451800  96.7959718  71.8386032  30.4798223  96.0433570
  72.1578045  31.8452695  96.6139208  57.4826114  23.0566469 104.8623277
  56.9379582  23.8326277 104.9943551  58.3605464  23.4037274 104.7042398
  64.2713731  16.3878053  97.2404075  64.3929642  15.4594699  97.4394963
  63.9815773  16.4016739  96.3282391  67.1404921  14.0732964 100.3770795
  67.1626618  14.1372297  99.4222775  67.5572980  13.2337472 100.5711301
  77.5188545  23.8088223  98.4150018  77.9619691  23.0595548  98.0169141
  76.6415056  23.7998359  98.0323750  72.6524327  30.3618565  93.8956616
  73.3475231  30.9825257  94.1143931  72.9947477  29.5113916  94.1708994
  58.2692136  22.1836365 107.7553434  57.5273872  22.3319001 108.3418064
  57.9484880  22.4444631 106.8920183  74.5515750  27.8118270  95.4243947
  75.0767074  28.1505543  94.6993267  74.4638102  26.8765285  95.2407082
  66.2135799  31.7252344 107.5533824  66.5222925  31.4801490 108.4256523
  67.0111281  31.9298982 107.0652694  66.2356411  33.8790253  99.7839200
  65.7961401  33.3866632 100.4772057  66.9864528  33.3363221  99.5431275
  58.7148750  30.0701794  99.7863828  59.5406769  29.7705566  99.4062472
  58.3642802  29.3009417 100.2353617  63.6830283  29.4228262 101.8561502
  63.0610292  28.7598967 101.5563730  64.3535150  29.4489394 101.1735150
  56.9157355  27.9888121 100.7452762  56.0789263  27.5610295 100.5636763
  56.8881000  28.1820564 101.6823553  63.7554810  17.9010050 111.4494008
  63.8042966  18.7772173 111.0671777  64.2977324  17.3587443 110.8765651
  74.2409656  28.4451174 110.7295145  73.4505200  28.4275313 110.1899644
  74.0043010  28.9839467 111.4844181  74.3607531  25.2943640 108.0427873
  74.4105536  25.1293648 108.9843396  74.2521454  24.4270899 107.6525754
  63.2443790  27.9732186  95.3319962  63.3931910  28.6567650  94.6786635
  64.0510233  27.9537276  95.8469418  71.6511293  21.2774568 109.3587180
  72.5521156  21.1381033 109.0671178  71.7259268  21.4429023 110.2985358
  65.9854099  18.6541423 108.2040366  65.1157408  18.9474989 107.9322955
  66.2213579  19.2381868 108.9247630  75.8625728  27.7140582 108.2869895
  75.5710536  28.0770562 109.1233356  75.2497859  27.0007590 108.1083227
  77.0621410  25.2793461 100.8072465  77.8968301  25.7183265 100.9710026
  77.1980539  24.8032115  99.9880711  74.1112916  22.8373196 106.7549953
  74.5867038  23.0300843 105.9468804  73.1878481  22.8932382 106.5093337
  60.9996423  23.9997363  96.3381031  60.7542465  23.0959693  96.5361241
  61.1692337  24.0014514  95.3960509  68.6893133  14.8721040 105.7205787
  69.2075076  15.6082067 105.3952275  68.3348265  15.1785033 106.5552546
  60.2692070  19.7325721  93.8367193  59.5761315  19.8070076  93.1807229
  60.0243822  18.9686065  94.3588710  68.9405727  11.2921322 101.2406683
  69.2207480  10.6244511 101.8667110  69.7256334  11.4850418 100.7281347
  66.7439195  30.4680316  92.8031710  66.1713162  31.0870503  92.3502182
  67.3171989  31.0179678  93.3371632  72.8114585  19.7138956 104.9878259
  73.7632008  19.8137054 105.0090483  72.6418035  18.9217225 105.4976343
  70.8328964  16.7994540 105.1737659  70.2378897  17.0799552 104.4784148
  70.5478661  17.2888440 105.9454401  69.9636455  30.7517466  93.9340292
  70.8967128  30.6863028  94.1373168  69.8759668  31.5873733  93.4754825
  72.5924472  30.0683337  90.8944240  72.5138103  29.7343200  91.7879997
  73.4134138  30.5605105  90.8935712  75.2902663  22.9345076 104.1020558
  75.2578983  21.9961077 104.2880242  75.9003286  23.0129113 103.3686383
  67.1285994  21.8041129  90.1447762  68.0745098  21.6747337  90.2136180
  66.7500239  21.0655791  90.6217190  75.4397151  19.7256119 104.1478841
  74.9236200  18.9414576 103.9608770  76.3237100  19.3974836 104.3125361
  73.1007878  13.4697135 100.1074654  72.9032699  13.1612223 100.9917986
  73.7107584  14.1958774 100.2372584  81.1079213  23.9961083 103.2426595
  81.8382601  23.7346371 103.8034298  80.4986158  23.2589805 103.2828663
  79.1894510  22.1368945 103.8401046  78.4627673  22.0024910 103.2317538
  78.7741797  22.4445774 104.6457764  67.0124686  25.8558875 111.6048419
  67.9327696  26.0337474 111.7988466  66.9774269  24.9114920 111.4528118
  65.3128911  19.7291105  90.0802647  64.4060366  19.4324218  90.1565361
  65.5904892  19.4320923  89.2136934  56.2306851  21.0497469 100.5301694
  55.9109636  20.1962777 100.2376068  55.6840279  21.2646047 101.2859661
  60.0086759  23.7659910 104.2471200  60.2272769  24.6977018 104.2659234
  60.4212533  23.4067884 105.0326004  66.9290977  14.2727995  96.2346889
  66.1191705  13.9275080  96.6102135  67.6175393  13.9635539  96.8234500
  68.8581525  13.3506042  97.8571185  69.4112563  13.7701495  98.5161208
  69.0951611  12.4241790  97.8994141  64.0827695  16.5878041  90.2214627
  64.9446859  16.9132939  90.4810444  64.2678040  15.8009536  89.7087692
  56.0995111  24.6700380 102.4994815  55.4058583  24.2554333 101.9864770
  56.8468102  24.7120917 101.9028234  72.2360332  15.4606567  97.3649850
  71.6559001  16.1191371  96.9827902  71.9696265  14.6383912  96.9537267
  70.6863898  14.8611625  99.5671170  71.1863677  14.9728159  98.7585489
  71.3299506  14.5572678 100.2071978  64.7445894  22.7690254 112.4539011
  64.2612976  23.5690614 112.6602900  64.8306833  22.7798199 111.5006455
  58.0131854  24.6018634 100.3760830  57.9902542  24.7006321  99.4242713
  58.3232490  25.4483785 100.6977996  60.6719232  26.6594789 104.4907445
  61.6262485  26.6278731 104.4237376  60.4731755  26.1985413 105.3057671
  61.2618614  25.2295905 107.0578242  62.0811503  25.7239984 107.0813080
  61.5355421  24.3127873 107.0295810  71.0185210  17.6206657  96.4206198
  70.1311065  17.9056308  96.2026393  71.4339199  17.4600421  95.5733475
  74.3699746  17.6453178 100.1360537  75.1460136  18.1349631 100.4085154
  73.6447880  18.0711233 100.5932407  76.8072305  18.3580798 101.1934478
  77.4016796  18.1176534 100.4827786  76.8798888  17.6387928 101.8208014
  59.0269460  32.2014409 101.5077643  58.8923928  31.4414809 100.9415641
  58.6101523  32.9255308 101.0406431  70.1628423  27.3851332  90.5154218
  70.8664274  27.5901335  91.1311873  69.4391072  27.9528094  90.7803301
  70.9926234  23.1361193  96.6356488  70.9361435  23.5929745  95.7964120
  71.5454576  22.3751878  96.4579331  74.8031040  18.9250925  97.4606608
  74.5467974  18.5247561  98.2914815  74.1783908  19.6394719  97.3356747
  79.1143377  21.6646998  99.9677899  78.5542935  21.7340188 100.7409461
  78.5086881  21.4887983  99.2477395  62.1838586  33.0983726 101.7196085
  62.0670970  34.0429158 101.6174775  61.3631033  32.7957287 102.1081884
  72.0715121  27.8233861  92.5652678  72.9060725  27.3915060  92.3830153
  71.9099464  27.6515875  93.4929572  71.7261013  24.3265975  93.9309017
  71.6709817  24.1610246  92.9897461  71.1007068  25.0342008  94.0871207
  56.5153528  19.5634039 107.7570439  57.1612392  19.0532993 108.2457665
  56.3070679  20.3002721 108.3313865  69.0406920  26.6314886 113.2562580
  69.9098080  26.8055539 112.8949215  68.5613672  27.4509303 113.1338309
  65.0357138  13.8274084  93.5094336  65.0235808  14.7715924  93.6662606
  65.9280560  13.6444229  93.2153797  63.2093100  33.7511987 104.9352014
  64.1120347  33.7835598 105.2518509  62.9830470  32.8212438 104.9498349
  64.9646702  32.5042974 101.5962092  64.0142333  32.5044836 101.4826465
  65.2679189  31.7575709 101.0798127  68.8509258  10.4216860  97.7640272
  68.0841654   9.8675347  97.9096955  69.2619963  10.4938729  98.6254424
  80.6999396  38.3403512 102.6607855  81.3377806  38.2210260 101.9571195
  80.5820239  39.2884356 102.7195807  77.5089102  38.2930941 102.5969379
  77.1707614  38.1772005 101.7089914  78.3778870  37.8922106 102.5770386
  73.3675918  40.1466417  98.5866270  72.8040783  40.0556354  97.8182558
  73.2528313  39.3266321  99.0668763  77.9908885  39.4465792 108.5555585
  77.9797526  39.0518591 107.6836089  78.1529525  38.7131865 109.1489356
  70.9140350  41.6417609 101.4250491  71.7061642  41.3008433 101.0096790
  71.1537000  41.7512584 102.3452644  78.9475477  43.8137385  93.8980735
  78.2963456  44.3991465  93.5114749  79.7419839  44.3443580  93.9575773
  72.8731104  40.9026522  94.2967870  73.6461980  40.3555509  94.1580745
  73.2256503  41.7670771  94.5082331  74.7116146  42.2302904 107.5034769
  74.4206012  43.1348535 107.3881435  75.3473131  42.2719432 108.2178838
  75.6372353  39.6079753 104.0936129  76.2335925  39.3835775 103.3793091
  75.6947325  38.8664498 104.6961576  75.2097382  37.0619188  91.9286319
  75.4622902  36.5400709  91.1669782  74.2721941  36.8985333  92.0313003
  80.2540664  36.0654966  99.7361063  81.0403754  35.6474389  99.3851480
  80.5179369  36.9701058  99.9042711  80.4250742  41.5027817  94.4349720
  79.7896575  41.5762443  95.1470624  80.0948148  42.0921415  93.7568799
  85.6549092  36.0030199 100.6394041  86.3874263  35.4329416 100.8731871
  84.8988447  35.6151800 101.0800547  74.9293670  38.9647294  94.1310694
  74.8129928  38.2892197  94.7991779  75.0395930  38.4779668  93.3142847
  77.2725211  38.4257441  97.8357384  76.9083418  37.8988062  98.5470305
  78.1292327  38.0355910  97.6623869  83.1774512  29.7151774 105.0988650
  82.8457837  30.5847185 104.8749865  82.5820125  29.3988058 105.7782680
  76.9130698  33.4547341  92.8318732  77.0805101  34.3227577  93.1989203
  76.7227867  33.6174622  91.9080021  79.6706031  41.9164320 104.4984563
  79.3706754  42.8189358 104.3900370  79.3257091  41.6496503 105.3505715
  73.1218513  38.3678116 100.5321267  72.1969009  38.2354330 100.7398959
  73.3702926  39.1472336 101.0291209  83.0703175  34.4346860 102.1782000
  82.1620053  34.3662268 101.8840761  83.0190771  34.9118805 103.0063825
  76.8919919  35.9104998  93.8165399  76.7719544  36.3562049  94.6550879
  76.1972507  36.2590316  93.2578937  70.4827324  38.0111390 101.3665056
  70.6119705  38.2645869 102.2804468  69.8024775  38.6039098 101.0469711
  74.6526811  48.6808640  97.4655530  74.5750841  49.6316465  97.5444011
  74.0488455  48.3354512  98.1230457  77.1444041  35.8536505 110.1216897
  76.3677375  36.4130425 110.1119762  77.7834604  36.3393288 110.6431767
  84.9364822  32.6363298 103.9559874  84.2939202  32.9295831 103.3099668
  84.4319750  32.5216218 104.7613070  82.5904985  36.3826471  94.6445733
  83.5022841  36.6153858  94.4693431  82.0814632  36.9663516  94.0820812
  75.3990413  38.6621959 109.6834864  76.1405098  39.2007003 109.4069688
  74.6927399  39.2888247 109.8406416  80.8745753  40.8051099 108.2807026
  81.2829109  40.3633510 107.5361658  80.1523014  40.2303727 108.5341219
  77.2276823  35.7423706 105.6540583  78.0738018  36.1663119 105.7975232
  77.1675461  35.0857330 106.3479146  81.1974568  41.3652290 102.0359315
  80.5683430  41.5298004 101.3335382  80.8100230  41.7793899 102.8070279
  85.0763799  42.3006728  99.3903678  84.3914838  42.6805629  98.8400712
  85.1607649  42.9102054 100.1235626  80.3776268  33.4028074 107.3121756
  80.1337200  34.1570135 106.7756032  80.6536199  33.7813422 108.1469003
  82.3314731  39.9466687 105.9899022  82.5431626  40.5898447 105.3133403
  82.2844479  39.1129003 105.5220952  79.9340960  32.5584507 102.8935594
  79.0725439  32.8565761 103.1852332  79.9603395  32.7754906 101.9616627
  76.7502529  41.1026698  99.3009400  77.2140875  41.3814401  98.5114022
  76.4859328  40.2010142  99.1182490  73.6426611  40.6498179 102.2389163
  74.2127968  41.0785448 101.6006647  74.2334722  40.3680764 102.9373349
  75.6871416  37.2249850  96.1098965  76.3895459  37.6770894  96.5772891
  75.3552044  36.5833669  96.7378858  74.1351777  35.8161607 110.4850174
  73.5050438  36.4977888 110.7185571  74.0287865  35.7044688 109.5403312
  69.4296749  35.4833403 101.4116098  68.6395803  35.7390931 100.9356209
  69.9207997  36.2981741 101.5168139  83.4460559  42.8238642 104.1621379
  84.2678003  42.4218829 103.8804061  83.4422962  42.7206876 105.1137495
  71.3811495  35.8477982  98.3699575  70.5842658  35.9596676  98.8883071
  71.1537087  36.1864634  97.5040466  77.2117162  42.3722685 106.3182090
  77.2761595  42.8343093 107.1540262  76.5028086  41.7420050 106.4464400
  67.7134452  35.7363893 103.8431089  67.9642491  36.6210903 104.1088665
  68.2494001  35.5568495 103.0706181  91.5366552  39.1677391 100.5106351
  90.7830260  38.5984789 100.3550355  91.6714093  39.1340055 101.4576985
  76.9265180  44.0390793  96.1861070  76.7910855  44.8842329  96.6145918
  77.4674993  44.2410070  95.4227004  73.4132520  30.1182373 112.8475425
  73.0199465  29.5648571 113.5223069  74.2298660  30.4292951 113.2381943
  70.3794578  41.5566231  96.7588995  70.8919098  42.3509481  96.9094560
  71.0317290  40.8592521  96.6922597  72.1889462  44.6731987  98.8411748
  72.3656091  45.5949952  98.6532732  72.9846296  44.3590406  99.2706128
  76.3300481  31.5340252 110.4395682  77.0710194  32.1347405 110.3600144
  76.5618404  30.7917890 109.8813724  71.4741819  36.7196619 108.7173911
  71.3595334  35.8181876 109.0181010  70.6186337  36.9660316 108.3658728
  78.5533657  44.6614359 110.3161412  78.1097511  43.8750738 109.9982317
  79.2150870  44.8493510 109.6505303  73.3120778  46.1910161 104.8422091
  73.8628203  46.0627224 104.0699085  72.4732254  46.4905050 104.4916983
  80.6514895  44.9417159 108.3442813  80.6333370  45.7626040 107.8523083
  81.5734815  44.8171235 108.5692955  77.1087949  42.4561289 109.1866322
  77.6416286  41.6949577 108.9565630  76.5802030  42.1634941 109.9290476
  80.2757644  27.5621355 104.7159963  79.9321913  28.4522996 104.6399074
  80.6436606  27.3723012 103.8529548  68.3443494  39.8854885  97.5348566
  69.1818716  40.2951894  97.3182273  68.5221762  38.9454327  97.5048759
  80.2407926  37.5529966  93.2232399  79.7254550  38.3234570  93.4620786
  79.9685235  36.8795102  93.8465460  77.8255037  32.3979667  98.2817637
  76.9696634  32.0086517  98.1023276  78.2381989  32.4771627  97.4217422
  79.3554184  29.9326010 102.6809197  78.8518980  29.8956145 101.8677002
  79.6484791  30.8418753 102.7405853  75.5997070  30.0164740 101.6875378
  76.4650067  29.8207548 101.3281268  75.6674579  29.7875091 102.6144735
  85.2142201  40.3062320  95.1585572  84.4371643  39.9673480  94.7140734
  85.8933682  40.3114944  94.4840537  80.0294230  35.4257058  95.0492180
  79.7244365  35.7403207  95.9002323  80.9824672  35.5038478  95.0919513
  78.4740661  41.5847281  96.6985134  77.9462023  40.8500041  96.3858371
  77.9728164  42.3621958  96.4525102  83.4533507  39.7796302 101.8152180
  82.7957182  40.4695563 101.9032309  84.2573907  40.1692734 102.1586166
  73.2059389  32.2466948  99.0591745  73.7803141  32.0242129  98.3264938
  73.7930371  32.3155642  99.8120347  82.2638966  38.1340674  99.8656122
  82.7770848  38.7670666 100.3677832  82.9140190  37.5341870  99.4999482
  73.5328976  34.2771409  93.0787631  72.6966288  34.6146095  93.3996905
  73.3933746  34.1420388  92.1414767  75.5082057  29.1208196  97.7866815
  74.8546469  28.8057214  97.1623429  75.4662531  28.4983937  98.5126638
  76.6193262  39.4027492  89.7020107  75.7120323  39.1716745  89.9011256
  77.1164294  38.6065111  89.8894088  79.5261340  48.1124999  92.6216793
  78.8523039  48.4156695  93.2301751  79.9127162  48.9154079  92.2722250
  78.7419797  35.6090130 102.1114462  77.8242358  35.8305077 101.9536150
  79.1579941  35.6836440 101.2526170  79.5254845  37.0081546  97.2417143
  80.2726664  37.5202943  96.9324265  79.7946434  36.6865598  98.1021536
  77.7981495  39.5040086  94.2244097  76.8892714  39.2199119  94.3216567
  77.8276579  39.9239165  93.3647404  83.0300762  43.1146676  97.9935264
  82.5763090  42.2737586  98.0500455  82.3994729  43.7508074  98.3310045
  81.9733682  34.0438662  99.2235932  81.2356439  33.5316048  99.5546174
  82.2260456  33.6039044  98.4119209  81.4733702  44.9523173  98.9285083
  81.7656676  45.5128230  98.2097448  81.9832322  45.2451734  99.6838242
  82.0745309  26.8214914  99.8177701  82.3804186  25.9612277  99.5303616
  82.7997914  27.4132534  99.6176695  68.3669665  37.2245601  98.2059299
  68.1694065  36.6314961  97.4810366  67.8116329  36.9197811  98.9235238
  76.3466389  37.1168707 100.3253892  76.4014999  36.1642543 100.2496369
  75.5357591  37.2728146 100.8095191  77.4957583  41.0448830  91.5632175
  77.0577013  40.3284689  91.1037813  78.2368024  41.2724945  91.0017267
  74.2858749  35.7345767  98.0844271  73.4726615  36.0339937  98.4909463
  74.7817743  35.3401456  98.8018753  76.4367327  45.7303524 100.0178536
  76.3943506  45.9564370  99.0887068  77.3530026  45.4966898 100.1664337
  79.8832961  36.1987591 106.9159165  80.2382348  36.4259064 107.7753631
  80.5305092  36.5305968 106.2936420  85.6130698  39.3206027  97.6208494
  85.4748596  39.5107623  96.6929683  85.2566916  40.0825410  98.0776545
  73.7772824  33.3064122 103.7005506  74.4172203  33.1652881 103.0028469
  72.9450354  33.0198636 103.3244108  85.6400077  41.3882554 102.6319766
  86.0736584  41.2957843 103.4802820  86.3531658  41.3640055 101.9939782
  74.5533128  42.6066553  99.8140498  75.3473726  42.1116873  99.6123073
  73.8424820  42.0784416  99.4508204  79.3727972  44.9884648 104.1652866
  79.4264994  45.5575585 104.9330582  78.5042754  45.1586533 103.8006903
  70.8615891  36.7509634  95.8900251  69.9313479  36.6894090  96.1070213
  70.9573363  36.2285587  95.0936892  70.7801440  33.2764447  98.4778493
  71.0408257  34.1909780  98.3687653  71.6018613  32.8088890  98.6275106
  72.2526366  34.6902204 105.6477317  72.9249419  34.4819567 104.9989966
  71.4256152  34.4924290 105.2082550  86.5015627  41.4306255 105.1652651
  86.6951517  42.3352065 105.4111926  86.4016245  40.9713674 105.9991236
  78.1551938  31.3164145 107.6642978  77.5079853  32.0154095 107.5707455
  78.9252953  31.7500289 108.0319226  81.5630735  41.5812998 110.7393532
  81.4116242  41.3523549 109.8223615  81.5535415  42.5383599 110.7524877
  78.3316072  39.1544910 105.7239798  79.2608132  39.3056070 105.5508765
  77.9107102  39.2428931 104.8688444  77.1304404  43.1795575 103.4938336
  76.9915489  42.8114359 104.3664274  76.3419000  43.6943214 103.3222293
  77.7252556  48.2804671  94.8363872  77.9004311  47.8092714  95.6509495
  77.0385344  48.9070437  95.0645133  78.6809619  42.5577177 100.8827173
  78.3459451  42.5177947 101.7784823  78.1813564  41.8921893 100.4097584
  72.6553863  37.9644807 106.4079755  72.5173661  37.2325046 107.0091294
  73.5658786  37.8753707 106.1263942  81.6168810  39.9033212  91.1564233
  80.9997981  39.1780040  91.0597286  81.1485299  40.6642572  90.8131307
  75.2836163  37.6764767 105.8963434  75.9935782  37.0357959 105.8550053
  75.2405472  37.9277662 106.8189615  83.2722942  44.6132120 108.8170013
  83.2135488  43.9291340 108.1500596  83.6742461  45.3551110 108.3650639
  73.9965097  34.6629985 107.7159074  73.4602454  34.2120723 108.3680670
  73.4081806  34.7975893 106.9729538  72.2913641  51.4294034 101.6103732
  72.5310239  52.0612558 102.2882751  71.4482837  51.0782074 101.8969092
  73.4067356  34.1218636  90.2785537  72.5296823  34.0007437  89.9147784
  73.8825109  33.3304714  90.0264426  83.2740349  42.5771704 107.0483993
  82.3867128  42.2397626 107.1710392  83.8438900  41.8454735 107.2852758
  64.9269497  38.9095796 100.3727044  65.6140536  38.5957526  99.7848060
  64.7717625  39.8137160 100.0994296  69.7304219  33.7985992 104.8012068
  69.6462407  33.1911662 104.0662478  68.9086925  34.2895011 104.8021564
  76.8041503  47.2373156 104.0145236  76.7311674  48.0428128 104.5264541
  76.3618896  47.4365122 103.1893258  76.5931282  46.4744926  97.5248058
  75.8098804  47.0166607  97.6186282  77.2924028  46.9918906  97.9242299
  79.9027933  32.2839556 100.1682263  80.3996632  31.5309518  99.8483333
  79.1314914  32.3203872  99.6025473  87.7557690  37.9879921 101.8100555
  87.7447566  38.8704637 101.4394488  86.8875069  37.6351472 101.6155092
  79.2640186  47.1359990 106.1703395  79.9768159  47.7707455 106.0979296
  78.7730215  47.2323856 105.3543397  80.9857713  41.0411243  97.7420687
  80.0513992  41.1612706  97.5725391  81.1634382  40.1383710  97.4780696
  76.4862901  34.4256939  99.8953948  76.1160689  33.8727979 100.5834853
  76.9821994  33.8215072  99.3428948  84.3730265  36.8828562  98.2770721
  84.8390717  37.7156554  98.2031023  84.8237765  36.4173544  98.9815979
  74.3152100  44.8854434 106.9908966  75.0161559  45.5190917 107.1438360
  73.8447215  45.2269165 106.2304605  82.4406496  43.2272384  95.2756873
  82.7166340  43.1128978  96.1850747  81.5710994  42.8289868  95.2369046
  82.3446927  29.2509149 102.3161622  81.4310007  29.4813376 102.4843829
  82.7740029  29.3347593 103.1675654  82.1153386  37.4399041 104.8161516
  81.4624836  37.6874949 104.1613969  82.4933766  36.6263179 104.4823993
  79.0760560  47.4758734  98.9189686  79.2582954  46.6580390  99.3817439
  79.8993546  47.6926427  98.4814576  79.4102725  46.4026920  96.1804735
  79.9390492  45.8919374  95.5674897  79.6730945  46.0869450  97.0450268
  78.1640959  38.1818852 111.3027553  77.4881596  38.0812982 111.9729928
  78.9868593  38.0258066 111.7663550  69.9119818  44.4190789 103.9240068
  70.4973255  43.6734477 104.0567973  69.7144656  44.7294746 104.8076732
  72.7658473  47.4542036  98.9402511  72.0968848  47.9388164  98.4566551
  72.6271343  47.7011257  99.8545889  64.5037473  36.9896389 102.6444512
  64.5421572  36.4559980 103.4381630  63.9977765  36.4631595 102.0255489
  76.9063742  49.4885780 105.5385169  77.4582050  49.6517401 106.3034254
  77.2469935  50.0790218 104.8665194  71.8828235  31.8360930 106.1407054
  71.9469561  32.6975760 105.7284452  71.8195355  31.2234931 105.4079412
  71.3580507  33.9084062 109.7880088  71.9852546  33.5261139 110.4017612
  70.5008426  33.6898264 110.1535781  81.7574616  44.3147037 111.3933824
  82.3014520  44.9276996 110.8988778  81.1761461  44.8726616 111.9100837
  68.1346050  35.7160491  95.7198443  68.4299491  34.8071170  95.6665497
  67.2334086  35.6948231  95.3979445  80.0432129  47.4367755 102.5248851
  79.9183268  46.6357495 102.0159797  80.7011220  47.9313949 102.0362821
  71.6640297  33.7916488 101.7025992  70.9426883  34.4052456 101.5633465
  72.4533553  34.3274253 101.6242637  82.1067037  45.2376775 104.1528401
  81.1597373  45.1182127 104.0806728  82.4549810  44.3499273 104.2354663
  74.4666611  31.1270914 107.9766643  74.9901013  31.3733211 108.7392953
  74.2478944  31.9590949 107.5569781  69.8633892  33.3974589  95.8437768
  69.5346598  32.5171968  95.6612874  70.2173262  33.3422258  96.7314157
  79.1113471  45.0329492 100.3532754  78.9638433  44.1046199 100.5340324
  79.9366964  45.0549582  99.8689829  72.9775715  33.6847559  96.2113246
  73.3171787  34.2133480  95.4891854  73.4247835  34.0227965  96.9871812
  82.7147593  45.8558050 101.4397626  83.6394140  45.6500912 101.3022078
  82.5462896  45.6074452 102.3486968  75.6719156  32.0684609 105.6616314
  75.3315976  31.2692422 106.0636994  74.9658162  32.3686320 105.0893147
  76.3235628  29.1533922 104.1143637  77.1461697  28.6794400 103.9922527
  76.5673691  29.9324406 104.6142323  74.9643862  32.1822180  94.4106539
  75.6852225  32.5603433  93.9070255  74.3409166  32.9011057  94.5141517
  79.1074985  32.8867329  95.3464871  79.3238599  33.7691967  95.0453699
  78.6269052  32.4953543  94.6170513  73.8474206  35.8453042 101.9235615
  73.7018787  36.1593346 102.8159897  73.3699410  36.4637943 101.3706514
  75.7070589  32.8355590 101.9716505  75.6932158  31.9396684 101.6348803
  76.4243017  32.8426254 102.6054791  77.5596720  33.2692931 104.0169632
  77.3014498  34.1910001 104.0153963  77.0281760  32.8723365 104.7070097
  82.5042909  46.3743718  96.7959718  82.6779786  45.8090140  96.0433570
  82.9971800  47.1744613  96.6139208  68.3219869  38.3858387 104.8623277
  67.7773337  39.1618195 104.9943551  69.1999218  38.7329191 104.7042398
  75.1107485  31.7169971  97.2404075  75.2323396  30.7886617  97.4394963
  74.8209528  31.7308657  96.3282391  77.9798676  29.4024881 100.3770795
  78.0020372  29.4664214  99.4222775  78.3966735  28.5629390 100.5711301
  88.3582300  39.1380141  98.4150018  88.8013446  38.3887466  98.0169141
  87.4808810  39.1290277  98.0323750  83.4918081  45.6910482  93.8956616
  84.1868986  46.3117175  94.1143931  83.8341231  44.8405833  94.1708994
  69.1085890  37.5128283 107.7553434  68.3667626  37.6610919 108.3418064
  68.7878635  37.7736549 106.8920183  85.3909504  43.1410188  95.4243947
  85.9160828  43.4797460  94.6993267  85.3031857  42.2057203  95.2407082
  77.0529553  47.0544261 107.5533824  77.3616679  46.8093408 108.4256523
  77.8505035  47.2590900 107.0652694  77.0750165  49.2082171  99.7839200
  76.6355155  48.7158550 100.4772057  77.8258282  48.6655139  99.5431275
  69.5542504  45.3993712  99.7863828  70.3800524  45.0997484  99.4062472
  69.2036556  44.6301334 100.2353617  74.5224037  44.7520180 101.8561502
  73.9004047  44.0890885 101.5563730  75.1928904  44.7781312 101.1735150
  67.7551109  43.3180038 100.7452762  66.9183017  42.8902213 100.5636763
  67.7274755  43.5112482 101.6823553  74.5948565  33.2301968 111.4494008
  74.6436720  34.1064091 111.0671777  75.1371079  32.6879361 110.8765651
  85.0803410  43.7743091 110.7295145  84.2898954  43.7567230 110.1899644
  84.8436765  44.3131385 111.4844181  85.2001285  40.6235558 108.0427873
  85.2499290  40.4585565 108.9843396  85.0915209  39.7562817 107.6525754
  74.0837544  43.3024103  95.3319962  74.2325665  43.9859568  94.6786635
  74.8903988  43.2829194  95.8469418  82.4905048  36.6066486 109.3587180
  83.3914911  36.4672951 109.0671178  82.5653022  36.7720941 110.2985358
  76.8247853  33.9833341 108.2040366  75.9551163  34.2766907 107.9322955
  77.0607334  34.5673786 108.9247630  86.7019482  43.0432499 108.2869895
  86.4104291  43.4062480 109.1233356  86.0891614  42.3299508 108.1083227
  87.9015165  40.6085379 100.8072465  88.7362056  41.0475183 100.9710026
  88.0374293  40.1324032  99.9880711  84.9506671  38.1665114 106.7549953
  85.4260792  38.3592760 105.9468804  84.0272236  38.2224300 106.5093337
  71.8390177  39.3289281  96.3381031  71.5936219  38.4251611  96.5361241
  72.0086092  39.3306432  95.3960509  79.5286887  30.2012957 105.7205787
  80.0468831  30.9373984 105.3952275  79.1742020  30.5076951 106.5552546
  71.1085825  35.0617639  93.8367193  70.4155070  35.1361994  93.1807229
  70.8637577  34.2977982  94.3588710  79.7799481  26.6213240 101.2406683
  80.0601235  25.9536429 101.8667110  80.5650088  26.8142336 100.7281347
  77.5832950  45.7972234  92.8031710  77.0106917  46.4162421  92.3502182
  78.1565743  46.3471596  93.3371632  83.6508340  35.0430874 104.9878259
  84.6025762  35.1428972 105.0090483  83.4811790  34.2509143 105.4976343
  81.6722719  32.1286457 105.1737659  81.0772651  32.4091470 104.4784148
  81.3872416  32.6180358 105.9454401  80.8030209  46.0809384  93.9340292
  81.7360883  46.0154946  94.1373168  80.7153422  46.9165651  93.4754825
  83.4318226  45.3975254  90.8944240  83.3531858  45.0635118  91.7879997
  84.2527893  45.8897022  90.8935712  86.1296417  38.2636994 104.1020558
  86.0972737  37.3252994 104.2880242  86.7397041  38.3421030 103.3686383
  77.9679748  37.1333047  90.1447762  78.9138853  37.0039255  90.2136180
  77.5893993  36.3947709  90.6217190  86.2790906  35.0548037 104.1478841
  85.7629954  34.2706494 103.9608770  87.1630854  34.7266754 104.3125361
  83.9401633  28.7989053 100.1074654  83.7426454  28.4904141 100.9917986
  84.5501338  29.5250692 100.2372584  91.9472967  39.3253001 103.2426595
  92.6776356  39.0638289 103.8034298  91.3379913  38.5881722 103.2828663
  90.0288264  37.4660863 103.8401046  89.3021428  37.3316828 103.2317538
  89.6135551  37.7737692 104.6457764  77.8518441  41.1850793 111.6048419
  78.7721450  41.3629392 111.7988466  77.8168024  40.2406838 111.4528118
  76.1522665  35.0583023  90.0802647  75.2454121  34.7616136  90.1565361
  76.4298646  34.7612841  89.2136934  67.0700606  36.3789386 100.5301694
  66.7503390  35.5254695 100.2376068  66.5234034  36.5937965 101.2859661
  70.8480513  39.0951827 104.2471200  71.0666523  40.0268935 104.2659234
  71.2606287  38.7359802 105.0326004  77.7684731  29.6019913  96.2346889
  76.9585459  29.2566998  96.6102135  78.4569148  29.2927456  96.8234500
  79.6975279  28.6797960  97.8571185  80.2506318  29.0993413  98.5161208
  79.9345366  27.7533708  97.8994141  75.7208379  34.6685033 113.6373949
  75.6205105  35.6179390 113.5686040  75.5029921  34.3403272 112.7650019
  74.9221450  31.9169958  90.2214627  75.7840614  32.2424857  90.4810444
  75.1071794  31.1301454  89.7087692  66.9388866  39.9992298 102.4994815
  66.2452337  39.5846251 101.9864770  67.6861857  40.0412834 101.9028234
  83.0754086  30.7898485  97.3649850  82.4952755  31.4483289  96.9827902
  82.8090019  29.9675829  96.9537267  81.5257653  30.1903542  99.5671170
  82.0257431  30.3020077  98.7585489  82.1693261  29.8864595 100.2071978
  75.5839649  38.0982172 112.4539011  75.1006730  38.8982532 112.6602900
  75.6700588  38.1090117 111.5006455  68.8525608  39.9310552 100.3760830
  68.8296296  40.0298239  99.4242713  69.1626245  40.7775703 100.6977996
  71.5112986  41.9886707 104.4907445  72.4656240  41.9570649 104.4237376
  71.3125510  41.5277330 105.3057671  72.1012368  40.5587823 107.0578242
  72.9205257  41.0531901 107.0813080  72.3749176  39.6419791 107.0295810
  81.8578964  32.9498575  96.4206198  80.9704819  33.2348226  96.2026393
  82.2732954  32.7892338  95.5733475  85.2093501  32.9745096 100.1360537
  85.9853891  33.4641549 100.4085154  84.4841635  33.4003150 100.5932407
  87.6466059  33.6872715 101.1934478  88.2410550  33.4468451 100.4827786
  87.7192643  32.9679846 101.8208014  69.8663215  47.5306326 101.5077643
  69.7317683  46.7706727 100.9415641  69.4495277  48.2547226 101.0406431
  81.0022178  42.7143250  90.5154218  81.7058028  42.9193252  91.1311873
  80.2784827  43.2820012  90.7803301  81.8319988  38.4653111  96.6356488
  81.7755190  38.9221662  95.7964120  82.3848331  37.7043796  96.4579331
  85.6424794  34.2542843  97.4606608  85.3861728  33.8539479  98.2914815
  85.0177662  34.9686637  97.3356747  89.9537132  36.9938916  99.9677899
  89.3936690  37.0632105 100.7409461  89.3480635  36.8179901  99.2477395
  73.0232341  48.4275643 101.7196085  72.9064725  49.3721076 101.6174775
  72.2024787  48.1249205 102.1081884  82.9108875  43.1525779  92.5652678
  83.7454479  42.7206977  92.3830153  82.7493218  42.9807793  93.4929572
  82.5654767  39.6557892  93.9309017  82.5103571  39.4902164  92.9897461
  81.9400823  40.3633925  94.0871207  67.3547282  34.8925957 107.7570439
  68.0006146  34.3824911 108.2457665  67.1464434  35.6294638 108.3313865
  79.8800675  41.9606804 113.2562580  80.7491834  42.1347456 112.8949215
  79.4007426  42.7801221 113.1338309  75.8750893  29.1566001  93.5094336
  75.8629563  30.1007841  93.6662606  76.7674315  28.9736147  93.2153797
  74.0486855  49.0803905 104.9352014  74.9514102  49.1127515 105.2518509
  73.8224225  48.1504356 104.9498349  75.8040457  47.8334892 101.5962092
  74.8536088  47.8336753 101.4826465  76.1072943  47.0867626 101.0798127
  79.6903012  25.7508778  97.7640272  78.9235408  25.1967265  97.9096955
  80.1013717  25.8230647  98.6254424  71.6944773  32.0393574 111.8545454
  72.5576235  31.6830379 112.0648778  71.1210184  31.7007469 112.5420858
  91.5393150  53.6695430 102.6607855  92.1771560  53.5502177 101.9571195
  91.4213993  54.6176274 102.7195807  88.3482857  53.6222858 102.5969379
  88.0101368  53.5063923 101.7089914  89.2172625  53.2214023 102.5770386
  84.2069672  55.4758335  98.5866270  83.6434538  55.3848272  97.8182558
  84.0922067  54.6558239  99.0668763  88.8302640  54.7757710 108.5555585
  88.8191280  54.3810508 107.6836089  88.9923279  54.0423783 109.1489356
  81.7534104  56.9709526 101.4250491  82.5455396  56.6300351 101.0096790
  81.9930754  57.0804501 102.3452644  89.7869231  59.1429302  93.8980735
  89.1357211  59.7283383  93.5114749  90.5813594  59.6735497  93.9575773
  83.7124858  56.2318439  94.2967870  84.4855734  55.6847427  94.1580745
  84.0650257  57.0962689  94.5082331  85.5509901  57.5594822 107.5034769
  85.2599767  58.4640453 107.3881435  86.1866885  57.6011349 108.2178838
  86.4766108  54.9371670 104.0936129  87.0729680  54.7127693 103.3793091
  86.5341079  54.1956416 104.6961576  86.0491136  52.3911106  91.9286319
  86.3016657  51.8692627  91.1669782  85.1115695  52.2277251  92.0313003
  91.0934419  51.3946884  99.7361063  91.8797508  50.9766307  99.3851480
  91.3573123  52.2992976  99.9042711  91.2644496  56.8319734  94.4349720
  90.6290329  56.9054361  95.1470624  90.9341903  57.4213333  93.7568799
  96.4942846  51.3322117 100.6394041  97.2268018  50.7621334 100.8731871
  95.7382202  50.9443718 101.0800547  85.7687425  54.2939212  94.1310694
  85.6523683  53.6184115  94.7991779  85.8789685  53.8071585  93.3142847
  88.1118966  53.7549359  97.8357384  87.7477173  53.2279980  98.5470305
  88.9686082  53.3647828  97.6623869  94.0168266  45.0443691 105.0988650
  93.6851591  45.9139102 104.8749865  93.4213880  44.7279975 105.7782680
  87.7524453  48.7839258  92.8318732  87.9198855  49.6519495  93.1989203
  87.5621622  48.9466540  91.9080021  90.5099786  57.2456237 104.4984563
  90.2100509  58.1481276 104.3900370  90.1650845  56.9788420 105.3505715
  83.9612267  53.6970034 100.5321267  83.0362764  53.5646248 100.7398959
  84.2096681  54.4764253 101.0291209  93.9096930  49.7638777 102.1782000
  93.0013807  49.6954186 101.8840761  93.8584525  50.2410722 103.0063825
  87.7313674  51.2396916  93.8165399  87.6113299  51.6853967  94.6550879
  87.0366262  51.5882233  93.2578937  81.3221078  53.3403308 101.3665056
  81.4513460  53.5937787 102.2804468  80.6418530  53.9331016 101.0469711
  85.4920566  64.0100558  97.4655530  85.4144595  64.9608383  97.5444011
  84.8882209  63.6646430  98.1230457  87.9837795  51.1828423 110.1216897
  87.2071130  51.7422343 110.1119762  88.6228359  51.6685206 110.6431767
  95.7758576  47.9655216 103.9559874  95.1332956  48.2587749 103.3099668
  95.2713505  47.8508136 104.7613070  93.4298740  51.7118389  94.6445733
  94.3416596  51.9445776  94.4693431  92.9208387  52.2955433  94.0820812
  86.2384168  53.9913876 109.6834864  86.9798852  54.5298920 109.4069688
  85.5321153  54.6180165 109.8406416  91.7139507  56.1343017 108.2807026
  92.1222863  55.6925427 107.5361658  90.9916769  55.5595644 108.5341219
  88.0670577  51.0715624 105.6540583  88.9131773  51.4955037 105.7975232
  88.0069215  50.4149248 106.3479146  92.0368322  56.6944207 102.0359315
  91.4077184  56.8589922 101.3335382  91.6493984  57.1085817 102.8070279
  95.9157554  57.6298645  99.3903678  95.2308592  58.0097547  98.8400712
  96.0001403  58.2393972 100.1235626  91.2170023  48.7319992 107.3121756
  90.9730955  49.4862052 106.7756032  91.4929953  49.1105340 108.1469003
  93.1708486  55.2758604 105.9899022  93.3825381  55.9190364 105.3133403
  93.1238234  54.4420921 105.5220952  90.7734715  47.8876425 102.8935594
  89.9119194  48.1857679 103.1852332  90.7997149  48.1046824 101.9616627
  87.5896284  56.4318616  99.3009400  88.0534629  56.7106319  98.5114022
  87.3253082  55.5302060  99.1182490  84.4820365  55.9790097 102.2389163
  85.0521722  56.4077365 101.6006647  85.0728477  55.6972682 102.9373349
  86.5265170  52.5541768  96.1098965  87.2289213  53.0062812  96.5772891
  86.1945798  51.9125587  96.7378858  84.9745532  51.1453525 110.4850174
  84.3444192  51.8269805 110.7185571  84.8681619  51.0336606 109.5403312
  80.2690504  50.8125321 101.4116098  79.4789558  51.0682849 100.9356209
  80.7601751  51.6273658 101.5168139  94.2854314  58.1530560 104.1621379
  95.1071757  57.7510747 103.8804061  94.2816716  58.0498794 105.1137495
  82.2205249  51.1769900  98.3699575  81.4236413  51.2888594  98.8883071
  81.9930842  51.5156552  97.5040466  88.0510917  57.7014603 106.3182090
  88.1155349  58.1635010 107.1540262  87.3421841  57.0711968 106.4464400
  78.5528207  51.0655811 103.8431089  78.8036245  51.9502821 104.1088665
  79.0887755  50.8860413 103.0706181 102.3760307  54.4969308 100.5106351
 101.6224015  53.9276706 100.3550355 102.5107848  54.4631973 101.4576985
  87.7658935  59.3682711  96.1861070  87.6304609  60.2134246  96.6145918
  88.3068747  59.5701988  95.4227004  84.2526274  45.4474290 112.8475425
  83.8593220  44.8940489 113.5223069  85.0692415  45.7584869 113.2381943
  81.2188332  56.8858149  96.7588995  81.7312853  57.6801399  96.9094560
  81.8711045  56.1884439  96.6922597  83.0283217  60.0023905  98.8411748
  83.2049845  60.9241870  98.6532732  83.8240050  59.6882324  99.2706128
  87.1694235  46.8632169 110.4395682  87.9103949  47.4639323 110.3600144
  87.4012158  46.1209807 109.8813724  82.3135573  52.0488537 108.7173911
  82.1989088  51.1473794 109.0181010  81.4580091  52.2952233 108.3658728
  89.3927411  59.9906277 110.3161412  88.9491265  59.2042656 109.9982317
  90.0544625  60.1785428 109.6505303  84.1514532  61.5202079 104.8422091
  84.7021957  61.3919142 104.0699085  83.3126008  61.8196968 104.4916983
  91.4908649  60.2709077 108.3442813  91.4727124  61.0917958 107.8523083
  92.4128569  60.1463152 108.5692955  87.9481703  57.7853206 109.1866322
  88.4810040  57.0241495 108.9565630  87.4195784  57.4926858 109.9290476
  91.1151398  42.8913272 104.7159963  90.7715668  43.7814914 104.6399074
  91.4830361  42.7014930 103.8529548  79.1837249  55.2146803  97.5348566
  80.0212471  55.6243811  97.3182273  79.3615516  54.2746245  97.5048759
  91.0801681  52.8821884  93.2232399  90.5648304  53.6526488  93.4620786
  90.8078989  52.2087020  93.8465460  88.6648792  47.7271584  98.2817637
  87.8090388  47.3378435  98.1023276  89.0775744  47.8063545  97.4217422
  90.1947939  45.2617928 102.6809197  89.6912734  45.2248063 101.8677002
  90.4878545  46.1710670 102.7405853  86.4390824  45.3456657 101.6875378
  87.3043821  45.1499466 101.3281268  86.5068333  45.1167009 102.6144735
  96.0535955  55.6354238  95.1585572  95.2765398  55.2965398  94.7140734
  96.7327436  55.6406861  94.4840537  90.8687984  50.7548976  95.0492180
  90.5638120  51.0695125  95.9002323  91.8218426  50.8330396  95.0919513
  89.3134416  56.9139199  96.6985134  88.7855777  56.1791959  96.3858371
  88.8121919  57.6913875  96.4525102  94.2927262  55.1088219 101.8152180
  93.6350936  55.7987481 101.9032309  95.0967661  55.4984651 102.1586166
  84.0453144  47.5758865  99.0591745  84.6196895  47.3534047  98.3264938
  84.6324126  47.6447560  99.8120347  93.1032721  53.4632592  99.8656122
  93.6164602  54.0962584 100.3677832  93.7533945  52.8633788  99.4999482
  84.3722731  49.6063326  93.0787631  83.5360043  49.9438013  93.3996905
  84.2327500  49.4712306  92.1414767  86.3475811  44.4500114  97.7866815
  85.6940224  44.1349131  97.1623429  86.3056285  43.8275855  98.5126638
  87.4587016  54.7319409  89.7020107  86.5514078  54.5008663  89.9011256
  87.9558048  53.9357028  89.8894088  90.3655095  63.4416916  92.6216793
  89.6916794  63.7448613  93.2301751  90.7520917  64.2445997  92.2722250
  89.5813552  50.9382048 102.1114462  88.6636113  51.1596995 101.9536150
  89.9973695  51.0128358 101.2526170  90.3648599  52.3373463  97.2417143
  91.1120418  52.8494861  96.9324265  90.6340189  52.0157516  98.1021536
  88.6375250  54.8332004  94.2244097  87.7286469  54.5491037  94.3216567
  88.6670333  55.2531083  93.3647404  93.8694517  58.4438594  97.9935264
  93.4156844  57.6029503  98.0500455  93.2388484  59.0799992  98.3310045
  92.8127437  49.3730580  99.2235932  92.0750193  48.8607966  99.5546174
  93.0654210  48.9330961  98.4119209  92.3127456  60.2815090  98.9285083
  92.6050431  60.8420147  98.2097448  92.8226077  60.5743651  99.6838242
  92.9139064  42.1506832  99.8177701  93.2197941  41.2904195  99.5303616
  93.6391669  42.7424452  99.6176695  79.2063420  52.5537518  98.2059299
  79.0087820  51.9606879  97.4810366  78.6510084  52.2489728  98.9235238
  87.1860144  52.4460625 100.3253892  87.2408753  51.4934461 100.2496369
  86.3751346  52.6020064 100.8095191  88.3351337  56.3740748  91.5632175
  87.8970767  55.6576607  91.1037813  89.0761778  56.6016863  91.0017267
  85.1252503  51.0637684  98.0844271  84.3120369  51.3631855  98.4909463
  85.6211498  50.6693373  98.8018753  87.2761081  61.0595441 100.0178536
  87.2337260  61.2856288  99.0887068  88.1923780  60.8258816 100.1664337
  90.7226715  51.5279509 106.9159165  91.0776103  51.7550982 107.7753631
  91.3698846  51.8597886 106.2936420  96.4524452  54.6497945  97.6208494
  96.3142351  54.8399541  96.6929683  96.0960671  55.4117328  98.0776545
  84.6166578  48.6356040 103.7005506  85.2565958  48.4944799 103.0028469
  83.7844109  48.3490553 103.3244108  96.4793832  56.7174472 102.6319766
  96.9130338  56.6249761 103.4802820  97.1925412  56.6931972 101.9939782
  85.3926882  57.9358470  99.8140498  86.1867481  57.4408790  99.6123073
  84.6818575  57.4076333  99.4508204  90.2121727  60.3176566 104.1652866
  90.2658749  60.8867502 104.9330582  89.3436508  60.4878451 103.8006903
  81.7009646  52.0801552  95.8900251  80.7707234  52.0186008  96.1070213
  81.7967118  51.5577505  95.0936892  81.6195195  48.6056365  98.4778493
  81.8802012  49.5201698  98.3687653  82.4412367  48.1380807  98.6275106
  83.0920120  50.0194122 105.6477317  83.7643173  49.8111484 104.9989966
  82.2649907  49.8216208 105.2082550  97.3409381  56.7598172 105.1652651
  97.5345271  57.6643983 105.4111926  97.2409999  56.3005592 105.9991236
  88.9945692  46.6456063 107.6642978  88.3473607  47.3446013 107.5707455
  89.7646707  47.0792207 108.0319226  92.4024490  56.9104915 110.7393532
  92.2509996  56.6815467 109.8223615  92.3929169  57.8675517 110.7524877
  89.1709826  54.4836828 105.7239798  90.1001886  54.6347988 105.5508765
  88.7500856  54.5720849 104.8688444  87.9698158  58.5087492 103.4938336
  87.8309244  58.1406277 104.3664274  87.1812754  59.0235132 103.3222293
  88.5646310  63.6096589  94.8363872  88.7398066  63.1384632  95.6509495
  87.8779098  64.2362355  95.0645133  89.5203373  57.8869095 100.8827173
  89.1853206  57.8469865 101.7784823  89.0207319  57.2213811 100.4097584
  83.4947617  53.2936725 106.4079755  83.3567415  52.5616964 107.0091294
  84.4052541  53.2045625 106.1263942  92.4562565  55.2325129  91.1564233
  91.8391736  54.5071958  91.0597286  91.9879053  55.9934490  90.8131307
  86.1229918  53.0056684 105.8963434  86.8329536  52.3649877 105.8550053
  86.0799226  53.2569579 106.8189615  94.1116697  59.9424038 108.8170013
  94.0529243  59.2583258 108.1500596  94.5136215  60.6843028 108.3650639
  84.8358852  49.9921902 107.7159074  84.2996209  49.5412641 108.3680670
  84.2475560  50.1267811 106.9729538  83.1307395  66.7585952 101.6103732
  83.3703994  67.3904476 102.2882751  82.2876592  66.4073992 101.8969092
  84.2461111  49.4510554  90.2785537  83.3690577  49.3299354  89.9147784
  84.7218864  48.6596632  90.0264426  94.1134104  57.9063622 107.0483993
  93.2260883  57.5689543 107.1710392  94.6832655  57.1746653 107.2852758
  75.7663251  54.2387713 100.3727044  76.4534291  53.9249443  99.7848060
  75.6111380  55.1429078 100.0994296  80.5697973  49.1277910 104.8012068
  80.4856162  48.5203580 104.0662478  79.7480680  49.6186928 104.8021564
  87.6435257  62.5665074 104.0145236  87.5705429  63.3720046 104.5264541
  87.2012650  62.7657040 103.1893258  87.4325037  61.8036844  97.5248058
  86.6492559  62.3458524  97.6186282  88.1317782  62.3210824  97.9242299
  90.7421687  47.6131474 100.1682263  91.2390387  46.8601436  99.8483333
  89.9708669  47.6495790  99.6025473  98.5951444  53.3171839 101.8100555
  98.5841321  54.1996554 101.4394488  97.7268824  52.9643390 101.6155092
  90.1033941  62.4651908 106.1703395  90.8161913  63.0999373 106.0979296
  89.6123969  62.5615774 105.3543397  91.8251468  56.3703161  97.7420687
  90.8907746  56.4904623  97.5725391  92.0028136  55.4675627  97.4780696
  87.3256656  49.7548856  99.8953948  86.9554443  49.2019897 100.5834853
  87.8215748  49.1506990  99.3428948  95.2124019  52.2120480  98.2770721
  95.6784471  53.0448472  98.2031023  95.6631520  51.7465462  98.9815979
  85.1545854  60.2146352 106.9908966  85.8555314  60.8482834 107.1438360
  84.6840969  60.5561083 106.2304605  93.2800250  58.5564301  95.2756873
  93.5560094  58.4420896  96.1850747  92.4104749  58.1581786  95.2369046
  93.1840682  44.5801067 102.3161622  92.2703762  44.8105294 102.4843829
  93.6133783  44.6639511 103.1675654  92.9547140  52.7690959 104.8161516
  92.3018591  53.0166866 104.1613969  93.3327520  51.9555097 104.4823993
  89.9154314  62.8050652  98.9189686  90.0976709  61.9872308  99.3817439
  90.7387300  63.0218344  98.4814576  90.2496480  61.7318837  96.1804735
  90.7784246  61.2211292  95.5674897  90.5124699  61.4161367  97.0450268
  89.0034713  53.5110770 111.3027553  88.3275350  53.4104899 111.9729928
  89.8262347  53.3549984 111.7663550  80.7513572  59.7482707 103.9240068
  81.3367009  59.0026394 104.0567973  80.5538411  60.0586663 104.8076732
  83.6052228  62.7833954  98.9402511  82.9362603  63.2680082  98.4566551
  83.4665097  63.0303174  99.8545889  75.3431227  52.3188307 102.6444512
  75.3815327  51.7851897 103.4381630  74.8371520  51.7923512 102.0255489
  87.7457496  64.8177697 105.5385169  88.2975804  64.9809319 106.3034254
  88.0863690  65.4082135 104.8665194  82.7221989  47.1652847 106.1407054
  82.7863316  48.0267678 105.7284452  82.6589110  46.5526849 105.4079412
  82.1974262  49.2375980 109.7880088  82.8246301  48.8553057 110.4017612
  81.3402181  49.0190182 110.1535781  92.5968371  59.6438955 111.3933824
  93.1408274  60.2568913 110.8988778  92.0155215  60.2018533 111.9100837
  78.9739805  51.0452409  95.7198443  79.2693246  50.1363087  95.6665497
  78.0727840  51.0240148  95.3979445  90.8825883  62.7659673 102.5248851
  90.7577023  61.9649413 102.0159797  91.5404975  63.2605866 102.0362821
  82.5034052  49.1208405 101.7025992  81.7820637  49.7344373 101.5633465
  83.2927307  49.6566170 101.6242637  92.9460792  60.5668693 104.1528401
  91.9991127  60.4474044 104.0806728  93.2943565  59.6791191 104.2354663
  85.3060365  46.4562832 107.9766643  85.8294767  46.7025129 108.7392953
  85.0872698  47.2882867 107.5569781  80.7027646  48.7266507  95.8437768
  80.3740352  47.8463886  95.6612874  81.0567017  48.6714175  96.7314157
  89.9507225  60.3621409 100.3532754  89.8032188  59.4338117 100.5340324
  90.7760719  60.3841500  99.8689829  83.8169469  49.0139476  96.2113246
  84.1565542  49.5425398  95.4891854  84.2641590  49.3519883  96.9871812
  93.5541347  61.1849968 101.4397626  94.4787894  60.9792829 101.3022078
  93.3856650  60.9366369 102.3486968  86.5112910  47.3976527 105.6616314
  86.1709731  46.5984340 106.0636994  85.8051917  47.6978238 105.0893147
  87.1629382  44.4825840 104.1143637  87.9855451  44.0086318 103.9922527
  87.4067446  45.2616323 104.6142323  85.8037617  47.5114098  94.4106539
  86.5245979  47.8895351  93.9070255  85.1802921  48.2302975  94.5141517
  89.9468739  48.2159247  95.3464871  90.1632354  49.0983885  95.0453699
  89.4662807  47.8245460  94.6170513  84.6867961  51.1744960 101.9235615
  84.5412542  51.4885263 102.8159897  84.2093164  51.7929860 101.3706514
  86.5464344  48.1647508 101.9716505  86.5325912  47.2688601 101.6348803
  87.2636772  48.1718172 102.6054791  88.3990474  48.5984848 104.0169632
  88.1408252  49.5201919 104.0153963  87.8675515  48.2015283 104.7070097
  93.3436663  61.7035635  96.7959718  93.5173541  61.1382058  96.0433570
  93.8365554  62.5036530  96.6139208  79.1613623  53.7150305 104.8623277
  78.6167091  54.4910113 104.9943551  80.0392973  54.0621109 104.7042398
  85.9501240  47.0461888  97.2404075  86.0717151  46.1178535  97.4394963
  85.6603282  47.0600574  96.3282391  88.8192430  44.7316799 100.3770795
  88.8414127  44.7956132  99.4222775  89.2360489  43.8921308 100.5711301
  99.1976054  54.4672058  98.4150018  99.6407200  53.7179384  98.0169141
  98.3202565  54.4582195  98.0323750  94.3311836  61.0202400  93.8956616
  95.0262740  61.6409093  94.1143931  94.6734986  60.1697751  94.1708994
  79.9479645  52.8420201 107.7553434  79.2061381  52.9902836 108.3418064
  79.6272389  53.1028466 106.8920183  96.2303259  58.4702105  95.4243947
  96.7554583  58.8089378  94.6993267  96.1425611  57.5349121  95.2407082
  87.8923308  62.3836179 107.5533824  88.2010434  62.1385326 108.4256523
  88.6898790  62.5882818 107.0652694  87.9143920  64.5374089  99.7839200
  87.4748910  64.0450467 100.4772057  88.6652037  63.9947056  99.5431275
  80.3936259  60.7285630  99.7863828  81.2194278  60.4289401  99.4062472
  80.0430311  59.9593252 100.2353617  85.3617792  60.0812098 101.8561502
  84.7397801  59.4182803 101.5563730  86.0322659  60.1073230 101.1735150
  78.5944864  58.6471956 100.7452762  77.7576772  58.2194130 100.5636763
  78.5668509  58.8404399 101.6823553  85.4342319  48.5593886 111.4494008
  85.4830475  49.4356009 111.0671777  85.9764833  48.0171279 110.8765651
  95.9197165  59.1035009 110.7295145  95.1292709  59.0859148 110.1899644
  95.6830519  59.6423303 111.4844181  96.0395040  55.9527475 108.0427873
  96.0893045  55.7877483 108.9843396  95.9308963  55.0854734 107.6525754
  84.9231299  58.6316021  95.3319962  85.0719419  59.3151486  94.6786635
  85.7297742  58.6121111  95.8469418  93.3298802  51.9358403 109.3587180
  94.2308665  51.7964868 109.0671178  93.4046777  52.1012858 110.2985358
  87.6641608  49.3125258 108.2040366  86.7944917  49.6058824 107.9322955
  87.9001088  49.8965703 108.9247630  97.5413237  58.3724417 108.2869895
  97.2498045  58.7354397 109.1233356  96.9285368  57.6591425 108.1083227
  98.7408919  55.9377297 100.8072465  99.5755810  56.3767101 100.9710026
  98.8768048  55.4615950  99.9880711  95.7900425  53.4957032 106.7549953
  96.2654547  53.6884678 105.9468804  94.8665990  53.5516217 106.5093337
  82.6783932  54.6581199  96.3381031  82.4329974  53.7543529  96.5361241
  82.8479846  54.6598349  95.3960509  90.3680641  45.5304875 105.7205787
  90.8862585  46.2665902 105.3952275  90.0135774  45.8368868 106.5552546
  81.9479579  50.3909556  93.8367193  81.2548824  50.4653911  93.1807229
  81.7031331  49.6269900  94.3588710  90.6193236  41.9505158 101.2406683
  90.8994989  41.2828347 101.8667110  91.4043843  42.1434253 100.7281347
  88.4226704  61.1264152  92.8031710  87.8500671  61.7454339  92.3502182
  88.9959498  61.6763513  93.3371632  94.4902094  50.3722792 104.9878259
  95.4419517  50.4720889 105.0090483  94.3205544  49.5801060 105.4976343
  92.5116473  47.4578375 105.1737659  91.9166406  47.7383388 104.4784148
  92.2266170  47.9472276 105.9454401  91.6423964  61.4101302  93.9340292
  92.5754637  61.3446863  94.1373168  91.5547177  62.2457569  93.4754825
  94.2711981  60.7267172  90.8944240  94.1925612  60.3927036  91.7879997
  95.0921647  61.2188940  90.8935712  96.9690172  53.5928911 104.1020558
  96.9366492  52.6544912 104.2880242  97.5790795  53.6712948 103.3686383
  88.8073503  52.4624964  90.1447762  89.7532607  52.3331172  90.2136180
  88.4287748  51.7239626  90.6217190  97.1184660  50.3839955 104.1478841
  96.6023709  49.5998411 103.9608770  98.0024609  50.0558671 104.3125361
  94.7795387  44.1280970 100.1074654  94.5820208  43.8196059 100.9917986
  95.3895093  44.8542609 100.2372584 102.7866722  54.6544918 103.2426595
 103.5170110  54.3930206 103.8034298 102.1773667  53.9173640 103.2828663
 100.8682019  52.7952781 103.8401046 100.1415182  52.6608746 103.2317538
 100.4529306  53.1029609 104.6457764  88.6912195  56.5142710 111.6048419
  89.6115205  56.6921309 111.7988466  88.6561778  55.5698756 111.4528118
  86.9916420  50.3874941  90.0802647  86.0847875  50.0908053  90.1565361
  87.2692401  50.0904759  89.2136934  77.9094360  51.7081304 100.5301694
  77.5897145  50.8546612 100.2376068  77.3627788  51.9229882 101.2859661
  81.6874268  54.4243745 104.2471200  81.9060278  55.3560853 104.2659234
  82.1000042  54.0651720 105.0326004  88.6078486  44.9311830  96.2346889
  87.7979214  44.5858915  96.6102135  89.2962902  44.6219374  96.8234500
  90.5369034  44.0089877  97.8571185  91.0900072  44.4285331  98.5161208
  90.7739120  43.0825625  97.8994141  86.5602133  49.9976951 113.6373949
  86.4598860  50.9471308 113.5686040  86.3423675  49.6695190 112.7650019
  85.7615204  47.2461876  90.2214627  86.6234368  47.5716774  90.4810444
  85.9465549  46.4593372  89.7087692  77.7782620  55.3284216 102.4994815
  77.0846092  54.9138168 101.9864770  78.5255611  55.3704752 101.9028234
  93.9147841  46.1190402  97.3649850  93.3346510  46.7775206  96.9827902
  93.6483774  45.2967747  96.9537267  92.3651407  45.5195460  99.5671170
  92.8651186  45.6311995  98.7585489  93.0087015  45.2156513 100.2071978
  86.4233403  53.4274090 112.4539011  85.9400485  54.2274450 112.6602900
  86.5094342  53.4382035 111.5006455  79.6919363  55.2602469 100.3760830
  79.6690051  55.3590157  99.4242713  80.0019999  56.1067620 100.6977996
  82.3506741  57.3178624 104.4907445  83.3049994  57.2862567 104.4237376
  82.1519264  56.8569248 105.3057671  82.9406123  55.8879740 107.0578242
  83.7599012  56.3823819 107.0813080  83.2142930  54.9711709 107.0295810
  92.6972719  48.2790493  96.4206198  91.8098574  48.5640143  96.2026393
  93.1126708  48.1184256  95.5733475  96.0487255  48.3037014 100.1360537
  96.8247645  48.7933466 100.4085154  95.3235389  48.7295068 100.5932407
  98.4859814  49.0164633 101.1934478  99.0804304  48.7760369 100.4827786
  98.5586397  48.2971764 101.8208014  80.7056969  62.8598244 101.5077643
  80.5711437  62.0998645 100.9415641  80.2889032  63.5839144 101.0406431
  91.8415932  58.0435167  90.5154218  92.5451783  58.2485170  91.1311873
  91.1178581  58.6111929  90.7803301  92.6713743  53.7945029  96.6356488
  92.6148944  54.2513580  95.7964120  93.2242085  53.0335713  96.4579331
  96.4818549  49.5834761  97.4606608  96.2255483  49.1831396  98.2914815
  95.8571417  50.2978555  97.3356747 100.7930886  52.3230834  99.9677899
 100.2330444  52.3924023 100.7409461 100.1874390  52.1471818  99.2477395
  83.8626095  63.7567561 101.7196085  83.7458479  64.7012993 101.6174775
  83.0418542  63.4541122 102.1081884  93.7502630  58.4817697  92.5652678
  94.5848234  58.0498895  92.3830153  93.5886973  58.3099710  93.4929572
  93.4048522  54.9849810  93.9309017  93.3497326  54.8194081  92.9897461
  92.7794577  55.6925843  94.0871207  78.1941037  50.2217874 107.7570439
  78.8399901  49.7116828 108.2457665  77.9858188  50.9586556 108.3313865
  90.7194429  57.2898722 113.2562580  91.5885589  57.4639374 112.8949215
  90.2401181  58.1093139 113.1338309  86.7144647  44.4857919  93.5094336
  86.7023317  45.4299759  93.6662606  87.6068069  44.3028064  93.2153797
  84.8880609  64.4095823 104.9352014  85.7907856  64.4419433 105.2518509
  84.6617979  63.4796274 104.9498349  86.6434211  63.1626809 101.5962092
  85.6929842  63.1628671 101.4826465  86.9466698  62.4159544 101.0798127
  90.5296767  41.0800696  97.7640272  89.7629163  40.5259182  97.9096955
  90.9407472  41.1522564  98.6254424  82.5338528  47.3685491 111.8545454
  83.3969990  47.0122296 112.0648778  81.9603939  47.0299386 112.5420858
 102.3786905  68.9987348 102.6607855 103.0165315  68.8794095 101.9571195
 102.2607748  69.9468192 102.7195807  99.1876611  68.9514776 102.5969379
  98.8495123  68.8355841 101.7089914 100.0566379  68.5505941 102.5770386
  95.0463427  70.8050252  98.5866270  94.4828292  70.7140189  97.8182558
  94.9315822  69.9850157  99.0668763  99.6696394  70.1049628 108.5555585
  99.6585035  69.7102426 107.6836089  99.8317034  69.3715700 109.1489356
  92.5927859  72.3001444 101.4250491  93.3849151  71.9592269 101.0096790
  92.8324509  72.4096419 102.3452644 100.6262986  74.4721220  93.8980735
  99.9750965  75.0575300  93.5114749 101.4207348  75.0027415  93.9575773
  94.5518613  71.5610357  94.2967870  95.3249489  71.0139344  94.1580745
  94.9044012  72.4254606  94.5082331  96.3903655  72.8886739 107.5034769
  96.0993521  73.7932370 107.3881435  97.0260640  72.9303267 108.2178838
  97.3159862  70.2663588 104.0936129  97.9123434  70.0419610 103.3793091
  97.3734834  69.5248333 104.6961576  96.8884891  67.7203023  91.9286319
  97.1410411  67.1984545  91.1669782  95.9509450  67.5569169  92.0313003
 101.9328173  66.7238802  99.7361063 102.7191263  66.3058225  99.3851480
 102.1966878  67.6284894  99.9042711 102.1038251  72.1611652  94.4349720
 101.4684084  72.2346278  95.1470624 101.7735657  72.7505251  93.7568799
 107.3336601  66.6614035 100.6394041 108.0661772  66.0913252 100.8731871
 106.5775956  66.2735635 101.0800547  96.6081179  69.6231129  94.1310694
  96.4917437  68.9476033  94.7991779  96.7183439  69.1363503  93.3142847
  98.9512720  69.0841276  97.8357384  98.5870927  68.5571897  98.5470305
  99.8079836  68.6939745  97.6623869 104.8562021  60.3735609 105.0988650
 104.5245346  61.2431020 104.8749865 104.2607634  60.0571893 105.7782680
  98.5918207  64.1131176  92.8318732  98.7592610  64.9811412  93.1989203
  98.4015376  64.2758458  91.9080021 101.3493540  72.5748155 104.4984563
 101.0494263  73.4773194 104.3900370 101.0044600  72.3080338 105.3505715
  94.8006022  69.0261952 100.5321267  93.8756518  68.8938166 100.7398959
  95.0490435  69.8056171 101.0291209 104.7490684  65.0930695 102.1782000
 103.8407562  65.0246104 101.8840761 104.6978280  65.5702640 103.0063825
  98.5707428  66.5688833  93.8165399  98.4507053  67.0145884  94.6550879
  97.8760016  66.9174151  93.2578937  92.1614833  68.6695225 101.3665056
  92.2907214  68.9229704 102.2804468  91.4812284  69.2622933 101.0469711
  96.3314320  79.3392475  97.4655530  96.2538350  80.2900300  97.5444011
  95.7275964  78.9938348  98.1230457  98.8231550  66.5120341 110.1216897
  98.0464884  67.0714261 110.1119762  99.4622113  66.9977124 110.6431767
 106.6152331  63.2947133 103.9559874 105.9726711  63.5879667 103.3099668
 106.1107259  63.1800054 104.7613070 104.2692494  67.0410307  94.6445733
 105.1810350  67.2737693  94.4693431 103.7602141  67.6247351  94.0820812
  97.0777922  69.3205794 109.6834864  97.8192607  69.8590838 109.4069688
  96.3714908  69.9472083 109.8406416 102.5533262  71.4634935 108.2807026
 102.9616618  71.0217345 107.5361658 101.8310523  70.8887562 108.5341219
  98.9064332  66.4007541 105.6540583  99.7525527  66.8246955 105.7975232
  98.8462970  65.7441166 106.3479146 102.8762077  72.0236125 102.0359315
 102.2470939  72.1881839 101.3335382 102.4887739  72.4377735 102.8070279
 106.7551308  72.9590563  99.3903678 106.0702347  73.3389464  98.8400712
 106.8395158  73.5685890 100.1235626 102.0563777  64.0611910 107.3121756
 101.8124709  64.8153970 106.7756032 102.3323708  64.4397257 108.1469003
 104.0102240  70.6050522 105.9899022 104.2219135  71.2482282 105.3133403
 103.9631988  69.7712839 105.5220952 101.6128469  63.2168343 102.8935594
 100.7512948  63.5149596 103.1852332 101.6390904  63.4338742 101.9616627
  98.4290038  71.7610533  99.3009400  98.8928384  72.0398236  98.5114022
  98.1646837  70.8593978  99.1182490  95.3214119  71.3082015 102.2389163
  95.8915477  71.7369283 101.6006647  95.9122231  71.0264599 102.9373349
  97.3658924  67.8833686  96.1098965  98.0682968  68.3354729  96.5772891
  97.0339553  67.2417504  96.7378858  95.8139286  66.4745442 110.4850174
  95.1837947  67.1561723 110.7185571  95.7075374  66.3628524 109.5403312
  91.1084258  66.1417238 101.4116098  90.3183312  66.3974767 100.9356209
  91.5995506  66.9565576 101.5168139 105.1248068  73.4822477 104.1621379
 105.9465512  73.0802665 103.8804061 105.1210471  73.3790712 105.1137495
  93.0599004  66.5061817  98.3699575  92.2630167  66.6180512  98.8883071
  92.8324596  66.8448470  97.5040466  98.8904671  73.0306521 106.3182090
  98.9549104  73.4926928 107.1540262  98.1815595  72.4003886 106.4464400
  89.3921961  66.3947729 103.8431089  89.6430000  67.2794739 104.1088665
  89.9281510  66.2152330 103.0706181 113.2154061  69.8261226 100.5106351
 112.4617769  69.2568624 100.3550355 113.3501602  69.7923890 101.4576985
  98.6052689  74.6974628  96.1861070  98.4698364  75.5426164  96.6145918
  99.1462502  74.8993906  95.4227004  95.0920029  60.7766208 112.8475425
  94.6986974  60.2232407 113.5223069  95.9086169  61.0876787 113.2381943
  92.0582086  72.2150066  96.7588995  92.5706607  73.0093316  96.9094560
  92.7104799  71.5176357  96.6922597  93.8676971  75.3315823  98.8411748
  94.0443600  76.2533787  98.6532732  94.6633805  75.0174242  99.2706128
  98.0087990  62.1924087 110.4395682  98.7497703  62.7931240 110.3600144
  98.2405913  61.4501725 109.8813724  93.1529328  67.3780454 108.7173911
  93.0382843  66.4765712 109.0181010  92.2973845  67.6244151 108.3658728
 100.2321165  75.3198195 110.3161412  99.7885020  74.5334573 109.9982317
 100.8938379  75.5077345 109.6505303  94.9908287  76.8493996 104.8422091
  95.5415712  76.7211060 104.0699085  94.1519763  77.1488885 104.4916983
 102.3302404  75.6000995 108.3442813 102.3120879  76.4209876 107.8523083
 103.2522324  75.4755070 108.5692955  98.7875458  73.1145124 109.1866322
  99.3203794  72.3533412 108.9565630  98.2589539  72.8218776 109.9290476
 101.9545153  58.2205190 104.7159963 101.6109422  59.1106832 104.6399074
 102.3224115  58.0306848 103.8529548  90.0231003  70.5438721  97.5348566
  90.8606225  70.9535729  97.3182273  90.2009271  69.6038163  97.5048759
 101.9195435  68.2113801  93.2232399 101.4042059  68.9818406  93.4620786
 101.6472744  67.5378937  93.8465460  99.5042546  63.0563502  98.2817637
  98.6484143  62.6670352  98.1023276  99.9169498  63.1355463  97.4217422
 101.0341693  60.5909845 102.6809197 100.5306489  60.5539980 101.8677002
 101.3272300  61.5002588 102.7405853  97.2784579  60.6748575 101.6875378
  98.1437576  60.4791384 101.3281268  97.3462088  60.4458927 102.6144735
 106.8929710  70.9646156  95.1585572 106.1159152  70.6257315  94.7140734
 107.5721190  70.9698779  94.4840537 101.7081739  66.0840893  95.0492180
 101.4031874  66.3987042  95.9002323 102.6612181  66.1622313  95.0919513
 100.1528170  72.2431117  96.6985134  99.6249532  71.5083876  96.3858371
  99.6515673  73.0205793  96.4525102 105.1321016  70.4380137 101.8152180
 104.4744691  71.1279398 101.9032309 105.9361416  70.8276569 102.1586166
  94.8846898  62.9050783  99.0591745  95.4590650  62.6825964  98.3264938
  95.4717880  62.9739477  99.8120347 103.9426475  68.7924510  99.8656122
 104.4558357  69.4254502 100.3677832 104.5927699  68.1925705  99.4999482
  95.2116485  64.9355244  93.0787631  94.3753797  65.2729930  93.3996905
  95.0721255  64.8004224  92.1414767  97.1869566  59.7792032  97.7866815
  96.5333978  59.4641049  97.1623429  97.1450040  59.1567772  98.5126638
  98.2980771  70.0611327  89.7020107  97.3907832  69.8300580  89.9011256
  98.7951803  69.2648946  89.8894088 101.2048849  78.7708834  92.6216793
 100.5310548  79.0740531  93.2301751 101.5914671  79.5737914  92.2722250
 100.4207306  66.2673965 102.1114462  99.5029867  66.4888912 101.9536150
 100.8367450  66.3420276 101.2526170 101.2042354  67.6665381  97.2417143
 101.9514173  68.1786778  96.9324265 101.4733943  67.3449434  98.1021536
  99.4769004  70.1623922  94.2244097  98.5680223  69.8782955  94.3216567
  99.5064088  70.5823000  93.3647404 104.7088271  73.7730511  97.9935264
 104.2550599  72.9321421  98.0500455 104.0782238  74.4091910  98.3310045
 103.6521191  64.7022497  99.2235932 102.9143948  64.1899883  99.5546174
 103.9047965  64.2622879  98.4119209 103.1521211  75.6107008  98.9285083
 103.4444185  76.1712065  98.2097448 103.6619831  75.9035569  99.6838242
 103.7532818  57.4798749  99.8177701 104.0591695  56.6196113  99.5303616
 104.4785423  58.0716369  99.6176695  90.0457174  67.8829436  98.2059299
  89.8481574  67.2898797  97.4810366  89.4903838  67.5781646  98.9235238
  98.0253898  67.7752542 100.3253892  98.0802508  66.8226379 100.2496369
  97.2145100  67.9311981 100.8095191  99.1745092  71.7032665  91.5632175
  98.7364522  70.9868524  91.1037813  99.9155533  71.9308780  91.0017267
  95.9646258  66.3929602  98.0844271  95.1514124  66.6923773  98.4909463
  96.4605252  65.9985291  98.8018753  98.1154836  76.3887359 100.0178536
  98.0731015  76.6148205  99.0887068  99.0317535  76.1550734 100.1664337
 101.5620470  66.8571427 106.9159165 101.9169857  67.0842900 107.7753631
 102.2092601  67.1889803 106.2936420 107.2918207  69.9789862  97.6208494
 107.1536105  70.1691458  96.6929683 106.9354425  70.7409245  98.0776545
  95.4560333  63.9647958 103.7005506  96.0959712  63.8236717 103.0028469
  94.6237863  63.6782471 103.3244108 107.3187586  72.0466389 102.6319766
 107.7524093  71.9541679 103.4802820 108.0319167  72.0223890 101.9939782
  96.2320637  73.2650388  99.8140498  97.0261235  72.7700708  99.6123073
  95.5212329  72.7368251  99.4508204 101.0515481  75.6468484 104.1652866
 101.1052503  76.2159420 104.9330582 100.1830262  75.8170369 103.8006903
  92.5403400  67.4093470  95.8900251  91.6100988  67.3477925  96.1070213
  92.6360872  66.8869423  95.0936892  92.4588949  63.9348283  98.4778493
  92.7195766  64.8493616  98.3687653  93.2806121  63.4672725  98.6275106
  93.9313874  65.3486040 105.6477317  94.6036928  65.1403402 104.9989966
  93.1043661  65.1508126 105.2082550 108.1803136  72.0890090 105.1652651
 108.3739026  72.9935901 105.4111926 108.0803754  71.6297509 105.9991236
  99.8339447  61.9747981 107.6642978  99.1867362  62.6737930 107.5707455
 100.6040462  62.4084125 108.0319226 103.2418244  72.2396833 110.7393532
 103.0903751  72.0107385 109.8223615 103.2322924  73.1967434 110.7524877
 100.0103581  69.8128746 105.7239798 100.9395641  69.9639905 105.5508765
  99.5894611  69.9012766 104.8688444  98.8091913  73.8379410 103.4938336
  98.6702998  73.4698194 104.3664274  98.0206509  74.3527049 103.3222293
  99.4040065  78.9388506  94.8363872  99.5791820  78.4676550  95.6509495
  98.7172853  79.5654273  95.0645133 100.3597128  73.2161013 100.8827173
 100.0246960  73.1761783 101.7784823  99.8601073  72.5505729 100.4097584
  94.3341372  68.6228643 106.4079755  94.1961170  67.8908882 107.0091294
  95.2446295  68.5337543 106.1263942 103.2956319  70.5617047  91.1564233
 102.6785490  69.8363875  91.0597286 102.8272808  71.3226407  90.8131307
  96.9623672  68.3348602 105.8963434  97.6723291  67.6941794 105.8550053
  96.9192981  68.5861497 106.8189615 104.9510451  75.2715955 108.8170013
 104.8922997  74.5875176 108.1500596 105.3529969  76.0134945 108.3650639
  95.6752606  65.3213820 107.7159074  95.1389963  64.8704558 108.3680670
  95.0869315  65.4559729 106.9729538  93.9701150  82.0877869 101.6103732
  94.2097748  82.7196393 102.2882751  93.1270346  81.7365909 101.8969092
  95.0854865  64.7802471  90.2785537  94.2084332  64.6591272  89.9147784
  95.5612618  63.9888550  90.0264426 104.9527858  73.2355539 107.0483993
 104.0654637  72.8981461 107.1710392 105.5226409  72.5038571 107.2852758
  86.6057005  69.5679631 100.3727044  87.2928045  69.2541361  99.7848060
  86.4505134  70.4720996 100.0994296  91.4091728  64.4569828 104.8012068
  91.3249916  63.8495497 104.0662478  90.5874434  64.9478846 104.8021564
  98.4829012  77.8956992 104.0145236  98.4099183  78.7011963 104.5264541
  98.0406405  78.0948958 103.1893258  98.2718791  77.1328762  97.5248058
  97.4886313  77.6750442  97.6186282  98.9711537  77.6502741  97.9242299
 101.5815441  62.9423391 100.1682263 102.0784141  62.1893354  99.8483333
 100.8102423  62.9787708  99.6025473 109.4345199  68.6463757 101.8100555
 109.4235075  69.5288472 101.4394488 108.5662578  68.2935308 101.6155092
 100.9427695  77.7943826 106.1703395 101.6555667  78.4291291 106.0979296
 100.4517724  77.8907692 105.3543397 102.6645222  71.6995078  97.7420687
 101.7301501  71.8196541  97.5725391 102.8421891  70.7967545  97.4780696
  98.1650410  65.0840774  99.8953948  97.7948198  64.5311815 100.5834853
  98.6609503  64.4798908  99.3428948 106.0517774  67.5412398  98.2770721
 106.5178226  68.3740389  98.2031023 106.5025274  67.0757379  98.9815979
  95.9939609  75.5438269 106.9908966  96.6949068  76.1774752 107.1438360
  95.5234724  75.8853001 106.2304605 104.1194005  73.8856219  95.2756873
 104.3953849  73.7712814  96.1850747 103.2498503  73.4873704  95.2369046
 104.0234436  59.9092985 102.3161622 103.1097516  60.1397212 102.4843829
 104.4527538  59.9931429 103.1675654 103.7940895  68.0982877 104.8161516
 103.1412345  68.3458784 104.1613969 104.1721275  67.2847015 104.4823993
 100.7548069  78.1342570  98.9189686 100.9370463  77.3164226  99.3817439
 101.5781055  78.3510262  98.4814576 101.0890234  77.0610755  96.1804735
 101.6178001  76.5503210  95.5674897 101.3518454  76.7453285  97.0450268
  99.8428468  68.8402688 111.3027553  99.1669105  68.7396817 111.9729928
 100.6656102  68.6841901 111.7663550  91.5907327  75.0774624 103.9240068
  92.1760764  74.3318312 104.0567973  91.3932165  75.3878581 104.8076732
  94.4445982  78.1125872  98.9402511  93.7756357  78.5971999  98.4566551
  94.3058852  78.3595092  99.8545889  86.1824982  67.6480224 102.6444512
  86.2209081  67.1143815 103.4381630  85.6765274  67.1215430 102.0255489
  98.5851251  80.1469615 105.5385169  99.1369559  80.3101237 106.3034254
  98.9257444  80.7374053 104.8665194  93.5615744  62.4944765 106.1407054
  93.6257070  63.3559596 105.7284452  93.4982864  61.8818767 105.4079412
  93.0368016  64.5667897 109.7880088  93.6640055  64.1844975 110.4017612
  92.1795935  64.3482099 110.1535781  89.8133559  66.3744327  95.7198443
  90.1087000  65.4655005  95.6665497  88.9121595  66.3532066  95.3979445
 101.7219638  78.0951591 102.5248851 101.5970777  77.2941331 102.0159797
 102.3798729  78.5897784 102.0362821  93.3427806  64.4500323 101.7025992
  92.6214392  65.0636291 101.5633465  94.1321062  64.9858088 101.6242637
 103.7854546  75.8960611 104.1528401 102.8384882  75.7765962 104.0806728
 104.1337319  75.0083109 104.2354663  96.1454120  61.7854750 107.9766643
  96.6688522  62.0317046 108.7392953  95.9266453  62.6174784 107.5569781
  91.5421401  64.0558424  95.8437768  91.2134107  63.1755803  95.6612874
  91.8960771  64.0006093  96.7314157 100.7900980  75.6913327 100.3532754
 100.6425942  74.7630034 100.5340324 101.6154473  75.7133418  99.8689829
  94.6563224  64.3431394  96.2113246  94.9959296  64.8717315  95.4891854
  95.1035344  64.6811800  96.9871812 104.3935101  76.5141886 101.4397626
 105.3181649  76.3084747 101.3022078 104.2250405  76.2658287 102.3486968
  97.3506665  62.7268445 105.6616314  97.0103485  61.9276258 106.0636994
  96.6445671  63.0270156 105.0893147  98.0023137  59.8117757 104.1143637
  98.8249206  59.3378235 103.9922527  98.2461200  60.5908241 104.6142323
  96.6431371  62.8406016  94.4106539  97.3639734  63.2187268  93.9070255
  96.0196675  63.5594892  94.5141517 100.7862494  63.5451165  95.3464871
 101.0026108  64.4275802  95.0453699 100.3056561  63.1537378  94.6170513
  95.5261715  66.5036878 101.9235615  95.3806296  66.8177181 102.8159897
  95.0486919  67.1221778 101.3706514  97.3858098  63.4939426 101.9716505
  97.3719667  62.5980519 101.6348803  98.1030526  63.5010090 102.6054791
  99.2384229  63.9276766 104.0169632  98.9802007  64.8493837 104.0153963
  98.7069269  63.5307201 104.7070097 104.1830418  77.0327553  96.7959718
 104.3567295  76.4673976  96.0433570 104.6759309  77.8328448  96.6139208
  90.0007377  69.0442222 104.8623277  89.4560846  69.8202030 104.9943551
  90.8786727  69.3913027 104.7042398  96.7894994  62.3753806  97.2404075
  96.9110905  61.4470452  97.4394963  96.4997037  62.3892492  96.3282391
  99.6586185  60.0608717 100.3770795  99.6807881  60.1248050  99.4222775
 100.0754244  59.2213225 100.5711301 110.0369809  69.7963976  98.4150018
 110.4800955  69.0471301  98.0169141 109.1596319  69.7874112  98.0323750
 105.1705590  76.3494318  93.8956616 105.8656495  76.9701010  94.1143931
 105.5128740  75.4989669  94.1708994  90.7873399  68.1712119 107.7553434
  90.0455135  68.3194754 108.3418064  90.4666144  68.4320384 106.8920183
 107.0697013  73.7994023  95.4243947 107.5948337  74.1381296  94.6993267
 106.9819366  72.8641038  95.2407082  98.7317062  77.7128097 107.5533824
  99.0404188  77.4677244 108.4256523  99.5292544  77.9174735 107.0652694
  98.7537674  79.8666006  99.7839200  98.3142664  79.3742385 100.4772057
  99.5045791  79.3238974  99.5431275  91.2330013  76.0577547  99.7863828
  92.0588033  75.7581319  99.4062472  90.8824065  75.2885170 100.2353617
  96.2011546  75.4104015 101.8561502  95.5791555  74.7474720 101.5563730
  96.8716413  75.4365147 101.1735150  89.4338618  73.9763874 100.7452762
  88.5970526  73.5486048 100.5636763  89.4062264  74.1696317 101.6823553
  96.2736074  63.8885803 111.4494008  96.3224229  64.7647926 111.0671777
  96.8158588  63.3463197 110.8765651 106.8788794  71.2819393 108.0427873
 106.9286799  71.1169401 108.9843396 106.7702718  70.4146652 107.6525754
  95.7625053  73.9607939  95.3319962  95.9113173  74.6443403  94.6786635
  96.5691497  73.9413029  95.8469418 104.1692557  67.2650321 109.3587180
 105.0702420  67.1256786 109.0671178 104.2440531  67.4304776 110.2985358
  98.5035362  64.6417176 108.2040366  97.6338672  64.9350742 107.9322955
  98.7394843  65.2257621 108.9247630 108.3806991  73.7016335 108.2869895
 108.0891800  74.0646315 109.1233356 107.7679123  72.9883343 108.1083227
 109.5802674  71.2669214 100.8072465 110.4149565  71.7059018 100.9710026
 109.7161802  70.7907868  99.9880711 106.6294179  68.8248949 106.7549953
 107.1048301  69.0176596 105.9468804 105.7059745  68.8808135 106.5093337
  93.5177686  69.9873116  96.3381031  93.2723728  69.0835446  96.5361241
  93.6873601  69.9890267  95.3960509 101.2074396  60.8596793 105.7205787
 101.7256340  61.5957820 105.3952275 100.8529529  61.1660786 106.5552546
  92.7873334  65.7201474  93.8367193  92.0942579  65.7945829  93.1807229
  92.5425086  64.9561818  94.3588710 101.4586990  57.2797075 101.2406683
 101.7388744  56.6120264 101.8667110 102.2437597  57.4726171 100.7281347
  99.2620459  76.4556069  92.8031710  98.6894426  77.0746256  92.3502182
  99.8353252  77.0055431  93.3371632 105.3295848  65.7014709 104.9878259
 106.2813271  65.8012807 105.0090483 105.1599299  64.9092978 105.4976343
 103.3510228  62.7870293 105.1737659 102.7560160  63.0675305 104.4784148
 103.0659925  63.2764193 105.9454401 102.4817718  76.7393219  93.9340292
 103.4148392  76.6738781  94.1373168 102.3940931  77.5749486  93.4754825
 105.1105735  76.0559090  90.8944240 105.0319367  75.7218953  91.7879997
 105.9315402  76.5480858  90.8935712 107.8083926  68.9220829 104.1020558
 107.7760246  67.9836830 104.2880242 108.4184550  69.0004866 103.3686383
  99.6467257  67.7916882  90.1447762 100.5926362  67.6623090  90.2136180
  99.2681502  67.0531544  90.6217190 107.9578415  65.7131872 104.1478841
 107.4417463  64.9290329 103.9608770 108.8418363  65.3850589 104.3125361
 105.6189142  59.4572888 100.1074654 105.4213963  59.1487976 100.9917986
 106.2288847  60.1834527 100.2372584 113.6260476  69.9836836 103.2426595
 114.3563865  69.7222124 103.8034298 113.0167422  69.2465558 103.2828663
 111.7075773  68.1244698 103.8401046 110.9808937  67.9900663 103.2317538
 111.2923060  68.4321527 104.6457764  99.5305950  71.8434628 111.6048419
 100.4508959  72.0213227 111.7988466  99.4955533  70.8990673 111.4528118
  97.8310174  65.7166858  90.0802647  96.9241630  65.4199971  90.1565361
  98.1086155  65.4196676  89.2136934  88.7488115  67.0373222 100.5301694
  88.4290899  66.1838530 100.2376068  88.2021543  67.2521800 101.2859661
  92.5268022  69.7535663 104.2471200  92.7454032  70.6852771 104.2659234
  92.9393796  69.3943637 105.0326004  99.4472240  60.2603748  96.2346889
  98.6372968  59.9150833  96.6102135 100.1356657  59.9511292  96.8234500
 101.3762788  59.3381795  97.8571185 101.9293827  59.7577248  98.5161208
 101.6132875  58.4117543  97.8994141  97.3995888  65.3268869 113.6373949
  97.2992614  66.2763226 113.5686040  97.1817430  64.9987107 112.7650019
  96.6008959  62.5753794  90.2214627  97.4628123  62.9008692  90.4810444
  96.7859303  61.7885290  89.7087692  88.6176375  70.6576133 102.4994815
  87.9239846  70.2430086 101.9864770  89.3649366  70.6996670 101.9028234
 104.7541595  61.4482320  97.3649850 104.1740264  62.1067124  96.9827902
 104.4877528  60.6259665  96.9537267 103.2045162  60.8487378  99.5671170
 103.7044940  60.9603912  98.7585489 103.8480770  60.5448431 100.2071978
  97.2627158  68.7566007 112.4539011  96.7794239  69.5566368 112.6602900
  97.3488097  68.7673952 111.5006455  90.5313117  70.5894387 100.3760830
  90.5083805  70.6882074  99.4242713  90.8413754  71.4359538 100.6977996
  93.1900495  72.6470542 104.4907445  94.1443749  72.6154484 104.4237376
  92.9913019  72.1861166 105.3057671  93.7799877  71.2171658 107.0578242
  94.5992766  71.7115737 107.0813080  94.0536685  70.3003626 107.0295810
 103.5366473  63.6082410  96.4206198 102.6492328  63.8932061  96.2026393
 103.9520462  63.4476174  95.5733475 106.8881010  63.6328931 100.1360537
 107.6641400  64.1225384 100.4085154 106.1629144  64.0586986 100.5932407
 109.3253568  64.3456551 101.1934478 109.9198059  64.1052287 100.4827786
 109.3980152  63.6263681 101.8208014  91.5450724  78.1890162 101.5077643
  91.4105192  77.4290562 100.9415641  91.1282786  78.9131061 101.0406431
 102.6809687  73.3727085  90.5154218 103.3845537  73.5777088  91.1311873
 101.9572336  73.9403847  90.7803301 103.5107497  69.1236946  96.6356488
 103.4542699  69.5805498  95.7964120 104.0635840  68.3627631  96.4579331
 107.3212303  64.9126678  97.4606608 107.0649237  64.5123314  98.2914815
 106.6965171  65.6270472  97.3356747 111.6324641  67.6522751  99.9677899
 111.0724199  67.7215941 100.7409461 111.0268144  67.4763736  99.2477395
  94.7019850  79.0859479 101.7196085  94.5852234  80.0304911 101.6174775
  93.8812296  78.7833040 102.1081884 104.5896384  73.8109614  92.5652678
 105.4241988  73.3790813  92.3830153 104.4280727  73.6391628  93.4929572
 104.2442276  70.3141728  93.9309017 104.1891080  70.1485999  92.9897461
 103.6188332  71.0217761  94.0871207  89.0334791  65.5509792 107.7570439
  89.6793655  65.0408746 108.2457665  88.8251943  66.2878474 108.3313865
  97.5538402  59.8149837  93.5094336  97.5417072  60.7591677  93.6662606
  98.4461824  59.6319982  93.2153797  95.7274364  79.7387740 104.9352014
  96.6301611  79.7711351 105.2518509  95.5011734  78.8088191 104.9498349
  97.4827966  78.4918727 101.5962092  96.5323597  78.4920589 101.4826465
  97.7860452  77.7451462 101.0798127 101.3690521  56.4092613  97.7640272
 100.6022917  55.8551100  97.9096955 101.7801226  56.4814482  98.6254424
  93.3732282  62.6977409 111.8545454  94.2363744  62.3414214 112.0648778
  92.7997693  62.3591304 112.5420858 110.0270366  84.2806694 102.5969379
 109.6888877  84.1647758 101.7089914 110.8960134  83.8797859 102.5770386
 105.8857181  86.1342170  98.5866270 105.3222046  86.0432107  97.8182558
 105.7709576  85.3142074  99.0668763 103.4321613  87.6293362 101.4250491
 104.2242905  87.2884186 101.0096790 103.6718263  87.7388337 102.3452644
 111.4656740  89.8013138  93.8980735 110.8144720  90.3867218  93.5114749
 112.2601103  90.3319333  93.9575773 105.3912367  86.8902275  94.2967870
 106.1643243  86.3431262  94.1580745 105.7437766  87.7546524  94.5082331
 107.7278645  83.0494941  91.9286319 107.9804166  82.5276462  91.1669782
 106.7903204  82.8861086  92.0313003 112.7721928  82.0530719  99.7361063
 113.5585017  81.6350142  99.3851480 113.0360632  82.9576811  99.9042711
 112.9432005  87.4903570  94.4349720 112.3077838  87.5638196  95.1470624
 112.6129412  88.0797168  93.7568799 118.1730355  81.9905952 100.6394041
 118.9055527  81.4205169 100.8731871 117.4169711  81.6027553 101.0800547
 107.4474934  84.9523047  94.1310694 107.3311192  84.2767950  94.7991779
 107.5577194  84.4655421  93.3142847 109.7906475  84.4133194  97.8357384
 109.4264682  83.8863815  98.5470305 110.6473591  84.0231663  97.6623869
 115.6955775  75.7027527 105.0988650 115.3639100  76.5722938 104.8749865
 115.1001389  75.3863811 105.7782680 109.4311962  79.4423094  92.8318732
 109.5986364  80.3103330  93.1989203 109.2409131  79.6050375  91.9080021
 105.6399776  84.3553869 100.5321267 104.7150273  84.2230084 100.7398959
 105.8884190  85.1348089 101.0291209 109.4101183  81.8980751  93.8165399
 109.2900808  82.3437802  94.6550879 108.7153771  82.2466069  93.2578937
 103.0008587  83.9987143 101.3665056 103.1300969  84.2521622 102.2804468
 102.3206039  84.5914851 101.0469711 107.1708075  94.6684393  97.4655530
 107.0932104  95.6192218  97.5444011 106.5669718  94.3230265  98.1230457
 115.1086249  82.3702224  94.6445733 116.0204105  82.6029611  94.4693431
 114.5995896  82.9539269  94.0820812 112.4522223  78.5460260 102.8935594
 111.5906703  78.8441514 103.1852332 112.4784658  78.7630659 101.9616627
 109.2683793  87.0902451  99.3009400 109.7322138  87.3690154  98.5114022
 109.0040591  86.1885895  99.1182490 106.1607874  86.6373932 102.2389163
 106.7309231  87.0661201 101.6006647 106.7515986  86.3556517 102.9373349
 108.2052679  83.2125603  96.1098965 108.9076722  83.6646647  96.5772891
 107.8733307  82.5709422  96.7378858 101.9478013  81.4709156 101.4116098
 101.1577067  81.7266684 100.9356209 102.4389260  82.2857494 101.5168139
 103.8992758  81.8353735  98.3699575 103.1023922  81.9472429  98.8883071
 103.6718351  82.1740387  97.5040466 100.2315716  81.7239646 103.8431089
 100.4823754  82.6086656 104.1088665 100.7675264  81.5444248 103.0706181
 109.4446444  90.0266546  96.1861070 109.3092118  90.8718082  96.6145918
 109.9856256  90.2285824  95.4227004 102.8975841  87.5441984  96.7588995
 103.4100362  88.3385234  96.9094560 103.5498554  86.8468274  96.6922597
 104.7070726  90.6607740  98.8411748 104.8837354  91.5825705  98.6532732
 105.5027559  90.3466159  99.2706128 112.7938907  73.5497108 104.7159963
 112.4503177  74.4398749 104.6399074 113.1617870  73.3598765 103.8529548
 100.8624758  85.8730638  97.5348566 101.6999980  86.2827647  97.3182273
 101.0403025  84.9330080  97.5048759 112.7589190  83.5405719  93.2232399
 112.2435813  84.3110324  93.4620786 112.4866498  82.8670855  93.8465460
 110.3436301  78.3855420  98.2817637 109.4877897  77.9962270  98.1023276
 110.7563253  78.4647380  97.4217422 111.8735448  75.9201763 102.6809197
 111.3700243  75.8831898 101.8677002 112.1666054  76.8294506 102.7405853
 108.1178333  76.0040493 101.6875378 108.9831330  75.8083301 101.3281268
 108.1855842  75.7750844 102.6144735 117.7323464  86.2938074  95.1585572
 116.9552907  85.9549233  94.7140734 118.4114945  86.2990697  94.4840537
 112.5475493  81.4132811  95.0492180 112.2425629  81.7278960  95.9002323
 113.5005935  81.4914231  95.0919513 110.9921925  87.5723034  96.6985134
 110.4643286  86.8375794  96.3858371 110.4909428  88.3497711  96.4525102
 105.7240653  78.2342701  99.0591745 106.2984404  78.0117882  98.3264938
 106.3111635  78.3031395  99.8120347 114.7820230  84.1216427  99.8656122
 115.2952111  84.7546419 100.3677832 115.4321454  83.5217623  99.4999482
 106.0510240  80.2647162  93.0787631 105.2147552  80.6021848  93.3996905
 105.9115009  80.1296141  92.1414767 108.0263320  75.1083949  97.7866815
 107.3727733  74.7932967  97.1623429 107.9843794  74.4859690  98.5126638
 109.1374525  85.3903245  89.7020107 108.2301587  85.1592498  89.9011256
 109.6345557  84.5940864  89.8894088 112.0442604  94.1000752  92.6216793
 111.3704303  94.4032448  93.2301751 112.4308426  94.9029832  92.2722250
 111.2601061  81.5965883 102.1114462 110.3423622  81.8180830 101.9536150
 111.6761204  81.6712193 101.2526170 112.0436108  82.9957299  97.2417143
 112.7907927  83.5078696  96.9324265 112.3127698  82.6741351  98.1021536
 110.3162759  85.4915839  94.2244097 109.4073978  85.2074872  94.3216567
 110.3457842  85.9114918  93.3647404 114.4914945  80.0314415  99.2235932
 113.7537702  79.5191801  99.5546174 114.7441719  79.5914797  98.4119209
 114.5926573  72.8090667  99.8177701 114.8985450  71.9488030  99.5303616
 115.3179178  73.4008287  99.6176695 100.8850929  83.2121354  98.2059299
 100.6875329  82.6190714  97.4810366 100.3297593  82.9073564  98.9235238
 108.8647653  83.1044460 100.3253892 108.9196262  82.1518296 100.2496369
 108.0538855  83.2603899 100.8095191 110.0138846  87.0324583  91.5632175
 109.5758276  86.3160442  91.1037813 110.7549287  87.2600698  91.0017267
 106.8040012  81.7221520  98.0844271 105.9907878  82.0215690  98.4909463
 107.2999007  81.3277209  98.8018753 118.1311961  85.3081780  97.6208494
 117.9929860  85.4983376  96.6929683 117.7748180  86.0701163  98.0776545
 106.2954087  79.2939875 103.7005506 106.9353467  79.1528634 103.0028469
 105.4631618  79.0074389 103.3244108 107.0714391  88.5942306  99.8140498
 107.8654990  88.0992626  99.6123073 106.3606084  88.0660169  99.4508204
 103.3797155  82.7385387  95.8900251 102.4494743  82.6769843  96.1070213
 103.4754627  82.2161340  95.0936892 103.2982704  79.2640200  98.4778493
 103.5589521  80.1785534  98.3687653 104.1199876  78.7964643  98.6275106
 104.7707629  80.6777957 105.6477317 105.4430682  80.4695320 104.9989966
 103.9437416  80.4800043 105.2082550 110.2433819  94.2680424  94.8363872
 110.4185575  93.7968467  95.6509495 109.5566607  94.8946190  95.0645133
 114.1350074  85.8908965  91.1564233 113.5179245  85.1655793  91.0597286
 113.6666562  86.6518325  90.8131307 105.9248620  80.1094389  90.2785537
 105.0478086  79.9883190  89.9147784 106.4006373  79.3180467  90.0264426
  97.4450760  84.8971549 100.3727044  98.1321800  84.5833279  99.7848060
  97.2898889  85.8012913 100.0994296 102.2485482  79.7861745 104.8012068
 102.1643671  79.1787415 104.0662478 101.4268189  80.2770764 104.8021564
 109.1112546  92.4620679  97.5248058 108.3280068  93.0042360  97.6186282
 109.8105291  92.9794659  97.9242299 112.4209196  78.2715309 100.1682263
 112.9177896  77.5185271  99.8483333 111.6496177  78.3079626  99.6025473
 113.5038977  87.0286996  97.7420687 112.5695255  87.1488459  97.5725391
 113.6815645  86.1259463  97.4780696 109.0044165  80.4132692  99.8953948
 108.6341952  79.8603732 100.5834853 109.5003257  79.8090825  99.3428948
 116.8911528  82.8704315  98.2770721 117.3571980  83.7032307  98.2031023
 117.3419029  82.4049297  98.9815979 114.9587759  89.2148137  95.2756873
 115.2347603  89.1004731  96.1850747 114.0892258  88.8165622  95.2369046
 114.8628191  75.2384902 102.3161622 113.9491271  75.4689129 102.4843829
 115.2921292  75.3223346 103.1675654 111.9283989  92.3902673  96.1804735
 112.4571755  91.8795127  95.5674897 112.1912208  92.0745203  97.0450268
  97.0218736  82.9772142 102.6444512  97.0602836  82.4435733 103.4381630
  96.5159029  82.4507348 102.0255489 104.4009498  77.8236683 106.1407054
 104.4650825  78.6851514 105.7284452 104.3376619  77.2110684 105.4079412
 100.6527314  81.7036244  95.7198443 100.9480755  80.7946923  95.6665497
  99.7515349  81.6823984  95.3979445 104.1821561  79.7792241 101.7025992
 103.4608146  80.3928209 101.5633465 104.9714816  80.3150006 101.6242637
 102.3815155  79.3850342  95.8437768 102.0527861  78.5047721  95.6612874
 102.7354526  79.3298011  96.7314157 105.4956978  79.6723312  96.2113246
 105.8353051  80.2009233  95.4891854 105.9429099  80.0103718  96.9871812
 108.1900419  78.0560362 105.6616314 107.8497240  77.2568176 106.0636994
 107.4839426  78.3562073 105.0893147 108.8416891  75.1409675 104.1143637
 109.6642960  74.6670153 103.9922527 109.0854955  75.9200159 104.6142323
 107.4825126  78.1697933  94.4106539 108.2033488  78.5479186  93.9070255
 106.8590430  78.8886810  94.5141517 111.6256248  78.8743082  95.3464871
 111.8419863  79.7567720  95.0453699 111.1450316  78.4829296  94.6170513
 106.3655470  81.8328796 101.9235615 106.2200051  82.1469099 102.8159897
 105.8880673  82.4513696 101.3706514 108.2251853  78.8231344 101.9716505
 108.2113421  77.9272437 101.6348803 108.9424281  78.8302007 102.6054791
 110.0777983  79.2568684 104.0169632 109.8195761  80.1785754 104.0153963
 109.5463024  78.8599118 104.7070097 100.8401132  84.3734140 104.8623277
 100.2954600  85.1493948 104.9943551 101.7180482  84.7204944 104.7042398
 107.6288749  77.7045724  97.2404075 107.7504660  76.7762370  97.4394963
 107.3390791  77.7184410  96.3282391 110.4979939  75.3900634 100.3770795
 110.5201636  75.4539967  99.4222775 110.9147998  74.5505143 100.5711301
 116.0099345  91.6786235  93.8956616 116.7050249  92.2992928  94.1143931
 116.3522495  90.8281586  94.1708994 117.9090768  89.1285941  95.4243947
 118.4342092  89.4673214  94.6993267 117.8213120  88.1932956  95.2407082
 102.0723768  91.3869465  99.7863828 102.8981787  91.0873237  99.4062472
 101.7217820  90.6177087 100.2353617 100.2732373  89.3055791 100.7452762
  99.4364281  88.8777966 100.5636763 100.2456018  89.4988235 101.6823553
 106.6018808  89.2899856  95.3319962 106.7506928  89.9735321  94.6786635
 107.4085251  89.2704947  95.8469418 104.3571441  85.3165034  96.3381031
 104.1117483  84.4127364  96.5361241 104.5267355  85.3182185  95.3960509
 112.0468150  76.1888710 105.7205787 112.5650094  76.9249737 105.3952275
 111.6923283  76.4952704 106.5552546 103.6267088  81.0493392  93.8367193
 102.9336333  81.1237747  93.1807229 103.3818840  80.2853735  94.3588710
 112.2980745  72.6088993 101.2406683 112.5782498  71.9412182 101.8667110
 113.0831352  72.8018089 100.7281347 110.1014213  91.7847987  92.8031710
 109.5288180  92.4038174  92.3502182 110.6747007  92.3347349  93.3371632
 113.3211473  92.0685137  93.9340292 114.2542146  92.0030699  94.1373168
 113.2334686  92.9041404  93.4754825 115.9499490  91.3851007  90.8944240
 115.8713121  91.0510871  91.7879997 116.7709156  91.8772775  90.8935712
 110.4861012  83.1208800  90.1447762 111.4320116  82.9915008  90.2136180
 110.1075257  82.3823462  90.6217190 116.4582896  74.7864806 100.1074654
 116.2607717  74.4779894 100.9917986 117.0682602  75.5126445 100.2372584
 108.6703929  81.0458776  90.0802647 107.7635384  80.7491889  90.1565361
 108.9479910  80.7488594  89.2136934  99.5881869  82.3665139 100.5301694
  99.2684654  81.5130448 100.2376068  99.0415297  82.5813718 101.2859661
 103.3661777  85.0827580 104.2471200 103.5847786  86.0144688 104.2659234
 103.7787551  84.7235555 105.0326004 110.2865995  75.5895666  96.2346889
 109.4766723  75.2442751  96.6102135 110.9750411  75.2803210  96.8234500
 112.2156543  74.6673713  97.8571185 112.7687581  75.0869166  98.5161208
 112.4526629  73.7409461  97.8994141 107.4402713  77.9045711  90.2214627
 108.3021877  78.2300610  90.4810444 107.6253058  77.1177207  89.7087692
  99.4570129  85.9868051 102.4994815  98.7633601  85.5722004 101.9864770
 100.2043120  86.0288587 101.9028234 115.5935350  76.7774238  97.3649850
 115.0134019  77.4359042  96.9827902 115.3271283  75.9551582  96.9537267
 114.0438916  76.1779295  99.5671170 114.5438695  76.2895830  98.7585489
 114.6874524  75.8740348 100.2071978 101.3706872  85.9186305 100.3760830
 101.3477560  86.0173992  99.4242713 101.6807508  86.7651456 100.6977996
 114.3760228  78.9374328  96.4206198 113.4886083  79.2223979  96.2026393
 114.7914217  78.7768091  95.5733475 117.7274764  78.9620849 100.1360537
 118.5035154  79.4517302 100.4085154 117.0022898  79.3878903 100.5932407
 120.1647323  79.6748468 101.1934478 120.7591813  79.4344204 100.4827786
 120.2373906  78.9555599 101.8208014 113.5203441  88.7019003  90.5154218
 114.2239291  88.9069005  91.1311873 112.7966090  89.2695765  90.7803301
 114.3501252  84.4528864  96.6356488 114.2936453  84.9097415  95.7964120
 114.9029594  83.6919549  96.4579331 118.1606058  80.2418596  97.4606608
 117.9042992  79.8415232  98.2914815 117.5358926  80.9562390  97.3356747
 115.4290139  89.1401532  92.5652678 116.2635743  88.7082730  92.3830153
 115.2674482  88.9683546  93.4929572 115.0836031  85.6433645  93.9309017
 115.0284835  85.4777917  92.9897461 114.4582086  86.3509678  94.0871207
  99.8728546  80.8801710 107.7570439 100.5187410  80.3700664 108.2457665
  99.6645697  81.6170391 108.3313865 108.3932156  75.1441754  93.5094336
 108.3810826  76.0883594  93.6662606 109.2855578  74.9611900  93.2153797
 112.2084276  71.7384531  97.7640272 111.4416672  71.1843018  97.9096955
 112.6194981  71.8106400  98.6254424 116.8903994  95.5939079  93.0787631
 116.0541306  95.9313766  93.3996905 116.7508764  95.4588059  92.1414767
 116.7642374  95.4386307  90.2785537 115.8871841  95.3175107  89.9147784
 117.2400127  94.6472385  90.0264426 114.4660843  96.3785309  93.8367193
 113.7730088  96.4529664  93.1807229 114.2212595  95.6145653  94.3588710
 119.5097683  96.3750694  90.0802647 118.6029139  96.0783806  90.1565361
 119.7873664  96.0780512  89.2136934 118.2796468  93.2337629  90.2214627
 119.1415632  93.5592527  90.4810444 118.4646812  92.4469125  89.7087692
 119.2325911  90.4733672  93.5094336 119.2204581  91.4175512  93.6662606
 120.1249333  90.2903817  93.2153797  52.9739303  -4.9713073  84.1900837
  52.8963333  -4.0205248  84.2689317  52.3700947  -5.3167200  84.8475763
  50.6126133  -2.2227679  88.3349039  50.8522731  -1.5909155  89.0128057
  49.7695330  -2.5739639  88.6214398  51.0870965  -6.1979676  85.6647817
  50.4181341  -5.7133549  85.1811857  50.9483835  -5.9510456  86.5791196
  55.2276234  -4.1635933  92.2630476  55.7794542  -4.0004311  93.0279561
  55.5682427  -3.5731495  91.5910501  55.3962657  -4.4439542  86.5084507
  54.9567648  -4.9363163  87.2017363  56.1470774  -4.9866574  86.2676582
  48.1875707  -6.1215387  88.2322949  48.0530175  -6.8814986  87.6660947
  47.7707769  -5.3974487  87.7651738  51.3444833  -5.2246070  88.4441392
  51.2277217  -4.2800637  88.3420082  50.5237279  -5.5272508  88.8327191
  52.3699347  -4.5717808  91.6597320  53.2726594  -4.5394197  91.9763815
  52.1436717  -5.5017357  91.6743656  66.6695349  -0.0298855  89.3214686
  66.3313860  -0.1457790  88.4335221  67.5385117  -0.4307689  89.3015692
  62.5282165   1.8236622  85.3111577  61.9647030   1.7326559  84.5427865
  62.4134560   1.0036526  85.7914069  67.1515132   1.1235997  95.2800892
  67.1403773   0.7288795  94.4081395  67.3135771   0.3902070  95.8734663
  60.0746597   3.3187813  88.1495797  60.8667889   2.9778638  87.7342097
  60.3143247   3.4282788  89.0697951  68.1081723   5.4907590  80.6226042
  67.4569703   6.0761670  80.2360056  68.9026086   6.0213784  80.6821079
  62.0337351   2.5796727  81.0213176  62.8068227   2.0325714  80.8826052
  62.3862749   3.4440976  81.2327638  63.8722393   3.9073109  94.2280076
  63.5812259   4.8118740  94.1126742  64.5079377   3.9489637  94.9424145
  64.7978600   1.2849957  90.8181435  65.3942172   1.0605980  90.1038398
  64.8553571   0.5434703  91.4206883  64.3703628  -1.2610607  78.6531626
  64.6229149  -1.7829086  77.8915089  63.4328187  -1.4244462  78.7558310
  69.5856989   3.1798021  81.1595026  68.9502821   3.2532648  81.8715931
  69.2554395   3.7691620  80.4814105  64.0899917   0.6417499  80.8556001
  63.9736175  -0.0337598  81.5237085  64.2002177   0.1549873  80.0388154
  66.4331458   0.1027646  84.5602690  66.0689665  -0.4241733  85.2715612
  67.2898574  -0.2873885  84.3869176  68.8312278   3.5934524  91.2229869
  68.5313001   4.4959563  91.1145676  68.4863338   3.3266708  92.0751022
  62.2824760   0.0448321  87.2566574  61.3575256  -0.0875465  87.4644265
  62.5309173   0.8242541  87.7536516  59.6433571  -0.3118405  88.0910363
  59.7725952  -0.0583926  89.0049774  58.9631022   0.2809303  87.7715018
  63.8133058  10.3578845  84.1900837  63.7357088  11.3086670  84.2689317
  63.2094702  10.0124717  84.8475763  64.5596660   0.3392164  96.4080171
  65.3011344   0.8777208  96.1314994  63.8533646   0.9658452  96.5651723
  70.0352000   2.4821304  95.0052332  70.4435356   2.0403715  94.2606965
  69.3129261   1.9073932  95.2586525  70.3580814   3.0422495  88.7604621
  69.7289677   3.2068209  88.0580689  69.9706476   3.4564104  89.5315585
  74.2370046   3.9776933  86.1148985  73.5521084   4.3575834  85.5646018
  74.3213896   4.5872259  86.8480933  71.4920978   1.6236892  92.7144328
  71.7037873   2.2668651  92.0378710  71.4450726   0.7899208  92.2466259
  65.9108776   2.7796903  86.0254706  66.3747122   3.0584606  85.2359329
  65.6465574   1.8780347  85.8427797  62.8032857   2.3268384  88.9634470
  63.3734214   2.7555653  88.3251954  63.3940969   2.0450969  89.6618655
  64.8477662  -1.0979945  82.8344271  65.5501706  -0.6458901  83.3018198
  64.5158291  -1.7396126  83.4624165  63.2958024  -2.5068188  97.2095481
  62.6656684  -1.8251907  97.4430878  63.1894112  -2.6185107  96.2648619
  58.5902996  -2.8396392  88.1361405  57.8002050  -2.5838864  87.6601516
  59.0814244  -2.0248054  88.2413446  72.6066806   4.5008847  90.8866686
  73.4284250   4.0989034  90.6049367  72.6029209   4.3977081  91.8382802
  60.5417742  -2.4751813  85.0944882  59.7448905  -2.3633119  85.6128377
  60.3143334  -2.1365161  84.2285772  66.3723409   4.0492890  93.0427396
  66.4367842   4.5113298  93.8785568  65.6634333   3.4190255  93.1709706
  56.8740699  -2.5865902  90.5676396  57.1248738  -1.7018892  90.8333972
  57.4100248  -2.7661300  89.7951488  66.0871427   5.7160998  82.9106377
  65.9517102   6.5612533  83.3391224  66.6281239   5.9180275  82.1472310
  59.5400824   3.2336436  83.4834302  60.0525345   4.0279686  83.6339866
  60.1923537   2.5362726  83.4167903  61.3495709   6.3502192  85.5657055
  61.5262337   7.2720157  85.3778039  62.1452543   6.0360611  85.9951435
  60.6348066  -1.6033176  95.4419218  60.5201581  -2.5047919  95.7426317
  59.7792583  -1.3569479  95.0904035  67.7139903   6.3384564  97.0406719
  67.2703757   5.5520943  96.7227623  68.3757117   6.5263715  96.3750609
  62.4727024   7.8680366  91.5667397  63.0234450   7.7397429  90.7944391
  61.6338500   8.1675255  91.2162290  69.8121141   6.6187364  95.0688120
  69.7939617   7.4396245  94.5768389  70.7341061   6.4941439  95.2938261
  66.2694195   4.1331494  95.9111628  66.8022532   3.3719782  95.6810936
  65.7408277   3.8405146  96.6535783  57.5049741   1.5625090  84.2593872
  58.3424963   1.9722098  84.0427580  57.6828009   0.6224532  84.2294066
  74.3748447   1.9832525  81.8830879  73.5977890   1.6443685  81.4386041
  75.0539928   1.9885149  81.2085844  67.6346908   3.2617486  83.4230440
  67.1068270   2.5270246  83.1103678  67.1334411   4.0392163  83.1770409
  72.6139754   1.4566507  88.5397487  71.9563429   2.1465768  88.6277615
  73.4180153   1.8462939  88.8831473  65.7799508   1.0797696  76.4265413
  64.8726570   0.8486950  76.6256562  66.2770540   0.2835316  76.6139395
  68.6867587   9.7895204  79.3462100  68.0129286  10.0926900  79.9547057
  69.0733409  10.5924284  78.9967557  66.9587742   1.1810291  80.9489403
  66.0498961   0.8969324  81.0461873  66.9882826   1.6009370  80.0892710
  72.1907009   4.7916881  84.7180571  71.7369336   3.9507791  84.7745762
  71.5600976   5.4278279  85.0555351  70.6339948   6.6293377  85.6530389
  70.9262923   7.1898435  84.9342755  71.1438569   6.9221938  86.4083548
  57.5275912  -1.0984195  84.9304606  57.3300312  -1.6914834  84.2055672
  56.9722576  -1.4031984  85.6480544  66.6563830   2.7219035  78.2877482
  66.2183260   2.0054894  77.8283119  67.3974270   2.9495150  77.7262573
  65.5973574   7.4073729  86.7423842  65.5549752   7.6334575  85.8132374
  66.5136273   7.1737103  86.8909644  74.8006324   3.0652759  89.3565072
  75.2342831   2.9728048  90.2048126  75.5137905   3.0410259  88.7185088
  63.7139374   4.2836758  86.5385805  64.5079973   3.7887078  86.3368380
  63.0031067   3.7554621  86.1753511  68.5334219   6.6654853  90.8898173
  68.5871241   7.2345789  91.6575889  67.6649000   6.8356738  90.5252210
  60.0222138  -1.5720161  82.6145558  59.0919726  -1.6335705  82.8315520
  60.1179610  -2.0944208  81.8182199  75.6621874   3.1076460  91.8897958
  75.8557764   4.0122270  92.1357232  75.5622492   2.6483879  92.7236543
  70.7236982   3.2583202  97.4638838  70.5722489   3.0293754  96.5468922
  70.7141662   4.2153804  97.4770183  67.4922319   0.8315115  92.4485105
  68.4214379   0.9826275  92.2754072  67.0713349   0.9199136  91.5933751
  66.2910650   4.8565780  90.2183642  66.1521736   4.4884564  91.0909580
  65.5025247   5.3713419  90.0467600  66.8858802   9.9574876  81.5609179
  67.0610558   9.4862919  82.3754801  66.1991590  10.5840642  81.7890439
  67.8415866   4.2347382  87.6072480  67.5065698   4.1948152  88.5030130
  67.3419811   3.5692098  87.1342890  61.8160110  -0.3584988  93.1325061
  61.6779907  -1.0904749  93.7336600  62.7265033  -0.4476088  92.8509249
  70.7775057   1.5803417  77.8809540  70.1604228   0.8550245  77.7842592
  70.3091546   2.3412777  77.5376614  64.4442410  -0.6465028  92.6208741
  65.1542029  -1.2871836  92.5795359  64.4011718  -0.3952134  93.5434922
  72.4329189   6.2902325  95.5415320  72.3741735   5.6061545  94.8745903
  72.8348707   7.0321315  95.0895946  61.4519888  13.1064239  88.3349039
  61.6916486  13.7382763  89.0128057  60.6089084  12.7552279  88.6214398
  72.4346596   4.2541909  93.7729300  71.5473375   3.9167831  93.8955699
  73.0045147   3.5224940  94.0098065  54.0875743   0.5866001  87.0972351
  54.7746783   0.2727731  86.5093366  53.9323872   1.4907365  86.8239602
  65.9647750   8.9143361  90.7390543  65.8917921   9.7198333  91.2509847
  65.5225143   9.1135327  89.9138564  65.7537529   8.1515131  84.2493364
  64.9705051   8.6936811  84.3431589  66.4530274   8.6689111  84.6487606
  68.4246433   8.8130195  92.8948702  69.1374405   9.4477660  92.8224603
  67.9336462   8.9094061  92.0788703  70.1463960   2.7181448  84.4665993
  69.2120239   2.8382910  84.2970698  70.3240628   1.8153915  84.2026003
  63.4758347   6.5624639  93.7154272  64.1767806   7.1961122  93.8683667
  63.0053462   6.9039370  92.9549912  71.6012742   4.9042589  82.0002179
  71.8772586   4.7899183  82.9096053  70.7317241   4.5060073  81.9614352
  68.2366806   9.1528939  85.6434993  68.4189201   8.3350595  86.1062745
  69.0599792   9.3696632  85.2059883  68.5708972   8.0797125  82.9050042
  69.0996738   7.5689579  82.2920204  68.8337192   7.7639655  83.7695575
  67.3247206  -0.1410943  98.0272860  66.6487843  -0.2416813  98.6975235
  68.1474839  -0.2971729  98.4908857  59.0726065   6.0960994  90.6485375
  59.6579501   5.3504682  90.7813279  58.8750903   6.4064951  91.5322039
  61.9264720   9.1312241  85.6647817  61.2575095   9.6158369  85.1811857
  61.7877590   9.3781462  86.5791196  53.6643719  -1.3333406  89.3689818
  53.7027819  -1.8669815  90.1626936  53.1584012  -1.8598200  88.7500795
  66.0669988  11.1655985  92.2630476  66.6188297  11.3287606  93.0279561
  66.4076182  11.7560423  91.5910501  70.9180863   5.9917242  98.1179130
  71.4620767   6.6047200  97.6234085  70.3367708   6.5496821  98.6346143
  57.2952297  -2.6069304  82.4443750  57.5905738  -3.5158625  82.3910803
  56.3940333  -2.6281564  82.1224752  69.2038376   9.1137960  89.2494158
  69.0789515   8.3127700  88.7405103  69.8617467   9.6084154  88.7608128
  71.2673284   6.9146980  90.8773708  70.3203620   6.7952332  90.8052035
  71.6156057   6.0269478  90.9599969  68.2719717   6.7099697  87.0778060
  68.1244680   5.7816404  87.2585630  69.0973211   6.7319787  86.5935136
  71.8753839   7.5328255  88.1642933  72.8000387   7.3271117  88.0267384
  71.7069143   7.2844656  89.0732275  63.0080453  -2.4776753  88.6480922
  62.8625034  -2.1636450  89.5405204  62.5305657  -1.8591852  88.0951821
  71.6649155   8.0513923  83.5205024  71.8386033   7.4860345  82.7678877
  72.1578047   8.8514818  83.3384514  57.4826115   0.0628592  91.5868583
  56.9379583   0.8388400  91.7188858  58.3605465   0.4099396  91.4287705
  72.6524328   7.3680687  80.6201923  73.3475233   7.9887380  80.8389237
  72.9947478   6.5176038  80.8954301  58.2692137  -0.8101512  94.4798740
  57.5273873  -0.6618877  95.0663371  57.9484881  -0.5493246  93.6165490
  74.5515751   4.8180393  82.1489254  75.0767075   5.1567665  81.4238574
  74.4638104   3.8827408  81.9652388  66.2135800   8.7314466  94.2779130
  66.5222926   8.4863613  95.1501830  67.0111282   8.9361105  93.7898000
  66.2356412  10.8852376  86.5084507  65.7961402  10.3928755  87.2017363
  66.9864529  10.3425344  86.2676582  58.7148751   7.0763917  86.5109135
  59.5406771   6.7767689  86.1307778  58.3642803   6.3071539  86.9598923
  63.6830284   6.4290385  88.5806808  63.0610293   5.7661090  88.2809036
  64.3535151   6.4551517  87.8980456  56.9157356   4.9950243  87.4698068
  56.0789264   4.5672418  87.2882070  56.8881001   5.1882687  88.4068860
  74.2409657   5.4513296  97.4540451  73.4505201   5.4337435  96.9144951
  74.0043012   5.9901590  98.2089488  74.3607532   2.3005763  94.7673180
  74.4105537   2.1355770  95.7088703  74.2521456   1.4333022  94.3771061
  63.2443791   4.9794308  82.0565269  63.3931911   5.6629773  81.4031942
  64.0510234   4.9599398  82.5714725  75.8625729   4.7202704  95.0115202
  75.5710537   5.0832685  95.8478663  75.2497860   4.0069712  94.8328534
  60.9996424   1.0059486  83.0626338  60.7542466   0.1021816  83.2606548
  61.1692338   1.0076636  82.1205816  66.7439196   7.4742439  79.5277016
  66.1713164   8.0932626  79.0747488  67.3171990   8.0241801  80.0616938
  69.9636456   7.7579589  80.6585599  70.8967129   7.6925151  80.8618474
  69.8759669   8.5935856  80.2000131  72.5924473   7.0745459  77.6189546
  72.5138104   6.7405323  78.5125304  73.4134140   7.5667227  77.6181019
  67.0124687   2.8620998  98.3293726  67.9327697   3.0399597  98.5233772
  66.9774271   1.9177043  98.1773425  56.2306852  -1.9440409  87.2547000
  55.9109637  -2.7975100  86.9621374  55.6840281  -1.7291830  88.0104968
  60.0086760   0.7722032  90.9716507  60.2272770   1.7039140  90.9904541
  60.4212534   0.4130007  91.7571311  56.0995112   1.6762503  89.2240122
  55.4058584   1.2616456  88.7110076  56.8468103   1.7183039  88.6273541
  64.7445895  -0.2247623  99.1784318  64.2612977   0.5752737  99.3848207
  64.8306834  -0.2139678  98.2251762  58.0131855   1.6080757  87.1006137
  57.9902543   1.7068444  86.1488020  58.3232491   2.4545907  87.4223303
  60.6719233   3.6656912  91.2152751  61.6262486   3.6340854  91.1482683
  60.4731756   3.2047535  92.0302977  61.2618615   2.2358028  93.7823549
  62.0811504   2.7302106  93.8058386  61.5355423   1.3189996  93.7541117
  59.0269462   9.2076531  88.2322949  58.8923930   8.4476932  87.6660947
  58.6101524   9.9317431  87.7651738  70.1628425   4.3913455  77.2399525
  70.8664275   4.5963457  77.8557180  69.4391073   4.9590217  77.5048608
  62.1838588  10.1045848  88.4441392  62.0670972  11.0491281  88.3420082
  61.3631034   9.8019410  88.8327191  72.0715122   4.8295984  79.2897985
  72.9060726   4.3977182  79.1075459  71.9099465   4.6577998  80.2174879
  71.7261014   1.3328097  80.6554324  71.6709818   1.1672369  79.7142768
  71.1007070   2.0404130  80.8116514  56.5153529  -3.4303838  94.4815746
  57.1612393  -3.9404884  94.9702971  56.3070680  -2.6935157  95.0559171
  69.0406921   3.6377009  99.9807887  69.9098081   3.8117661  99.6194522
  68.5613673   4.4571426  99.8583616  63.2093102  10.7574110  91.6597320
  64.1120348  10.7897720  91.9763815  62.9830472   9.8274561  91.6743656
  64.9646704   9.5105097  88.3207399  64.0142335   9.5106958  88.2071771
  65.2679190   8.7637831  87.8043434  80.6999397  15.3465635  89.3853161
  81.3377807  15.2272382  88.6816501  80.5820240  16.2946479  89.4441113
  77.5089103  15.2993063  89.3214686  77.1707615  15.1834128  88.4335221
  78.3778872  14.8984228  89.3015692  73.3675919  17.1528540  85.3111577
  72.8040784  17.0618476  84.5427865  73.2528314  16.3328444  85.7914069
  77.9908886  16.4527915  95.2800892  77.9797527  16.0580713  94.4081395
  78.1529526  15.7193987  95.8734663  70.9140351  18.6479731  88.1495797
  71.7061643  18.3070556  87.7342097  71.1537001  18.7574706  89.0697951
  78.9475478  20.8199507  80.6226042  78.2963458  21.4053588  80.2360056
  79.7419841  21.3505702  80.6821079  72.8731105  17.9088644  81.0213176
  73.6461981  17.3617631  80.8826052  73.2256504  18.7732894  81.2327638
  74.7116148  19.2365027  94.2280076  74.4206014  20.1410657  94.1126742
  75.3473132  19.2781554  94.9424145  75.6372354  16.6141875  90.8181435
  76.2335927  16.3897898  90.1038398  75.6947326  15.8726621  91.4206883
  75.2097383  14.0681310  78.6531626  75.4622904  13.5462832  77.8915089
  74.2721942  13.9047456  78.7558310  80.2540666  13.0717089  86.4606369
  81.0403755  12.6536512  86.1096786  80.5179370  13.9763181  86.6288018
  80.4250743  18.5089939  81.1595026  79.7896576  18.5824566  81.8715931
  80.0948149  19.0983538  80.4814105  85.6549093  13.0092322  87.3639348
  86.3874265  12.4391539  87.5977177  84.8988448  12.6213922  87.8045853
  74.9293672  15.9709416  80.8556001  74.8129930  15.2954320  81.5237085
  75.0395931  15.4841790  80.0388154  77.2725213  15.4319564  84.5602690
  76.9083420  14.9050185  85.2715612  78.1292328  15.0418033  84.3869176
  83.1774513   6.7213896  91.8233956  82.8457838   7.5909307  91.5995171
  82.5820127   6.4050180  92.5027987  76.9130699  10.4609463  79.5564039
  77.0805102  11.3289700  79.9234510  76.7227869  10.6236745  78.6325328
  79.6706033  18.9226442  91.2229869  79.3706756  19.8251481  91.1145676
  79.3257092  18.6558625  92.0751022  73.1218514  15.3740239  87.2566574
  72.1969011  15.2416453  87.4644265  73.3702927  16.1534458  87.7536516
  83.0703176  11.4408982  88.9027307  82.1620054  11.3724391  88.6086067
  83.0190772  11.9180927  89.7309132  76.8919920  12.9167121  80.5410706
  76.7719546  13.3624172  81.3796186  76.1972509  13.2652438  79.9824244
  70.4827325  15.0173513  88.0910363  70.6119706  15.2707991  89.0049774
  69.8024776  15.6101221  87.7715018  74.6526812  25.6870762  84.1900837
  74.5750842  26.6378588  84.2689317  74.0488456  25.3416635  84.8475763
  77.1444042  12.8598628  96.8462204  76.3677376  13.4192548  96.8365068
  77.7834605  13.3455411  97.3677074  84.9364823   9.6425421  90.6805180
  84.2939203   9.9357954  90.0344975  84.4319751   9.5278341  91.4858377
  82.5904987  13.3888594  81.3691040  83.5022843  13.6215981  81.1938737
  82.0814634  13.9725638  80.8066118  75.3990415  15.6684081  96.4080171
  76.1405099  16.2069125  96.1314994  74.6927400  16.2950370  96.5651723
  80.8745754  17.8113222  95.0052332  81.2829110  17.3695632  94.2606965
  80.1523016  17.2365849  95.2586525  77.2276824  12.7485829  92.3785889
  78.0738019  13.1725242  92.5220538  77.1675462  12.0919453  93.0724452
  81.1974569  18.3714412  88.7604621  80.5683431  18.5360126  88.0580689
  80.8100231  18.7856022  89.5315585  85.0763801  19.3068850  86.1148985
  84.3914839  19.6867752  85.5646018  85.1607650  19.9164177  86.8480933
  80.3776270  10.4090197  94.0367063  80.1337201  11.1632257  93.5001339
  80.6536200  10.7875544  94.8714310  82.3314732  16.9528809  92.7144328
  82.5431628  17.5960569  92.0378710  82.2844481  16.1191126  92.2466259
  79.9340961   9.5646630  89.6180901  79.0725440   9.8627883  89.9097638
  79.9603396   9.7817029  88.6861933  76.7502531  18.1088820  86.0254706
  77.2140876  18.3876523  85.2359329  76.4859329  17.2072265  85.8427797
  73.6426612  17.6560302  88.9634470  74.2127969  18.0847570  88.3251954
  74.2334724  17.3742887  89.6618655  75.6871417  14.2311973  82.8344271
  76.3895460  14.6833016  83.3018198  75.3552045  13.5895792  83.4624165
  74.1351778  12.8223729  97.2095481  73.5050439  13.5040010  97.4430878
  74.0287866  12.7106811  96.2648619  69.4296751  12.4895525  88.1361405
  68.6395805  12.7453054  87.6601516  69.9207998  13.3043863  88.2413446
  83.4460560  19.8300765  90.8866686  84.2678004  19.4280952  90.6049367
  83.4422963  19.7268999  91.8382802  71.3811496  12.8540105  85.0944882
  70.5842659  12.9658799  85.6128377  71.1537088  13.1926757  84.2285772
  77.2117164  19.3784808  93.0427396  77.2761596  19.8405215  93.8785568
  76.5028088  18.7482173  93.1709706  67.7134454  12.7426016  90.5676396
  67.9642492  13.6273026  90.8333972  68.2494002  12.5630617  89.7951488
  91.5366553  16.1739513  87.2351657  90.7830262  15.6046911  87.0795662
  91.6714095  16.1402178  88.1822292  76.9265181  21.0452915  82.9106377
  76.7910856  21.8904451  83.3391224  77.4674994  21.2472193  82.1472310
  73.4132521   7.1244495  99.5720732  73.0199467   6.5710694 100.2468376
  74.2298661   7.4355074  99.9627249  70.3794579  18.5628353  83.4834302
  70.8919099  19.3571604  83.6339866  71.0317292  17.8654644  83.4167903
  72.1889463  21.6794110  85.5657055  72.3656092  22.6012074  85.3778039
  72.9846297  21.3652529  85.9951435  76.3300482   8.5402374  97.1640988
  77.0710195   9.1409528  97.0845451  76.5618405   7.7980012  96.6059031
  71.4741820  13.7258742  95.4419218  71.3595335  12.8243999  95.7426317
  70.6186338  13.9722438  95.0904035  78.5533658  21.6676482  97.0406719
  78.1097512  20.8812861  96.7227623  79.2150871  21.8555632  96.3750609
  73.3120779  23.1972284  91.5667397  73.8628204  23.0689347  90.7944391
  72.4732255  23.4967173  91.2162290  80.6514896  21.9479282  95.0688120
  80.6333371  22.7688163  94.5768389  81.5734816  21.8233357  95.2938261
  77.1087950  19.4623411  95.9111628  77.6416287  18.7011700  95.6810936
  76.5802031  19.1697063  96.6535783  80.2757645   4.5683477  91.4405270
  79.9321914   5.4585119  91.3644381  80.6436608   4.3785135  90.5774855
  68.3443496  16.8917008  84.2593872  69.1818718  17.3014016  84.0427580
  68.5221763  15.9516450  84.2294066  80.2407928  14.5592088  79.9477705
  79.7254551  15.3296693  80.1866093  79.9685236  13.8857225  80.5710767
  77.8255039   9.4041789  85.0062944  76.9696635   9.0148640  84.8268582
  78.2381990   9.4833750  84.1462729  79.3554185   6.9388132  89.4054503
  78.8518981   6.9018268  88.5922309  79.6484792   7.8480875  89.4651160
  75.5997071   7.0226862  88.4120685  76.4650068   6.8269671  88.0526575
  75.6674580   6.7937214  89.3390042  85.2142202  17.3124443  81.8830879
  84.4371645  16.9735603  81.4386041  85.8933683  17.3177066  81.2085844
  80.0294231  12.4319181  81.7737486  79.7244366  12.7465330  82.6247630
  80.9824673  12.5100600  81.8164819  78.4740663  18.5909404  83.4230440
  77.9462024  17.8562163  83.1103678  77.9728165  19.3684080  83.1770409
  83.4533509  16.7858424  88.5397487  82.7957183  17.4757686  88.6277615
  84.2573908  17.1754856  88.8831473  73.2059390   9.2529070  85.7837052
  73.7803142   9.0304252  85.0510245  73.7930373   9.3217765  86.5365653
  82.2638968  15.1402797  86.5901428  82.7770849  15.7732789  87.0923138
  82.9140191  14.5403993  86.2244788  73.5328977  11.2833531  79.8032937
  72.6966290  11.6208218  80.1242212  73.3933747  11.1482511  78.8660074
  75.5082058   6.1270319  84.5112121  74.8546470   5.8119336  83.8868736
  75.4662532   5.5046059  85.2371944  76.6193263  16.4089614  76.4265413
  75.7120325  16.1778868  76.6256562  77.1164295  15.6127233  76.6139395
  79.5261342  25.1187121  79.3462100  78.8523041  25.4218818  79.9547057
  79.9127164  25.9216202  78.9967557  78.7419798  12.6152253  88.8359769
  77.8242360  12.8367200  88.6781457  79.1579942  12.6898563  87.9771476
  79.5254846  14.0143668  83.9662449  80.2726665  14.5265065  83.6569571
  79.7946436  13.6927721  84.8266843  77.7981496  16.5102209  80.9489403
  76.8892716  16.2261242  81.0461873  77.8276580  16.9301288  80.0892710
  83.0300764  20.1208798  84.7180571  82.5763091  19.2799708  84.7745762
  82.3994730  20.7570197  85.0555351  81.9733683  11.0500785  85.9481238
  81.2356440  10.5378171  86.2791481  82.2260457  10.6101166  85.1364515
  81.4733703  21.9585295  85.6530389  81.7656677  22.5190352  84.9342755
  81.9832324  22.2513856  86.4083548  68.3669667  14.2307723  84.9304606
  68.1694067  13.6377084  84.2055672  67.8116331  13.9259933  85.6480544
  76.3466390  14.1230830  87.0499199  76.4015000  13.1704666  86.9741675
  75.5357592  14.2790269  87.5340497  77.4957584  18.0510953  78.2877482
  77.0577014  17.3346812  77.8283119  78.2368025  18.2787067  77.7262573
  74.2858750  12.7407889  84.8089578  73.4726616  13.0402060  85.2154770
  74.7817744  12.3463578  85.5264060  76.4367328  22.7365646  86.7423842
  76.3943507  22.9626493  85.8132374  77.3530027  22.5029021  86.8909644
  79.8832962  13.2049714  93.6404472  80.2382350  13.4321187  94.4998937
  80.5305093  13.5368091  93.0181727  85.6130699  16.3268150  84.3453801
  85.4748597  16.5169746  83.4174990  85.2566918  17.0887533  84.8021852
  73.7772825  10.3126245  90.4250813  74.4172204  10.1715004  89.7273776
  72.9450356  10.0260758  90.0489415  85.6400078  18.3944677  89.3565072
  86.0736585  18.3019966  90.2048126  86.3531659  18.3702177  88.7185088
  74.5533129  19.6128675  86.5385805  75.3473727  19.1178995  86.3368380
  73.8424821  19.0846538  86.1753511  79.3727973  21.9946771  90.8898173
  79.4264996  22.5637707  91.6575889  78.5042755  22.1648656  90.5252210
  70.8615892  13.7571757  82.6145558  69.9313480  13.6956212  82.8315520
  70.9573364  13.2347710  81.8182199  70.7801441  10.2826570  85.2023799
  71.0408259  11.1971903  85.0932960  71.6018614   9.8151012  85.3520412
  72.2526367  11.6964327  92.3722624  72.9249420  11.4881689  91.7235273
  71.4256153  11.4986413  91.9327856  86.5015628  18.4368377  91.8897958
  86.6951518  19.3414188  92.1357232  86.4016246  17.9775796  92.7236543
  78.1551939   8.3226268  94.3888285  77.5079854   9.0216218  94.2952761
  78.9252954   8.7562412  94.7564533  81.5630737  18.5875120  97.4638838
  81.4116243  18.3585672  96.5468922  81.5535416  19.5445722  97.4770183
  78.3316073  16.1607033  92.4485105  79.2608133  16.3118192  92.2754072
  77.9107103  16.2491054  91.5933751  77.1304405  20.1857697  90.2183642
  76.9915491  19.8176482  91.0909580  76.3419001  20.7005337  90.0467600
  77.7252557  25.2866794  81.5609179  77.9004313  24.8154837  82.3754801
  77.0385345  25.9132560  81.7890439  78.6809620  19.5639300  87.6072480
  78.3459453  19.5240070  88.5030130  78.1813566  18.8984016  87.1342890
  72.6553864  14.9706930  93.1325061  72.5173662  14.2387169  93.7336600
  73.5658787  14.8815830  92.8509249  81.6168812  16.9095334  77.8809540
  80.9997982  16.1842162  77.7842592  81.1485300  17.6704695  77.5376614
  75.2836165  14.6826889  92.6208741  75.9935783  14.0420082  92.5795359
  75.2405473  14.9339784  93.5434922  83.2722943  21.6194243  95.5415320
  83.2135490  20.9353463  94.8745903  83.6742462  22.3613233  95.0895946
  73.9965099  11.6692107  94.4404380  73.4602456  11.2182846  95.0925977
  73.4081807  11.8038016  93.6974845  72.2913642  28.4356156  88.3349039
  72.5310240  29.0674681  89.0128057  71.4482839  28.0844197  88.6214398
  73.4067358  11.1280759  77.0030844  72.5296824  11.0069559  76.6393091
  73.8825111  10.3366837  76.7509733  83.2740351  19.5833827  93.7729300
  82.3867129  19.2459748  93.8955699  83.8438902  18.8516858  94.0098065
  64.9269498  15.9157918  87.0972351  65.6140538  15.6019648  86.5093366
  64.7717626  16.8199283  86.8239602  69.7304220  10.8048115  91.5257375
  69.6462409  10.1973784  90.7907785  68.9086926  11.2957133  91.5266871
  76.8041504  24.2435279  90.7390543  76.7311676  25.0490250  91.2509847
  76.3618897  24.4427245  89.9138564  76.5931284  23.4807049  84.2493364
  75.8098806  24.0228729  84.3431589  77.2924029  23.9981029  84.6487606
  79.9027934   9.2901678  86.8927570  80.3996633   8.5371641  86.5728640
  79.1314915   9.3265995  86.3270779  87.7557691  14.9942044  88.5345861
  87.7447567  15.8766759  88.1639794  86.8875071  14.6413595  88.3400398
  79.2640188  24.1422113  92.8948702  79.9768160  24.7769578  92.8224603
  78.7730216  24.2385979  92.0788703  80.9857714  18.0473366  84.4665993
  80.0513993  18.1674828  84.2970698  81.1634383  17.1445832  84.2026003
  76.4862903  11.4319061  86.6199254  76.1160690  10.8790102  87.3080160
  76.9821995  10.8277195  86.0674254  84.3730266  13.8890685  85.0016027
  84.8390718  14.7218677  84.9276330  84.8237766  13.4235666  85.7061286
  74.3152101  21.8916556  93.7154272  75.0161561  22.5253039  93.8683667
  73.8447216  22.2331288  92.9549912  82.4406497  20.2334506  82.0002179
  82.7166341  20.1191101  82.9096053  81.5710996  19.8351991  81.9614352
  82.3446929   6.2571272  89.0406929  81.4310008   6.4875499  89.2089136
  82.7740030   6.3409716  89.8920961  82.1153387  14.4461164  91.5406823
  81.4624837  14.6937071  90.8859275  82.4933767  13.6325302  91.2069300
  79.0760561  24.4820857  85.6434993  79.2582955  23.6642513  86.1062745
  79.8993547  24.6988549  85.2059883  79.4102726  23.4089042  82.9050042
  79.9390493  22.8981497  82.2920204  79.6730946  23.0931572  83.7695575
  78.1640960  15.1880975  98.0272860  77.4881597  15.0875104  98.6975235
  78.9868594  15.0320189  98.4908857  69.9119819  21.4252911  90.6485375
  70.4973256  20.6796599  90.7813279  69.7144658  21.7356868  91.5322039
  72.7658474  24.4604159  85.6647817  72.0968850  24.9450286  85.1811857
  72.6271344  24.7073379  86.5791196  64.5037474  13.9958512  89.3689818
  64.5421573  13.4622102  90.1626936  63.9977767  13.4693717  88.7500795
  76.9063743  26.4947902  92.2630476  77.4582051  26.6579524  93.0279561
  77.2469936  27.0852340  91.5910501  71.8828236   8.8423052  92.8652361
  71.9469563   9.7037883  92.4529758  71.8195356   8.2297054  92.1324719
  71.3580509  10.9146185  96.5125395  71.9852548  10.5323262  97.1262919
  70.5008428  10.6960387  96.8781087  81.7574617  21.3209160  98.1179130
  82.3014521  21.9339118  97.6234085  81.1761462  21.8788738  98.6346143
  68.1346051  12.7222614  82.4443750  68.4299493  11.8133292  82.3910803
  67.2334087  12.7010353  82.1224752  80.0432130  24.4429878  89.2494158
  79.9183270  23.6419618  88.7405103  80.7011221  24.9376071  88.7608128
  71.6640298  10.7978610  88.4271298  70.9426884  11.4114578  88.2878771
  72.4533554  11.3336375  88.3487944  82.1067039  22.2438898  90.8773708
  81.1597374  22.1244249  90.8052035  82.4549812  21.3561396  90.9599969
  74.4666612   8.1333037  94.7011950  74.9901014   8.3795333  95.4638259
  74.2478945   8.9653072  94.2815087  69.8633893  10.4036711  82.5683075
  69.5346599   9.5234090  82.3858181  70.2173264  10.3484380  83.4559464
  79.1113472  22.0391614  87.0778060  78.9638434  21.1108322  87.2585630
  79.9366965  22.0611705  86.5935136  72.9775716  10.6909681  82.9358552
  73.3171789  11.2195603  82.2137161  73.4247837  11.0290087  83.7117119
  82.7147594  22.8620173  88.1642933  83.6394141  22.6563034  88.0267384
  82.5462897  22.6136574  89.0732275  75.6719157   9.0746732  92.3861620
  75.3315977   8.2754545  92.7882300  74.9658163   9.3748443  91.8138454
  76.3235629   6.1596044  90.8388943  77.1461698   5.6856523  90.7167834
  76.5673692   6.9386528  91.3387630  74.9643863   9.1884303  81.1351845
  75.6852226   9.5665556  80.6315562  74.3409167   9.9073180  81.2386823
  79.1074986   9.8929452  82.0710178  79.3238601  10.7754090  81.7699006
  78.6269053   9.5015665  81.3415820  73.8474208  12.8515165  88.6480922
  73.7018788  13.1655468  89.5405204  73.3699411  13.4700065  88.0951821
  75.7070591   9.8417713  88.6961812  75.6932159   8.9458806  88.3594110
  76.4243019   9.8488377  89.3300098  77.5596721  10.2755053  90.7414939
  77.3014499  11.1972124  90.7399270  77.0281762   9.8785488  91.4315403
  82.5042910  23.3805840  83.5205024  82.6779788  22.8152263  82.7678877
  82.9971801  24.1806735  83.3384514  68.3219870  15.3920509  91.5868583
  67.7773338  16.1680317  91.7188858  69.1999220  15.7391314  91.4287705
  75.1107486   8.7232093  83.9649382  75.2323398   7.7948740  84.1640269
  74.8209529   8.7370779  83.0527697  77.9798677   6.4087004  87.1016102
  78.0020374   6.4726337  86.1468081  78.3966736   5.5691512  87.2956608
  88.3582301  16.1442263  85.1395324  88.8013447  15.3949589  84.7414447
  87.4808811  16.1352400  84.7569056  83.4918082  22.6972605  80.6201923
  84.1868987  23.3179297  80.8389237  83.8341233  21.8467956  80.8954301
  69.1085892  14.5190406  94.4798740  68.3667628  14.6673041  95.0663371
  68.7878636  14.7798671  93.6165490  85.3909506  20.1472310  82.1489254
  85.9160830  20.4859583  81.4238574  85.3031858  19.2119326  81.9652388
  77.0529554  24.0606384  94.2779130  77.3616681  23.8155531  95.1501830
  77.8505036  24.2653022  93.7898000  77.0750166  26.2144294  86.5084507
  76.6355157  25.7220672  87.2017363  77.8258283  25.6717261  86.2676582
  69.5542505  22.4055834  86.5109135  70.3800525  22.1059606  86.1307778
  69.2036557  21.6363457  86.9598923  74.5224038  21.7582303  88.5806808
  73.9004048  21.0953008  88.2809036  75.1928905  21.7843435  87.8980456
  67.7551110  20.3242161  87.4698068  66.9183019  19.8964335  87.2882070
  67.7274756  20.5174604  88.4068860  74.5948566  10.2364091  98.1739314
  74.6436721  11.1126214  97.7917084  75.1371080   9.6941484  97.6010958
  85.0803412  20.7805214  97.4540451  84.2898955  20.7629353  96.9144951
  84.8436766  21.3193508  98.2089488  85.2001287  17.6297680  94.7673180
  85.2499292  17.4647688  95.7088703  85.0915210  16.7624939  94.3771061
  74.0837545  20.3086226  82.0565269  74.2325666  20.9921690  81.4031942
  74.8903989  20.2891316  82.5714725  82.4905049  13.6128608  96.0832487
  83.3914912  13.4735073  95.7916485  82.5653024  13.7783063  97.0230664
  76.8247854  10.9895463  94.9285673  75.9551164  11.2829029  94.6568262
  77.0607335  11.5735908  95.6492937  86.7019484  20.0494622  95.0115202
  86.4104292  20.4124602  95.8478663  86.0891615  19.3361630  94.8328534
  87.9015166  17.6147502  87.5317772  88.7362057  18.0537306  87.6955332
  88.0374295  17.1386155  86.7126018  84.9506672  15.1727236  93.4795260
  85.4260793  15.3654883  92.6714111  84.0272237  15.2286422  93.2338643
  71.8390178  16.3351404  83.0626338  71.5936220  15.4313734  83.2606548
  72.0086093  16.3368554  82.1205816  79.5286888   7.2075080  92.4451093
  80.0468832   7.9436107  92.1197582  79.1742021   7.5139073  93.2797853
  71.1085826  12.0679761  80.5612499  70.4155071  12.1424116  79.9052535
  70.8637578  11.3040105  81.0834016  77.5832951  22.8034356  79.5277016
  77.0106918  23.4224544  79.0747488  78.1565745  23.3533718  80.0616938
  83.6508341  12.0492997  91.7123565  84.6025764  12.1491094  91.7335789
  83.4811791  11.2571265  92.2221650  81.6722720   9.1348580  91.8982966
  81.0772652   9.4153593  91.2029455  81.3872417   9.6242481  92.6699707
  80.8030211  23.0871507  80.6585599  81.7360884  23.0217068  80.8618474
  80.7153424  23.9227773  80.2000131  83.4318227  22.4037377  77.6189546
  83.3531859  22.0697241  78.5125304  84.2527894  22.8959145  77.6181019
  86.1296419  15.2699116  90.8265865  86.0972739  14.3315117  91.0125549
  86.7397042  15.3483153  90.0931690  77.9679749  14.1395169  76.8693069
  78.9138854  14.0101377  76.9381487  77.5893994  13.4009831  77.3462497
  86.2790907  12.0610160  90.8724148  85.7629956  11.2768616  90.6854077
  87.1630856  11.7328876  91.0370667  83.9401634   5.8051175  86.8319961
  83.7426455   5.4966263  87.7163293  84.5501340   6.5312814  86.9617891
  91.9472968  16.3315123  89.9671902  92.6776357  16.0700411  90.5279605
  91.3379914  15.5943845  90.0073970  90.0288266  14.4722986  90.5646353
  89.3021429  14.3378951  89.9562844  89.6135552  14.7799814  91.3703071
  77.8518442  18.1912915  98.3293726  78.7721451  18.3691514  98.5233772
  77.8168025  17.2468961  98.1773425  76.1522667  12.0645146  76.8047954
  75.2454122  11.7678258  76.8810668  76.4298648  11.7674964  75.9382240
  67.0700607  13.3851509  87.2547000  66.7503391  12.5316817  86.9621374
  66.5234035  13.6000087  88.0104968  70.8480515  16.1013950  90.9716507
  71.0666524  17.0331058  90.9904541  71.2606288  15.7421924  91.7571311
  77.7684732   6.6082035  82.9592195  76.9585461   6.2629120  83.3347441
  78.4569149   6.2989579  83.5479807  79.6975281   5.6860082  84.5816492
  80.2506319   6.1055536  85.2406515  79.9345367   4.7595830  84.6239448
  75.7208380  11.6747156 100.3619256  75.6205107  12.6241513 100.2931347
  75.5029922  11.3465395  99.4895326  74.9221451   8.9232081  76.9459933
  75.7840615   9.2486979  77.2055751  75.1071795   8.1363577  76.4332999
  66.9388867  17.0054421  89.2240122  66.2452338  16.5908373  88.7110076
  67.6861858  17.0474957  88.6273541  83.0754088   7.7960607  84.0895156
  82.4952757   8.4545411  83.7073209  82.8090020   6.9737952  83.6782574
  81.5257654   7.1965665  86.2916477  82.0257432   7.3082200  85.4830795
  82.1693262   6.8926718  86.9317285  75.5839650  15.1044295  99.1784318
  75.1006732  15.9044655  99.3848207  75.6700589  15.1152239  98.2251762
  68.8525609  16.9372674  87.1006137  68.8296298  17.0360362  86.1488020
  69.1626246  17.7837825  87.4223303  71.5112987  18.9948829  91.2152751
  72.4656241  18.9632772  91.1482683  71.3125511  18.5339453  92.0302977
  72.1012369  17.5649945  93.7823549  72.9205258  18.0594024  93.8058386
  72.3749177  16.6481914  93.7541117  81.8578966   9.9560698  83.1451505
  80.9704821  10.2410348  82.9271699  82.2732955   9.7954461  82.2978781
  85.2093502   9.9807219  86.8605844  85.9853892  10.4703671  87.1330461
  84.4841636  10.4065273  87.3177713  87.6466060  10.6934838  87.9179784
  88.2410551  10.4530574  87.2073093  87.7192644   9.9741968  88.5453321
  69.8663216  24.5368449  88.2322949  69.7317684  23.7768850  87.6660947
  69.4495278  25.2609349  87.7651738  81.0022179  19.7205372  77.2399525
  81.7058029  19.9255375  77.8557180  80.2784828  20.2882134  77.5048608
  81.8319989  15.4715234  83.3601795  81.7755191  15.9283785  82.5209427
  82.3848332  14.7105918  83.1824637  85.6424795  11.2604965  84.1851914
  85.3861730  10.8601601  85.0160122  85.0177663  11.9748759  84.0602053
  89.9537133  14.0001039  86.6923206  89.3936691  14.0694228  87.4654768
  89.3480637  13.8242023  85.9722702  73.0232342  25.4337766  88.4441392
  72.9064726  26.3783198  88.3420082  72.2024788  25.1311327  88.8327191
  82.9108877  20.1587902  79.2897985  83.7454480  19.7269100  79.1075459
  82.7493219  19.9869915  80.2174879  82.5654769  16.6620015  80.6554324
  82.5103573  16.4964286  79.7142768  81.9400824  17.3696048  80.8116514
  67.3547284  11.8988079  94.4815746  68.0006147  11.3887033  94.9702971
  67.1464435  12.6356761  95.0559171  79.8800676  18.9668927  99.9807887
  80.7491836  19.1409579  99.6194522  79.4007427  19.7863344  99.8583616
  75.8750894   6.1628124  80.2339642  75.8629564   7.1069964  80.3907913
  76.7674316   5.9798269  79.9399103  74.0486856  26.0866028  91.6597320
  74.9514103  26.1189638  91.9763815  73.8224226  25.1566479  91.6743656
  75.8040458  24.8397014  88.3207399  74.8536089  24.8398876  88.2071771
  76.1072944  24.0929749  87.8043434  71.6944775   9.0455696  98.5790760
  72.5576236   8.6892501  98.7894085  71.1210185   8.7069591  99.2666165
  91.5393152  30.6757553  89.3853161  92.1771562  30.5564300  88.6816501
  91.4213995  31.6238397  89.4441113  88.3482858  30.6284981  89.3214686
  88.0101369  30.5126045  88.4335221  89.2172626  30.2276146  89.3015692
  84.2069674  32.4820457  85.3111577  83.6434539  32.3910394  84.5427865
  84.0922069  31.6620362  85.7914069  88.8302641  31.7819833  95.2800892
  88.8191282  31.3872631  94.4081395  88.9923280  31.0485905  95.8734663
  81.7534106  33.9771649  88.1495797  82.5455397  33.6362473  87.7342097
  81.9930756  34.0866624  89.0697951  89.7869232  36.1491425  80.6226042
  89.1357212  36.7345505  80.2360056  90.5813595  36.6797620  80.6821079
  83.7124859  33.2380562  81.0213176  84.4855735  32.6909549  80.8826052
  84.0650258  34.1024811  81.2327638  85.5509902  34.5656944  94.2280076
  85.2599768  35.4702575  94.1126742  86.1866886  34.6073472  94.9424145
  86.4766109  31.9433793  90.8181435  87.0729681  31.7189815  90.1038398
  86.5341080  31.2018538  91.4206883  86.0491137  29.3973228  78.6531626
  86.3016658  28.8754749  77.8915089  85.1115696  29.2339374  78.7558310
  91.0934420  28.4009007  86.4606369  91.8797509  27.9828430  86.1096786
  91.3573124  29.3055099  86.6288018  91.2644497  33.8381857  81.1595026
  90.6290330  33.9116483  81.8715931  90.9341904  34.4275456  80.4814105
  96.4942847  28.3384240  87.3639348  97.2268019  27.7683457  87.5977177
  95.7382203  27.9505840  87.8045853  85.7687426  31.3001334  80.8556001
  85.6523684  30.6246237  81.5237085  85.8789686  30.8133708  80.0388154
  88.1118967  30.7611481  84.5602690  87.7477174  30.2342102  85.2715612
  88.9686083  30.3709950  84.3869176  94.0168268  22.0505814  91.8233956
  93.6851592  22.9201225  91.5995171  93.4213881  21.7342098  92.5027987
  87.7524454  25.7901381  79.5564039  87.9198856  26.6581617  79.9234510
  87.5621623  25.9528663  78.6325328  90.5099787  34.2518360  91.2229869
  90.2100510  35.1543399  91.1145676  90.1650847  33.9850543  92.0751022
  83.9612269  30.7032157  87.2566574  83.0362765  30.5708371  87.4644265
  84.2096682  31.4826376  87.7536516  93.9096931  26.7700900  88.9027307
  93.0013808  26.7016308  88.6086067  93.8584527  27.2472845  89.7309132
  87.7313675  28.2459038  80.5410706  87.6113300  28.6916089  81.3796186
  87.0366263  28.5944356  79.9824244  81.3221080  30.3465430  88.0910363
  81.4513461  30.5999909  89.0049774  80.6418531  30.9393138  87.7715018
  85.4920567  41.0162680  84.1900837  85.4144597  41.9670505  84.2689317
  84.8882211  40.6708553  84.8475763  87.9837797  28.1890546  96.8462204
  87.2071131  28.7484466  96.8365068  88.6228360  28.6747329  97.3677074
  95.7758577  24.9717338  90.6805180  95.1332958  25.2649872  90.0344975
  95.2713506  24.8570259  91.4858377  93.4298741  28.7180512  81.3691040
  94.3416597  28.9507898  81.1938737  92.9208388  29.3017556  80.8066118
  86.2384169  30.9975999  96.4080171  86.9798853  31.5361043  96.1314994
  85.5321154  31.6242288  96.5651723  91.7139509  33.1405139  95.0052332
  92.1222865  32.6987550  94.2606965  90.9916770  32.5657767  95.2586525
  88.0670579  28.0777746  92.3785889  88.9131774  28.5017160  92.5220538
  88.0069216  27.4211371  93.0724452  92.0368323  33.7006330  88.7604621
  91.4077186  33.8652044  88.0580689  91.6493985  34.1147940  89.5315585
  95.9157555  34.6360768  86.1148985  95.2308593  35.0159669  85.5646018
  96.0001405  35.2456095  86.8480933  91.2170024  25.7382115  94.0367063
  90.9730956  26.4924175  93.5001339  91.4929955  26.1167462  94.8714310
  93.1708487  32.2820727  92.7144328  93.3825382  32.9252487  92.0378710
  93.1238235  31.4483043  92.2466259  90.7734716  24.8938548  89.6180901
  89.9119195  25.1919801  89.9097638  90.7997150  25.1108946  88.6861933
  87.5896285  33.4380738  86.0254706  88.0534631  33.7168441  85.2359329
  87.3253083  32.5364183  85.8427797  84.4820366  32.9852220  88.9634470
  85.0521723  33.4139488  88.3251954  85.0728478  32.7034804  89.6618655
  86.5265171  29.5603891  82.8344271  87.2289215  30.0124934  83.3018198
  86.1945800  28.9187709  83.4624165  84.9745533  28.1515647  97.2095481
  84.3444193  28.8331928  97.4430878  84.8681621  28.0398729  96.2648619
  80.2690505  27.8187443  88.1361405  79.4789559  28.0744972  87.6601516
  80.7601753  28.6335781  88.2413446  94.2854315  35.1592682  90.8866686
  95.1071758  34.7572870  90.6049367  94.2816718  35.0560917  91.8382802
  82.2205251  28.1832022  85.0944882  81.4236414  28.2950717  85.6128377
  81.9930843  28.5218675  84.2285772  88.0510918  34.7076726  93.0427396
  88.1155351  35.1697133  93.8785568  87.3421842  34.0774091  93.1709706
  78.5528208  28.0717934  90.5676396  78.8036247  28.9564944  90.8333972
  79.0887757  27.8922535  89.7951488 102.3760308  31.5031431  87.2351657
 101.6224016  30.9338829  87.0795662 102.5107849  31.4694095  88.1822292
  87.7658936  36.3744833  82.9106377  87.6304611  37.2196369  83.3391224
  88.3068748  36.5764111  82.1472310  84.2526276  22.4536413  99.5720732
  83.8593221  21.9002612 100.2468376  85.0692416  22.7646991  99.9627249
  81.2188333  33.8920271  83.4834302  81.7312854  34.6863521  83.6339866
  81.8711046  33.1946562  83.4167903  83.0283218  37.0086027  85.5657055
  83.2049846  37.9303992  85.3778039  83.8240051  36.6944447  85.9951435
  87.1694236  23.8694292  97.1640988  87.9103950  24.4701445  97.0845451
  87.4012159  23.1271930  96.6059031  82.3135575  29.0550659  95.4419218
  82.1989090  28.1535917  95.7426317  81.4580092  29.3014356  95.0904035
  89.3927412  36.9968400  97.0406719  88.9491266  36.2104778  96.7227623
  90.0544626  37.1847550  96.3750609  84.1514533  38.5264201  91.5667397
  84.7021959  38.3981265  90.7944391  83.3126009  38.8259090  91.2162290
  91.4908650  37.2771200  95.0688120  91.4727126  38.0980081  94.5768389
  92.4128570  37.1525275  95.2938261  87.9481704  34.7915329  95.9111628
  88.4810041  34.0303617  95.6810936  87.4195786  34.4988981  96.6535783
  91.1151399  19.8975395  91.4405270  90.7715669  20.7877037  91.3644381
  91.4830362  19.7077053  90.5774855  79.1837250  32.2208925  84.2593872
  80.0212472  32.6305934  84.0427580  79.3615518  31.2808368  84.2294066
  91.0801682  29.8884006  79.9477705  90.5648306  30.6588611  80.1866093
  90.8078991  29.2149142  80.5710767  88.6648793  24.7333707  85.0062944
  87.8090390  24.3440557  84.8268582  89.0775745  24.8125668  84.1462729
  90.1947940  22.2680050  89.4054503  89.6912735  22.2310185  88.5922309
  90.4878547  23.1772793  89.4651160  86.4390826  22.3518780  88.4120685
  87.3043822  22.1561589  88.0526575  86.5068335  22.1229132  89.3390042
  96.0535956  32.6416361  81.8830879  95.2765399  32.3027520  81.4386041
  96.7327437  32.6468984  81.2085844  90.8687985  27.7611098  81.7737486
  90.5638121  28.0757247  82.6247630  91.8218427  27.8392518  81.8164819
  89.3134417  33.9201322  83.4230440  88.7855779  33.1854081  83.1103678
  88.8121920  34.6975998  83.1770409  94.2927263  32.1150342  88.5397487
  93.6350938  32.8049603  88.6277615  95.0967662  32.5046774  88.8831473
  84.0453145  24.5820988  85.7837052  84.6196897  24.3596169  85.0510245
  84.6324127  24.6509682  86.5365653  93.1032722  30.4694715  86.5901428
  93.6164604  31.1024707  87.0923138  93.7533946  29.8695910  86.2244788
  84.3722732  26.6125449  79.8032937  83.5360044  26.9500135  80.1242212
  84.2327502  26.4774429  78.8660074  86.3475812  21.4562237  84.5112121
  85.6940225  21.1411254  83.8868736  86.3056287  20.8337977  85.2371944
  87.4587017  31.7381532  76.4265413  86.5514079  31.5070785  76.6256562
  87.9558049  30.9419151  76.6139395  90.3655096  40.4479039  79.3462100
  89.6916795  40.7510736  79.9547057  90.7520918  41.2508119  78.9967557
  89.5813553  27.9444170  88.8359769  88.6636114  28.1659117  88.6781457
  89.9973696  28.0190481  87.9771476  90.3648601  29.3435586  83.9662449
  91.1120420  29.8556983  83.6569571  90.6340190  29.0219639  84.8266843
  88.6375251  31.8394127  80.9489403  87.7286470  31.5553159  81.0461873
  88.6670335  32.2593205  80.0892710  93.8694518  35.4500716  84.7180571
  93.4156845  34.6091626  84.7745762  93.2388485  36.0862115  85.0555351
  92.8127438  26.3792702  85.9481238  92.0750195  25.8670088  86.2791481
  93.0654211  25.9393084  85.1364515  92.3127457  37.2877213  85.6530389
  92.6050432  37.8482270  84.9342755  92.8226078  37.5805774  86.4083548
  92.9139065  19.1568954  86.5423008  93.2197942  18.2966318  86.2548923
  93.6391670  19.7486574  86.3422002  79.2063421  29.5599641  84.9304606
  79.0087821  28.9669001  84.2055672  78.6510085  29.2551851  85.6480544
  87.1860145  29.4522747  87.0499199  87.2408755  28.4996584  86.9741675
  86.3751347  29.6082186  87.5340497  88.3351339  33.3802870  78.2877482
  87.8970769  32.6638729  77.8283119  89.0761779  33.6078985  77.7262573
  85.1252505  28.0699807  84.8089578  84.3120370  28.3693978  85.2154770
  85.6211499  27.6755496  85.5264060  87.2761083  38.0657564  86.7423842
  87.2337261  38.2918410  85.8132374  88.1923782  37.8320939  86.8909644
  90.7226716  28.5341631  93.6404472  91.0776104  28.7613105  94.4998937
  91.3698848  28.8660008  93.0181727  96.4524453  31.6560067  84.3453801
  96.3142352  31.8461663  83.4174990  96.0960672  32.4179450  84.8021852
  84.6166580  25.6418163  90.4250813  85.2565959  25.5006922  89.7273776
  83.7844110  25.3552676  90.0489415  96.4793833  33.7236594  89.3565072
  96.9130340  33.6311883  90.2048126  97.1925414  33.6994095  88.7185088
  85.3926883  34.9420593  86.5385805  86.1867482  34.4470913  86.3368380
  84.6818576  34.4138456  86.1753511  90.2121728  37.3238688  90.8898173
  90.2658750  37.8929625  91.6575889  89.3436509  37.4940574  90.5252210
  81.7009647  29.0863675  82.6145558  80.7707235  29.0248130  82.8315520
  81.7967119  28.5639627  81.8182199  81.6195196  25.6118488  85.2023799
  81.8802013  26.5263821  85.0932960  82.4412368  25.1442930  85.3520412
  83.0920121  27.0256245  92.3722624  83.7643175  26.8173607  91.7235273
  82.2649908  26.8278331  91.9327856  97.3409383  33.7660295  91.8897958
  97.5345273  34.6706106  92.1357232  97.2410001  33.3067714  92.7236543
  88.9945693  23.6518186  94.3888285  88.3473608  24.3508135  94.2952761
  89.7646709  24.0854330  94.7564533  92.4024491  33.9167038  97.4638838
  92.2509998  33.6877589  96.5468922  92.3929171  34.8737639  97.4770183
  89.1709828  31.4898951  92.4485105  90.1001888  31.6410110  92.2754072
  88.7500858  31.5782971  91.5933751  87.9698159  35.5149615  90.2183642
  87.8309245  35.1468399  91.0909580  87.1812756  36.0297254  90.0467600
  88.5646311  40.6158711  81.5609179  88.7398067  40.1446755  82.3754801
  87.8779099  41.2424478  81.7890439  89.5203375  34.8931218  87.6072480
  89.1853207  34.8531988  88.5030130  89.0207320  34.2275934  87.1342890
  83.4947619  30.2998848  93.1325061  83.3567416  29.5679086  93.7336600
  84.4052542  30.2107748  92.8509249  92.4562566  32.2387252  77.8809540
  91.8391737  31.5134080  77.7842592  91.9879055  32.9996612  77.5376614
  86.1229919  30.0118807  92.6208741  86.8329538  29.3711999  92.5795359
  86.0799227  30.2631702  93.5434922  94.1116698  36.9486160  95.5415320
  94.0529244  36.2645380  94.8745903  94.5136216  37.6905150  95.0895946
  84.8358853  26.9984025  94.4404380  84.2996210  26.5474763  95.0925977
  84.2475562  27.1329934  93.6974845  83.1307397  43.7648074  88.3349039
  83.3703995  44.3966598  89.0128057  82.2876593  43.4136114  88.6214398
  84.2461112  26.4572676  77.0030844  83.3690578  26.3361477  76.6393091
  84.7218865  25.6658755  76.7509733  94.1134105  34.9125744  93.7729300
  93.2260884  34.5751666  93.8955699  94.6832656  34.1808775  94.0098065
  75.7663252  31.2449836  87.0972351  76.4534292  30.9311566  86.5093366
  75.6111381  32.1491201  86.8239602  80.5697974  26.1340033  91.5257375
  80.4856163  25.5265702  90.7907785  79.7480681  26.6249051  91.5266871
  87.6435259  39.5727197  90.7390543  87.5705430  40.3782168  91.2509847
  87.2012652  39.7719162  89.9138564  87.4325038  38.8098967  84.2493364
  86.6492560  39.3520647  84.3431589  88.1317783  39.3272946  84.6487606
  90.7421688  24.6193596  86.8927570  91.2390388  23.8663558  86.5728640
  89.9708670  24.6557913  86.3270779  98.5951446  30.3233962  88.5345861
  98.5841322  31.2058677  88.1639794  97.7268825  29.9705512  88.3400398
  90.1033942  39.4714031  92.8948702  90.8161914  40.1061495  92.8224603
  89.6123971  39.5677897  92.0788703  91.8251469  33.3765283  84.4665993
  90.8907748  33.4966746  84.2970698  92.0028137  32.4737750  84.2026003
  87.3256657  26.7610979  86.6199254  86.9554445  26.2082019  87.3080160
  87.8215749  26.1569113  86.0674254  95.2124020  29.2182603  85.0016027
  95.6784473  30.0510594  84.9276330  95.6631521  28.7527584  85.7061286
  85.1545856  37.2208474  93.7154272  85.8555315  37.8544957  93.8683667
  84.6840971  37.5623206  92.9549912  93.2800251  35.5626424  82.0002179
  93.5560095  35.4483018  82.9096053  92.4104750  35.1643909  81.9614352
  93.1840683  21.5863190  89.0406929  92.2703763  21.8167416  89.2089136
  93.6133785  21.6701634  89.8920961  92.9547142  29.7753082  91.5406823
  92.3018592  30.0228989  90.8859275  93.3327521  28.9617220  91.2069300
  89.9154315  39.8112775  85.6434993  90.0976710  38.9934431  86.1062745
  90.7387301  40.0280467  85.2059883  90.2496481  38.7380960  82.9050042
  90.7784247  38.2273414  82.2920204  90.5124701  38.4223490  83.7695575
  89.0034715  30.5172893  98.0272860  88.3275352  30.4167022  98.6975235
  89.8262348  30.3612106  98.4908857  80.7513574  36.7544829  90.6485375
  81.3367010  36.0088517  90.7813279  80.5538412  37.0648786  91.5322039
  83.6052229  39.7896077  85.6647817  82.9362604  40.2742204  85.1811857
  83.4665099  40.0365297  86.5791196  75.3431228  29.3250429  89.3689818
  75.3815328  28.7914020  90.1626936  74.8371521  28.7985635  88.7500795
  87.7457497  41.8239820  92.2630476  88.2975805  41.9871442  93.0279561
  88.0863691  42.4144258  91.5910501  82.7221991  24.1714970  92.8652361
  82.7863317  25.0329801  92.4529758  82.6589111  23.5588972  92.1324719
  82.1974263  26.2438102  96.5125395  82.8246302  25.8615180  97.1262919
  81.3402182  26.0252304  96.8781087  92.5968372  36.6501078  98.1179130
  93.1408276  37.2631036  97.6234085  92.0155217  37.2080656  98.6346143
  78.9739806  28.0514532  82.4443750  79.2693247  27.1425210  82.3910803
  78.0727842  28.0302271  82.1224752  90.8825885  39.7721796  89.2494158
  90.7577024  38.9711535  88.7405103  91.5404976  40.2667989  88.7608128
  82.5034053  26.1270528  88.4271298  81.7820639  26.7406496  88.2878771
  83.2927309  26.6628293  88.3487944  92.9460793  37.5730816  90.8773708
  91.9991129  37.4536167  90.8052035  93.2943566  36.6853314  90.9599969
  85.3060366  23.4624955  94.7011950  85.8294768  23.7087251  95.4638259
  85.0872700  24.2944989  94.2815087  80.7027648  25.7328629  82.5683075
  80.3740354  24.8526008  82.3858181  81.0567018  25.6776298  83.4559464
  89.9507226  37.3683532  87.0778060  89.8032189  36.4400239  87.2585630
  90.7760720  37.3903623  86.5935136  83.8169471  26.0201599  82.9358552
  84.1565543  26.5487520  82.2137161  84.2641591  26.3582005  83.7117119
  93.5541348  38.1912091  88.1642933  94.4787896  37.9854952  88.0267384
  93.3856652  37.9428492  89.0732275  86.5112912  24.4038650  92.3861620
  86.1709732  23.6046463  92.7882300  85.8051918  24.7040361  91.8138454
  87.1629383  21.4887962  90.8388943  87.9855453  21.0148440  90.7167834
  87.4067447  22.2678446  91.3387630  85.8037618  24.5176221  81.1351845
  86.5245980  24.8957473  80.6315562  85.1802922  25.2365097  81.2386823
  89.9468741  25.2221370  82.0710178  90.1632355  26.1046007  81.7699006
  89.4662808  24.8307583  81.3415820  84.6867962  28.1807083  88.6480922
  84.5412543  28.4947386  89.5405204  84.2093166  28.7991983  88.0951821
  86.5464345  25.1709631  88.6961812  86.5325914  24.2750724  88.3594110
  87.2636773  25.1780294  89.3300098  88.3990476  25.6046971  90.7414939
  88.1408254  26.5264042  90.7399270  87.8675516  25.2077405  91.4315403
  93.3436664  38.7097758  83.5205024  93.5173542  38.1444181  82.7678877
  93.8365556  39.5098653  83.3384514  79.1613624  30.7212427  91.5868583
  78.6167092  31.4972235  91.7188858  80.0392974  31.0683232  91.4287705
  85.9501241  24.0524011  83.9649382  86.0717152  23.1240657  84.1640269
  85.6603283  24.0662697  83.0527697  88.8192431  21.7378921  87.1016102
  88.8414128  21.8018255  86.1468081  89.2360490  20.8983430  87.2956608
  99.1976056  31.4734181  85.1395324  99.6407202  30.7241506  84.7414447
  98.3202566  31.4644317  84.7569056  94.3311837  38.0264522  80.6201923
  95.0262742  38.6471215  80.8389237  94.6734987  37.1759874  80.8954301
  79.9479646  29.8482323  94.4798740  79.2061382  29.9964959  95.0663371
  79.6272390  30.1090589  93.6165490  96.2303260  35.4764228  82.1489254
  96.7554584  35.8151501  81.4238574  96.1425613  34.5411243  81.9652388
  87.8923309  39.3898302  94.2779130  88.2010435  39.1447448  95.1501830
  88.6898791  39.5944940  93.7898000  87.9143921  41.5436211  86.5084507
  87.4748911  41.0512590  87.2017363  88.6652038  41.0009179  86.2676582
  80.3936260  37.7347752  86.5109135  81.2194280  37.4351524  86.1307778
  80.0430312  36.9655375  86.9598923  85.3617793  37.0874220  88.5806808
  84.7397802  36.4244925  88.2809036  86.0322660  37.1135352  87.8980456
  78.5944865  35.6534079  87.4698068  77.7576773  35.2256253  87.2882070
  78.5668510  35.8466522  88.4068860  85.4342320  25.5656008  98.1739314
  85.4830476  26.4418131  97.7917084  85.9764835  25.0233401  97.6010958
  95.9197166  36.1097132  97.4540451  95.1292710  36.0921270  96.9144951
  95.6830521  36.6485425  98.2089488  96.0395041  32.9589598  94.7673180
  96.0893046  32.7939605  95.7088703  95.9308965  32.0916857  94.3771061
  84.9231300  35.6378144  82.0565269  85.0719420  36.3213608  81.4031942
  85.7297743  35.6183234  82.5714725  93.3298804  28.9420526  96.0832487
  94.2308666  28.8026991  95.7916485  93.4046778  29.1074981  97.0230664
  87.6641609  26.3187381  94.9285673  86.7944918  26.6120947  94.6568262
  87.9001089  26.9027826  95.6492937  97.5413238  35.3786540  95.0115202
  97.2498046  35.7416520  95.8478663  96.9285369  34.6653548  94.8328534
  98.7408920  32.9439419  87.5317772  99.5755812  33.3829223  87.6955332
  98.8768049  32.4678073  86.7126018  95.7900426  30.5019154  93.4795260
  96.2654548  30.6946800  92.6714111  94.8665992  30.5578340  93.2338643
  82.6783933  31.6643321  83.0626338  82.4329975  30.7605651  83.2606548
  82.8479847  31.6660472  82.1205816  90.3680643  22.5366998  92.4451093
  90.8862587  23.2728025  92.1197582  90.0135776  22.8430991  93.2797853
  81.9479580  27.3971679  80.5612499  81.2548825  27.4716034  79.9052535
  81.7031332  26.6332023  81.0834016  90.6193237  18.9567280  87.9651990
  90.8994991  18.2890469  88.5912417  91.4043844  19.1496376  87.4526654
  88.4226705  38.1326274  79.5277016  87.8500672  38.7516461  79.0747488
  88.9959499  38.6825636  80.0616938  94.4902095  27.3784914  91.7123565
  95.4419518  27.4783012  91.7335789  94.3205546  26.5863183  92.2221650
  92.5116475  24.4640497  91.8982966  91.9166407  24.7445510  91.2029455
  92.2266171  24.9534398  92.6699707  91.6423965  38.4163424  80.6585599
  92.5754638  38.3508986  80.8618474  91.5547178  39.2519691  80.2000131
  94.2711982  37.7329295  77.6189546  94.1925613  37.3989158  78.5125304
  95.0921649  38.2251063  77.6181019  96.9690173  30.5991034  90.8265865
  96.9366493  29.6607035  91.0125549  97.5790797  30.6775071  90.0931690
  88.8073504  29.4687087  76.8693069  89.7532609  29.3393295  76.9381487
  88.4287749  28.7301749  77.3462497  97.1184662  27.3902077  90.8724148
  96.6023710  26.6060534  90.6854077  98.0024610  27.0620794  91.0370667
  94.7795388  21.1343093  86.8319961  94.5820210  20.8258181  87.7163293
  95.3895094  21.8604732  86.9617891 102.7866723  31.6607041  89.9671902
 103.5170111  31.3992329  90.5279605 102.1773668  30.9235763  90.0073970
 100.8682020  29.8014903  90.5646353 100.1415184  29.6670868  89.9562844
 100.4529307  30.1091732  91.3703071  88.6912196  33.5204833  98.3293726
  89.6115206  33.6983432  98.5233772  88.6561779  32.5760878  98.1773425
  86.9916421  27.3937063  76.8047954  86.0847876  27.0970176  76.8810668
  87.2692402  27.0966881  75.9382240  77.9094361  28.7143427  87.2547000
  77.5897146  27.8608735  86.9621374  77.3627790  28.9292005  88.0104968
  81.6874269  31.4305868  90.9716507  81.9060279  32.3622976  90.9904541
  82.1000043  31.0713842  91.7571311  88.6078487  21.9373953  82.9592195
  87.7979215  21.5921038  83.3347441  89.2962904  21.6281497  83.5479807
  90.5369035  21.0152000  84.5816492  91.0900074  21.4347453  85.2406515
  90.7739121  20.0887748  84.6239448  86.5602134  27.0039073 100.3619256
  86.4598861  27.9533430 100.2931347  86.3423676  26.6757312  99.4895326
  85.7615206  24.2523999  76.9459933  86.6234370  24.5778897  77.2055751
  85.9465550  23.4655494  76.4332999  77.7782621  32.3346338  89.2240122
  77.0846093  31.9200291  88.7110076  78.5255612  32.3766875  88.6273541
  93.9147842  23.1252525  84.0895156  93.3346511  23.7837329  83.7073209
  93.6483775  22.3029870  83.6782574  92.3651409  22.5257583  86.2916477
  92.8651187  22.6374117  85.4830795  93.0087016  22.2218636  86.9317285
  86.4233404  30.4336212  99.1784318  85.9400486  31.2336572  99.3848207
  86.5094343  30.4444157  98.2251762  79.6919364  32.2664592  87.1006137
  79.6690052  32.3652279  86.1488020  80.0020000  33.1129743  87.4223303
  82.3506742  34.3240747  91.2152751  83.3049995  34.2924689  91.1482683
  82.1519265  33.8631371  92.0302977  82.9406124  32.8941863  93.7823549
  83.7599013  33.3885942  93.8058386  83.2142932  31.9773831  93.7541117
  92.6972720  25.2852615  83.1451505  91.8098575  25.5702266  82.9271699
  93.1126709  25.1246379  82.2978781  96.0487256  25.3099136  86.8605844
  96.8247646  25.7995589  87.1330461  95.3235390  25.7357191  87.3177713
  98.4859815  26.0226756  87.9179784  99.0804306  25.7822492  87.2073093
  98.5586399  25.3033886  88.5453321  80.7056971  39.8660367  88.2322949
  80.5711439  39.1060767  87.6660947  80.2889033  40.5901266  87.7651738
  91.8415934  35.0497290  77.2399525  92.5451784  35.2547293  77.8557180
  91.1178582  35.6174052  77.5048608  92.6713744  30.8007151  83.3601795
  92.6148945  31.2575703  82.5209427  93.2242086  30.0397836  83.1824637
  96.4818550  26.5896883  84.1851914  96.2255484  26.1893519  85.0160122
  95.8571418  27.3040677  84.0602053 100.7930888  29.3292956  86.6923206
 100.2330446  29.3986146  87.4654768 100.1874391  29.1533941  85.9722702
  83.8626097  40.7629684  88.4441392  83.7458481  41.7075116  88.3420082
  83.0418543  40.4603245  88.8327191  93.7502631  35.4879819  79.2897985
  94.5848235  35.0561018  79.1075459  93.5886974  35.3161833  80.2174879
  93.4048523  31.9911933  80.6554324  93.3497327  31.8256204  79.7142768
  92.7794579  32.6987965  80.8116514  78.1941038  27.2279997  94.4815746
  78.8399902  26.7178951  94.9702971  77.9858189  27.9648679  95.0559171
  90.7194430  34.2960844  99.9807887  91.5885590  34.4701497  99.6194522
  90.2401182  35.1155261  99.8583616  86.7144649  21.4920042  80.2339642
  86.7023319  22.4361881  80.3907913  87.6068071  21.3090187  79.9399103
  84.8880611  41.4157945  91.6597320  85.7907857  41.4481556  91.9763815
  84.6617981  40.4858396  91.6743656  86.6434213  40.1688932  88.3207399
  85.6929844  40.1690794  88.2071771  86.9466699  39.4221667  87.8043434
  90.5296768  18.0862818  84.4885579  89.7629164  17.5321305  84.6342261
  90.9407473  18.1584687  85.3499731  82.5338529  24.3747614  98.5790760
  83.3969991  24.0184419  98.7894085  81.9603940  24.0361509  99.2666165
 102.3786906  46.0049470  89.3853161 103.0165316  45.8856218  88.6816501
 102.2607749  46.9530314  89.4441113  99.1876612  45.9576898  89.3214686
  98.8495124  45.8417963  88.4335221 100.0566381  45.5568064  89.3015692
  95.0463428  47.8112375  85.3111577  94.4828293  47.7202312  84.5427865
  94.9315823  46.9912279  85.7914069  99.6696395  47.1111750  95.2800892
  99.6585036  46.7164548  94.4081395  99.8317035  46.3777823  95.8734663
  92.5927860  49.3063566  88.1495797  93.3849152  48.9654391  87.7342097
  92.8324510  49.4158542  89.0697951 100.6262987  51.4783343  80.6226042
  99.9750967  52.0637423  80.2360056 101.4207350  52.0089537  80.6821079
  94.5518614  48.5672480  81.0213176  95.3249490  48.0201467  80.8826052
  94.9044013  49.4316729  81.2327638  96.3903657  49.8948862  94.2280076
  96.0993523  50.7994493  94.1126742  97.0260641  49.9365390  94.9424145
  97.3159863  47.2725711  90.8181435  97.9123436  47.0481733  90.1038398
  97.3734835  46.5310456  91.4206883  96.8884892  44.7265146  78.6531626
  97.1410412  44.2046667  77.8915089  95.9509451  44.5631291  78.7558310
 101.9328175  43.7300924  86.4606369 102.7191264  43.3120347  86.1096786
 102.1966879  44.6347016  86.6288018 102.1038252  49.1673775  81.1595026
 101.4684085  49.2408401  81.8715931 101.7735658  49.7567373  80.4814105
 107.3336602  43.6676157  87.3639348 108.0661774  43.0975374  87.5977177
 106.5775957  43.2797758  87.8045853  96.6081181  46.6293252  80.8556001
  96.4917439  45.9538155  81.5237085  96.7183440  46.1425626  80.0388154
  98.9512721  46.0903399  84.5602690  98.5870929  45.5634020  85.2715612
  99.8079837  45.7001868  84.3869176 104.8562022  37.3797732  91.8233956
 104.5245347  38.2493142  91.5995171 104.2607635  37.0634016  92.5027987
  98.5918208  41.1193299  79.5564039  98.7592611  41.9873535  79.9234510
  98.4015378  41.2820580  78.6325328 101.3493542  49.5810277  91.2229869
 101.0494265  50.4835316  91.1145676 101.0044601  49.3142461  92.0751022
  94.8006023  46.0324074  87.2566574  93.8756520  45.9000288  87.4644265
  95.0490436  46.8118294  87.7536516 104.7490685  42.0992818  88.9027307
 103.8407563  42.0308226  88.6086067 104.6978281  42.5764763  89.7309132
  98.5707429  43.5750956  80.5410706  98.4507055  44.0208007  81.3796186
  97.8760018  43.9236274  79.9824244  92.1614834  45.6757348  88.0910363
  92.2907215  45.9291827  89.0049774  91.4812285  46.2685056  87.7715018
  96.3314321  56.3454598  84.1900837  96.2538351  57.2962423  84.2689317
  95.7275965  56.0000470  84.8475763  98.8231551  43.5182463  96.8462204
  98.0464885  44.0776383  96.8365068  99.4622114  44.0039246  97.3677074
 106.6152332  40.3009256  90.6805180 105.9726712  40.5941789  90.0344975
 106.1107260  40.1862176  91.4858377 104.2692495  44.0472429  81.3691040
 105.1810352  44.2799816  81.1938737 103.7602143  44.6309473  80.8066118
  97.0777924  46.3267917  96.4080171  97.8192608  46.8652961  96.1314994
  96.3714909  46.9534205  96.5651723 102.5533263  48.4697057  95.0052332
 102.9616619  48.0279468  94.2606965 101.8310525  47.8949685  95.2586525
  98.9064333  43.4069664  92.3785889  99.7525528  43.8309077  92.5220538
  98.8462971  42.7503288  93.0724452 102.8762078  49.0298248  88.7604621
 102.2470940  49.1943962  88.0580689 102.4887740  49.4439857  89.5315585
 106.7551310  49.9652686  86.1148985 106.0702348  50.3451587  85.5646018
 106.8395159  50.5748012  86.8480933 102.0563779  41.0674032  94.0367063
 101.8124710  41.8216093  93.5001339 102.3323709  41.4459380  94.8714310
 104.0102241  47.6112645  92.7144328 104.2219137  48.2544404  92.0378710
 103.9631990  46.7774961  92.2466259 101.6128470  40.2230465  89.6180901
 100.7512949  40.5211719  89.9097638 101.6390905  40.4400864  88.6861933
  98.4290040  48.7672656  86.0254706  98.8928385  49.0460359  85.2359329
  98.1646838  47.8656100  85.8427797  95.3214121  48.3144137  88.9634470
  95.8915478  48.7431406  88.3251954  95.9122233  48.0326722  89.6618655
  97.3658926  44.8895808  82.8344271  98.0682969  45.3416852  83.3018198
  97.0339554  44.2479627  83.4624165  95.8139287  43.4807565  97.2095481
  95.1837948  44.1623846  97.4430878  95.7075375  43.3690646  96.2648619
  91.1084260  43.1479361  88.1361405  90.3183314  43.4036889  87.6601516
  91.5995507  43.9627699  88.2413446 105.1248069  50.4884600  90.8866686
 105.9465513  50.0864787  90.6049367 105.1210472  50.3852834  91.8382802
  93.0599005  43.5123940  85.0944882  92.2630168  43.6242634  85.6128377
  92.8324597  43.8510592  84.2285772  98.8904673  50.0368643  93.0427396
  98.9549105  50.4989051  93.8785568  98.1815597  49.4066008  93.1709706
  89.3921963  43.4009851  90.5676396  89.6430001  44.2856861  90.8333972
  89.9281511  43.2214453  89.7951488 113.2154062  46.8323348  87.2351657
 112.4617771  46.2630747  87.0795662 113.3501604  46.7986013  88.1822292
  98.6052690  51.7036751  82.9106377  98.4698365  52.5488287  83.3391224
  99.1462503  51.9056028  82.1472310  95.0920030  37.7828331  99.5720732
  94.6986976  37.2294529 100.2468376  95.9086170  38.0938909  99.9627249
  92.0582088  49.2212189  83.4834302  92.5706608  50.0155439  83.6339866
  92.7104801  48.5238479  83.4167903  93.8676972  52.3377945  85.5657055
  94.0443601  53.2595910  85.3778039  94.6633806  52.0236364  85.9951435
  98.0087991  39.1986210  97.1640988  98.7497704  39.7993363  97.0845451
  98.2405914  38.4563848  96.6059031  93.1529329  44.3842577  95.4419218
  93.0382844  43.4827834  95.7426317  92.2973847  44.6306274  95.0904035
 100.2321167  52.3260317  97.0406719  99.7885021  51.5396696  96.7227623
 100.8938380  52.5139468  96.3750609  94.9908288  53.8556119  91.5667397
  95.5415713  53.7273182  90.7944391  94.1519764  54.1551008  91.2162290
 102.3302405  52.6063117  95.0688120 102.3120880  53.4271998  94.5768389
 103.2522325  52.4817192  95.2938261  98.7875459  50.1207247  95.9111628
  99.3203796  49.3595535  95.6810936  98.2589540  49.8280899  96.6535783
 101.9545154  35.2267313  91.4405270 101.6109423  36.1168954  91.3644381
 102.3224117  35.0368970  90.5774855  90.0231005  47.5500843  84.2593872
  90.8606227  47.9597852  84.0427580  90.2009272  46.6100285  84.2294066
 101.9195437  45.2175924  79.9477705 101.4042060  45.9880528  80.1866093
 101.6472745  44.5441060  80.5710767  99.5042548  40.0625625  85.0062944
  98.6484144  39.6732475  84.8268582  99.9169499  40.1417585  84.1462729
 101.0341694  37.5971968  89.4054503 100.5306490  37.5602103  88.5922309
 101.3272301  38.5064711  89.4651160  97.2784580  37.6810698  88.4120685
  98.1437577  37.4853506  88.0526575  97.3462089  37.4521049  89.3390042
 106.8929711  47.9708278  81.8830879 106.1159154  47.6319438  81.4386041
 107.5721192  47.9760902  81.2085844 101.7081740  43.0903016  81.7737486
 101.4031875  43.4049165  82.6247630 102.6612182  43.1684436  81.8164819
 100.1528172  49.2493239  83.4230440  99.6249533  48.5145999  83.1103678
  99.6515674  50.0267916  83.1770409 105.1321018  47.4442260  88.5397487
 104.4744692  48.1341521  88.6277615 105.9361417  47.8338692  88.8831473
  94.8846899  39.9112905  85.7837052  95.4590651  39.6888087  85.0510245
  95.4717882  39.9801600  86.5365653 103.9426476  45.7986632  86.5901428
 104.4558358  46.4316624  87.0923138 104.5927700  45.1987828  86.2244788
  95.2116486  41.9417367  79.8032937  94.3753799  42.2792053  80.1242212
  95.0721256  41.8066346  78.8660074  97.1869567  36.7854154  84.5112121
  96.5333979  36.4703172  83.8868736  97.1450041  36.1629895  85.2371944
  98.2980772  47.0673449  76.4265413  97.3907834  46.8362703  76.6256562
  98.7951804  46.2711069  76.6139395 101.2048851  55.7770957  79.3462100
 100.5310549  56.0802653  79.9547057 101.5914673  56.5800037  78.9967557
 100.4207307  43.2736088  88.8359769  99.5029869  43.4951035  88.6781457
 100.8367451  43.3482398  87.9771476 101.2042355  44.6727504  83.9662449
 101.9514174  45.1848901  83.6569571 101.4733945  44.3511556  84.8266843
  99.4769005  47.1686044  80.9489403  98.5680225  46.8845077  81.0461873
  99.5064089  47.5885123  80.0892710 104.7088273  50.7792634  84.7180571
 104.2550600  49.9383544  84.7745762 104.0782239  51.4154032  85.0555351
 103.6521192  41.7084620  85.9481238 102.9143949  41.1962006  86.2791481
 103.9047966  41.2685001  85.1364515 103.1521212  52.6169131  85.6530389
 103.4444186  53.1774188  84.9342755 103.6619833  52.9097692  86.4083548
 103.7532820  34.4860872  86.5423008 104.0591696  33.6258235  86.2548923
 104.4785424  35.0778492  86.3422002  90.0457176  44.8891558  84.9304606
  89.8481575  44.2960919  84.2055672  89.4903840  44.5843769  85.6480544
  98.0253899  44.7814665  87.0499199  98.0802509  43.8288501  86.9741675
  97.2145101  44.9374104  87.5340497  99.1745093  48.7094788  78.2877482
  98.7364523  47.9930647  77.8283119  99.9155534  48.9370903  77.7262573
  95.9646259  43.3991725  84.8089578  95.1514125  43.6985895  85.2154770
  96.4605253  43.0047413  85.5264060  98.1154837  53.3949482  86.7423842
  98.0731016  53.6210328  85.8132374  99.0317536  53.1612856  86.8909644
 101.5620471  43.8633549  93.6404472 101.9169859  44.0905022  94.4998937
 102.2092602  44.1951926  93.0181727 107.2918208  46.9851985  84.3453801
 107.1536106  47.1753581  83.4174990 106.9354427  47.7471368  84.8021852
  95.4560334  40.9710080  90.4250813  96.0959713  40.8298839  89.7273776
  94.6237865  40.6844594  90.0489415 107.3187587  49.0528512  89.3565072
 107.7524094  48.9603801  90.2048126 108.0319168  49.0286013  88.7185088
  96.2320638  50.2712511  86.5385805  97.0261236  49.7762831  86.3368380
  95.5212330  49.7430374  86.1753511 101.0515482  52.6530606  90.8898173
 101.1052505  53.2221542  91.6575889 100.1830264  52.8232491  90.5252210
  92.5403401  44.4155592  82.6145558  91.6100989  44.3540048  82.8315520
  92.6360873  43.8931545  81.8182199  92.4588950  40.9410405  85.2023799
  92.7195768  41.8555738  85.0932960  93.2806123  40.4734848  85.3520412
  93.9313876  42.3548162  92.3722624  94.6036929  42.1465524  91.7235273
  93.1043662  42.1570248  91.9327856 108.1803137  49.0952213  91.8897958
 108.3739027  49.9998023  92.1357232 108.0803755  48.6359632  92.7236543
  99.8339448  38.9810103  94.3888285  99.1867363  39.6800053  94.2952761
 100.6040463  39.4146247  94.7564533 103.2418246  49.2458955  97.4638838
 103.0903752  49.0169507  96.5468922 103.2322925  50.2029557  97.4770183
 100.0103582  46.8190868  92.4485105 100.9395642  46.9702028  92.2754072
  99.5894612  46.9074889  91.5933751  98.8091914  50.8441533  90.2183642
  98.6703000  50.4760317  91.0909580  98.0206510  51.3589172  90.0467600
  99.4040066  55.9450629  81.5609179  99.5791822  55.4738672  82.3754801
  98.7172854  56.5716395  81.7890439 100.3597129  50.2223135  87.6072480
 100.0246962  50.1823905  88.5030130  99.8601075  49.5567851  87.1342890
  94.3341373  45.6290765  93.1325061  94.1961171  44.8971004  93.7336600
  95.2446296  45.5399665  92.8509249 103.2956321  47.5679170  77.8809540
 102.6785491  46.8425998  77.7842592 102.8272809  48.3288530  77.5376614
  96.9623674  45.3410725  92.6208741  97.6723292  44.7003917  92.5795359
  96.9192982  45.5923620  93.5434922 104.9510452  52.2778078  95.5415320
 104.8922999  51.5937298  94.8745903 105.3529971  53.0197068  95.0895946
  95.6752608  42.3275943  94.4404380  95.1389965  41.8766681  95.0925977
  95.0869316  42.4621851  93.6974845  93.9701151  59.0939992  88.3349039
  94.2097749  59.7258516  89.0128057  93.1270348  58.7428032  88.6214398
  95.0854867  41.7864594  77.0030844  94.2084333  41.6653395  76.6393091
  95.5612620  40.9950672  76.7509733 104.9527860  50.2417662  93.7729300
 104.0654638  49.9043584  93.8955699 105.5226411  49.5100693  94.0098065
  86.6057007  46.5741754  87.0972351  87.2928047  46.2603484  86.5093366
  86.4505135  47.4783118  86.8239602  91.4091729  41.4631950  91.5257375
  91.3249918  40.8557620  90.7907785  90.5874435  41.9540969  91.5266871
  98.4829013  54.9019114  90.7390543  98.4099185  55.7074086  91.2509847
  98.0406406  55.1011080  89.9138564  98.2718793  54.1390884  84.2493364
  97.4886315  54.6812565  84.3431589  98.9711538  54.6564864  84.6487606
 101.5815443  39.9485514  86.8927570 102.0784142  39.1955476  86.5728640
 100.8102424  39.9849830  86.3270779 109.4345200  45.6525879  88.5345861
 109.4235076  46.5350595  88.1639794 108.5662580  45.2997430  88.3400398
 100.9427697  54.8005948  92.8948702 101.6555669  55.4353413  92.8224603
 100.4517725  54.8969814  92.0788703 102.6645223  48.7057201  84.4665993
 101.7301502  48.8258663  84.2970698 102.8421892  47.8029668  84.2026003
  98.1650412  42.0902897  86.6199254  97.7948199  41.5373937  87.3080160
  98.6609504  41.4861030  86.0674254 106.0517775  44.5474520  85.0016027
 106.5178227  45.3802512  84.9276330 106.5025275  44.0819502  85.7061286
  95.9939610  52.5500392  93.7154272  96.6949070  53.1836875  93.8683667
  95.5234725  52.8915123  92.9549912 104.1194006  50.8918342  82.0002179
 104.3953850  50.7774936  82.9096053 103.2498505  50.4935826  81.9614352
 104.0234438  36.9155107  89.0406929 103.1097517  37.1459334  89.2089136
 104.4527539  36.9993551  89.8920961 103.7940896  45.1044999  91.5406823
 103.1412346  45.3520907  90.8859275 104.1721276  44.2909137  91.2069300
 100.7548070  55.1404692  85.6434993 100.9370464  54.3226348  86.1062745
 101.5781056  55.3572385  85.2059883 101.0890235  54.0672878  82.9050042
 101.6178002  53.5565332  82.2920204 101.3518455  53.7515408  83.7695575
  99.8428469  45.8464810  98.0272860  99.1669106  45.7458940  98.6975235
 100.6656103  45.6904024  98.4908857  91.5907328  52.0836747  90.6485375
  92.1760765  51.3380435  90.7813279  91.3932167  52.3940704  91.5322039
  94.4445983  55.1187994  85.6647817  93.7756359  55.6034122  85.1811857
  94.3058853  55.3657215  86.5791196  86.1824983  44.6542347  89.3689818
  86.2209082  44.1205938  90.1626936  85.6765276  44.1277553  88.7500795
  98.5851252  57.1531738  92.2630476  99.1369560  57.3163359  93.0279561
  98.9257445  57.7436176  91.5910501  93.5615745  39.5006888  92.8652361
  93.6257072  40.3621718  92.4529758  93.4982865  38.8880889  92.1324719
  93.0368018  41.5730020  96.5125395  93.6640057  41.1907097  97.1262919
  92.1795937  41.3544222  96.8781087 103.4362126  51.9792995  98.1179130
 103.9802030  52.5922954  97.6234085 102.8548971  52.5372574  98.6346143
  89.8133560  43.3806449  82.4443750  90.1087002  42.4717128  82.3910803
  88.9121596  43.3594189  82.1224752 101.7219639  55.1013713  89.2494158
 101.5970779  54.3003453  88.7405103 102.3798730  55.5959907  88.7608128
  93.3427807  41.4562446  88.4271298  92.6214393  42.0698413  88.2878771
  94.1321063  41.9920211  88.3487944 103.7854548  52.9022733  90.8773708
 102.8384883  52.7828085  90.8052035 104.1337321  52.0145231  90.9599969
  96.1454121  38.7916872  94.7011950  96.6688523  39.0379169  95.4638259
  95.9266454  39.6236907  94.2815087  91.5421402  41.0620547  82.5683075
  91.2134108  40.1817926  82.3858181  91.8960773  41.0068216  83.4559464
 100.7900981  52.6975450  87.0778060 100.6425943  51.7692157  87.2585630
 101.6154474  52.7195540  86.5935136  94.6563225  41.3493517  82.9358552
  94.9959298  41.8779438  82.2137161  95.1035346  41.6873923  83.7117119
 104.3935103  53.5204008  88.1642933 105.3181650  53.3146870  88.0267384
 104.2250406  53.2720409  89.0732275  97.3506666  39.7330567  92.3861620
  97.0103486  38.9338380  92.7882300  96.6445672  40.0332278  91.8138454
  98.0023138  36.8179880  90.8388943  98.8249207  36.3440358  90.7167834
  98.2461201  37.5970364  91.3387630  96.6431372  39.8468138  81.1351845
  97.3639735  40.2249391  80.6315562  96.0196676  40.5657015  81.2386823
 100.7862495  40.5513287  82.0710178 101.0026110  41.4337925  81.7699006
 100.3056562  40.1599501  81.3415820  95.5261717  43.5099000  88.6480922
  95.3806297  43.8239304  89.5405204  95.0486920  44.1283901  88.0951821
  97.3858099  40.5001548  88.6961812  97.3719668  39.6042642  88.3594110
  98.1030528  40.5072212  89.3300098  99.2384230  40.9338889  90.7414939
  98.9802008  41.8555959  90.7399270  98.7069271  40.5369323  91.4315403
 104.1830419  54.0389676  83.5205024 104.3567296  53.4736098  82.7678877
 104.6759310  54.8390571  83.3384514  90.0007379  46.0504345  91.5868583
  89.4560847  46.8264153  91.7188858  90.8786729  46.3975149  91.4287705
  96.7894995  39.3815929  83.9649382  96.9110907  38.4532575  84.1640269
  96.4997038  39.3954615  83.0527697  99.6586186  37.0670839  87.1016102
  99.6807883  37.1310172  86.1468081 100.0754245  36.2275348  87.2956608
 110.0369810  46.8026099  85.1395324 110.4800956  46.0533424  84.7414447
 109.1596320  46.7936235  84.7569056 105.1705591  53.3556440  80.6201923
 105.8656496  53.9763133  80.8389237 105.5128742  52.5051791  80.8954301
  90.7873401  45.1774241  94.4798740  90.0455137  45.3256876  95.0663371
  90.4666145  45.4382507  93.6165490 107.0697015  50.8056146  82.1489254
 107.5948339  51.1443418  81.4238574 106.9819367  49.8703161  81.9652388
  98.7317063  54.7190219  94.2779130  99.0404190  54.4739366  95.1501830
  99.5292545  54.9236858  93.7898000  98.7537675  56.8728129  86.5084507
  98.3142666  56.3804508  87.2017363  99.5045792  56.3301097  86.2676582
  91.2330014  53.0639670  86.5109135  92.0588034  52.7643442  86.1307778
  90.8824066  52.2947292  86.9598923  96.2011547  52.4166138  88.5806808
  95.5791557  51.7536843  88.2809036  96.8716414  52.4427270  87.8980456
  89.4338619  50.9825996  87.4698068  88.5970528  50.5548171  87.2882070
  89.4062265  51.1758440  88.4068860  96.2736075  40.8947926  98.1739314
  96.3224230  41.7710049  97.7917084  96.8158589  40.3525319  97.6010958
 106.7590921  51.4389049  97.4540451 105.9686464  51.4213188  96.9144951
 106.5224275  51.9777343  98.2089488 106.8788796  48.2881516  94.7673180
 106.9286801  48.1231523  95.7088703 106.7702719  47.4208775  94.3771061
  95.7625054  50.9670061  82.0565269  95.9113175  51.6505526  81.4031942
  96.5691498  50.9475151  82.5714725 104.1692558  44.2712444  96.0832487
 105.0702421  44.1318909  95.7916485 104.2440533  44.4366899  97.0230664
  98.5035363  41.6479298  94.9285673  97.6338673  41.9412865  94.6568262
  98.7394844  42.2319743  95.6492937 108.3806993  50.7078457  95.0115202
 108.0891801  51.0708438  95.8478663 107.7679124  49.9945465  94.8328534
 109.5802675  48.2731337  87.5317772 110.4149566  48.7121141  87.6955332
 109.7161804  47.7969990  86.7126018 106.6294181  45.8311072  93.4795260
 107.1048302  46.0238718  92.6714111 105.7059746  45.8870258  93.2338643
  93.5177687  46.9935239  83.0626338  93.2723729  46.0897569  83.2606548
  93.6873602  46.9952389  82.1205816 101.2074397  37.8658915  92.4451093
 101.7256341  38.6019942  92.1197582 100.8529530  38.1722909  93.2797853
  92.7873335  42.7263597  80.5612499  92.0942580  42.8007952  79.9052535
  92.5425087  41.9623940  81.0834016 101.4586991  34.2859198  87.9651990
 101.7388745  33.6182387  88.5912417 102.2437598  34.4788294  87.4526654
  99.2620460  53.4618192  79.5277016  98.6894427  54.0808379  79.0747488
  99.8353254  54.0117554  80.0616938 105.3295850  42.7076832  91.7123565
 106.2813273  42.8074930  91.7335789 105.1599300  41.9155100  92.2221650
 103.3510229  39.7932415  91.8982966 102.7560161  40.0737428  91.2029455
 103.0659926  40.2826316  92.6699707 102.4817720  53.7455342  80.6585599
 103.4148393  53.6800904  80.8618474 102.3940933  54.5811609  80.2000131
 105.1105736  53.0621212  77.6189546 105.0319368  52.7281076  78.5125304
 105.9315403  53.5542980  77.6181019 107.8083928  45.9282952  90.8265865
 107.7760248  44.9898952  91.0125549 108.4184551  46.0066988  90.0931690
  99.6467258  44.7979005  76.8693069 100.5926363  44.6685213  76.9381487
  99.2681503  44.0593666  77.3462497 107.9578416  42.7193995  90.8724148
 107.4417465  41.9352452  90.6854077 108.8418365  42.3912712  91.0370667
 105.6189143  36.4635011  86.8319961 105.4213964  36.1550099  87.7163293
 106.2288849  37.1896650  86.9617891 113.6260477  46.9898958  89.9671902
 114.3563866  46.7284247  90.5279605 113.0167423  46.2527680  90.0073970
 111.7075775  45.1306821  90.5646353 110.9808938  44.9962786  89.9562844
 111.2923061  45.4383650  91.3703071  99.5305951  48.8496751  98.3293726
 100.4508960  49.0275350  98.5233772  99.4955534  47.9052796  98.1773425
  97.8310176  42.7228981  76.8047954  96.9241631  42.4262094  76.8810668
  98.1086157  42.4258799  75.9382240  88.7488116  44.0435344  87.2547000
  88.4290900  43.1900653  86.9621374  88.2021544  44.2583923  88.0104968
  92.5268023  46.7597785  90.9716507  92.7454033  47.6914893  90.9904541
  92.9393797  46.4005760  91.7571311  99.4472241  37.2665871  82.9592195
  98.6372970  36.9212956  83.3347441 100.1356658  36.9573414  83.5479807
 101.3762790  36.3443918  84.5816492 101.9293828  36.7639371  85.2406515
 101.6132876  35.4179666  84.6239448  97.3995889  42.3330991 100.3619256
  97.2992616  43.2825348 100.2931347  97.1817431  42.0049230  99.4895326
  96.6008960  39.5815916  76.9459933  97.4628124  39.9070815  77.2055751
  96.7859304  38.7947412  76.4332999  88.6176376  47.6638256  89.2240122
  87.9239847  47.2492209  88.7110076  89.3649367  47.7058792  88.6273541
 104.7541597  38.4544443  84.0895156 104.1740266  39.1129247  83.7073209
 104.4877529  37.6321787  83.6782574 103.2045163  37.8549500  86.2916477
 103.7044941  37.9666035  85.4830795 103.8480771  37.5510553  86.9317285
  97.2627159  45.7628130  99.1784318  96.7794241  46.5628490  99.3848207
  97.3488098  45.7736075  98.2251762  90.5313118  47.5956510  87.1006137
  90.5083807  47.6944197  86.1488020  90.8413755  48.4421660  87.4223303
  93.1900496  49.6532665  91.2152751  94.1443750  49.6216607  91.1482683
  92.9913020  49.1923288  92.0302977  93.7799878  48.2233781  93.7823549
  94.5992767  48.7177859  93.8058386  94.0536686  47.3065749  93.7541117
 103.5366475  40.6144533  83.1451505 102.6492330  40.8994184  82.9271699
 103.9520464  40.4538296  82.2978781 106.8881011  40.6391054  86.8605844
 107.6641401  41.1287506  87.1330461 106.1629145  41.0649108  87.3177713
 109.3253569  41.3518673  87.9179784 109.9198060  41.1114409  87.2073093
 109.3980153  40.6325804  88.5453321  91.5450725  55.1952284  88.2322949
  91.4105193  54.4352685  87.6660947  91.1282787  55.9193184  87.7651738
 102.6809688  50.3789208  77.2399525 103.3845538  50.5839210  77.8557180
 101.9572337  50.9465970  77.5048608 103.5107498  46.1299069  83.3601795
 103.4542700  46.5867620  82.5209427 104.0635841  45.3689754  83.1824637
 107.3212304  41.9188801  84.1851914 107.0649239  41.5185437  85.0160122
 106.6965172  42.6332595  84.0602053 111.6324642  44.6584874  86.6923206
 111.0724200  44.7278063  87.4654768 111.0268146  44.4825859  85.9722702
  94.7019851  56.0921601  88.4441392  94.5852235  57.0367034  88.3420082
  93.8812297  55.7895163  88.8327191 104.5896386  50.8171737  79.2897985
 105.4241989  50.3852935  79.1075459 104.4280728  50.6453751  80.2174879
 104.2442278  47.3203850  80.6554324 104.1891082  47.1548122  79.7142768
 103.6188333  48.0279883  80.8116514  89.0334793  42.5571915  94.4815746
  89.6793656  42.0470869  94.9702971  88.8251944  43.2940596  95.0559171
 101.5588185  49.6252762  99.9807887 102.4279345  49.7993414  99.6194522
 101.0794936  50.4447179  99.8583616  97.5538403  36.8211959  80.2339642
  97.5417073  37.7653799  80.3907913  98.4461825  36.6382105  79.9399103
  95.7274365  56.7449863  91.6597320  96.6301612  56.7773473  91.9763815
  95.5011735  55.8150314  91.6743656  97.4827967  55.4980850  88.3207399
  96.5323598  55.4982711  88.2071771  97.7860453  54.7513584  87.8043434
 101.3690523  33.4154736  84.4885579 100.6022918  32.8613223  84.6342261
 101.7801228  33.4876605  85.3499731  93.3732284  39.7039532  98.5790760
  94.2363745  39.3476337  98.7894085  92.7997694  39.3653426  99.2666165
 113.2180661  61.3341388  89.3853161 113.8559071  61.2148135  88.6816501
 113.1001504  62.2822232  89.4441113 110.0270367  61.2868816  89.3214686
 109.6888878  61.1709881  88.4335221 110.8960135  60.8859981  89.3015692
 105.8857183  63.1404293  85.3111577 105.3222048  63.0494229  84.5427865
 105.7709578  62.3204197  85.7914069 110.5090150  62.4403668  95.2800892
 110.4978791  62.0456466  94.4081395 110.6710789  61.7069740  95.8734663
 103.4321615  64.6355484  88.1495797 104.2242906  64.2946309  87.7342097
 103.6718265  64.7450459  89.0697951 111.4656741  66.8075260  80.6226042
 110.8144721  67.3929341  80.2360056 112.2601104  67.3381455  80.6821079
 105.3912368  63.8964397  81.0213176 106.1643244  63.3493384  80.8826052
 105.7437767  64.7608647  81.2327638 107.2297411  65.2240780  94.2280076
 106.9387277  66.1286411  94.1126742 107.8654395  65.2657307  94.9424145
 108.1553618  62.6017628  90.8181435 108.7517190  62.3773651  90.1038398
 108.2128589  61.8602374  91.4206883 107.7278646  60.0557064  78.6531626
 107.9804167  59.5338585  77.8915089 106.7903205  59.8923209  78.7558310
 112.7721929  59.0592842  86.4606369 113.5585018  58.6412265  86.1096786
 113.0360633  59.9638934  86.6288018 112.9432006  64.4965692  81.1595026
 112.3077839  64.5700319  81.8715931 112.6129413  65.0859291  80.4814105
 118.1730356  58.9968075  87.3639348 118.9055528  58.4267292  87.5977177
 117.4169712  58.6089676  87.8045853 107.4474935  61.9585169  80.8556001
 107.3311193  61.2830073  81.5237085 107.5577195  61.4717543  80.0388154
 109.7906476  61.4195317  84.5602690 109.4264683  60.8925938  85.2715612
 110.6473592  61.0293786  84.3869176 115.6955777  52.7089649  91.8233956
 115.3639101  53.5785060  91.5995171 115.1001390  52.3925933  92.5027987
 109.4311963  56.4485216  79.5564039 109.5986365  57.3165453  79.9234510
 109.2409132  56.6112498  78.6325328 112.1887296  64.9102195  91.2229869
 111.8888019  65.8127234  91.1145676 111.8438356  64.6434378  92.0751022
 105.6399778  61.3615992  87.2566574 104.7150274  61.2292206  87.4644265
 105.8884191  62.1410211  87.7536516 115.5884440  57.4284735  88.9027307
 114.6801317  57.3600144  88.6086067 115.5372036  57.9056680  89.7309132
 109.4101184  58.9042874  80.5410706 109.2900809  59.3499925  81.3796186
 108.7153772  59.2528191  79.9824244 103.0008589  61.0049266  88.0910363
 103.1300970  61.2583744  89.0049774 102.3206040  61.5976974  87.7715018
 107.1708076  71.6746516  84.1900837 107.0932106  72.6254341  84.2689317
 106.5669720  71.3292388  84.8475763 109.6625306  58.8474381  96.8462204
 108.8858640  59.4068301  96.8365068 110.3015869  59.3331164  97.3677074
 117.4546086  55.6301174  90.6805180 116.8120467  55.9233707  90.0344975
 116.9501015  55.5154094  91.4858377 115.1086250  59.3764347  81.3691040
 116.0204106  59.6091734  81.1938737 114.5995897  59.9601391  80.8066118
 107.9171678  61.6559834  96.4080171 108.6586362  62.1944878  96.1314994
 107.2108663  62.2826123  96.5651723 113.3927018  63.7988975  95.0052332
 113.8010374  63.3571385  94.2606965 112.6704279  63.2241602  95.2586525
 109.7458088  58.7361582  92.3785889 110.5919283  59.1600995  92.5220538
 109.6856725  58.0795206  93.0724452 113.7155832  64.3590165  88.7604621
 113.0864695  64.5235880  88.0580689 113.3281494  64.7731775  89.5315585
 117.5945064  65.2944603  86.1148985 116.9096102  65.6743505  85.5646018
 117.6788914  65.9039930  86.8480933 112.8957533  56.3965950  94.0367063
 112.6518465  57.1508010  93.5001339 113.1717464  56.7751298  94.8714310
 114.8495996  62.9404562  92.7144328 115.0612891  63.5836322  92.0378710
 114.8025744  62.1066879  92.2466259 112.4522225  55.5522383  89.6180901
 111.5906704  55.8503636  89.9097638 112.4784659  55.7692782  88.6861933
 109.2683794  64.0964573  86.0254706 109.7322140  64.3752276  85.2359329
 109.0040592  63.1948018  85.8427797 106.1607875  63.6436055  88.9634470
 106.7309232  64.0723323  88.3251954 106.7515987  63.3618640  89.6618655
 108.2052680  60.2187726  82.8344271 108.9076724  60.6708770  83.3018198
 107.8733309  59.5771545  83.4624165 106.6533042  58.8099482  97.2095481
 106.0231702  59.4915763  97.4430878 106.5469130  58.6982564  96.2648619
 101.9478014  58.4771279  88.1361405 101.1577068  58.7328807  87.6601516
 102.4389262  59.2919616  88.2413446 115.9641824  65.8176518  90.8866686
 116.7859267  65.4156705  90.6049367 115.9604227  65.7144752  91.8382802
 103.8992760  58.8415858  85.0944882 103.1023923  58.9534552  85.6128377
 103.6718352  59.1802510  84.2285772 109.7298427  65.3660561  93.0427396
 109.7942860  65.8280968  93.8785568 109.0209351  64.7357926  93.1709706
 100.2315717  58.7301769  90.5676396 100.4823756  59.6148779  90.8333972
 100.7675266  58.5506370  89.7951488 109.4446445  67.0328668  82.9106377
 109.3092120  67.8780204  83.3391224 109.9856257  67.2347946  82.1472310
 105.9313784  53.1120248  99.5720732 105.5380730  52.5586447 100.2468376
 106.7479925  53.4230827  99.9627249 102.8975842  64.5504107  83.4834302
 103.4100363  65.3447357  83.6339866 103.5498555  63.8530397  83.4167903
 104.7070727  67.6669863  85.5657055 104.8837355  68.5887827  85.3778039
 105.5027560  67.3528282  85.9951435 108.8481745  54.5278127  97.1640988
 109.5891459  55.1285281  97.0845451 109.0799668  53.7855765  96.6059031
 103.9923083  59.7134495  95.4419218 103.8776599  58.8119752  95.7426317
 103.1367601  59.9598191  95.0904035 111.0714921  67.6552235  97.0406719
 110.6278775  66.8688614  96.7227623 111.7332135  67.8431385  96.3750609
 105.8302042  69.1848037  91.5667397 106.3809468  69.0565100  90.7944391
 104.9913518  69.4842926  91.2162290 113.1696159  67.9355035  95.0688120
 113.1514635  68.7563916  94.5768389 114.0916079  67.8109110  95.2938261
 109.6269213  65.4499164  95.9111628 110.1597550  64.6887453  95.6810936
 109.0983295  65.1572816  96.6535783 112.7938908  50.5559230  91.4405270
 112.4503178  51.4460872  91.3644381 113.1617871  50.3660888  90.5774855
 100.8624759  62.8792761  84.2593872 101.6999981  63.2889769  84.0427580
 101.0403027  61.9392203  84.2294066 112.7589191  60.5467841  79.9477705
 112.2435815  61.3172446  80.1866093 112.4866500  59.8732978  80.5710767
 110.3436302  55.3917542  85.0062944 109.4877899  55.0024393  84.8268582
 110.7563254  55.4709503  84.1462729 111.8735449  52.9263886  89.4054503
 111.3700244  52.8894021  88.5922309 112.1666056  53.8356628  89.4651160
 108.1178335  53.0102615  88.4120685 108.9831331  52.8145424  88.0526575
 108.1855844  52.7812967  89.3390042 117.7323465  63.3000196  81.8830879
 116.9552908  62.9611356  81.4386041 118.4114946  63.3052819  81.2085844
 112.5475494  58.4194934  81.7737486 112.2425630  58.7341083  82.6247630
 113.5005936  58.4976353  81.8164819 110.9921926  64.5785157  83.4230440
 110.4643288  63.8437916  83.1103678 110.4909429  65.3559833  83.1770409
 115.9714772  62.7734177  88.5397487 115.3138447  63.4633439  88.6277615
 116.7755171  63.1630609  88.8831473 105.7240654  55.2404823  85.7837052
 106.2984406  55.0180005  85.0510245 106.3111636  55.3093518  86.5365653
 114.7820231  61.1278550  86.5901428 115.2952113  61.7608542  87.0923138
 115.4321455  60.5279746  86.2244788 106.0510241  57.2709284  79.8032937
 105.2147553  57.6083971  80.1242212 105.9115011  57.1358264  78.8660074
 108.0263321  52.1146072  84.5112121 107.3727734  51.7995089  83.8868736
 107.9843796  51.4921813  85.2371944 109.1374526  62.3965367  76.4265413
 108.2301588  62.1654621  76.6256562 109.6345558  61.6002986  76.6139395
 112.0442605  71.1062874  79.3462100 111.3704304  71.4094571  79.9547057
 112.4308427  71.9091955  78.9967557 111.2601062  58.6028006  88.8359769
 110.3423623  58.8242953  88.6781457 111.6761205  58.6774316  87.9771476
 112.0436110  60.0019421  83.9662449 112.7907929  60.5140819  83.6569571
 112.3127699  59.6803474  84.8266843 110.3162760  62.4977962  80.9489403
 109.4073979  62.2136995  81.0461873 110.3457844  62.9177041  80.0892710
 115.5482027  66.1084552  84.7180571 115.0944354  65.2675461  84.7745762
 114.9175994  66.7445950  85.0555351 114.4914947  57.0376538  85.9481238
 113.7537704  56.5253924  86.2791481 114.7441720  56.5976919  85.1364515
 113.9914966  67.9461048  85.6530389 114.2837941  68.5066105  84.9342755
 114.5013587  68.2389609  86.4083548 114.5926574  49.8152790  86.5423008
 114.8985451  48.9550153  86.2548923 115.3179179  50.4070410  86.3422002
 100.8850930  60.2183476  84.9304606 100.6875330  59.6252837  84.2055672
 100.3297594  59.9135686  85.6480544 108.8647654  60.1106583  87.0499199
 108.9196264  59.1580419  86.9741675 108.0538856  60.2666022  87.5340497
 110.0138848  64.0386706  78.2877482 109.5758278  63.3222565  77.8283119
 110.7549288  64.2662821  77.7262573 106.8040014  58.7283642  84.8089578
 105.9907879  59.0277813  85.2154770 107.2999008  58.3339331  85.5264060
 108.9548592  68.7241399  86.7423842 108.9124770  68.9502246  85.8132374
 109.8711290  68.4904774  86.8909644 112.4014225  59.1925467  93.6404472
 112.7563613  59.4196940  94.4998937 113.0486357  59.5243844  93.0181727
 118.1311962  62.3143903  84.3453801 117.9929861  62.5045499  83.4174990
 117.7748181  63.0763286  84.8021852 106.2954088  56.3001998  90.4250813
 106.9353468  56.1590757  89.7273776 105.4631619  56.0136511  90.0489415
 118.1581342  64.3820430  89.3565072 118.5917849  64.2895719  90.2048126
 118.8712923  64.3577930  88.7185088 107.0714392  65.6004428  86.5385805
 107.8654991  65.1054748  86.3368380 106.3606085  65.0722291  86.1753511
 111.8909237  67.9822524  90.8898173 111.9446259  68.5513460  91.6575889
 111.0224018  68.1524409  90.5252210 103.3797156  59.7447510  82.6145558
 102.4494744  59.6831966  82.8315520 103.4754628  59.2223463  81.8182199
 103.2982705  56.2702323  85.2023799 103.5589522  57.1847656  85.0932960
 104.1199877  55.8026765  85.3520412 104.7707630  57.6840080  92.3722624
 105.4430684  57.4757442  91.7235273 103.9437417  57.4862166  91.9327856
 119.0196892  64.4244130  91.8897958 119.2132782  65.3289941  92.1357232
 118.9197510  63.9651549  92.7236543 110.6733202  54.3102021  94.3888285
 110.0261117  55.0091971  94.2952761 111.4434218  54.7438165  94.7564533
 114.0812000  64.5750873  97.4638838 113.9297507  64.3461425  96.5468922
 114.0716680  65.5321475  97.4770183 110.8497337  62.1482786  92.4485105
 111.7789397  62.2993945  92.2754072 110.4288367  62.2366807  91.5933751
 109.6485668  66.1733450  90.2183642 109.5096754  65.8052235  91.0909580
 108.8600265  66.6881090  90.0467600 110.2433820  71.2742547  81.5609179
 110.4185576  70.8030590  82.3754801 109.5566608  71.9008313  81.7890439
 111.1990884  65.5515053  87.6072480 110.8640716  65.5115823  88.5030130
 110.6994829  64.8859769  87.1342890 105.1735128  60.9582683  93.1325061
 105.0354925  60.2262922  93.7336600 106.0840051  60.8691583  92.8509249
 114.1350075  62.8971087  77.8809540 113.5179246  62.1717915  77.7842592
 113.6666564  63.6580448  77.5376614 107.8017428  60.6702642  92.6208741
 108.5117047  60.0295835  92.5795359 107.7586736  60.9215537  93.5434922
 115.7904207  67.6069996  95.5415320 115.7316753  66.9229216  94.8745903
 116.1923725  68.3488986  95.0895946 106.5146362  57.6567860  94.4404380
 105.9783719  57.2058599  95.0925977 105.9263071  57.7913769  93.6974845
 104.8094906  74.4231910  88.3349039 105.0491504  75.0550434  89.0128057
 103.9664102  74.0719950  88.6214398 105.9248621  57.1156512  77.0030844
 105.0478087  56.9945312  76.6393091 106.4006374  56.3242590  76.7509733
 115.7921614  65.5709580  93.7729300 114.9048393  65.2335501  93.8955699
 116.3620165  64.8392611  94.0098065  97.4450761  61.9033671  87.0972351
  98.1321801  61.5895401  86.5093366  97.2898890  62.8075036  86.8239602
 102.2485483  56.7923868  91.5257375 102.1643672  56.1849537  90.7907785
 101.4268190  57.2832886  91.5266871 109.3222768  70.2311032  90.7390543
 109.2492939  71.0366003  91.2509847 108.8800161  70.4302998  89.9138564
 109.1112547  69.4682802  84.2493364 108.3280069  70.0104482  84.3431589
 109.8105292  69.9856782  84.6487606 112.4209197  55.2777431  86.8927570
 112.9177897  54.5247394  86.5728640 111.6496179  55.3141748  86.3270779
 120.2738955  60.9817797  88.5345861 120.2628831  61.8642512  88.1639794
 119.4056334  60.6289348  88.3400398 111.7821451  70.1297866  92.8948702
 112.4949423  70.7645331  92.8224603 111.2911480  70.2261732  92.0788703
 113.5038978  64.0349119  84.4665993 112.5695257  64.1550581  84.2970698
 113.6815646  63.1321585  84.2026003 109.0044166  57.4194814  86.6199254
 108.6341954  56.8665855  87.3080160 109.5003258  56.8152948  86.0674254
 116.8911529  59.8766438  85.0016027 117.3571981  60.7094430  84.9276330
 117.3419030  59.4111420  85.7061286 106.8333365  67.8792309  93.7154272
 107.5342824  68.5128792  93.8683667 106.3628480  68.2207041  92.9549912
 114.9587760  66.2210259  82.0002179 115.2347604  66.1066854  82.9096053
 114.0892259  65.8227744  81.9614352 114.8628192  52.2447025  89.0406929
 113.9491272  52.4751252  89.2089136 115.2921293  52.3285469  89.8920961
 114.6334651  60.4336917  91.5406823 113.9806101  60.6812824  90.8859275
 115.0115030  59.6201055  91.2069300 111.5941824  70.4696610  85.6434993
 111.7764219  69.6518266  86.1062745 112.4174810  70.6864302  85.2059883
 111.9283990  69.3964795  82.9050042 112.4571756  68.8857250  82.2920204
 112.1912209  69.0807325  83.7695575 110.6822224  61.1756728  98.0272860
 110.0062861  61.0750857  98.6975235 111.5049857  61.0195942  98.4908857
 102.4301083  67.4128664  90.6485375 103.0154519  66.6672352  90.7813279
 102.2325921  67.7232621  91.5322039 105.2839738  70.4479912  85.6647817
 104.6150113  70.9326040  85.1811857 105.1452608  70.6949132  86.5791196
  97.0218737  59.9834265  89.3689818  97.0602837  59.4497855  90.1626936
  96.5159030  59.4569470  88.7500795 109.4245006  72.4823655  92.2630476
 109.9763314  72.6455277  93.0279561 109.7651200  73.0728093  91.5910501
 104.4009500  54.8298805  92.8652361 104.4650826  55.6913636  92.4529758
 104.3376620  54.2172807  92.1324719 103.8761772  56.9021938  96.5125395
 104.5033811  56.5199015  97.1262919 103.0189691  56.6836140  96.8781087
 114.2755881  67.3084913  98.1179130 114.8195785  67.9214871  97.6234085
 113.6942726  67.8664491  98.6346143 100.6527315  58.7098367  82.4443750
 100.9480756  57.8009045  82.3910803  99.7515351  58.6886106  82.1224752
 112.5613394  70.4305631  89.2494158 112.4364533  69.6295371  88.7405103
 113.2192485  70.9251824  88.7608128 104.1821562  56.7854363  88.4271298
 103.4608148  57.3990331  88.2878771 104.9714818  57.3212128  88.3487944
 114.6248302  68.2314651  90.8773708 113.6778638  68.1120002  90.8052035
 114.9731075  67.3437149  90.9599969 106.9847875  54.1208790  94.7011950
 107.5082277  54.3671086  95.4638259 106.7660209  54.9528825  94.2815087
 102.3815157  56.3912465  82.5683075 102.0527863  55.5109843  82.3858181
 102.7354527  56.3360133  83.4559464 111.6294735  68.0267367  87.0778060
 111.4819698  67.0984075  87.2585630 112.4548229  68.0487458  86.5935136
 105.4956980  56.6785434  82.9358552 105.8353052  57.2071356  82.2137161
 105.9429100  57.0165840  83.7117119 115.2328857  68.8495926  88.1642933
 116.1575405  68.6438787  88.0267384 115.0644161  68.6012327  89.0732275
 108.1900421  55.0622485  92.3861620 107.8497241  54.2630298  92.7882300
 107.4839427  55.3624196  91.8138454 108.8416892  52.1471797  90.8388943
 109.6642962  51.6732276  90.7167834 109.0854956  52.9262281  91.3387630
 107.4825127  55.1760056  81.1351845 108.2033489  55.5541309  80.6315562
 106.8590431  55.8948933  81.2386823 111.6256250  55.8805205  82.0710178
 111.8419864  56.7629843  81.7699006 111.1450317  55.4891418  81.3415820
 106.3655471  58.8390918  88.6480922 106.2200052  59.1531221  89.5405204
 105.8880675  59.4575818  88.0951821 108.2251854  55.8293466  88.6961812
 108.2113423  54.9334559  88.3594110 108.9424282  55.8364130  89.3300098
 110.0777985  56.2630806  90.7414939 109.8195763  57.1847877  90.7399270
 109.5463025  55.8661241  91.4315403 115.0224173  69.3681593  83.5205024
 115.1961051  68.8028016  82.7678877 115.5153065  70.1682488  83.3384514
 100.8401133  61.3796263  91.5868583 100.2954601  62.1556070  91.7188858
 101.7180483  61.7267067  91.4287705 107.6288750  54.7107846  83.9649382
 107.7504661  53.7824493  84.1640269 107.3390792  54.7246532  83.0527697
 110.4979940  52.3962757  87.1016102 110.5201637  52.4602090  86.1468081
 110.9147999  51.5567265  87.2956608 120.8763565  62.1318016  85.1395324
 121.3194711  61.3825342  84.7414447 119.9990075  62.1228153  84.7569056
 116.0099346  68.6848358  80.6201923 116.7050251  69.3055051  80.8389237
 116.3522496  67.8343709  80.8954301 101.6267155  60.5066159  94.4798740
 100.8848891  60.6548794  95.0663371 101.3059899  60.7674424  93.6165490
 117.9090769  66.1348063  82.1489254 118.4342093  66.4735336  81.4238574
 117.8213122  65.1995079  81.9652388 109.5710818  70.0482137  94.2779130
 109.8797944  69.8031284  95.1501830 110.3686300  70.2528775  93.7898000
 109.5931430  72.2020047  86.5084507 109.1536420  71.7096425  87.2017363
 110.3439547  71.6593014  86.2676582 102.0723769  68.3931587  86.5109135
 102.8981789  68.0935359  86.1307778 101.7217821  67.6239210  86.9598923
 107.0405302  67.7458056  88.5806808 106.4185311  67.0828761  88.2809036
 107.7110169  67.7719188  87.8980456 100.2732374  66.3117914  87.4698068
  99.4364282  65.8840088  87.2882070 100.2456019  66.5050357  88.4068860
 107.1129829  56.2239844  98.1739314 107.1617985  57.1001967  97.7917084
 107.6552344  55.6817237  97.6010958 117.5984675  66.7680967  97.4540451
 116.8080219  66.7505106  96.9144951 117.3618030  67.3069261  98.2089488
 117.7182550  63.6173433  94.7673180 117.7680555  63.4523441  95.7088703
 117.6096474  62.7500692  94.3771061 106.6018809  66.2961979  82.0565269
 106.7506929  66.9797443  81.4031942 107.4085252  66.2767069  82.5714725
 115.0086313  59.6004361  96.0832487 115.9096175  59.4610826  95.7916485
 115.0834287  59.7658816  97.0230664 109.3429118  56.9771216  94.9285673
 108.4732427  57.2704782  94.6568262 109.5788598  57.5611661  95.6492937
 119.2200747  66.0370375  95.0115202 118.9285555  66.4000355  95.8478663
 118.6072878  65.3237383  94.8328534 120.4196429  63.6023255  87.5317772
 121.2543321  64.0413059  87.6955332 120.5555558  63.1261908  86.7126018
 117.4687935  61.1602990  93.4795260 117.9442057  61.3530636  92.6714111
 116.5453501  61.2162175  93.2338643 104.3571442  62.3227157  83.0626338
 104.1117484  61.4189487  83.2606548 104.5267356  62.3244307  82.1205816
 112.0468152  53.1950833  92.4451093 112.5650096  53.9311860  92.1197582
 111.6923285  53.5014826  93.2797853 103.6267089  58.0555514  80.5612499
 102.9336334  58.1299869  79.9052535 103.3818841  57.2915858  81.0834016
 112.2980746  49.6151116  87.9651990 112.5782500  48.9474305  88.5912417
 113.0831353  49.8080211  87.4526654 110.1014214  68.7910110  79.5277016
 109.5288181  69.4100297  79.0747488 110.6747008  69.3409471  80.0616938
 116.1689604  58.0368750  91.7123565 117.1207027  58.1366847  91.7335789
 115.9993055  57.2447018  92.2221650 114.1903984  55.1224333  91.8982966
 113.5953916  55.4029346  91.2029455 113.9053680  55.6118234  92.6699707
 113.3211474  69.0747260  80.6585599 114.2542147  69.0092821  80.8618474
 113.2334687  69.9103526  80.2000131 115.9499491  68.3913130  77.6189546
 115.8713122  68.0572994  78.5125304 116.7709158  68.8834898  77.6181019
 118.6477682  61.2574869  90.8265865 118.6154002  60.3190870  91.0125549
 119.2578306  61.3358906  90.0931690 110.4861013  60.1270922  76.8693069
 111.4320118  59.9977130  76.9381487 110.1075258  59.3885584  77.3462497
 118.7972171  58.0485913  90.8724148 118.2811219  57.2644369  90.6854077
 119.6812119  57.7204629  91.0370667 116.4582897  51.7926928  86.8319961
 116.2607719  51.4842016  87.7163293 117.0682603  52.5188567  86.9617891
 110.3699705  64.1788668  98.3293726 111.2902715  64.3567267  98.5233772
 110.3349288  63.2344714  98.1773425 108.6703930  58.0520899  76.8047954
 107.7635385  57.7554011  76.8810668 108.9479911  57.7550717  75.9382240
  99.5881870  59.3727262  87.2547000  99.2684655  58.5192570  86.9621374
  99.0415299  59.5875840  88.0104968 103.3661778  62.0889703  90.9716507
 103.5847788  63.0206811  90.9904541 103.7787552  61.7297677  91.7571311
 110.2865996  52.5957788  82.9592195 109.4766724  52.2504873  83.3347441
 110.9750413  52.2865332  83.5479807 112.2156544  51.6735835  84.5816492
 112.7687583  52.0931289  85.2406515 112.4526630  50.7471583  84.6239448
 108.2389643  57.6622909 100.3619256 108.1386370  58.6117266 100.2931347
 108.0211185  57.3341148  99.4895326 107.4402715  54.9107834  76.9459933
 108.3021879  55.2362732  77.2055751 107.6253059  54.1239330  76.4332999
  99.4570130  62.9930174  89.2240122  98.7633602  62.5784126  88.7110076
 100.2043121  63.0350710  88.6273541 115.5935351  53.7836360  84.0895156
 115.0134020  54.4421164  83.7073209 115.3271284  52.9613705  83.6782574
 114.0438918  53.1841418  86.2916477 114.5438696  53.2957953  85.4830795
 114.6874525  52.8802471  86.9317285 108.1020913  61.0920048  99.1784318
 107.6187995  61.8920408  99.3848207 108.1881852  61.1027993  98.2251762
 101.3706873  62.9248427  87.1006137 101.3477561  63.0236115  86.1488020
 101.6807509  63.7713578  87.4223303 104.0294251  64.9824582  91.2152751
 104.9837504  64.9508525  91.1482683 103.8306774  64.5215206  92.0302977
 104.6193633  63.5525698  93.7823549 105.4386522  64.0469777  93.8058386
 104.8930441  62.6357667  93.7541117 114.3760229  55.9436451  83.1451505
 113.4886084  56.2286101  82.9271699 114.7914218  55.7830214  82.2978781
 117.7274765  55.9682972  86.8605844 118.5035155  56.4579424  87.1330461
 117.0022899  56.3941026  87.3177713 120.1647324  56.6810591  87.9179784
 120.7591815  56.4406327  87.2073093 120.2373908  55.9617721  88.5453321
 102.3844480  70.5244202  88.2322949 102.2498948  69.7644603  87.6660947
 101.9676542  71.2485102  87.7651738 113.5203443  65.7081125  77.2399525
 114.2239293  65.9131128  77.8557180 112.7966091  66.2757887  77.5048608
 114.3501253  61.4590987  83.3601795 114.2936454  61.9159538  82.5209427
 114.9029595  60.6981671  83.1824637 118.1606059  57.2480719  84.1851914
 117.9042993  56.8477354  85.0160122 117.5358927  57.9624512  84.0602053
 122.4718397  59.9876792  86.6923206 121.9117955  60.0569981  87.4654768
 121.8661900  59.8117776  85.9722702 105.5413605  71.4213519  88.4441392
 105.4245990  72.3658951  88.3420082 104.7206052  71.1187080  88.8327191
 115.4290140  66.1463655  79.2897985 116.2635744  65.7144853  79.1075459
 115.2674483  65.9745668  80.2174879 115.0836032  62.6495768  80.6554324
 115.0284836  62.4840039  79.7142768 114.4582087  63.3571801  80.8116514
  99.8728547  57.8863832  94.4815746 100.5187411  57.3762786  94.9702971
  99.6645698  58.6232514  95.0559171 112.3981939  64.9544680  99.9807887
 113.2673099  65.1285332  99.6194522 111.9188691  65.7739097  99.8583616
 108.3932158  52.1503877  80.2339642 108.3810828  53.0945717  80.3907913
 109.2855580  51.9674022  79.9399103 106.5668120  72.0741781  91.6597320
 107.4695366  72.1065391  91.9763815 106.3405490  71.1442232  91.6743656
 108.3221722  70.8272767  88.3207399 107.3717353  70.8274629  88.2071771
 108.6254208  70.0805502  87.8043434 112.2084277  48.7446654  84.4885579
 111.4416673  48.1905140  84.6342261 112.6194982  48.8168522  85.3499731
 104.2126038  55.0331449  98.5790760 105.0757500  54.6768254  98.7894085
 103.6391449  54.6945344  99.2666165 120.8664121  76.6160734  89.3214686
 120.5282633  76.5001799  88.4335221 121.7353890  76.2151899  89.3015692
 116.7250937  78.4696210  85.3111577 116.1615802  78.3786147  84.5427865
 116.6103332  77.6496115  85.7914069 121.3483904  77.7695586  95.2800892
 121.3372545  77.3748384  94.4081395 121.5104544  77.0361658  95.8734663
 114.2715369  79.9647402  88.1495797 115.0636661  79.6238226  87.7342097
 114.5112019  80.0742377  89.0697951 116.2306123  79.2256315  81.0213176
 117.0036999  78.6785302  80.8826052 116.5831522  80.0900564  81.2327638
 118.0691166  80.5532697  94.2280076 117.7781032  81.4578328  94.1126742
 118.7048150  80.5949225  94.9424145 118.9947372  77.9309546  90.8181435
 119.5910945  77.7065568  90.1038398 119.0522344  77.1894291  91.4206883
 118.5672401  75.3848981  78.6531626 118.8197921  74.8630502  77.8915089
 117.6296960  75.2215127  78.7558310 118.2868690  77.2877087  80.8556001
 118.1704948  76.6121991  81.5237085 118.3970949  76.8009461  80.0388154
 120.6300230  76.7487234  84.5602690 120.2658438  76.2217855  85.2715612
 121.4867346  76.3585703  84.3869176 120.2705717  71.7777134  79.5564039
 120.4380120  72.6457370  79.9234510 120.0802887  71.9404416  78.6325328
 116.4793532  76.6907910  87.2566574 115.5544029  76.5584124  87.4644265
 116.7277945  77.4702129  87.7536516 120.2494938  74.2334791  80.5410706
 120.1294564  74.6791842  81.3796186 119.5547527  74.5820109  79.9824244
 113.8402343  76.3341183  88.0910363 113.9694724  76.5875662  89.0049774
 113.1599794  76.9268891  87.7715018 118.0101830  87.0038433  84.1900837
 117.9325860  87.9546258  84.2689317 117.4063474  86.6584306  84.8475763
 120.5019060  74.1766299  96.8462204 119.7252394  74.7360219  96.8365068
 121.1409623  74.6623082  97.3677074 118.7565432  76.9851752  96.4080171
 119.4980117  77.5236796  96.1314994 118.0502418  77.6118041  96.5651723
 120.5851842  74.0653499  92.3785889 121.4313037  74.4892913  92.5220538
 120.5250480  73.4087124  93.0724452 120.1077549  79.4256491  86.0254706
 120.5715894  79.7044194  85.2359329 119.8434347  78.5239936  85.8427797
 117.0001630  78.9727973  88.9634470 117.5702987  79.4015241  88.3251954
 117.5909742  78.6910557  89.6618655 119.0446435  75.5479644  82.8344271
 119.7470478  76.0000687  83.3018198 118.7127063  74.9063462  83.4624165
 117.4926796  74.1391400  97.2095481 116.8625457  74.8207681  97.4430878
 117.3862884  74.0274482  96.2648619 112.7871769  73.8063196  88.1361405
 111.9970823  74.0620725  87.6601516 113.2783016  74.6211534  88.2413446
 114.7386514  74.1707775  85.0944882 113.9417677  74.2826470  85.6128377
 114.5112106  74.5094428  84.2285772 120.5692182  80.6952479  93.0427396
 120.6336614  81.1572886  93.8785568 119.8603106  80.0649844  93.1709706
 111.0709472  74.0593687  90.5676396 111.3217510  74.9440697  90.8333972
 111.6069020  73.8798288  89.7951488 120.2840199  82.3620586  82.9106377
 120.1485874  83.2072122  83.3391224 120.8250012  82.5639864  82.1472310
 116.7707539  68.4412166  99.5720732 116.3774485  67.8878365 100.2468376
 117.5873679  68.7522744  99.9627249 113.7369597  79.8796024  83.4834302
 114.2494117  80.6739274  83.6339866 114.3892310  79.1822315  83.4167903
 115.5464481  82.9961780  85.5657055 115.7231110  83.9179745  85.3778039
 116.3421315  82.6820200  85.9951435 119.6875500  69.8570045  97.1640988
 120.4285213  70.4577198  97.0845451 119.9193423  69.1147683  96.6059031
 114.8316838  75.0426412  95.4419218 114.7170353  74.1411670  95.7426317
 113.9761356  75.2890109  95.0904035 116.6695797  84.5139954  91.5667397
 117.2203222  84.3857018  90.7944391 115.8307273  84.8134843  91.2162290
 120.4662968  80.7791082  95.9111628 120.9991305  80.0179370  95.6810936
 119.9377049  80.4864734  96.6535783 111.7018514  78.2084678  84.2593872
 112.5393736  78.6181687  84.0427580 111.8796781  77.2684121  84.2294066
 121.1830057  70.7209460  85.0062944 120.3271653  70.3316310  84.8268582
 121.5957008  70.8001421  84.1462729 118.9572089  68.3394533  88.4120685
 119.8225086  68.1437342  88.0526575 119.0249598  68.1104885  89.3390042
 121.8315681  79.9077075  83.4230440 121.3037042  79.1729834  83.1103678
 121.3303183  80.6851751  83.1770409 116.5634408  70.5696741  85.7837052
 117.1378160  70.3471922  85.0510245 117.1505391  70.6385435  86.5365653
 116.8903995  72.6001202  79.8032937 116.0541308  72.9375888  80.1242212
 116.7508765  72.4650182  78.8660074 118.8657076  67.4437990  84.5112121
 118.2121488  67.1287007  83.8868736 118.8237550  66.8213730  85.2371944
 119.9768281  77.7257285  76.4265413 119.0695343  77.4946538  76.6256562
 120.4739313  76.9294904  76.6139395 121.1556514  77.8269880  80.9489403
 120.2467734  77.5428913  81.0461873 121.1851598  78.2468958  80.0892710
 111.7244685  75.5475394  84.9304606 111.5269084  74.9544755  84.2055672
 111.1691349  75.2427604  85.6480544 119.7041408  75.4398500  87.0499199
 119.7590018  74.4872337  86.9741675 118.8932610  75.5957939  87.5340497
 120.8532602  79.3678623  78.2877482 120.4152032  78.6514482  77.8283119
 121.5943043  79.5954738  77.7262573 117.6433768  74.0575560  84.8089578
 116.8301634  74.3569731  85.2154770 118.1392762  73.6631249  85.5264060
 119.7942346  84.0533317  86.7423842 119.7518525  84.2794163  85.8132374
 120.7105045  83.8196692  86.8909644 117.1347843  71.6293916  90.4250813
 117.7747222  71.4882675  89.7273776 116.3025374  71.3428429  90.0489415
 117.9108147  80.9296346  86.5385805 118.7048745  80.4346666  86.3368380
 117.1999839  80.4014209  86.1753511 114.2190910  75.0739428  82.6145558
 113.2888498  75.0123883  82.8315520 114.3148382  74.5515380  81.8182199
 114.1376459  71.5994241  85.2023799 114.3983277  72.5139574  85.0932960
 114.9593632  71.1318683  85.3520412 115.6101385  73.0131998  92.3722624
 116.2824438  72.8049360  91.7235273 114.7831171  72.8154084  91.9327856
 121.5126957  69.6393939  94.3888285 120.8654872  70.3383888  94.2952761
 122.2827972  70.0730083  94.7564533 120.4879423  81.5025368  90.2183642
 120.3490509  81.1344152  91.0909580 119.6994019  82.0173007  90.0467600
 121.0827575  86.6034464  81.5609179 121.2579331  86.1322508  82.3754801
 120.3960363  87.2300231  81.7890439 122.0384638  80.8806971  87.6072480
 121.7034471  80.8407741  88.5030130 121.5388584  80.2151687  87.1342890
 116.0128882  76.2874601  93.1325061 115.8748680  75.5554840  93.7336600
 116.9233805  76.1983501  92.8509249 118.6411183  75.9994560  92.6208741
 119.3510801  75.3587752  92.5795359 118.5980491  76.2507455  93.5434922
 117.3540117  72.9859778  94.4404380 116.8177474  72.5350516  95.0925977
 116.7656825  73.1205687  93.6974845 115.6488660  89.7523827  88.3349039
 115.8885258  90.3842351  89.0128057 114.8057857  89.4011867  88.6214398
 116.7642376  72.4448429  77.0030844 115.8871842  72.3237230  76.6393091
 117.2400129  71.6534508  76.7509733 108.2844516  77.2325589  87.0972351
 108.9715556  76.9187319  86.5093366 108.1292644  78.1366954  86.8239602
 113.0879238  72.1215786  91.5257375 113.0037427  71.5141455  90.7907785
 112.2661944  72.6124804  91.5266871 120.1616522  85.5602950  90.7390543
 120.0886693  86.3657921  91.2509847 119.7193915  85.7594915  89.9138564
 119.9506302  84.7974720  84.2493364 119.1673824  85.3396400  84.3431589
 120.6499047  85.3148699  84.6487606 119.8437920  72.7486732  86.6199254
 119.4735708  72.1957772  87.3080160 120.3397013  72.1444866  86.0674254
 117.6727119  83.2084227  93.7154272 118.3736579  83.8420710  93.8683667
 117.2022234  83.5498959  92.9549912 121.5215978  76.5048646  98.0272860
 120.8456615  76.4042775  98.6975235 122.3443612  76.3487859  98.4908857
 113.2694837  82.7420582  90.6485375 113.8548274  81.9964270  90.7813279
 113.0719676  83.0524539  91.5322039 116.1233492  85.7771830  85.6647817
 115.4543868  86.2617957  85.1811857 115.9846362  86.0241050  86.5791196
 107.8612492  75.3126182  89.3689818 107.8996591  74.7789773  90.1626936
 107.3552785  74.7861388  88.7500795 120.2638761  87.8115573  92.2630476
 120.8157069  87.9747195  93.0279561 120.6044954  88.4020011  91.5910501
 115.2403254  70.1590723  92.8652361 115.3044581  71.0205554  92.4529758
 115.1770374  69.5464725  92.1324719 114.7155527  72.2313855  96.5125395
 115.3427565  71.8490933  97.1262919 113.8583446  72.0128057  96.8781087
 111.4921069  74.0390285  82.4443750 111.7874511  73.1300963  82.3910803
 110.5909105  74.0178024  82.1224752 115.0215316  72.1146281  88.4271298
 114.3001902  72.7282249  88.2878771 115.8108572  72.6504046  88.3487944
 117.8241630  69.4500708  94.7011950 118.3476032  69.6963004  95.4638259
 117.6053963  70.2820742  94.2815087 113.2208911  71.7204382  82.5683075
 112.8921617  70.8401761  82.3858181 113.5748282  71.6652051  83.4559464
 116.3350734  72.0077352  82.9358552 116.6746807  72.5363273  82.2137161
 116.7822855  72.3457758  83.7117119 119.0294175  70.3914403  92.3861620
 118.6890995  69.5922216  92.7882300 118.3233181  70.6916114  91.8138454
 119.6810647  67.4763715  90.8388943 120.5036716  67.0024193  90.7167834
 119.9248710  68.2554199  91.3387630 118.3218881  70.5051974  81.1351845
 119.0427244  70.8833226  80.6315562 117.6984185  71.2240850  81.2386823
 117.2049226  74.1682836  88.6480922 117.0593806  74.4823139  89.5405204
 116.7274429  74.7867736  88.0951821 119.0645608  71.1585384  88.6961812
 119.0507177  70.2626477  88.3594110 119.7818037  71.1656048  89.3300098
 120.9171739  71.5922724  90.7414939 120.6589517  72.5139795  90.7399270
 120.3856780  71.1953159  91.4315403 111.6794888  76.7088180  91.5868583
 111.1348356  77.4847988  91.7188858 112.5574238  77.0558985  91.4287705
 118.4682504  70.0399764  83.9649382 118.5898416  69.1116410  84.1640269
 118.1784547  70.0538450  83.0527697 121.3373695  67.7254674  87.1016102
 121.3595392  67.7894008  86.1468081 121.7541754  66.8859183  87.2956608
 112.4660910  75.8358076  94.4798740 111.7242646  75.9840712  95.0663371
 112.1453654  76.0966342  93.6165490 120.4104572  85.3774055  94.2779130
 120.7191699  85.1323201  95.1501830 121.2080054  85.5820693  93.7898000
 120.4325184  87.5311964  86.5084507 119.9930175  87.0388343  87.2017363
 121.1833301  86.9884932  86.2676582 112.9117523  83.7223505  86.5109135
 113.7375543  83.4227277  86.1307778 112.5611575  82.9531128  86.9598923
 117.8799056  83.0749973  88.5806808 117.2579066  82.4120678  88.2809036
 118.5503923  83.1011105  87.8980456 111.1126128  81.6409832  87.4698068
 110.2758037  81.2132006  87.2882070 111.0849774  81.8342275  88.4068860
 117.9523584  71.5531761  98.1739314 118.0011739  72.4293884  97.7917084
 118.4946098  71.0109154  97.6010958 117.4412563  81.6253897  82.0565269
 117.5900684  82.3089361  81.4031942 118.2479007  81.6058987  82.5714725
 120.1822872  72.3063134  94.9285673 119.3126182  72.5996700  94.6568262
 120.4182353  72.8903579  95.6492937 115.1965196  77.6519074  83.0626338
 114.9511238  76.7481404  83.2606548 115.3661111  77.6536225  82.1205816
 114.4660844  73.3847432  80.5612499 113.7730089  73.4591787  79.9052535
 114.2212596  72.6207776  81.0834016 120.9407969  84.1202027  79.5277016
 120.3681936  84.7392214  79.0747488 121.5140763  84.6701389  80.0616938
 121.3254767  75.4562840  76.8693069 122.2713872  75.3269048  76.9381487
 120.9469012  74.7177502  77.3462497 121.2093460  79.5080586  98.3293726
 122.1296469  79.6859185  98.5233772 121.1743043  78.5636631  98.1773425
 119.5097685  73.3812816  76.8047954 118.6029140  73.0845929  76.8810668
 119.7873666  73.0842634  75.9382240 110.4275625  74.7019180  87.2547000
 110.1078409  73.8484488  86.9621374 109.8809053  74.9167758  88.0104968
 114.2055532  77.4181621  90.9716507 114.4241542  78.3498729  90.9904541
 114.6181306  77.0589595  91.7571311 121.1259750  67.9249706  82.9592195
 120.3160479  67.5796791  83.3347441 121.8144167  67.6157250  83.5479807
 119.0783398  72.9914826 100.3619256 118.9780125  73.9409183 100.2931347
 118.8604940  72.6633065  99.4895326 118.2796469  70.2399752  76.9459933
 119.1415633  70.5654650  77.2055751 118.4646813  69.4531247  76.4332999
 110.2963885  78.3222091  89.2240122 109.6027356  77.9076044  88.7110076
 111.0436876  78.3642628  88.6273541 118.9414668  76.4211965  99.1784318
 118.4581750  77.2212325  99.3848207 119.0275607  76.4319910  98.2251762
 112.2100627  78.2540345  87.1006137 112.1871316  78.3528032  86.1488020
 112.5201264  79.1005496  87.4223303 114.8688005  80.3116500  91.2152751
 115.8231259  80.2800442  91.1482683 114.6700529  79.8507124  92.0302977
 115.4587387  78.8817616  93.7823549 116.2780276  79.3761695  93.8058386
 115.7324195  77.9649584  93.7541117 113.2238234  85.8536120  88.2322949
 113.0892702  85.0936520  87.6660947 112.8070296  86.5777019  87.7651738
 116.3807360  86.7505437  88.4441392 116.2639744  87.6950869  88.3420082
 115.5599806  86.4478998  88.8327191 110.7122302  73.2155750  94.4815746
 111.3581165  72.7054704  94.9702971 110.5039453  73.9524432  95.0559171
 119.2325912  67.4795795  80.2339642 119.2204582  68.4237634  80.3907913
 120.1249334  67.2965940  79.9399103 117.4061874  87.4033698  91.6597320
 118.3089121  87.4357309  91.9763815 117.1799244  86.4734149  91.6743656
 119.1615476  86.1564685  88.3207399 118.2111107  86.1566547  88.2071771
 119.4647962  85.4097420  87.8043434 115.0519793  70.3623367  98.5790760
 115.9151254  70.0060172  98.7894085 114.4785203  70.0237262  99.2666165
 121.9103226  89.3885604  90.5676396 122.1611265  90.2732614  90.8333972
 122.4462775  89.2090206  89.7951488 119.1238270  92.5617507  87.0972351
 119.8109310  92.2479237  86.5093366 118.9686399  93.4658871  86.8239602
 118.7006246  90.6418100  89.3689818 118.7390346  90.1081691  90.1626936
 118.1946539  90.1153306  88.7500795 121.9519883  96.9701749  87.4698068
 121.1151791  96.5423924  87.2882070 121.9243528  97.1634193  88.4068860
 121.2669379  90.0311097  87.2547000 120.9472164  89.1776406  86.9621374
 120.7202808  90.2459676  88.0104968 121.1357639  93.6514009  89.2240122
 120.4421111  93.2367962  88.7110076 121.8830630  93.6934545  88.6273541
 121.5516056  88.5447668  94.4815746 122.1974920  88.0346622  94.9702971
 121.3433207  89.2816349  95.0559171  74.6526814   2.6932885  70.9146144
  74.5750843   3.6440710  70.9934624  74.0488457   2.3478758  71.5721070
  72.2913643   5.4418279  75.0594346  72.5310242   6.0736803  75.7373364
  71.4482840   5.0906319  75.3459705  72.7658476   1.4666281  72.3893124
  72.0968851   1.9512409  71.9057164  72.6271345   1.7135502  73.3036503
  76.9063744   3.5010025  78.9875782  77.4582052   3.6641646  79.7524868
  77.2469938   4.0914463  78.3155807  77.0750168   3.2206416  73.2329813
  76.6355158   2.7282795  73.9262670  77.8258285   2.6779384  72.9921889
  69.8663217   1.5430571  74.9568256  69.7317685   0.7830972  74.3906254
  69.4495280   2.2671471  74.4897045  73.0232343   2.4399888  75.1686699
  72.9064727   3.3845321  75.0665389  72.2024790   2.1373450  75.5572498
  74.0486857   3.0928150  78.3842627  74.9514104   3.1251761  78.7009122
  73.8224227   2.1628601  78.3988963  88.3482859   7.6347103  76.0459993
  88.0101371   7.5188168  75.1580528  89.2172627   7.2338268  76.0260999
  84.2069675   9.4882580  72.0356884  83.6434540   9.3972517  71.2673171
  84.0922070   8.6682484  72.5159376  88.8302642   8.7881955  82.0046198
  88.8191283   8.3934753  81.1326702  88.9923282   8.0548028  82.5979970
  81.7534107  10.9833771  74.8741104  82.5455399  10.6424596  74.4587403
  81.9930757  11.0928746  75.7943257  89.7869234  13.1553547  67.3471349
  89.1357213  13.7407628  66.9605362  90.5813596  13.6859742  67.4066386
  83.7124861  10.2442685  67.7458483  84.4855737   9.6971672  67.6071359
  84.0650260  11.1086934  67.9572944  85.5509903  11.5719067  80.9525382
  85.2599769  12.4764698  80.8372048  86.1866888  11.6135595  81.6669452
  86.4766110   8.9495915  77.5426742  87.0729682   8.7251938  76.8283705
  86.5341082   8.2080661  78.1452190  86.0491139   6.4035351  65.3776933
  86.3016659   5.8816872  64.6160396  85.1115698   6.2401496  65.4803616
  91.2644499  10.8443979  67.8840333  90.6290332  10.9178606  68.5961237
  90.9341905  11.4337578  67.2059412  85.7687427   8.3063457  67.5801308
  85.6523685   7.6308360  68.2482392  85.8789687   7.8195831  66.7633461
  88.1118968   7.7673604  71.2847997  87.7477175   7.2404225  71.9960918
  88.9686084   7.3772073  71.1114482  90.5099788  11.2580482  77.9475176
  90.2100511  12.1605521  77.8390983  90.1650848  10.9912666  78.7996329
  83.9612270   7.7094279  73.9811880  83.0362766   7.5770493  74.1889572
  84.2096683   8.4888498  74.4781823  81.3221081   7.3527553  74.8155669
  81.4513462   7.6062032  75.7295081  80.6418532   7.9455261  74.4960324
  85.4920568  18.0224803  70.9146144  85.4144598  18.9732628  70.9934624
  84.8882212  17.6770675  71.5721070  86.2384170   8.0038122  83.1325477
  86.9798855   8.5423166  82.8560301  85.5321156   8.6304410  83.2897029
  91.7139510  10.1467262  81.7297639  92.1222866   9.7049673  80.9852271
  90.9916771   9.5719890  81.9831832  92.0368325  10.7068453  75.4849928
  91.4077187  10.8714167  74.7825996  91.6493987  11.1210062  76.2560892
  95.9157556  11.6422890  72.8394292  95.2308595  12.0221792  72.2891325
  96.0001406  12.2518217  73.5726239  93.1708488   9.2882850  79.4389635
  93.3825383   9.9314609  78.7624016  93.1238236   8.4545166  78.9711565
  87.5896286  10.4442861  72.7500013  88.0534632  10.7230564  71.9604635
  87.3253085   9.5426305  72.5673104  84.4820368   9.9914342  75.6879776
  85.0521725  10.4201611  75.0497261  85.0728479   9.7096927  76.3863962
  86.5265173   6.5666013  69.5589578  87.2289216   7.0187057  70.0263504
  86.1945801   5.9249832  70.1869471  84.9745534   5.1577770  83.9340787
  84.3444195   5.8394051  84.1676184  84.8681622   5.0460851  82.9893926
  80.2690506   4.8249566  74.8606712  79.4789560   5.0807094  74.3846822
  80.7601754   5.6397904  74.9658752  94.2854316  12.1654805  77.6111992
  95.1071760  11.7634992  77.3294674  94.2816719  12.0623039  78.5628108
  82.2205252   5.1894145  71.8190188  81.4236415   5.3012839  72.3373684
  81.9930844   5.5280797  70.9531079  88.0510919  11.7138848  79.7672703
  88.1155352  12.1759255  80.6030875  87.3421843  11.0836213  79.8955013
  78.5528209   5.0780056  77.2921702  78.8036248   5.9627066  77.5579278
  79.0887758   4.8984658  76.5196794  87.7658937  13.3806956  69.6351683
  87.6304612  14.2258491  70.0636531  88.3068750  13.5826233  68.8717617
  81.2188335  10.8982394  70.2079608  81.7312855  11.6925644  70.3585173
  81.8711047  10.2008684  70.1413210  83.0283219  14.0148150  72.2902362
  83.2049848  14.9366115  72.1023345  83.8240053  13.7006569  72.7196741
  82.3135576   6.0612782  82.1664525  82.1989091   5.1598039  82.4671624
  81.4580094   6.3076479  81.8149341  89.3927414  14.0030522  83.7652025
  88.9491268  13.2166901  83.4472930  90.0544627  14.1909673  83.0995916
  84.1514535  15.5326324  78.2912704  84.7021960  15.4043387  77.5189698
  83.3126011  15.8321213  77.9407597  91.4908652  14.2833322  81.7933427
  91.4727127  15.1042203  81.3013696  92.4128572  14.1587397  82.0183568
  87.9481706  11.7977452  82.6356935  88.4810043  11.0365740  82.4056243
  87.4195787  11.5051103  83.3781089  79.1837251   9.2271048  70.9839179
  80.0212473   9.6368056  70.7672887  79.3615519   8.2870490  70.9539373
  96.0535958   9.6478483  68.6076185  95.2765400   9.3089643  68.1631347
  96.7327439   9.6531107  67.9331150  89.3134418  10.9263444  70.1475747
  88.7855780  10.1916204  69.8348984  88.8121921  11.7038120  69.9015715
  94.2927264   9.1212465  75.2642793  93.6350939   9.8111726  75.3522922
  95.0967664   9.5108897  75.6076780  87.4587019   8.7443654  63.1510720
  86.5514080   8.5132908  63.3501869  87.9558051   7.9481274  63.3384702
  90.3655097  17.4541162  66.0707406  89.6916796  17.7572858  66.6792364
  90.7520919  18.2570242  65.7212863  88.6375252   8.8456249  67.6734710
  87.7286471   8.5615282  67.7707180  88.6670336   9.2655328  66.8138017
  93.8694519  12.4562839  71.4425878  93.4156847  11.6153749  71.4991068
  93.2388486  13.0924237  71.7800658  92.3127459  14.2939335  72.3775696
  92.6050433  14.8544393  71.6588061  92.8226079  14.5867896  73.1328855
  79.2063422   6.5661763  71.6549912  79.0087822   5.9731124  70.9300979
  78.6510086   6.2613974  72.3725851  88.3351340  10.3864993  65.0122789
  87.8970770   9.6700852  64.5528426  89.0761781  10.6141108  64.4507880
  87.2761084  15.0719687  73.4669149  87.2337263  15.2980533  72.5377681
  88.1923783  14.8383061  73.6154950  96.4793834  10.7298717  76.0810379
  96.9130341  10.6374006  76.9293433  97.1925415  10.7056217  75.4430395
  85.3926885  11.9482716  73.2631112  86.1867483  11.4533036  73.0613687
  84.6818577  11.4200579  72.8998817  90.2121729  14.3300811  77.6143479
  90.2658751  14.8991747  78.3821195  89.3436511  14.5002696  77.2497517
  81.7009648   6.0925797  69.3390864  80.7707236   6.0310253  69.5560827
  81.7967120   5.5701750  68.5427506  97.3409384  10.7722418  78.6143264
  97.5345274  11.6768228  78.8602539  97.2410002  10.3129837  79.4481849
  92.4024492  10.9229160  84.1884145  92.2509999  10.6939712  83.2714228
  92.3929172  11.8799762  84.2015490  89.1709829   8.4961073  79.1730411
  90.1001889   8.6472233  78.9999379  88.7500859   8.5845094  78.3179058
  87.9698161  12.5211738  76.9428949  87.8309246  12.1530522  77.8154887
  87.1812757  13.0359377  76.7712907  88.5646313  17.6220834  68.2854485
  88.7398068  17.1508877  69.1000108  87.8779101  18.2486600  68.5135746
  89.5203376  11.8993340  74.3317787  89.1853208  11.8594110  75.2275437
  89.0207321  11.2338056  73.8588197  83.4947620   7.3060970  79.8570368
  83.3567418   6.5741209  80.4581907  84.4052543   7.2169870  79.5754556
  92.4562567   9.2449375  64.6054846  91.8391738   8.5196203  64.5087899
  91.9879056  10.0058735  64.2621921  86.1229920   7.0180930  79.3454047
  86.8329539   6.3774122  79.3040666  86.0799229   7.2693824  80.2680228
  94.1116699  13.9548283  82.2660627  94.0529245  13.2707503  81.5991210
  94.5136218  14.6967273  81.8141253  83.1307398  20.7710197  75.0594346
  83.3703996  21.4028721  75.7373364  82.2876594  20.4198237  75.3459705
  94.1134106  11.9187867  80.4974606  93.2260885  11.5813789  80.6201005
  94.6832657  11.1870898  80.7343372  75.7663254   8.2511959  73.8217658
  76.4534293   7.9373689  73.2338673  75.6111382   9.1553323  73.5484909
  87.6435260  16.5789319  77.4635850  87.5705431  17.3844291  77.9755154
  87.2012653  16.7781285  76.6383871  87.4325039  15.8161089  70.9738671
  86.6492561  16.3582769  71.0676896  88.1317785  16.3335069  71.3732912
  90.1033943  16.4776153  79.6194008  90.8161916  17.1123618  79.5469910
  89.6123972  16.5740019  78.8034010  91.8251470  10.3827406  71.1911300
  90.8907749  10.5028868  71.0216004  92.0028139   9.4799873  70.9271310
  85.1545857  14.2270597  80.4399579  85.8555316  14.8607080  80.5928973
  84.6840972  14.5685328  79.6795218  93.2800253  12.5688546  68.7247486
  93.5560097  12.4545141  69.6341360  92.4104751  12.1706031  68.6859659
  89.9154317  16.8174897  72.3680300  90.0976711  15.9996553  72.8308052
  90.7387303  17.0342590  71.9305190  90.2496482  15.7443082  69.6295348
  90.7784249  15.2335537  69.0165510  90.5124702  15.4285613  70.4940881
  89.0034716   7.5235015  84.7518166  88.3275353   7.4229145  85.4220542
  89.8262350   7.3674229  85.2154164  80.7513575  13.7606952  77.3730682
  81.3367012  13.0150640  77.5058586  80.5538413  14.0710908  78.2567346
  83.6052230  16.7958199  72.3893124  82.9362605  17.2804327  71.9057164
  83.4665100  17.0427420  73.3036503  75.3431230   6.3312552  76.0935125
  75.3815329   5.7976143  76.8872243  74.8371522   5.8047757  75.4746102
  87.7457499  18.8301943  78.9875782  88.2975807  18.9933564  79.7524868
  88.0863692  19.4206380  78.3155807  92.5968373  13.6563200  84.8424437
  93.1408277  14.2693158  84.3479392  92.0155218  14.2142779  85.3591450
  78.9739807   5.0576654  69.1689056  79.2693248   4.1487333  69.1156110
  78.0727843   5.0364394  68.8470059  90.8825886  16.7783918  75.9739465
  90.7577025  15.9773658  75.4650410  91.5404977  17.2730112  75.4853435
  92.9460794  14.5792938  77.6019015  91.9991130  14.4598289  77.5297341
  93.2943567  13.6915436  77.6845276  89.9507228  14.3745654  73.8023367
  89.8032190  13.4462362  73.9830937  90.7760721  14.3965745  73.3180442
  93.5541350  15.1974213  74.8888240  94.4787897  14.9917075  74.7512691
  93.3856653  14.9490614  75.7977581  84.6867963   5.1869205  75.3726229
  84.5412544   5.5009508  76.2650510  84.2093167   5.8054106  74.8197127
  93.3436666  15.7159881  70.2450331  93.5173543  15.1506303  69.4924184
  93.8365557  16.5160776  70.0629821  79.1613626   7.7274550  78.3113890
  78.6167094   8.5034358  78.4434164  80.0392975   8.0745354  78.1533011
  94.3311838  15.0326645  67.3447229  95.0262743  15.6533338  67.5634544
  94.6734988  14.1821996  67.6199607  79.9479647   6.8544446  81.2044047
  79.2061383   7.0027081  81.7908677  79.6272392   7.1152712  80.3410796
  96.2303261  12.4826351  68.8734560  96.7554585  12.8213623  68.1483880
  96.1425614  11.5473366  68.6897695  87.8923310  16.3960424  81.0024437
  88.2010436  16.1509571  81.8747136  88.6898792  16.6007063  80.5143307
  87.9143922  18.5498334  73.2329813  87.4748912  18.0574713  73.9262670
  88.6652039  18.0071302  72.9921889  80.3936261  14.7409875  73.2354441
  81.2194281  14.4413647  72.8553085  80.0430313  13.9717497  73.6844230
  85.3617794  14.0936343  75.3052115  84.7397804  13.4307048  75.0054343
  86.0322661  14.1197475  74.6225763  78.5944866  12.6596201  74.1943375
  77.7576774  12.2318376  74.0127376  78.5668512  12.8528645  75.1314166
  95.9197167  13.1159254  84.1785758  95.1292711  13.0983393  83.6390258
  95.6830522  13.6547548  84.9334795  96.0395042   9.9651721  81.4918487
  96.0893047   9.8001728  82.4334009  95.9308966   9.0978980  81.1016367
  84.9231301  12.6440266  68.7810576  85.0719422  13.3275731  68.1277248
  85.7297745  12.6245356  69.2960031  97.5413239  12.3848662  81.7360508
  97.2498048  12.7478643  82.5723969  96.9285371  11.6715670  81.5573840
  82.6783934   8.6705444  69.7871644  82.4329976   7.7667774  69.9851855
  82.8479849   8.6722594  68.8451122  88.4226707  15.1388397  66.2522323
  87.8500674  15.7578584  65.7992795  88.9959500  15.6887758  66.7862245
  91.6423966  15.4225547  67.3830905  92.5754640  15.3571109  67.5863781
  91.5547179  16.2581814  66.9245438  94.2711983  14.7391417  64.3434853
  94.1925615  14.4051281  65.2370611  95.0921650  15.2313185  64.3426325
  88.6912198  10.5266956  85.0539032  89.6115207  10.7045555  85.2479079
  88.6561781   9.5823001  84.9018732  77.9094363   5.7205549  73.9792307
  77.5897147   4.8670858  73.6866681  77.3627791   5.9354127  74.7350274
  81.6874270   8.4367990  77.6961814  81.9060280   9.3685098  77.7149847
  82.1000044   8.0775965  78.4816617  77.7782623   9.3408461  75.9485429
  77.0846094   8.9262414  75.4355383  78.5255614   9.3828997  75.3518848
  86.4233406   7.4398335  85.9029624  85.9400487   8.2398695  86.1093513
  86.5094345   7.4506280  84.9497068  79.6919365   9.2726715  73.8251444
  79.6690053   9.3714402  72.8733327  80.0020002  10.1191865  74.1468610
  82.3506743  11.3302870  77.9398058  83.3049997  11.2986812  77.8727990
  82.1519267  10.8693493  78.7548284  82.9406125   9.9003986  80.5068856
  83.7599014  10.3948064  80.5303693  83.2142933   8.9835954  80.4786423
  80.7056972  16.8722489  74.9568256  80.5711440  16.1122890  74.3906254
  80.2889034  17.5963389  74.4897045  91.8415935  12.0559413  63.9644831
  92.5451785  12.2609415  64.5802487  91.1178584  12.6236175  64.2293915
  83.8626098  17.7691806  75.1686699  83.7458482  18.7137239  75.0665389
  83.0418544  17.4665368  75.5572498  93.7502632  12.4941942  66.0143291
  94.5848236  12.0623140  65.8320766  93.5886975  12.3223956  66.9420186
  93.4048524   8.9974055  67.3799631  93.3497328   8.8318327  66.4388075
  92.7794580   9.7050088  67.5361820  78.1941039   4.2342120  81.2061053
  78.8399903   3.7241073  81.6948278  77.9858191   4.9710801  81.7804478
  90.7194432  11.3022967  86.7053193  91.5885591  11.4763619  86.3439828
  90.2401183  12.1217384  86.5828923  84.8880612  18.4220068  78.3842627
  85.7907859  18.4543678  78.7009122  84.6617982  17.4920519  78.3988963
  86.6434214  17.1751055  75.0452706  85.6929845  17.1752916  74.9317078
  86.9466700  16.4283789  74.5288740 102.3786907  23.0111593  76.1098468
 103.0165317  22.8918340  75.4061808 102.2607750  23.9592437  76.1686420
  99.1876614  22.9639021  76.0459993  98.8495125  22.8480086  75.1580528
 100.0566382  22.5630186  76.0260999  95.0463429  24.8174497  72.0356884
  94.4828295  24.7264434  71.2673171  94.9315824  23.9974402  72.5159376
  99.6696397  24.1173873  82.0046198  99.6585037  23.7226671  81.1326702
  99.8317036  23.3839945  82.5979970  92.5927861  26.3125689  74.8741104
  93.3849153  25.9716514  74.4587403  92.8324511  26.4220664  75.7943257
 100.6262988  28.4845465  67.3471349  99.9750968  29.0699546  66.9605362
 101.4207351  29.0151660  67.4066386  94.5518615  25.5734602  67.7458483
  95.3249491  25.0263589  67.6071359  94.9044014  26.4378852  67.9572944
  96.3903658  26.9010985  80.9525382  96.0993524  27.8056615  80.8372048
  97.0260642  26.9427512  81.6669452  97.3159865  24.2787833  77.5426742
  97.9123437  24.0543855  76.8283705  97.3734836  23.5372579  78.1452190
  96.8884893  21.7327268  65.3776933  97.1410414  21.2108790  64.6160396
  95.9509452  21.5693414  65.4803616 101.9328176  20.7363047  73.1851676
 102.7191265  20.3182470  72.8342093 102.1966880  21.6409139  73.3533324
 102.1038253  26.1735897  67.8840333 101.4684086  26.2470524  68.5961237
 101.7735660  26.7629496  67.2059412 107.3336603  20.6738280  74.0884655
 108.0661775  20.1037497  74.3222484 106.5775959  20.2859880  74.5291160
  96.6081182  23.6355374  67.5801308  96.4917440  22.9600278  68.2482392
  96.7183442  23.1487748  66.7633461  98.9512723  23.0965521  71.2847997
  98.5870930  22.5696142  71.9960918  99.8079839  22.7063991  71.1114482
 104.8562023  14.3859854  78.5479263 104.5245348  15.2555265  78.3240478
 104.2607637  14.0696138  79.2273294  98.5918210  18.1255421  66.2809345
  98.7592612  18.9935658  66.6479817  98.4015379  18.2882703  65.3570635
 101.3493543  26.5872400  77.9475176 101.0494266  27.4897439  77.8390983
 101.0044602  26.3204583  78.7996329  94.8006024  23.0386197  73.9811880
  93.8756521  22.9062411  74.1889572  95.0490438  23.8180416  74.4781823
 104.7490687  19.1054940  75.6272613 103.8407564  19.0370349  75.3331374
 104.6978282  19.5826885  76.4554439  98.5707431  20.5813079  67.2656012
  98.4507056  21.0270129  68.1041493  97.8760019  20.9298396  66.7069550
  92.1614835  22.6819470  74.8155669  92.2907217  22.9353949  75.7295081
  91.4812287  23.2747178  74.4960324  96.3314323  33.3516720  70.9146144
  96.2538352  34.3024546  70.9934624  95.7275966  33.0062593  71.5721070
  98.8231552  20.5244586  83.5707510  98.0464887  21.0838506  83.5610375
  99.4622116  21.0101369  84.0922381 106.6152333  17.3071379  77.4050487
 105.9726713  17.6003912  76.7590282 106.1107262  17.1924299  78.2103684
 104.2692497  21.0534552  68.0936346 105.1810353  21.2861939  67.9184044
 103.7602144  21.6371596  67.5311425  97.0777925  23.3330039  83.1325477
  97.8192609  23.8715083  82.8560301  96.3714910  23.9596328  83.2897029
 102.5533264  25.4759180  81.7297639 102.9616620  25.0341590  80.9852271
 101.8310526  24.9011807  81.9831832  98.9064334  20.4131786  79.1031196
  99.7525530  20.8371200  79.2465845  98.8462972  19.7565411  79.7969759
 102.8762079  26.0360370  75.4849928 102.2470942  26.2006084  74.7825996
 102.4887741  26.4501980  76.2560892 106.7551311  26.9714808  72.8394292
 106.0702349  27.3513710  72.2891325 106.8395160  27.5810135  73.5726239
 102.0563780  18.0736155  80.7612370 101.8124712  18.8278215  80.2246645
 102.3323710  18.4521502  81.5959617 104.0102243  24.6174767  79.4389635
 104.2219138  25.2606527  78.7624016 103.9631991  23.7837084  78.9711565
 101.6128472  17.2292588  76.3426207 100.7512951  17.5273841  76.6342945
 101.6390906  17.4462987  75.4107240  98.4290041  25.7734778  72.7500013
  98.8928386  26.0522481  71.9604635  98.1646839  24.8718223  72.5673104
  95.3214122  25.3206260  75.6879776  95.8915479  25.7493528  75.0497261
  95.9122234  25.0388845  76.3863962  97.3658927  21.8957931  69.5589578
  98.0682970  22.3478974  70.0263504  97.0339555  21.2541750  70.1869471
  95.8139289  20.4869687  83.9340787  95.1837949  21.1685968  84.1676184
  95.7075376  20.3752769  82.9893926  91.1084261  20.1541483  74.8606712
  90.3183315  20.4099012  74.3846822  91.5995508  20.9689821  74.9658752
 105.1248071  27.4946723  77.6111992 105.9465514  27.0926910  77.3294674
 105.1210473  27.3914957  78.5628108  93.0599006  20.5186063  71.8190188
  92.2630170  20.6304757  72.3373684  92.8324599  20.8572715  70.9531079
  98.8904674  27.0430766  79.7672703  98.9549106  27.5051173  80.6030875
  98.1815598  26.4128131  79.8955013  89.3921964  20.4071974  77.2921702
  89.6430002  21.2918984  77.5579278  89.9281512  20.2276575  76.5196794
 113.2154064  23.8385471  73.9596964 112.4617772  23.2692869  73.8040968
 113.3501605  23.8048136  74.9067599  98.6052692  28.7098873  69.6351683
  98.4698366  29.5550409  70.0636531  99.1462504  28.9118151  68.8717617
  95.0920031  14.7890453  86.2966038  94.6986977  14.2356652  86.9713683
  95.9086172  15.1001032  86.6872556  92.0582089  26.2274311  70.2079608
  92.5706610  27.0217562  70.3585173  92.7104802  25.5300602  70.1413210
  93.8676974  29.3440068  72.2902362  94.0443602  30.2658032  72.1023345
  94.6633807  29.0298487  72.7196741  98.0087992  16.2048332  83.8886295
  98.7497706  16.8055485  83.8090758  98.2405915  15.4625970  83.3304338
  93.1529330  21.3904700  82.1664525  93.0382845  20.4889957  82.4671624
  92.2973848  21.6368396  81.8149341 100.2321168  29.3322440  83.7652025
  99.7885022  28.5458818  83.4472930 100.8938382  29.5201590  83.0995916
  94.9908289  30.8618241  78.2912704  95.5415714  30.7335305  77.5189698
  94.1519765  31.1613131  77.9407597 102.3302406  29.6125240  81.7933427
 102.3120881  30.4334121  81.3013696 103.2522326  29.4879315  82.0183568
  98.7875460  27.1269369  82.6356935  99.3203797  26.3657657  82.4056243
  98.2589541  26.8343021  83.3781089 101.9545155  12.2329435  78.1650577
 101.6109425  13.1231077  78.0889687 102.3224118  12.0431093  77.3020162
  90.0231006  24.5562966  70.9839179  90.8606228  24.9659974  70.7672887
  90.2009273  23.6162408  70.9539373 101.9195438  22.2238046  66.6723012
 101.4042061  22.9942651  66.9111399 101.6472746  21.5503183  67.2956073
  99.5042549  17.0687747  71.7308250  98.6484145  16.6794598  71.5513889
  99.9169501  17.1479708  70.8708036 101.0341696  14.6034090  76.1299810
 100.5306491  14.5664226  75.3167615 101.3272302  15.5126833  76.1896467
  97.2784581  14.6872820  75.1365992  98.1437578  14.4915629  74.7771881
  97.3462090  14.4583172  76.0635348 106.8929712  24.9770401  68.6076185
 106.1159155  24.6381561  68.1631347 107.5721193  24.9823024  67.9331150
 101.7081741  20.0965138  68.4982793 101.4031877  20.4111288  69.3492936
 102.6612183  20.1746558  68.5410126 100.1528173  26.2555362  70.1475747
  99.6249534  25.5208121  69.8348984  99.6515676  27.0330038  69.9015715
 105.1321019  24.4504382  75.2642793 104.4744693  25.1403644  75.3522922
 105.9361418  24.8400814  75.6076780  94.8846901  16.9175028  72.5082359
  95.4590652  16.6950210  71.7755551  95.4717883  16.9863723  73.2610960
 103.9426478  22.8048755  73.3146735 104.4558359  23.4378747  73.8168445
 104.5927702  22.2049950  72.9490095  95.2116488  18.9479489  66.5278244
  94.3753800  19.2854176  66.8487519  95.0721257  18.8128469  65.5905381
  97.1869568  13.7916277  71.2357428  96.5333981  13.4765294  70.6114043
  97.1450042  13.1692017  71.9617251  98.2980773  24.0735572  63.1510720
  97.3907835  23.8424826  63.3501869  98.7951805  23.2773191  63.3384702
 101.2048852  32.7833079  66.0707406 100.5310551  33.0864776  66.6792364
 101.5914674  33.5862160  65.7212863 100.4207309  20.2798211  75.5605076
  99.5029870  20.5013158  75.4026764 100.8367452  20.3544521  74.7016783
 101.2042356  21.6789626  70.6907756 101.9514175  22.1911023  70.3814878
 101.4733946  21.3573679  71.5512149  99.4769007  24.1748167  67.6734710
  98.5680226  23.8907200  67.7707180  99.5064090  24.5947245  66.8138017
 104.7088274  27.7854756  71.4425878 104.2550601  26.9445666  71.4991068
 104.0782241  28.4216155  71.7800658 103.6521194  18.7146742  72.6726545
 102.9143950  18.2024129  73.0036788 103.9047967  18.2747124  71.8609822
 103.1521213  29.6231253  72.3775696 103.4444188  30.1836310  71.6588061
 103.6619834  29.9159814  73.1328855  90.0457177  21.8953681  71.6549912
  89.8481577  21.3023042  70.9300979  89.4903841  21.5905891  72.3725851
  98.0253901  21.7876788  73.7744505  98.0802510  20.8350624  73.6986982
  97.2145103  21.9436227  74.2585804  99.1745094  25.7156911  65.0122789
  98.7364524  24.9992770  64.5528426  99.9155535  25.9433025  64.4507880
  95.9646261  20.4053847  71.5334884  95.1514126  20.7048018  71.9400076
  96.4605255  20.0109536  72.2509367  98.1154838  30.4011604  73.4669149
  98.0731017  30.6272451  72.5377681  99.0317537  30.1674979  73.6154950
 101.5620472  20.8695672  80.3649778 101.9169860  21.0967145  81.2244244
 102.2092603  21.2014049  79.7427034 107.2918209  23.9914108  71.0699107
 107.1536108  24.1815704  70.1420296 106.9354428  24.7533490  71.5267158
  95.4560335  17.9772203  77.1496119  96.0959715  17.8360962  76.4519083
  94.6237866  17.6906716  76.7734721 107.3187589  26.0590635  76.0810379
 107.7524095  25.9665924  76.9293433 108.0319169  26.0348135  75.4430395
  96.2320639  27.2774633  73.2631112  97.0261238  26.7824953  73.0613687
  95.5212332  26.7492496  72.8998817 101.0515484  29.6592729  77.6143479
 101.1052506  30.2283665  78.3821195 100.1830265  29.8294614  77.2497517
  92.5403403  21.4217715  69.3390864  91.6100991  21.3602170  69.5560827
  92.6360875  20.8993668  68.5427506  92.4588952  17.9472528  71.9269106
  92.7195769  18.8617861  71.8178267  93.2806124  17.4796970  72.0765719
  93.9313877  19.3610285  79.0967931  94.6036930  19.1527647  78.4480580
  93.1043664  19.1632371  78.6573163 108.1803138  26.1014335  78.6143264
 108.3739028  27.0060146  78.8602539 108.0803756  25.6421754  79.4481849
  99.8339449  15.9872226  81.1133592  99.1867364  16.6862176  81.0198068
 100.6040464  16.4208370  81.4809840 103.2418247  26.2521078  84.1884145
 103.0903753  26.0231630  83.2714228 103.2322926  27.2091679  84.2015490
 100.0103583  23.8252991  79.1730411 100.9395643  23.9764150  78.9999379
  99.5894613  23.9137012  78.3179058  98.8091915  27.8503655  76.9428949
  98.6703001  27.4822440  77.8154887  98.0206511  28.3651295  76.7712907
  99.4040067  32.9512752  68.2854485  99.5791823  32.4800795  69.1000108
  98.7172855  33.5778518  68.5135746 100.3597130  27.2285258  74.3317787
 100.0246963  27.1886028  75.2275437  99.8601076  26.5629974  73.8588197
  94.3341374  22.6352888  79.8570368  94.1961172  21.9033127  80.4581907
  95.2446298  22.5461788  79.5754556 103.2956322  24.5741292  64.6054846
 102.6785493  23.8488120  64.5087899 102.8272810  25.3350653  64.2621921
  96.9623675  22.3472847  79.3454047  97.6723293  21.7066039  79.3040666
  96.9192983  22.5985742  80.2680228 104.9510454  29.2840201  82.2660627
 104.8923000  28.5999421  81.5991210 105.3529972  30.0259191  81.8141253
  95.6752609  19.3338065  81.1649687  95.1389966  18.8828804  81.8171283
  95.0869317  19.4683974  80.4220151  93.9701152  36.1002114  75.0594346
  94.2097751  36.7320639  75.7373364  93.1270349  35.7490154  75.3459705
  95.0854868  18.7926717  63.7276151  94.2084334  18.6715517  63.3638397
  95.5612621  18.0012795  63.4755039 104.9527861  27.2479785  80.4974606
 104.0654640  26.9105706  80.6201005 105.5226412  26.5162816  80.7343372
  86.6057008  23.5803876  73.8217658  87.2928048  23.2665606  73.2338673
  86.4505137  24.4845241  73.5484909  91.4091730  18.4694073  78.2502681
  91.3249919  17.8619742  77.5153091  90.5874437  18.9603091  78.2512178
  98.4829014  31.9081237  77.4635850  98.4099186  32.7136208  77.9755154
  98.0406407  32.1073203  76.6383871  98.2718794  31.1453007  70.9738671
  97.4886316  31.6874687  71.0676896  98.9711539  31.6626987  71.3732912
 101.5815444  16.9547636  73.6172876 102.0784144  16.2017599  73.2973947
 100.8102426  16.9911953  73.0516086 109.4345201  22.6588002  75.2591168
 109.4235078  23.5412717  74.8885101 108.5662581  22.3059553  75.0645705
 100.9427698  31.8068071  79.6194008 101.6555670  32.4415536  79.5469910
 100.4517726  31.9031937  78.8034010 102.6645225  25.7119324  71.1911300
 101.7301503  25.8320786  71.0216004 102.8421893  24.8091790  70.9271310
  98.1650413  19.0965019  73.3444561  97.7948200  18.5436060  74.0325467
  98.6609505  18.4923153  72.7919561 106.0517776  21.5536643  71.7261334
 106.5178228  22.3864634  71.6521637 106.5025277  21.0881624  72.4306592
  95.9939611  29.5562514  80.4399579  96.6949071  30.1898997  80.5928973
  95.5234726  29.8977246  79.6795218 104.1194007  27.8980464  68.7247486
 104.3953851  27.7837059  69.6341360 103.2498506  27.4997949  68.6859659
 104.0234439  13.9217230  75.7652235 103.1097519  14.1521457  75.9334442
 104.4527540  14.0055674  76.6166268 103.7940897  22.1107122  78.2652129
 103.1412348  22.3583029  77.6104582 104.1721277  21.2971260  77.9314607
 100.7548071  32.1466815  72.3680300 100.9370466  31.3288471  72.8308052
 101.5781057  32.3634507  71.9305190 101.0890237  31.0735000  69.6295348
 101.6178003  30.5627455  69.0165510 101.3518456  30.7577530  70.4940881
  99.8428470  22.8526933  84.7518166  99.1669107  22.7521062  85.4220542
 100.6656104  22.6966147  85.2154164  91.5907329  29.0898869  77.3730682
  92.1760766  28.3442557  77.5058586  91.3932168  29.4002826  78.2567346
  94.4445985  32.1250117  72.3893124  93.7756360  32.6096244  71.9057164
  94.3058854  32.3719337  73.3036503  86.1824984  21.6604470  76.0935125
  86.2209084  21.1268060  76.8872243  85.6765277  21.1339675  75.4746102
  98.5851253  34.1593860  78.9875782  99.1369561  34.3225482  79.7524868
  98.9257447  34.7498298  78.3155807  93.5615746  16.5069010  79.5897667
  93.6257073  17.3683841  79.1775065  93.4982867  15.8943012  78.8570026
  93.0368019  18.5792143  83.2370701  93.6640058  18.1969220  83.8508226
  92.1795938  18.3606345  83.6026394 103.4362128  28.9855118  84.8424437
 103.9802032  29.5985076  84.3479392 102.8548972  29.5434696  85.3591450
  89.8133562  20.3868572  69.1689056  90.1087003  19.4779250  69.1156110
  88.9121597  20.3656311  68.8470059 101.7219640  32.1075836  75.9739465
 101.5970780  31.3065576  75.4650410 102.3798732  32.6022029  75.4853435
  93.3427809  18.4624568  75.1516605  92.6214394  19.0760536  75.0124078
  94.1321064  18.9982333  75.0733251 103.7854549  29.9084856  77.6019015
 102.8384884  29.7890207  77.5297341 104.1337322  29.0207354  77.6845276
  96.1454122  15.7978995  81.4257257  96.6688524  16.0441291  82.1883566
  95.9266456  16.6299030  81.0060394  91.5421403  18.0682669  69.2928381
  91.2134109  17.1880048  69.1103487  91.8960774  18.0130338  70.1804771
 100.7900982  29.7037572  73.8023367 100.6425945  28.7754280  73.9830937
 101.6154476  29.7257663  73.3180442  94.6563226  18.3555639  69.6603859
  94.9959299  18.8841560  68.9382467  95.1035347  18.6936045  70.4362426
 104.3935104  30.5266131  74.8888240 105.3181651  30.3208992  74.7512691
 104.2250407  30.2782532  75.7977581  97.3506667  16.7392690  79.1106927
  97.0103488  15.9400503  79.5127607  96.6445674  17.0394401  78.5383760
  98.0023139  13.8242002  77.5634250  98.8249208  13.3502481  77.4413140
  98.2461203  14.6032486  78.0632936  96.6431374  16.8530261  67.8597152
  97.3639736  17.2311514  67.3560869  96.0196678  17.5719138  67.9632130
 100.7862496  17.5575410  68.7955484 101.0026111  18.4400048  68.4944312
 100.3056564  17.1661623  68.0661126  95.5261718  20.5161123  75.3726229
  95.3806299  20.8301426  76.2650510  95.0486921  21.1346023  74.8197127
  97.3858101  17.5063671  75.4207118  97.3719669  16.6104764  75.0839416
  98.1030529  17.5134335  76.0545404  99.2384231  17.9401011  77.4660246
  98.9802009  18.8618082  77.4644576  98.7069272  17.5431446  78.1560710
 104.1830420  31.0451798  70.2450331 104.3567298  30.4798221  69.4924184
 104.6759311  31.8452693  70.0629821  90.0007380  23.0566467  78.3113890
  89.4560848  23.8326275  78.4434164  90.8786730  23.4037272  78.1533011
  96.7894997  16.3878051  70.6894688  96.9110908  15.4594697  70.8885576
  96.4997039  16.4016737  69.7773004  99.6586187  14.0732962  73.8261408
  99.6807884  14.1372295  72.8713388 100.0754246  13.2337470  74.0201914
 110.0369811  23.8088221  71.8640631 110.4800957  23.0595546  71.4659754
 109.1596322  23.7998358  71.4814363 105.1705593  30.3618563  67.3447229
 105.8656497  30.9825255  67.5634544 105.5128743  29.5113914  67.6199607
  90.7873402  22.1836364  81.2044047  90.0455138  22.3318999  81.7908677
  90.4666146  22.4444629  80.3410796 107.0697016  27.8118268  68.8734560
 107.5948340  28.1505541  68.1483880 106.9819368  26.8765284  68.6897695
  98.7317065  31.7252342  81.0024437  99.0404191  31.4801489  81.8747136
  99.5292547  31.9298980  80.5143307  98.7537677  33.8790252  73.2329813
  98.3142667  33.3866630  73.9262670  99.5045794  33.3363219  72.9921889
  91.2330016  30.0701792  73.2354441  92.0588035  29.7705564  72.8553085
  90.8824068  29.3009415  73.6844230  96.2011549  29.4228261  75.3052115
  95.5791558  28.7598966  75.0054343  96.8716416  29.4489393  74.6225763
  89.4338621  27.9888119  74.1943375  88.5970529  27.5610293  74.0127376
  89.4062266  28.1820562  75.1314166  96.2736076  17.9010049  84.8984621
  96.3224232  18.7772171  84.5162391  96.8158590  17.3587442  84.3256264
 106.7590922  28.4451172  84.1785758 105.9686466  28.4275311  83.6390258
 106.5224276  28.9839466  84.9334795 106.8788797  25.2943638  81.4918487
 106.9286802  25.1293646  82.4334009 106.7702720  24.4270897  81.1016367
  95.7625056  27.9732184  68.7810576  95.9113176  28.6567648  68.1277248
  96.5691499  27.9537274  69.2960031 104.1692559  21.2774566  82.8077793
 105.0702422  21.1381031  82.5161791 104.2440534  21.4429021  83.7475971
  98.5035365  18.6541421  81.6530980  97.6338674  18.9474987  81.3813568
  98.7394845  19.2381866  82.3738243 108.3806994  27.7140580  81.7360508
 108.0891802  28.0770560  82.5723969 107.7679125  27.0007588  81.5573840
 109.5802676  25.2793460  74.2563078 110.4149567  25.7183264  74.4200639
 109.7161805  24.8032113  73.4371324 106.6294182  22.8373194  80.2040566
 107.1048304  23.0300841  79.3959418 105.7059747  22.8932380  79.9583950
  93.5177689  23.9997362  69.7871644  93.2723731  23.0959692  69.9851855
  93.6873603  24.0014512  68.8451122 101.2074398  14.8721038  79.1696400
 101.7256342  15.6082065  78.8442889 100.8529531  15.1785031  80.0043159
  92.7873336  19.7325719  67.2857806  92.0942581  19.8070074  66.6297842
  92.5425088  18.9686063  67.8079323  99.2620461  30.4680314  66.2522323
  98.6894428  31.0870502  65.7992795  99.8353255  31.0179676  66.7862245
 105.3295851  19.7138955  78.4368872 106.2813274  19.8137052  78.4581096
 105.1599301  18.9217223  78.9466956 103.3510230  16.7994538  78.6228273
 102.7560163  17.0799550  77.9274761 103.0659927  17.2888439  79.3945014
 102.4817721  30.7517465  67.3830905 103.4148394  30.6863026  67.5863781
 102.3940934  31.5873731  66.9245438 105.1105738  30.0683335  64.3434853
 105.0319369  29.7343199  65.2370611 105.9315404  30.5605103  64.3426325
 107.8083929  22.9345074  77.5511171 107.7760249  21.9961075  77.7370855
 108.4184552  23.0129111  76.8176996  99.6467260  21.8041127  63.5938375
 100.5926364  21.6747335  63.6626794  99.2681505  21.0655789  64.0707804
 107.9578417  19.7256118  77.5969455 107.4417466  18.9414574  77.4099383
 108.8418366  19.3974834  77.7615974 105.6189144  13.4697133  73.5565267
 105.4213965  13.1612221  74.4408599 106.2288850  14.1958772  73.6863197
 113.6260479  23.9961081  76.6917208 114.3563867  23.7346369  77.2524912
 113.0167424  23.2589803  76.7319276 111.7075776  22.1368944  77.2891659
 110.9808939  22.0024909  76.6808151 111.2923063  22.4445772  78.0948377
  99.5305952  25.8558873  85.0539032 100.4508962  26.0337472  85.2479079
  99.4955535  24.9114919  84.9018732  97.8310177  19.7291104  63.5293261
  96.9241632  19.4324216  63.6055974  98.1086158  19.4320922  62.6627547
  88.7488117  21.0497467  73.9792307  88.4290902  20.1962775  73.6866681
  88.2021545  21.2646045  74.7350274  92.5268025  23.7659908  77.6961814
  92.7454035  24.6977016  77.7149847  92.9393799  23.4067882  78.4816617
  99.4472243  14.2727993  69.6837502  98.6372971  13.9275078  70.0592748
 100.1356659  13.9635537  70.2725114 101.3762791  13.3506040  71.3061799
 101.9293829  13.7701494  71.9651822 101.6132877  12.4241788  71.3484755
  97.3995890  19.3393114  87.0864563  97.2992617  20.2887471  87.0176654
  97.1817432  19.0111353  86.2140633  96.6008961  16.5878039  63.6705240
  97.4628125  16.9132937  63.9301057  96.7859306  15.8009535  63.1578306
  88.6176377  24.6700378  75.9485429  87.9239849  24.2554331  75.4355383
  89.3649368  24.7120915  75.3518848 104.7541598  15.4606565  70.8140463
 104.1740267  16.1191369  70.4318515 104.4877531  14.6383910  70.4027880
 103.2045164  14.8611623  73.0161783 103.7044943  14.9728157  72.2076102
 103.8480772  14.5572676  73.6562592  97.2627160  22.7690253  85.9029624
  96.7794242  23.5690613  86.1093513  97.3488099  22.7798197  84.9497068
  90.5313120  24.6018632  73.8251444  90.5083808  24.7006320  72.8733327
  90.8413756  25.4483783  74.1468610  93.1900498  26.6594787  77.9398058
  94.1443751  26.6278730  77.8727990  92.9913021  26.1985411  78.7548284
  93.7799880  25.2295903  80.5068856  94.5992769  25.7239982  80.5303693
  94.0536687  24.3127871  80.4786423 103.5366476  17.6206656  69.8696811
 102.6492331  17.9056306  69.6517006 103.9520465  17.4600419  69.0224088
 106.8881012  17.6453177  73.5851150 107.6641402  18.1349629  73.8575767
 106.1629146  18.0711231  74.0423020 109.3253571  18.3580796  74.6425091
 109.9198061  18.1176532  73.9318399 109.3980154  17.6387926  75.2698627
  91.5450726  32.2014407  74.9568256  91.4105194  31.4414808  74.3906254
  91.1282789  32.9255307  74.4897045 102.6809689  27.3851330  63.9644831
 103.3845540  27.5901333  64.5802487 101.9572338  27.9528092  64.2293915
 103.5107500  23.1361192  70.0847101 103.4542701  23.5929743  69.2454734
 104.0635842  22.3751876  69.9069944 107.3212306  18.9250923  70.9097221
 107.0649240  18.5247559  71.7405429 106.6965174  19.6394717  70.7847360
 111.6324643  21.6646997  73.4168512 111.0724201  21.7340186  74.1900074
 111.0268147  21.4887981  72.6968008  94.7019852  33.0983724  75.1686699
  94.5852236  34.0429156  75.0665389  93.8812299  32.7957285  75.5572498
 104.5896387  27.8233860  66.0143291 105.4241991  27.3915058  65.8320766
 104.4280730  27.6515873  66.9420186 104.2442279  24.3265973  67.3799631
 104.1891083  24.1610244  66.4388075 103.6188334  25.0342006  67.5361820
  89.0334794  19.5634037  81.2061053  89.6793658  19.0532991  81.6948278
  88.8251945  20.3002719  81.7804478 101.5588186  26.6314885  86.7053193
 102.4279346  26.8055537  86.3439828 101.0794938  27.4509302  86.5828923
  97.5538404  13.8274082  66.9584949  97.5417074  14.7715922  67.1153220
  98.4461826  13.6444227  66.6644410  95.7274366  33.7511986  78.3842627
  96.6301613  33.7835596  78.7009122  95.5011736  32.8212437  78.3988963
  97.4827968  32.5042972  75.0452706  96.5323599  32.5044834  74.9317078
  97.7860455  31.7575707  74.5288740  93.3732285  16.7101654  85.3036067
  94.2363747  16.3538459  85.5139392  92.7997696  16.3715549  85.9911471
 113.2180662  38.3403511  76.1098468 113.8559072  38.2210258  75.4061808
 113.1001505  39.2884355  76.1686420 110.0270368  38.2930939  76.0459993
 109.6888880  38.1772003  75.1580528 110.8960136  37.8922104  76.0260999
 105.8857184  40.1466415  72.0356884 105.3222049  40.0556352  71.2673171
 105.7709579  39.3266320  72.5159376 110.5090151  39.4465790  82.0046198
 110.4978792  39.0518589  81.1326702 110.6710791  38.7131863  82.5979970
 103.4321616  41.6417607  74.8741104 104.2242908  41.3008431  74.4587403
 103.6718266  41.7512582  75.7943257 111.4656743  43.8137383  67.3471349
 110.8144722  44.3991463  66.9605362 112.2601105  44.3443578  67.4066386
 105.3912370  40.9026520  67.7458483 106.1643246  40.3555507  67.6071359
 105.7437769  41.7670769  67.9572944 107.2297412  42.2302902  80.9525382
 106.9387278  43.1348533  80.8372048 107.8654397  42.2719430  81.6669452
 108.1553619  39.6079751  77.5426742 108.7517191  39.3835773  76.8283705
 108.2128591  38.8664496  78.1452190 107.7278648  37.0619186  65.3776933
 107.9804168  36.5400707  64.6160396 106.7903207  36.8985332  65.4803616
 112.7721930  36.0654964  73.1851676 113.5585020  35.6474388  72.8342093
 113.0360635  36.9701057  73.3533324 112.9432008  41.5027815  67.8840333
 112.3077841  41.5762441  68.5961237 112.6129414  42.0921414  67.2059412
 118.1730358  36.0030198  74.0884655 118.9055529  35.4329414  74.3222484
 117.4169713  35.6151798  74.5291160 107.4474936  38.9647292  67.5801308
 107.3311194  38.2892195  68.2482392 107.5577196  38.4779666  66.7633461
 109.7906477  38.4257439  71.2847997 109.4264684  37.8988060  71.9960918
 110.6473593  38.0355908  71.1114482 115.6955778  29.7151772  78.5479263
 115.3639103  30.5847183  78.3240478 115.1001391  29.3988056  79.2273294
 109.4311964  33.4547339  66.2809345 109.5986367  34.3227575  66.6479817
 109.2409133  33.6174621  65.3570635 112.1887297  41.9164318  77.9475176
 111.8888020  42.8189357  77.8390983 111.8438357  41.6496501  78.7996329
 105.6399779  38.3678115  73.9811880 104.7150275  38.2354329  74.1889572
 105.8884192  39.1472334  74.4781823 115.5884441  34.4346858  75.6272613
 114.6801319  34.3662266  75.3331374 115.5372037  34.9118803  76.4554439
 109.4101185  35.9104996  67.2656012 109.2900810  36.3562047  68.1041493
 108.7153773  36.2590314  66.7069550 103.0008590  38.0111388  74.8155669
 103.1300971  38.2645867  75.7295081 102.3206041  38.6039096  74.4960324
 107.1708077  48.6808638  70.9146144 107.0932107  49.6316463  70.9934624
 106.5669721  48.3354511  71.5721070 109.6625307  35.8536504  83.5707510
 108.8858641  36.4130424  83.5610375 110.3015870  36.3393287  84.0922381
 117.4546088  32.6363296  77.4050487 116.8120468  32.9295830  76.7590282
 116.9501016  32.5216217  78.2103684 115.1086251  36.3826470  68.0936346
 116.0204107  36.6153856  67.9184044 114.5995898  36.9663514  67.5311425
 107.9171679  38.6621957  83.1325477 108.6586364  39.2007001  82.8560301
 107.2108665  39.2888246  83.2897029 113.3927019  40.8051097  81.7297639
 113.8010375  40.3633508  80.9852271 112.6704280  40.2303725  81.9831832
 109.7458089  35.7423704  79.1031196 110.5919284  36.1663118  79.2465845
 109.6856727  35.0857328  79.7969759 113.7155834  41.3652288  75.4849928
 113.0864696  41.5298002  74.7825996 113.3281496  41.7793898  76.2560892
 117.5945065  42.3006726  72.8394292 116.9096104  42.6805627  72.2891325
 117.6788915  42.9102052  73.5726239 112.8957534  33.4028072  80.7612370
 112.6518466  34.1570133  80.2246645 113.1717465  33.7813420  81.5959617
 114.8495997  39.9466685  79.4389635 115.0612892  40.5898445  78.7624016
 114.8025745  39.1129001  78.9711565 112.4522226  32.5584506  76.3426207
 111.5906705  32.8565759  76.6342945 112.4784661  32.7754904  75.4107240
 109.2683795  41.1026696  72.7500013 109.7322141  41.3814399  71.9604635
 109.0040594  40.2010141  72.5673104 106.1607876  40.6498178  75.6879776
 106.7309234  41.0785446  75.0497261 106.7515988  40.3680762  76.3863962
 108.2052681  37.2249848  69.5589578 108.9076725  37.6770892  70.0263504
 107.8733310  36.5833667  70.1869471 106.6533043  35.8161605  83.9340787
 106.0231704  36.4977886  84.1676184 106.5469131  35.7044687  82.9893926
 101.9478015  35.4833401  74.8606712 101.1577069  35.7390930  74.3846822
 102.4389263  36.2981739  74.9658752 115.9641825  42.8238640  77.6111992
 116.7859269  42.4218828  77.3294674 115.9604228  42.7206874  78.5628108
 103.8992761  35.8477980  71.8190188 103.1023924  35.9596675  72.3373684
 103.6718353  36.1864633  70.9531079 109.7298428  42.3722684  79.7672703
 109.7942861  42.8343091  80.6030875 109.0209352  41.7420049  79.8955013
 100.2315718  35.7363892  77.2921702 100.4823757  36.6210901  77.5579278
 100.7675267  35.5568493  76.5196794 109.4446446  44.0390791  69.6351683
 109.3092121  44.8842327  70.0636531 109.9856259  44.2410069  68.8717617
 105.9313786  30.1182371  86.2966038 105.5380731  29.5648569  86.9713683
 106.7479926  30.4292949  86.6872556 102.8975843  41.5566229  70.2079608
 103.4100364  42.3509479  70.3585173 103.5498556  40.8592520  70.1413210
 104.7070728  44.6731985  72.2902362 104.8837357  45.5949950  72.1023345
 105.5027562  44.3590405  72.7196741 108.8481747  31.5340250  83.8886295
 109.5891460  32.1347403  83.8090758 109.0799670  30.7917888  83.3304338
 103.9923085  36.7196617  82.1664525 103.8776600  35.8181875  82.4671624
 103.1367602  36.9660314  81.8149341 111.0714922  44.6614358  83.7652025
 110.6278777  43.8750736  83.4472930 111.7332136  44.8493508  83.0995916
 105.8302044  46.1910159  78.2912704 106.3809469  46.0627223  77.5189698
 104.9913520  46.4905048  77.9407597 113.1696161  44.9417158  81.7933427
 113.1514636  45.7626039  81.3013696 114.0916081  44.8171233  82.0183568
 109.6269215  42.4561287  82.6356935 110.1597552  41.6949575  82.4056243
 109.0983296  42.1634939  83.3781089 112.7938910  27.5621353  78.1650577
 112.4503179  28.4522995  78.0889687 113.1617872  27.3723011  77.3020162
 100.8624760  39.8854883  70.9839179 101.6999982  40.2951892  70.7672887
 101.0403028  38.9454326  70.9539373 112.7589192  37.5529964  66.6723012
 112.2435816  38.3234569  66.9111399 112.4866501  36.8795100  67.2956073
 110.3436303  32.3979665  71.7308250 109.4877900  32.0086515  71.5513889
 110.7563255  32.4771626  70.8708036 111.8735450  29.9326008  76.1299810
 111.3700246  29.8956143  75.3167615 112.1666057  30.8418751  76.1896467
 108.1178336  30.0164738  75.1365992 108.9831333  29.8207547  74.7771881
 108.1855845  29.7875090  76.0635348 117.7323467  40.3062319  68.6076185
 116.9552909  39.9673478  68.1631347 118.4114948  40.3114942  67.9331150
 112.5475496  35.4257056  68.4982793 112.2425631  35.7403205  69.3492936
 113.5005938  35.5038476  68.5410126 110.9921927  41.5847279  70.1475747
 110.4643289  40.8500039  69.8348984 110.4909430  42.3621956  69.9015715
 115.9714773  39.7796300  75.2642793 115.3138448  40.4695561  75.3522922
 116.7755173  40.1692732  75.6076780 105.7240655  32.2466946  72.5082359
 106.2984407  32.0242127  71.7755551 106.3111637  32.3155640  73.2610960
 114.7820232  38.1340673  73.3146735 115.2952114  38.7670664  73.8168445
 115.4321456  37.5341868  72.9490095 106.0510242  34.2771407  66.5278244
 105.2147554  34.6146093  66.8487519 105.9115012  34.1420387  65.5905381
 108.0263323  29.1208195  71.2357428 107.3727735  28.8057212  70.6114043
 107.9843797  28.4983935  71.9617251 109.1374528  39.4027490  63.1510720
 108.2301589  39.1716743  63.3501869 109.6345560  38.6065109  63.3384702
 112.0442606  48.1124997  66.0707406 111.3704305  48.4156694  66.6792364
 112.4308428  48.9154077  65.7212863 111.2601063  35.6090128  75.5605076
 110.3423624  35.8305075  75.4026764 111.6761207  35.6836439  74.7016783
 112.0436111  37.0081544  70.6907756 112.7907930  37.5202941  70.3814878
 112.3127700  36.6865597  71.5512149 110.3162761  39.5040085  67.6734710
 109.4073980  39.2199117  67.7707180 110.3457845  39.9239163  66.8138017
 115.5482028  43.1146674  71.4425878 115.0944356  42.2737584  71.4991068
 114.9175995  43.7508072  71.7800658 114.4914948  34.0438660  72.6726545
 113.7537705  33.5316046  73.0036788 114.7441722  33.6039042  71.8609822
 113.9914968  44.9523171  72.3775696 114.2837942  45.5128228  71.6588061
 114.5013588  45.2451732  73.1328855 114.5926575  26.8214912  73.2668314
 114.8985452  25.9612276  72.9794229 115.3179180  27.4132532  73.0667308
 100.8850931  37.2245599  71.6549912 100.6875331  36.6314959  70.9300979
 100.3297595  36.9197809  72.3725851 108.8647655  37.1168705  73.7744505
 108.9196265  36.1642542  73.6986982 108.0538857  37.2728144  74.2585804
 110.0138849  41.0448828  65.0122789 109.5758279  40.3284687  64.5528426
 110.7549290  41.2724943  64.4507880 106.8040015  35.7345765  71.5334884
 105.9907881  36.0339936  71.9400076 107.2999009  35.3401454  72.2509367
 108.9548593  45.7303522  73.4669149 108.9124772  45.9564368  72.5377681
 109.8711292  45.4966896  73.6154950 112.4014227  36.1987589  80.3649778
 112.7563614  36.4259063  81.2244244 113.0486358  36.5305966  79.7427034
 118.1311964  39.3206025  71.0699107 117.9929862  39.5107621  70.1420296
 117.7748182  40.0825408  71.5267158 106.2954090  33.3064120  77.1496119
 106.9353469  33.1652880  76.4519083 105.4631620  33.0198634  76.7734721
 118.1581343  41.3882552  76.0810379 118.5917850  41.2957841  76.9293433
 118.8712924  41.3640053  75.4430395 107.0714394  42.6066551  73.2631112
 107.8654992  42.1116871  73.0613687 106.3606086  42.0784414  72.8998817
 111.8909238  44.9884646  77.6143479 111.9446260  45.5575583  78.3821195
 111.0224019  45.1586531  77.2497517 103.3797157  36.7509633  69.3390864
 102.4494745  36.6894088  69.5560827 103.4754629  36.2285585  68.5427506
 103.2982706  33.2764445  71.9269106 103.5589523  34.1909779  71.8178267
 104.1199878  32.8088888  72.0765719 104.7707632  34.6902203  79.0967931
 105.4430685  34.4819565  78.4480580 103.9437418  34.4924289  78.6573163
 119.0196893  41.4306253  78.6143264 119.2132783  42.3352063  78.8602539
 118.9197511  40.9713672  79.4481849 110.6733204  31.3164144  81.1133592
 110.0261119  32.0154093  81.0198068 111.4434219  31.7500287  81.4809840
 114.0812001  41.5812996  84.1884145 113.9297508  41.3523547  83.2714228
 114.0716681  42.5383597  84.2015490 110.8497338  39.1544908  79.1730411
 111.7789398  39.3056068  78.9999379 110.4288368  39.2428929  78.3179058
 109.6485670  43.1795573  76.9428949 109.5096755  42.8114357  77.8154887
 108.8600266  43.6943212  76.7712907 110.2433822  48.2804669  68.2854485
 110.4185577  47.8092713  69.1000108 109.5566610  48.9070436  68.5135746
 111.1990885  42.5577176  74.3317787 110.8640717  42.5177946  75.2275437
 110.6994830  41.8921891  73.8588197 105.1735129  37.9644806  79.8570368
 105.0354927  37.2325044  80.4581907 106.0840052  37.8753706  79.5754556
 114.1350076  39.9033210  64.6054846 113.5179247  39.1780038  64.5087899
 113.6666565  40.6642570  64.2621921 107.8017429  37.6764765  79.3454047
 108.5117048  37.0357957  79.3040666 107.7586738  37.9277660  80.2680228
 115.7904208  44.6132118  82.2660627 115.7316754  43.9291338  81.5991210
 116.1923726  45.3551108  81.8141253 106.5146363  34.6629983  81.1649687
 105.9783720  34.2120721  81.8171283 105.9263072  34.7975892  80.4220151
 104.8094907  51.4294032  75.0594346 105.0491505  52.0612556  75.7373364
 103.9664103  51.0782072  75.3459705 105.9248622  34.1218634  63.7276151
 105.0478089  34.0007435  63.3638397 106.4006375  33.3304713  63.4755039
 115.7921615  42.5771702  80.4974606 114.9048394  42.2397624  80.6201005
 116.3620166  41.8454733  80.7343372  97.4450762  38.9095794  73.8217658
  98.1321802  38.5957524  73.2338673  97.2898891  39.8137159  73.5484909
 102.2485485  33.7985991  78.2502681 102.1643673  33.1911660  77.5153091
 101.4268191  34.2895009  78.2512178 109.3222769  47.2373155  77.4635850
 109.2492940  48.0428126  77.9755154 108.8800162  47.4365120  76.6383871
 109.1112548  46.4744925  70.9738671 108.3280070  47.0166605  71.0676896
 109.8105294  46.9918904  71.3732912 112.4209199  32.2839554  73.6172876
 112.9177898  31.5309516  73.2973947 111.6496180  32.3203871  73.0516086
 120.2738956  37.9879920  75.2591168 120.2628832  38.8704635  74.8885101
 119.4056335  37.6351470  75.0645705 111.7821452  47.1359989  79.6194008
 112.4949424  47.7707453  79.5469910 111.2911481  47.2323855  78.8034010
 113.5038979  41.0411241  71.1911300 112.5695258  41.1612704  71.0216004
 113.6815648  40.1383708  70.9271310 109.0044167  34.4256937  73.3444561
 108.6341955  33.8727977  74.0325467 109.5003260  33.8215071  72.7919561
 116.8911531  36.8828561  71.7261334 117.3571983  37.7156552  71.6521637
 117.3419031  36.4173542  72.4306592 106.8333366  44.8854432  80.4399579
 107.5342825  45.5190915  80.5928973 106.3628481  45.2269164  79.6795218
 114.9587762  43.2272382  68.7247486 115.2347606  43.1128976  69.6341360
 114.0892260  42.8289867  68.6859659 114.8628193  29.2509148  75.7652235
 113.9491273  29.4813374  75.9334442 115.2921295  29.3347592  76.6166268
 114.6334652  37.4399040  78.2652129 113.9806102  37.6874947  77.6104582
 115.0115032  36.6263178  77.9314607 111.5941826  47.4758733  72.3680300
 111.7764220  46.6580389  72.8308052 112.4174812  47.6926425  71.9305190
 111.9283991  46.4026918  69.6295348 112.4571758  45.8919372  69.0165510
 112.1912211  46.0869448  70.4940881 110.6822225  38.1818851  84.7518166
 110.0062862  38.0812980  85.4220542 111.5049859  38.0258064  85.2154164
 102.4301084  44.4190787  77.3730682 103.0154521  43.6734475  77.5058586
 102.2325922  44.7294744  78.2567346 105.2839739  47.4542034  72.3893124
 104.6150114  47.9388162  71.9057164 105.1452609  47.7011255  73.3036503
  97.0218739  36.9896387  76.0935125  97.0602838  36.4559978  76.8872243
  96.5159031  36.4631593  75.4746102 109.4245008  49.4885778  78.9875782
 109.9763316  49.6517400  79.7524868 109.7651201  50.0790216  78.3155807
 104.4009501  31.8360928  79.5897667 104.4650827  32.6975759  79.1775065
 104.3376621  31.2234929  78.8570026 103.8761773  33.9084060  83.2370701
 104.5033812  33.5261138  83.8508226 103.0189692  33.6898262  83.6026394
 114.2755882  44.3147036  84.8424437 114.8195786  44.9276994  84.3479392
 113.6942727  44.8726614  85.3591450 100.6527316  35.7160489  69.1689056
 100.9480757  34.8071168  69.1156110  99.7515352  35.6948229  68.8470059
 112.5613395  47.4367754  75.9739465 112.4364534  46.6357493  75.4650410
 113.2192486  47.9313947  75.4853435 104.1821563  33.7916486  75.1516605
 103.4608149  34.4052454  75.0124078 104.9714819  34.3274251  75.0733251
 114.6248303  45.2376774  77.6019015 113.6778639  45.1182125  77.5297341
 114.9731076  44.3499272  77.6845276 106.9847877  31.1270913  81.4257257
 107.5082279  31.3733209  82.1883566 106.7660210  31.9590947  81.0060394
 102.3815158  33.3974587  69.2928381 102.0527864  32.5171966  69.1103487
 102.7354528  33.3422256  70.1804771 111.6294737  45.0329490  73.8023367
 111.4819699  44.1046197  73.9830937 112.4548230  45.0549581  73.3180442
 105.4956981  33.6847557  69.6603859 105.8353053  34.2133478  68.9382467
 105.9429101  34.0227963  70.4362426 115.2328858  45.8558049  74.8888240
 116.1575406  45.6500910  74.7512691 115.0644162  45.6074450  75.7977581
 108.1900422  32.0684608  79.1106927 107.8497242  31.2692421  79.5127607
 107.4839428  32.3686318  78.5383760 108.8416894  29.1533920  77.5634250
 109.6642963  28.6794398  77.4413140 109.0854957  29.9324404  78.0632936
 107.4825128  32.1822179  67.8597152 108.2033491  32.5603431  67.3560869
 106.8590432  32.9011055  67.9632130 111.6256251  32.8867327  68.7955484
 111.8419865  33.7691965  68.4944312 111.1450318  32.4953541  68.0661126
 106.3655472  35.8453041  75.3726229 106.2200053  36.1593344  76.2650510
 105.8880676  36.4637941  74.8197127 108.2251855  32.8355589  75.4207118
 108.2113424  31.9396682  75.0839416 108.9424283  32.8426252  76.0545404
 110.0777986  33.2692929  77.4660246 109.8195764  34.1910000  77.4644576
 109.5463026  32.8723363  78.1560710 115.0224175  46.3743716  70.2450331
 115.1961052  45.8090139  69.4924184 115.5153066  47.1744611  70.0629821
 100.8401135  38.3858385  78.3113890 100.2954603  39.1618193  78.4434164
 101.7180484  38.7329190  78.1533011 107.6288751  31.7169969  70.6894688
 107.7504662  30.7886615  70.8885576 107.3390794  31.7308655  69.7773004
 110.4979942  29.4024879  73.8261408 110.5201638  29.4664213  72.8713388
 110.9148001  28.5629388  74.0201914 120.8763566  39.1380139  71.8640631
 121.3194712  38.3887464  71.4659754 119.9990076  39.1290275  71.4814363
 116.0099347  45.6910480  67.3447229 116.7050252  46.3117173  67.5634544
 116.3522497  44.8405832  67.6199607 101.6267156  37.5128281  81.2044047
 100.8848892  37.6610917  81.7908677 101.3059901  37.7736547  80.3410796
 117.9090770  43.1410186  68.8734560 118.4342094  43.4797459  68.1483880
 117.8213123  42.2057201  68.6897695 109.5710819  47.0544260  81.0024437
 109.8797945  46.8093406  81.8747136 110.3686301  47.2590898  80.5143307
 109.5931431  49.2082169  73.2329813 109.1536421  48.7158548  73.9262670
 110.3439548  48.6655137  72.9921889 102.0723770  45.3993710  73.2354441
 102.8981790  45.0997482  72.8553085 101.7217822  44.6301333  73.6844230
 107.0405303  44.7520178  75.3052115 106.4185312  44.0890883  75.0054343
 107.7110170  44.7781310  74.6225763 100.2732375  43.3180037  74.1943375
  99.4364283  42.8902211  74.0127376 100.2456021  43.5112480  75.1314166
 107.1129831  33.2301966  84.8984621 107.1617986  34.1064089  84.5162391
 107.6552345  32.6879359  84.3256264 117.5984676  43.7743090  84.1785758
 116.8080220  43.7567228  83.6390258 117.3618031  44.3131383  84.9334795
 117.7182551  40.6235556  81.4918487 117.7680556  40.4585563  82.4334009
 117.6096475  39.7562815  81.1016367 106.6018810  43.3024102  68.7810576
 106.7506930  43.9859566  68.1277248 107.4085254  43.2829192  69.2960031
 115.0086314  36.6066484  82.8077793 115.9096177  36.4672949  82.5161791
 115.0834288  36.7720939  83.7475971 109.3429119  33.9833339  81.6530980
 108.4732429  34.2766905  81.3813568 109.5788600  34.5673784  82.3738243
 119.2200748  43.0432497  81.7360508 118.9285557  43.4062478  82.5723969
 118.6072880  42.3299506  81.5573840 120.4196431  40.6085377  74.2563078
 121.2543322  41.0475181  74.4200639 120.5555559  40.1324030  73.4371324
 117.4687937  38.1665112  80.2040566 117.9442058  38.3592758  79.3959418
 116.5453502  38.2224298  79.9583950 104.3571443  39.3289279  69.7871644
 104.1117485  38.4251609  69.9851855 104.5267358  39.3306430  68.8451122
 112.0468153  30.2012956  79.1696400 112.5650097  30.9373983  78.8442889
 111.6923286  30.5076949  80.0043159 103.6267091  35.0617637  67.2857806
 102.9336336  35.1361992  66.6297842 103.3818843  34.2977981  67.8079323
 112.2980747  26.6213238  74.6897297 112.5782501  25.9536427  75.3157723
 113.0831354  26.8142334  74.1771961 110.1014216  45.7972232  66.2522323
 109.5288183  46.4162419  65.7992795 110.6747009  46.3471594  66.7862245
 116.1689605  35.0430872  78.4368872 117.1207028  35.1428970  78.4581096
 115.9993056  34.2509141  78.9466956 114.1903985  32.1286455  78.6228273
 113.5953917  32.4091468  77.9274761 113.9053682  32.6180356  79.3945014
 113.3211475  46.0809382  67.3830905 114.2542149  46.0154944  67.5863781
 113.2334688  46.9165649  66.9245438 115.9499492  45.3975253  64.3434853
 115.8713124  45.0635116  65.2370611 116.7709159  45.8897020  64.3426325
 118.6477683  38.2636992  77.5511171 118.6154003  37.3252993  77.7370855
 119.2578307  38.3421029  76.8176996 110.4861014  37.1333045  63.5938375
 111.4320119  37.0039253  63.6626794 110.1075259  36.3947707  64.0707804
 118.7972172  35.0548035  77.5969455 118.2811220  34.2706492  77.4099383
 119.6812120  34.7266752  77.7615974 116.4582899  28.7989051  73.5565267
 116.2607720  28.4904139  74.4408599 117.0682604  29.5250690  73.6863197
 110.3699707  41.1850791  85.0539032 111.2902716  41.3629390  85.2479079
 110.3349290  40.2406836  84.9018732 108.6703931  35.0583021  63.5293261
 107.7635387  34.7616134  63.6055974 108.9479912  34.7612839  62.6627547
  99.5881872  36.3789385  73.9792307  99.2684656  35.5254693  73.6866681
  99.0415300  36.5937963  74.7350274 103.3661779  39.0951826  77.6961814
 103.5847789  40.0268933  77.7149847 103.7787553  38.7359800  78.4816617
 110.2865997  29.6019911  69.6837502 109.4766725  29.2566996  70.0592748
 110.9750414  29.2927455  70.2725114 112.2156545  28.6797958  71.3061799
 112.7687584  29.0993411  71.9651822 112.4526632  27.7533706  71.3484755
 108.2389645  34.6685031  87.0864563 108.1386371  35.6179388  87.0176654
 108.0211187  34.3403270  86.2140633 107.4402716  31.9169956  63.6705240
 108.3021880  32.2424855  63.9301057 107.6253060  31.1301452  63.1578306
  99.4570132  39.9992296  75.9485429  98.7633603  39.5846249  75.4355383
 100.2043123  40.0412833  75.3518848 115.5935352  30.7898483  70.8140463
 115.0134021  31.4483287  70.4318515 115.3271285  29.9675828  70.4027880
 114.0438919  30.1903541  73.0161783 114.5438697  30.3020075  72.2076102
 114.6874527  29.8864593  73.6562592 108.1020915  38.0982170  85.9029624
 107.6187996  38.8982530  86.1093513 108.1881854  38.1090115  84.9497068
 101.3706874  39.9310550  73.8251444 101.3477562  40.0298237  72.8733327
 101.6807511  40.7775701  74.1468610 104.0294252  41.9886705  77.9398058
 104.9837506  41.9570647  77.8727990 103.8306776  41.5277329  78.7548284
 104.6193634  40.5587821  80.5068856 105.4386523  41.0531900  80.5303693
 104.8930442  39.6419789  80.4786423 114.3760230  32.9498573  69.8696811
 113.4886085  33.2348224  69.6517006 114.7914219  32.7892337  69.0224088
 117.7274767  32.9745094  73.5851150 118.5035157  33.4641547  73.8575767
 117.0022901  33.4003148  74.0423020 120.1647325  33.6872714  74.6425091
 120.7591816  33.4468449  73.9318399 120.2373909  32.9679844  75.2698627
 102.3844481  47.5306324  74.9568256 102.2498949  46.7706725  74.3906254
 101.9676543  48.2547224  74.4897045 113.5203444  42.7143248  63.9644831
 114.2239294  42.9193250  64.5802487 112.7966093  43.2820010  64.2293915
 114.3501254  38.4653109  70.0847101 114.2936456  38.9221661  69.2454734
 114.9029597  37.7043794  69.9069944 118.1606060  34.2542841  70.9097221
 117.9042994  33.8539477  71.7405429 117.5358928  34.9686635  70.7847360
 122.4718398  36.9938914  73.4168512 121.9117956  37.0632104  74.1900074
 121.8661901  36.8179899  72.6968008 105.5413607  48.4275641  75.1686699
 105.4245991  49.3721074  75.0665389 104.7206053  48.1249203  75.5572498
 115.4290141  43.1525777  66.0143291 116.2635745  42.7206976  65.8320766
 115.2674484  42.9807791  66.9420186 115.0836033  39.6557890  67.3799631
 115.0284837  39.4902162  66.4388075 114.4582089  40.3633923  67.5361820
  99.8728548  34.8925955  81.2061053 100.5187412  34.3824909  81.6948278
  99.6645700  35.6294637  81.7804478 112.3981941  41.9606802  86.7053193
 113.2673100  42.1347455  86.3439828 111.9188692  42.7801219  86.5828923
 108.3932159  29.1565999  66.9584949 108.3810829  30.1007839  67.1153220
 109.2855581  28.9736145  66.6644410 106.5668121  49.0803903  78.3842627
 107.4695368  49.1127514  78.7009122 106.3405491  48.1504354  78.3988963
 108.3221723  47.8334890  75.0452706 107.3717354  47.8336752  74.9317078
 108.6254209  47.0867624  74.5288740 112.2084278  25.7508776  71.2130886
 111.4416674  25.1967263  71.3587568 112.6194983  25.8230645  72.0745037
 104.2126039  32.0393572  85.3036067 105.0757501  31.6830377  85.5139392
 103.6391450  31.7007467  85.9911471 120.8664123  53.6222856  76.0459993
 120.5282634  53.5063921  75.1580528 121.7353891  53.2214021  76.0260999
 116.7250938  55.4758333  72.0356884 116.1615803  55.3848270  71.2673171
 116.6103333  54.6558237  72.5159376 121.3483906  54.7757708  82.0046198
 121.3372546  54.3810506  81.1326702 121.5104545  54.0423781  82.5979970
 114.2715370  56.9709524  74.8741104 115.0636662  56.6300349  74.4587403
 114.5112020  57.0804499  75.7943257 116.2306124  56.2318438  67.7458483
 117.0037000  55.6847425  67.6071359 116.5831523  57.0962687  67.9572944
 118.0691167  57.5594820  80.9525382 117.7781033  58.4640451  80.8372048
 118.7048151  57.6011348  81.6669452 118.9947374  54.9371668  77.5426742
 119.5910946  54.7127691  76.8283705 119.0522345  54.1956414  78.1452190
 118.5672402  52.3911104  65.3776933 118.8197923  51.8692625  64.6160396
 117.6296961  52.2277249  65.4803616 118.2868691  54.2939210  67.5801308
 118.1704949  53.6184113  68.2482392 118.3970951  53.8071584  66.7633461
 120.6300232  53.7549357  71.2847997 120.2658439  53.2279978  71.9960918
 121.4867348  53.3647826  71.1114482 120.2705719  48.7839257  66.2809345
 120.4380121  49.6519493  66.6479817 120.0802888  48.9466538  65.3570635
 116.4793533  53.6970032  73.9811880 115.5544030  53.5646246  74.1889572
 116.7277947  54.4764252  74.4781823 120.2494940  51.2396914  67.2656012
 120.1294565  51.6853965  68.1041493 119.5547528  51.5882232  66.7069550
 113.8402344  53.3403306  74.8155669 113.9694726  53.5937785  75.7295081
 113.1599796  53.9331014  74.4960324 118.0101832  64.0100556  70.9146144
 117.9325861  64.9608381  70.9934624 117.4063475  63.6646428  71.5721070
 120.5019061  51.1828421  83.5707510 119.7252396  51.7422341  83.5610375
 121.1409625  51.6685204  84.0922381 118.7565434  53.9913875  83.1325477
 119.4980118  54.5298919  82.8560301 118.0502419  54.6180163  83.2897029
 120.5851843  51.0715622  79.1031196 121.4313039  51.4955035  79.2465845
 120.5250481  50.4149246  79.7969759 120.1077550  56.4318614  72.7500013
 120.5715895  56.7106317  71.9604635 119.8434348  55.5302058  72.5673104
 117.0001631  55.9790095  75.6879776 117.5702988  56.4077364  75.0497261
 117.5909743  55.6972680  76.3863962 119.0446436  52.5541766  69.5589578
 119.7470479  53.0062810  70.0263504 118.7127064  51.9125585  70.1869471
 117.4926798  51.1453523  83.9340787 116.8625458  51.8269804  84.1676184
 117.3862885  51.0336604  82.9893926 112.7871770  50.8125319  74.8606712
 111.9970824  51.0682847  74.3846822 113.2783017  51.6273657  74.9658752
 114.7386515  51.1769898  71.8190188 113.9417679  51.2888592  72.3373684
 114.5112108  51.5156550  70.9531079 120.5692183  57.7014601  79.7672703
 120.6336615  58.1635008  80.6030875 119.8603107  57.0711966  79.8955013
 111.0709473  51.0655809  77.2921702 111.3217511  51.9502819  77.5579278
 111.6069021  50.8860411  76.5196794 120.2840201  59.3682709  69.6351683
 120.1485875  60.2134244  70.0636531 120.8250013  59.5701986  68.8717617
 116.7707540  45.4474289  86.2966038 116.3774486  44.8940487  86.9713683
 117.5873681  45.7584867  86.6872556 113.7369598  56.8858147  70.2079608
 114.2494119  57.6801397  70.3585173 114.3892311  56.1884437  70.1413210
 115.5464483  60.0023903  72.2902362 115.7231111  60.9241868  72.1023345
 116.3421316  59.6882322  72.7196741 119.6875501  46.8632168  83.8886295
 120.4285215  47.4639321  83.8090758 119.9193424  46.1209805  83.3304338
 114.8316839  52.0488535  82.1664525 114.7170354  51.1473792  82.4671624
 113.9761357  52.2952232  81.8149341 116.6695798  61.5202077  78.2912704
 117.2203223  61.3919140  77.5189698 115.8307274  61.8196966  77.9407597
 120.4662969  57.7853205  82.6356935 120.9991306  57.0241493  82.4056243
 119.9377050  57.4926856  83.3781089 111.7018515  55.2146801  70.9839179
 112.5393737  55.6243809  70.7672887 111.8796782  54.2746243  70.9539373
 121.1830058  47.7271583  71.7308250 120.3271654  47.3378433  71.5513889
 121.5957010  47.8063543  70.8708036 118.9572090  45.3456656  75.1365992
 119.8225087  45.1499464  74.7771881 119.0249599  45.1167007  76.0635348
 121.8315682  56.9139197  70.1475747 121.3037043  56.1791957  69.8348984
 121.3303185  57.6913873  69.9015715 116.5634410  47.5758863  72.5082359
 117.1378161  47.3534045  71.7755551 117.1505392  47.6447558  73.2610960
 116.8903997  49.6063324  66.5278244 116.0541309  49.9438011  66.8487519
 116.7508766  49.4712304  65.5905381 118.8657077  44.4500112  71.2357428
 118.2121490  44.1349130  70.6114043 118.8237551  43.8275853  71.9617251
 119.9768282  54.7319407  63.1510720 119.0695344  54.5008661  63.3501869
 120.4739314  53.9357027  63.3384702 121.1556516  54.8332002  67.6734710
 120.2467735  54.5491035  67.7707180 121.1851599  55.2531081  66.8138017
 111.7244686  52.5537516  71.6549912 111.5269086  51.9606877  70.9300979
 111.1691350  52.2489727  72.3725851 119.7041410  52.4460623  73.7744505
 119.7590019  51.4934459  73.6986982 118.8932612  52.6020062  74.2585804
 120.8532603  56.3740746  65.0122789 120.4152033  55.6576605  64.5528426
 121.5943044  56.6016861  64.4507880 117.6433769  51.0637683  71.5334884
 116.8301635  51.3631853  71.9400076 118.1392764  50.6693371  72.2509367
 119.7942347  61.0595440  73.4669149 119.7518526  61.2856286  72.5377681
 120.7105046  60.8258814  73.6154950 117.1347844  48.6356038  77.1496119
 117.7747224  48.4944797  76.4519083 116.3025375  48.3490552  76.7734721
 117.9108148  57.9358469  73.2631112 118.7048747  57.4408789  73.0613687
 117.1999841  57.4076332  72.8998817 114.2190912  52.0801550  69.3390864
 113.2888500  52.0186006  69.5560827 114.3148384  51.5577503  68.5427506
 114.1376461  48.6056363  71.9269106 114.3983278  49.5201696  71.8178267
 114.9593633  48.1380806  72.0765719 115.6101386  50.0194120  79.0967931
 116.2824439  49.8111482  78.4480580 114.7831173  49.8216206  78.6573163
 121.5126958  46.6456061  81.1133592 120.8654873  47.3446011  81.0198068
 122.2827973  47.0792205  81.4809840 120.4879424  58.5087491  76.9428949
 120.3490510  58.1406275  77.8154887 119.6994020  59.0235130  76.7712907
 121.0827576  63.6096587  68.2854485 121.2579332  63.1384630  69.1000108
 120.3960364  64.2362353  68.5135746 122.0384639  57.8869093  74.3317787
 121.7034472  57.8469863  75.2275437 121.5388585  57.2213809  73.8588197
 116.0128883  53.2936723  79.8570368 115.8748681  52.5616962  80.4581907
 116.9233807  53.2045623  79.5754556 118.6411184  53.0056683  79.3454047
 119.3510802  52.3649875  79.3040666 118.5980492  53.2569577  80.2680228
 117.3540118  49.9921900  81.1649687 116.8177475  49.5412639  81.8171283
 116.7656826  50.1267809  80.4220151 115.6488661  66.7585950  75.0594346
 115.8885260  67.3904474  75.7373364 114.8057858  66.4073990  75.3459705
 116.7642377  49.4510552  63.7276151 115.8871843  49.3299353  63.3638397
 117.2400130  48.6596630  63.4755039 108.2844517  54.2387712  73.8217658
 108.9715557  53.9249442  73.2338673 108.1292646  55.1429076  73.5484909
 113.0879239  49.1277908  78.2502681 113.0037428  48.5203578  77.5153091
 112.2661946  49.6186927  78.2512178 120.1616523  62.5665072  77.4635850
 120.0886695  63.3720044  77.9755154 119.7193916  62.7657038  76.6383871
 119.9506303  61.8036842  70.9738671 119.1673825  62.3458522  71.0676896
 120.6499048  62.3210822  71.3732912 119.8437922  49.7548855  73.3444561
 119.4735709  49.2019895  74.0325467 120.3397014  49.1506988  72.7919561
 117.6727120  60.2146350  80.4399579 118.3736580  60.8482833  80.5928973
 117.2022235  60.5561081  79.6795218 121.5215979  53.5110768  84.7518166
 120.8456616  53.4104898  85.4220542 122.3443613  53.3549982  85.2154164
 113.2694838  59.7482705  77.3730682 113.8548275  59.0026393  77.5058586
 113.0719677  60.0586661  78.2567346 116.1233494  62.7833952  72.3893124
 115.4543869  63.2680080  71.9057164 115.9846363  63.0303173  73.3036503
 107.8612493  52.3188305  76.0935125 107.8996593  51.7851896  76.8872243
 107.3552786  51.7923510  75.4746102 120.2638762  64.8177696  78.9875782
 120.8157070  64.9809317  79.7524868 120.6044956  65.4082134  78.3155807
 115.2403255  47.1652845  79.5897667 115.3044582  48.0267676  79.1775065
 115.1770376  46.5526847  78.8570026 114.7155528  49.2375978  83.2370701
 115.3427567  48.8553055  83.8508226 113.8583447  49.0190180  83.6026394
 111.4921071  51.0452407  69.1689056 111.7874512  50.1363086  69.1156110
 110.5909106  51.0240147  68.8470059 115.0215318  49.1208404  75.1516605
 114.3001903  49.7344371  75.0124078 115.8108573  49.6566169  75.0733251
 117.8241631  46.4562830  81.4257257 118.3476033  46.7025127  82.1883566
 117.6053964  47.2882865  81.0060394 113.2208912  48.7266505  69.2928381
 112.8921618  47.8463884  69.1103487 113.5748283  48.6714173  70.1804771
 116.3350735  49.0139475  69.6603859 116.6746808  49.5425396  68.9382467
 116.7822856  49.3519881  70.4362426 119.0294176  47.3976525  79.1106927
 118.6890997  46.5984338  79.5127607 118.3233183  47.6978236  78.5383760
 119.6810648  44.4825838  77.5634250 120.5036717  44.0086316  77.4413140
 119.9248712  45.2616322  78.0632936 118.3218883  47.5114096  67.8597152
 119.0427245  47.8895349  67.3560869 117.6984187  48.2302973  67.9632130
 117.2049227  51.1744958  75.3726229 117.0593808  51.4885261  76.2650510
 116.7274430  51.7929859  74.8197127 119.0645610  48.1647506  75.4207118
 119.0507178  47.2688600  75.0839416 119.7818038  48.1718170  76.0545404
 120.9171740  48.5984847  77.4660246 120.6589518  49.5201917  77.4644576
 120.3856781  48.2015281  78.1560710 111.6794889  53.7150303  78.3113890
 111.1348357  54.4910111  78.4434164 112.5574239  54.0621107  78.1533011
 118.4682506  47.0461887  70.6894688 118.5898417  46.1178533  70.8885576
 118.1784548  47.0600573  69.7773004 121.3373696  44.7316797  73.8261408
 121.3595393  44.7956130  72.8713388 121.7541755  43.8921306  74.0201914
 112.4660911  52.8420199  81.2044047 111.7242647  52.9902834  81.7908677
 112.1453655  53.1028465  80.3410796 120.4104574  62.3836177  81.0024437
 120.7191700  62.1385324  81.8747136 121.2080056  62.5882816  80.5143307
 120.4325186  64.5374087  73.2329813 119.9930176  64.0450466  73.9262670
 121.1833303  63.9947055  72.9921889 112.9117525  60.7285628  73.2354441
 113.7375544  60.4289400  72.8553085 112.5611577  59.9593250  73.6844230
 117.8799058  60.0812096  75.3052115 117.2579067  59.4182801  75.0054343
 118.5503925  60.1073228  74.6225763 111.1126130  58.6471954  74.1943375
 110.2758038  58.2194129  74.0127376 111.0849775  58.8404398  75.1314166
 117.9523585  48.5593884  84.8984621 118.0011741  49.4356007  84.5162391
 118.4946099  48.0171277  84.3256264 117.4412565  58.6316019  68.7810576
 117.5900685  59.3151484  68.1277248 118.2479008  58.6121109  69.2960031
 120.1822874  49.3125256  81.6530980 119.3126183  49.6058822  81.3813568
 120.4182354  49.8965701  82.3738243 115.1965198  54.6581197  69.7871644
 114.9511240  53.7543527  69.9851855 115.3661112  54.6598347  68.8451122
 114.4660845  50.3909555  67.2857806 113.7730090  50.4653910  66.6297842
 114.2212597  49.6269898  67.8079323 120.9407970  61.1264150  66.2522323
 120.3681937  61.7454337  65.7992795 121.5140764  61.6763511  66.7862245
 121.3254769  52.4624963  63.5938375 122.2713873  52.3331171  63.6626794
 120.9469014  51.7239624  64.0707804 121.2093461  56.5142709  85.0539032
 122.1296471  56.6921308  85.2479079 121.1743044  55.5698754  84.9018732
 119.5097686  50.3874939  63.5293261 118.6029141  50.0908052  63.6055974
 119.7873667  50.0904757  62.6627547 110.4275626  51.7081302  73.9792307
 110.1078411  50.8546611  73.6866681 109.8809054  51.9229880  74.7350274
 114.2055534  54.4243743  77.6961814 114.4241543  55.3560851  77.7149847
 114.6181308  54.0651718  78.4816617 121.1259752  44.9311829  69.6837502
 120.3160480  44.5858914  70.0592748 121.8144168  44.6219372  70.2725114
 119.0783399  49.9976949  87.0864563 118.9780126  50.9471306  87.0176654
 118.8604941  49.6695188  86.2140633 118.2796470  47.2461874  63.6705240
 119.1415634  47.5716772  63.9301057 118.4646815  46.4593370  63.1578306
 110.2963886  55.3284214  75.9485429 109.6027358  54.9138167  75.4355383
 111.0436877  55.3704750  75.3518848 118.9414669  53.4274088  85.9029624
 118.4581751  54.2274448  86.1093513 119.0275608  53.4382033  84.9497068
 112.2100629  55.2602468  73.8251444 112.1871317  55.3590155  72.8733327
 112.5201265  56.1067618  74.1468610 114.8688007  57.3178623  77.9398058
 115.8231260  57.2862565  77.8727990 114.6700530  56.8569246  78.7548284
 115.4587389  55.8879739  80.5068856 116.2780278  56.3823817  80.5303693
 115.7324196  54.9711707  80.4786423 113.2238235  62.8598242  74.9568256
 113.0892703  62.0998643  74.3906254 112.8070298  63.5839142  74.4897045
 116.3807361  63.7567559  75.1686699 116.2639745  64.7012992  75.0665389
 115.5599808  63.4541121  75.5572498 110.7122303  50.2217873  81.2061053
 111.3581167  49.7116827  81.6948278 110.5039454  50.9586554  81.7804478
 119.2325913  44.4857917  66.9584949 119.2204583  45.4299757  67.1153220
 120.1249335  44.3028063  66.6644410 117.4061875  64.4095821  78.3842627
 118.3089122  64.4419431  78.7009122 117.1799245  63.4796272  78.3988963
 119.1615477  63.1626808  75.0452706 118.2111108  63.1628669  74.9317078
 119.4647964  62.4159542  74.5288740 115.0519794  47.3685490  85.3036067
 115.9151256  47.0122294  85.5139392 114.4785205  47.0299384  85.9911471
 121.9103227  66.3947727  77.2921702 122.1611266  67.2794737  77.5579278
 122.4462776  66.2152328  76.5196794 119.1238271  69.5679629  73.8217658
 119.8109311  69.2541359  73.2338673 118.9686400  70.4720994  73.5484909
 118.7006248  67.6480223  76.0935125 118.7390347  67.1143813  76.8872243
 118.1946540  67.1215428  75.4746102 121.9519884  73.9763872  74.1943375
 121.1151792  73.5486046  74.0127376 121.9243529  74.1696315  75.1314166
 121.2669381  67.0373220  73.9792307 120.9472165  66.1838528  73.6866681
 120.7202809  67.2521798  74.7350274 121.1357641  70.6576131  75.9485429
 120.4421112  70.2430084  75.4355383 121.8830632  70.6996668  75.3518848
 121.5516057  65.5509790  81.2061053 122.1974921  65.0408744  81.6948278
 121.3433209  66.2878472  81.7804478  96.3314324  10.3578843  57.6391450
  96.2538354  11.3086668  57.7179931  95.7275968  10.0124716  58.2966376
  93.9701154  13.1064237  61.7839652  94.2097752  13.7382761  62.4618671
  93.1270350  12.7552277  62.0705011  94.4445986   9.1312239  59.1138431
  93.7756361   9.6158367  58.6302471  94.3058856   9.3781460  60.0281809
  98.5851254  11.1655983  65.7121089  99.1369562  11.3287604  66.4770174
  98.9257448  11.7560421  65.0401114  98.7537678  10.8852374  59.9575120
  98.3142668  10.3928753  60.6507977  99.5045795  10.3425342  59.7167195
  91.5450728   9.2076529  61.6813563  91.4105196   8.4476930  61.1151561
  91.1282790   9.9317429  61.2142351  94.7019854  10.1045846  61.8932005
  94.5852238  11.0491279  61.7910695  93.8812300   9.8019408  62.2817804
  95.7274368  10.7574108  65.1087934  96.6301614  10.7897719  65.4254429
  95.5011738   9.8274559  65.1234269 110.0270369  15.2993061  62.7705299
 109.6888881  15.1834126  61.8825834 110.8960138  14.8984226  62.7506305
 105.8857185  17.1528538  58.7602190 105.3222050  17.0618475  57.9918478
 105.7709580  16.3328442  59.2404683 110.5090152  16.4527913  68.7291505
 110.4978793  16.0580711  67.8572008 110.6710792  15.7193986  69.3225276
 103.4321617  18.6479729  61.5986411 104.2242909  18.3070554  61.1832710
 103.6718267  18.7574704  62.5188564 111.4656744  20.8199505  54.0716655
 110.8144724  21.4053586  53.6850669 112.2601107  21.3505700  54.1311693
 105.3912371  17.9088643  54.4703789 106.1643247  17.3617630  54.3316665
 105.7437770  18.7732892  54.6818251 107.2297414  19.2365025  67.6770689
 106.9387280  20.1410656  67.5617355 107.8654398  19.2781552  68.3914758
 108.1553620  16.6141873  64.2672048 108.7517193  16.3897896  63.5529011
 108.2128592  15.8726619  64.8697496 107.7278649  14.0681309  52.1022239
 107.9804169  13.5462830  51.3405702 106.7903208  13.9047454  52.2048923
 112.9432009  18.5089937  54.6085639 112.3077842  18.5824564  55.3206544
 112.6129415  19.0983536  53.9304719 107.4474938  15.9709415  54.3046614
 107.3311196  15.2954318  54.9727699 107.5577197  15.4841789  53.4878767
 109.7906478  15.4319562  58.0093304 109.4264686  14.9050183  58.7206225
 110.6473594  15.0418031  57.8359789 112.1887299  18.9226440  64.6720482
 111.8888022  19.8251479  64.5636290 111.8438358  18.6558624  65.5241635
 105.6399780  15.3740237  60.7057187 104.7150277  15.2416451  60.9134879
 105.8884193  16.1534456  61.2027129 103.0008591  15.0173511  61.5400976
 103.1300972  15.2707990  62.4540388 102.3206042  15.6101219  61.2205631
 107.1708078  25.6870761  57.6391450 107.0932108  26.6378586  57.7179931
 106.5669722  25.3416633  58.2966376 107.9171681  15.6684080  69.8570784
 108.6586365  16.2069123  69.5805608 107.2108666  16.2950368  70.0142336
 113.3927020  17.8113220  68.4542946 113.8010376  17.3695630  67.7097578
 112.6704282  17.2365847  68.7077138 113.7155835  18.3714411  62.2095234
 113.0864697  18.5360125  61.5071302 113.3281497  18.7856020  62.9806198
 117.5945067  19.3068848  59.5639598 116.9096105  19.6867750  59.0136632
 117.6788916  19.9164175  60.2971546 114.8495998  16.9528807  66.1634942
 115.0612894  17.5960567  65.4869323 114.8025747  16.1191124  65.6956872
 109.2683797  18.1088819  59.4745320 109.7322142  18.3876522  58.6849942
 109.0040595  17.2072263  59.2918410 106.1607878  17.6560300  62.4125083
 106.7309235  18.0847569  61.7742567 106.7515990  17.3742885  63.1109268
 108.2052683  14.2311971  56.2834885 108.9076726  14.6833015  56.7508811
 107.8733311  13.5895790  56.9114778 106.6533044  12.8223728  70.6586094
 106.0231705  13.5040009  70.8921491 106.5469132  12.7106809  69.7139232
 101.9478017  12.4895524  61.5852018 101.1577071  12.7453052  61.1092129
 102.4389264  13.3043862  61.6904059 115.9641826  19.8300763  64.3357299
 116.7859270  19.4280950  64.0539981 115.9604229  19.7268997  65.2873415
 103.8992762  12.8540103  58.5435495 103.1023925  12.9658797  59.0618991
 103.6718354  13.1926755  57.6776385 109.7298430  19.3784806  66.4918010
 109.7942862  19.8405213  67.3276181 109.0209354  18.7482171  66.6200319
 100.2315720  12.7426014  64.0167009 100.4823758  13.6273024  64.2824585
 100.7675268  12.5630616  63.2442101 109.4446447  21.0452914  56.3596990
 109.3092122  21.8904449  56.7881838 109.9856260  21.2472191  55.5962924
 102.8975845  18.5628352  56.9324915 103.4100365  19.3571602  57.0830480
 103.5498558  17.8654642  56.8658516 104.7070729  21.6794108  59.0147668
 104.8837358  22.6012073  58.8268652 105.5027563  21.3652527  59.4442048
 103.9923086  13.7258740  68.8909831 103.8776601  12.8243997  69.1916930
 103.1367604  13.9722437  68.5394648 111.0714924  21.6676480  70.4897332
 110.6278778  20.8812859  70.1718236 111.7332137  21.8555631  69.8241223
 105.8302045  23.1972282  65.0158011 106.3809470  23.0689345  64.2435004
 104.9913521  23.4967171  64.6652903 113.1696162  21.9479280  68.5178733
 113.1514637  22.7688161  68.0259002 114.0916082  21.8233355  68.7428874
 109.6269216  19.4623410  69.3602242 110.1597553  18.7011698  69.1301550
 109.0983297  19.1697061  70.1026396 100.8624762  16.8917006  57.7084486
 101.6999984  17.3014014  57.4918193 101.0403029  15.9516448  57.6784679
 117.7323468  17.3124441  55.3321492 116.9552911  16.9735601  54.8876654
 118.4114949  17.3177064  54.6576457 110.9921929  18.5909402  56.8721054
 110.4643290  17.8562162  56.5594291 110.4909431  19.3684078  56.6261022
 115.9714775  16.7858423  61.9888100 115.3138449  17.4757684  62.0768229
 116.7755174  17.1754854  62.3322086 109.1374529  16.4089612  49.8756027
 108.2301591  16.1778866  50.0747176 109.6345561  15.6127232  50.0630008
 112.0442608  25.1187120  52.7952713 111.3704306  25.4218816  53.4037671
 112.4308430  25.9216200  52.4458170 110.3162762  16.5102207  54.3980017
 109.4073982  16.2261240  54.4952487 110.3457846  16.9301286  53.5383324
 115.5482030  20.1208797  58.1671184 115.0944357  19.2799707  58.2236375
 114.9175996  20.7570195  58.5045964 113.9914969  21.9585293  59.1021002
 114.2837943  22.5190350  58.3833368 114.5013590  22.2513854  59.8574162
 100.8850933  14.2307721  58.3795219 100.6875332  13.6377082  57.6546286
 100.3297597  13.9259932  59.0971158 110.0138850  18.0510951  51.7368095
 109.5758280  17.3346810  51.2773733 110.7549291  18.2787066  51.1753187
 108.9548594  22.7365644  60.1914456 108.9124773  22.9626491  59.2622988
 109.8711293  22.5029019  60.3400257 118.1581344  18.3944675  62.8055685
 118.5917851  18.3019964  63.6538739 118.8712925  18.3702175  62.1675701
 107.0714395  19.6128673  59.9876418 107.8654993  19.1178994  59.7858993
 106.3606087  19.0846537  59.6244124 111.8909239  21.9946769  64.3388786
 111.9446262  22.5637705  65.1066502 111.0224021  22.1648654  63.9742823
 103.3797158  13.7571755  56.0636171 102.4494746  13.6956211  56.2806133
 103.4754630  13.2347708  55.2672812 119.0196894  18.4368376  65.3388571
 119.2132784  19.3414186  65.5847846 118.9197512  17.9775795  66.1727156
 114.0812003  18.5875118  70.9129451 113.9297509  18.3585670  69.9959535
 114.0716682  19.5445720  70.9260796 110.8497339  16.1607031  65.8975718
 111.7789399  16.3118191  65.7244685 110.4288369  16.2491052  65.0424364
 109.6485671  20.1857695  63.6674255 109.5096757  19.8176480  64.5400194
 108.8600267  20.7005335  63.4958213 110.2433823  25.2866792  55.0099792
 110.4185579  24.8154835  55.8245415 109.5566611  25.9132558  55.2381053
 111.1990886  19.5639298  61.0563093 110.8640719  19.5240068  61.9520743
 110.6994832  18.8984014  60.5833504 105.1735130  14.9706928  66.5815674
 105.0354928  14.2387167  67.1827213 106.0840053  14.8815828  66.2999862
 114.1350078  16.9095333  51.3300153 113.5179248  16.1842161  51.2333206
 113.6666566  17.6704693  50.9867227 107.8017431  14.6826888  66.0699354
 108.5117049  14.0420080  66.0285973 107.7586739  14.9339782  66.9925535
 115.7904209  21.6194241  68.9905933 115.7316756  20.9353461  68.3236516
 116.1923728  22.3613231  68.5386559 104.8094908  28.4356155  61.7839652
 105.0491506  29.0674679  62.4618671 103.9664105  28.0844195  62.0705011
 115.7921617  19.5833825  67.2219913 114.9048395  19.2459747  67.3446312
 116.3620168  18.8516856  67.4588678  97.4450764  15.9157917  60.5462964
  98.1321804  15.6019647  59.9583980  97.2898892  16.8199281  60.2730216
 109.3222770  24.2435277  64.1881156 109.2492942  25.0490249  64.7000461
 108.8800163  24.4427243  63.3629178 109.1112550  23.4807047  57.6983978
 108.3280072  24.0228727  57.7922202 109.8105295  23.9981027  58.0978219
 111.7821454  24.1422111  66.3439315 112.4949426  24.7769576  66.2715216
 111.2911482  24.2385977  65.5279317 113.5038980  18.0473364  57.9156607
 112.5695259  18.1674826  57.7461311 113.6815649  17.1445831  57.6516616
 106.8333367  21.8916555  67.1644886 107.5342827  22.5253038  67.3174280
 106.3628482  22.2331286  66.4040525 114.9587763  20.2334504  55.4492793
 115.2347607  20.1191099  56.3586667 114.0892262  19.8351989  55.4104966
 111.5941827  24.4820855  59.0925606 111.7764221  23.6642511  59.5553359
 112.4174813  24.6988548  58.6550496 111.9283992  23.4089040  56.3540655
 112.4571759  22.8981495  55.7410817 112.1912212  23.0931571  57.2186188
 110.6822226  15.1880973  71.4763473 110.0062863  15.0875102  72.1465848
 111.5049860  15.0320187  71.9399470 102.4301085  21.4252910  64.0975988
 103.0154522  20.6796598  64.2303893 102.2325924  21.7356866  64.9812652
 105.2839740  24.4604157  59.1138431 104.6150116  24.9450285  58.6302471
 105.1452610  24.7073378  60.0281809  97.0218740  13.9958510  62.8180431
  97.0602839  13.4622101  63.6117550  96.5159033  13.4693715  62.1991409
 109.4245009  26.4947901  65.7121089 109.9763317  26.6579522  66.4770174
 109.7651202  27.0852338  65.0401114 114.2755883  21.3209158  71.5669744
 114.8195787  21.9339116  71.0724698 113.6942728  21.8788737  72.0836757
 100.6527317  12.7222612  55.8934363 100.9480759  11.8133290  55.8401417
  99.7515353  12.7010352  55.5715365 112.5613396  24.4429876  62.6984771
 112.4364536  23.6419616  62.1895717 113.2192487  24.9376070  62.2098741
 114.6248305  22.2438896  64.3264321 113.6778640  22.1244247  64.2542648
 114.9731078  21.3561394  64.4090583 111.6294738  22.0391612  60.5268674
 111.4819700  21.1108320  60.7076244 112.4548231  22.0611703  60.0425749
 115.2328860  22.8620171  61.6133546 116.1575407  22.6563033  61.4757997
 115.0644163  22.6136572  62.5222888 106.3655474  12.8515163  62.0971535
 106.2200054  13.1655466  62.9895817 105.8880677  13.4700064  61.5442434
 115.0224176  23.3805839  56.9695638 115.1961053  22.8152261  56.2169490
 115.5153067  24.1806734  56.7875128 100.8401136  15.3920508  65.0359197
 100.2954604  16.1680316  65.1679471 101.7180486  15.7391312  64.8778318
 116.0099348  22.6972603  54.0692536 116.7050253  23.3179296  54.2879851
 116.3522499  21.8467954  54.3444914 101.6267158  14.5190404  67.9289353
 100.8848894  14.6673039  68.5153984 101.3059902  14.7798670  67.0656103
 117.9090772  20.1472309  55.5979867 118.4342096  20.4859581  54.8729187
 117.8213124  19.2119324  55.4143001 109.5710820  24.0606382  67.7269743
 109.8797947  23.8155529  68.5992443 110.3686302  24.2653021  67.2388614
 109.5931432  26.2144292  59.9575120 109.1536423  25.7220671  60.6507977
 110.3439549  25.6717259  59.7167195 102.0723771  22.4055833  59.9599748
 102.8981791  22.1059605  59.5798392 101.7217823  21.6363455  60.4089537
 107.0405304  21.7582301  62.0297422 106.4185314  21.0953006  61.7299650
 107.7110171  21.7843433  61.3471069 100.2732376  20.3242159  60.9188682
  99.4364285  19.8964334  60.7372683 100.2456022  20.5174602  61.8559473
 117.5984678  20.7805212  70.9031065 116.8080221  20.7629351  70.3635564
 117.3618032  21.3193506  71.6580101 117.7182553  17.6297679  68.2163793
 117.7680558  17.4647686  69.1579316 117.6096476  16.7624938  67.8261674
 106.6018811  20.3086224  55.5055882 106.7506932  20.9921689  54.8522555
 107.4085255  20.2891314  56.0205338 119.2200750  20.0494620  68.4605815
 118.9285558  20.4124601  69.2969276 118.6072881  19.3361628  68.2819147
 104.3571444  16.3351402  56.5116951 104.1117486  15.4313732  56.7097161
 104.5267359  16.3368552  55.5696429 110.1014217  22.8034355  52.9767630
 109.5288184  23.4224542  52.5238101 110.6747011  23.3533716  53.5107552
 113.3211477  23.0871505  54.1076212 114.2542150  23.0217067  54.3109087
 113.2334690  23.9227772  53.6490745 115.9499493  22.4037375  51.0680159
 115.8713125  22.0697239  51.9615917 116.7709160  22.8959143  51.0671632
 110.3699708  18.1912914  71.7784339 111.2902717  18.3691513  71.9724386
 110.3349291  17.2468959  71.6264038  99.5881873  13.3851507  60.7037614
  99.2684657  12.5316815  60.4111988  99.0415301  13.6000085  61.4595581
 103.3661780  16.1013948  64.4207120 103.5847790  17.0331056  64.4395154
 103.7787554  15.7421923  65.2061924  99.4570133  17.0054419  62.6730735
  98.7633604  16.5908372  62.1600690 100.2043124  17.0474955  62.0764154
 108.1020916  15.1044293  72.6274931 107.6187998  15.9044653  72.8338820
 108.1881855  15.1152238  71.6742375 101.3706875  16.9372673  60.5496750
 101.3477564  17.0360360  59.5978633 101.6807512  17.7837823  60.8713916
 104.0294253  18.9948828  64.6643365 104.9837507  18.9632770  64.5973296
 103.8306777  18.5339451  65.4793591 104.6193635  17.5649944  67.2314162
 105.4386524  18.0594022  67.2549000 104.8930443  16.6481912  67.2031730
 102.3844482  24.5368447  61.6813563 102.2498950  23.7768848  61.1151561
 101.9676544  25.2609347  61.2142351 113.5203445  19.7205371  50.6890138
 114.2239295  19.9255373  51.3047793 112.7966094  20.2882132  50.9539221
 105.5413608  25.4337764  61.8932005 105.4245992  26.3783197  61.7910695
 104.7206054  25.1311326  62.2817804 115.4290143  20.1587900  52.7388598
 116.2635746  19.7269098  52.5566073 115.2674485  19.9869913  53.6665492
 115.0836035  16.6620013  54.1044937 115.0284839  16.4964285  53.1633381
 114.4582090  17.3696046  54.2607127  99.8728550  11.8988077  67.9306359
 100.5187413  11.3887031  68.4193585  99.6645701  12.6356759  68.5049785
 112.3981942  18.9668925  73.4298500 113.2673102  19.1409577  73.0685135
 111.9188693  19.7863342  73.3074229 106.5668122  26.0866026  65.1087934
 107.4695369  26.1189636  65.4254429 106.3405492  25.1566477  65.1234269
 108.3221724  24.8397013  61.7698012 107.3717355  24.8398874  61.6562384
 108.6254210  24.0929747  61.2534047 120.8664124  30.6284979  62.7705299
 120.5282635  30.5126044  61.8825834 121.7353892  30.2276144  62.7506305
 116.7250940  32.4820455  58.7602190 116.1615805  32.3910392  57.9918478
 116.6103335  31.6620360  59.2404683 121.3483907  31.7819831  68.7291505
 121.3372548  31.3872629  67.8572008 121.5104546  31.0485903  69.3225276
 114.2715372  33.9771647  61.5986411 115.0636663  33.6362472  61.1832710
 114.5112022  34.0866622  62.5188564 116.2306125  33.2380560  54.4703789
 117.0037001  32.6909547  54.3316665 116.5831524  34.1024810  54.6818251
 118.0691168  34.5656943  67.6770689 117.7781034  35.4702573  67.5617355
 118.7048152  34.6073470  68.3914758 118.9947375  31.9433791  64.2672048
 119.5910947  31.7189813  63.5529011 119.0522346  31.2018537  64.8697496
 118.5672403  29.3973226  52.1022239 118.8197924  28.8754748  51.3405702
 117.6296962  29.2339372  52.2048923 118.2868692  31.3001332  54.3046614
 118.1704950  30.6246236  54.9727699 118.3970952  30.8133706  53.4878767
 120.6300233  30.7611479  58.0093304 120.2658440  30.2342100  58.7206225
 121.4867349  30.3709948  57.8359789 120.2705720  25.7901379  53.0054652
 120.4380122  26.6581616  53.3725123 120.0802889  25.9528661  52.0815941
 116.4793535  30.7032155  60.7057187 115.5544031  30.5708369  60.9134879
 116.7277948  31.4826374  61.2027129 120.2494941  28.2459037  53.9901319
 120.1294566  28.6916087  54.8286799 119.5547529  28.5944354  53.4314857
 113.8402346  30.3465428  61.5400976 113.9694727  30.5999907  62.4540388
 113.1599797  30.9393136  61.2205631 118.0101833  41.0162678  57.6391450
 117.9325863  41.9670503  57.7179931 117.4063477  40.6708551  58.2966376
 120.5019063  28.1890544  70.2952817 119.7252397  28.7484464  70.2855682
 121.1409626  28.6747327  70.8167687 118.7565435  30.9975997  69.8570784
 119.4980119  31.5361041  69.5805608 118.0502420  31.6242286  70.0142336
 120.5851845  28.0777744  65.8276503 121.4313040  28.5017158  65.9711152
 120.5250482  27.4211369  66.5215066 120.1077551  33.4380736  59.4745320
 120.5715897  33.7168439  58.6849942 119.8434349  32.5364181  59.2918410
 117.0001632  32.9852218  62.4125083 117.5702989  33.4139486  61.7742567
 117.5909744  32.7034803  63.1109268 119.0446437  29.5603889  56.2834885
 119.7470481  30.0124932  56.7508811 118.7127066  28.9187708  56.9114778
 117.4926799  28.1515645  70.6586094 116.8625459  28.8331926  70.8921491
 117.3862887  28.0398727  69.7139232 112.7871771  27.8187441  61.5852018
 111.9970825  28.0744970  61.1092129 113.2783019  28.6335779  61.6904059
 114.7386517  28.1832021  58.5435495 113.9417680  28.2950715  59.0618991
 114.5112109  28.5218673  57.6776385 120.5692184  34.7076724  66.4918010
 120.6336617  35.1697131  67.3276181 119.8603108  34.0774089  66.6200319
 111.0709474  28.0717932  64.0167009 111.3217513  28.9564942  64.2824585
 111.6069023  27.8922533  63.2442101 120.2840202  36.3744831  56.3596990
 120.1485877  37.2196367  56.7881838 120.8250014  36.5764109  55.5962924
 116.7707541  22.4536411  73.0211345 116.3774487  21.9002610  73.6958989
 117.5873682  22.7646990  73.4117863 113.7369599  33.8920269  56.9324915
 114.2494120  34.6863520  57.0830480 114.3892312  33.1946560  56.8658516
 115.5464484  37.0086026  59.0147668 115.7231112  37.9303990  58.8268652
 116.3421317  36.6944445  59.4442048 119.6875502  23.8694290  70.6131602
 120.4285216  24.4701443  70.5336064 119.9193425  23.1271928  70.0549644
 114.8316840  29.0550658  68.8909831 114.7170356  28.1535915  69.1916930
 113.9761358  29.3014354  68.5394648 116.6695799  38.5264199  65.0158011
 117.2203225  38.3981263  64.2435004 115.8307275  38.8259088  64.6652903
 120.4662970  34.7915327  69.3602242 120.9991307  34.0303615  69.1301550
 119.9377052  34.4988979  70.1026396 111.7018516  32.2208924  57.7084486
 112.5393738  32.6305932  57.4918193 111.8796784  31.2808366  57.6784679
 121.1830059  24.7333705  58.4553557 120.3271656  24.3440556  58.2759196
 121.5957011  24.8125666  57.5953342 118.9572092  22.3518778  61.8611298
 119.8225088  22.1561587  61.5017188 119.0249601  22.1229130  62.7880655
 121.8315683  33.9201320  56.8721054 121.3037045  33.1854079  56.5594291
 121.3303186  34.6975996  56.6261022 116.5634411  24.5820986  59.2327665
 117.1378163  24.3596168  58.5000858 117.1505393  24.6509681  59.9856266
 116.8903998  26.6125447  53.2523550 116.0541310  26.9500134  53.5732825
 116.7508768  26.4774427  52.3150687 118.8657078  21.4562235  57.9602735
 118.2121491  21.1411252  57.3359349 118.8237553  20.8337975  58.6862558
 119.9768283  31.7381530  49.8756027 119.0695345  31.5070783  50.0747176
 120.4739315  30.9419149  50.0630008 121.1556517  31.8394125  54.3980017
 120.2467736  31.5553158  54.4952487 121.1851601  32.2593203  53.5383324
 111.7244687  29.5599639  58.3795219 111.5269087  28.9669000  57.6546286
 111.1691351  29.2551849  59.0971158 119.7041411  29.4522745  60.4989812
 119.7590021  28.4996582  60.4232289 118.8932613  29.6082185  60.9831111
 120.8532605  33.3802869  51.7368095 120.4152035  32.6638727  51.2773733
 121.5943045  33.6078983  51.1753187 117.6433771  28.0699805  58.2580191
 116.8301636  28.3693976  58.6645383 118.1392765  27.6755494  58.9754673
 119.7942349  38.0657562  60.1914456 119.7518527  38.2918408  59.2622988
 120.7105047  37.8320937  60.3400257 117.1347845  25.6418161  63.8741426
 117.7747225  25.5006920  63.1764389 116.3025376  25.3552674  63.4980028
 117.9108149  34.9420591  59.9876418 118.7048748  34.4470911  59.7858993
 117.1999842  34.4138454  59.6244124 114.2190913  29.0863673  56.0636171
 113.2888501  29.0248128  56.2806133 114.3148385  28.5639626  55.2672812
 114.1376462  25.6118486  58.6514413 114.3983279  26.5263819  58.5423573
 114.9593634  25.1442928  58.8011026 115.6101387  27.0256243  65.8213237
 116.2824441  26.8173605  65.1725886 114.7831174  26.8278329  65.3818470
 121.5126959  23.6518184  67.8378898 120.8654874  24.3508133  67.7443375
 122.2827975  24.0854328  68.2055146 120.4879425  35.5149613  63.6674255
 120.3490511  35.1468398  64.5400194 119.6994022  36.0297253  63.4958213
 121.0827577  40.6158710  55.0099792 121.2579333  40.1446753  55.8245415
 120.3960365  41.2424476  55.2381053 122.0384641  34.8931216  61.0563093
 121.7034473  34.8531986  61.9520743 121.5388586  34.2275932  60.5833504
 116.0128885  30.2998846  66.5815674 115.8748682  29.5679085  67.1827213
 116.9233808  30.2107746  66.2999862 118.6411185  30.0118805  66.0699354
 119.3510804  29.3711997  66.0285973 118.5980493  30.2631700  66.9925535
 117.3540119  26.9984023  67.8894994 116.8177476  26.5474762  68.5416590
 116.7656828  27.1329932  67.1465458 115.6488663  43.7648072  61.7839652
 115.8885261  44.3966597  62.4618671 114.8057859  43.4136112  62.0705011
 116.7642378  26.4572675  50.4521457 115.8871844  26.3361475  50.0883704
 117.2400131  25.6658753  50.2000346 108.2844518  31.2449834  60.5462964
 108.9715558  30.9311564  59.9583980 108.1292647  32.1491199  60.2730216
 113.0879240  26.1340031  64.9747988 113.0037429  25.5265700  64.2398398
 112.2661947  26.6249049  64.9757484 120.1616525  39.5727195  64.1881156
 120.0886696  40.3782166  64.7000461 119.7193918  39.7719161  63.3629178
 119.9506304  38.8098965  57.6983978 119.1673826  39.3520645  57.7922202
 120.6499049  39.3272944  58.0978219 119.8437923  26.7610977  60.0689868
 119.4735711  26.2082018  60.7570773 120.3397015  26.1569111  59.5164868
 117.6727122  37.2208472  67.1644886 118.3736581  37.8544955  67.3174280
 117.2022237  37.5623204  66.4040525 121.5215981  30.5172891  71.4763473
 120.8456618  30.4167020  72.1465848 122.3443614  30.3612105  71.9399470
 113.2694840  36.7544827  64.0975988 113.8548276  36.0088515  64.2303893
 113.0719678  37.0648784  64.9812652 116.1233495  39.7896075  59.1138431
 115.4543870  40.2742202  58.6302471 115.9846365  40.0365295  60.0281809
 107.8612494  29.3250428  62.8180431 107.8996594  28.7914018  63.6117550
 107.3552787  28.7985633  62.1991409 120.2638763  41.8239818  65.7121089
 120.8157071  41.9871440  66.4770174 120.6044957  42.4144256  65.0401114
 115.2403257  24.1714968  66.3142974 115.3044583  25.0329799  65.9020371
 115.1770377  23.5588970  65.5815332 114.7155529  26.2438101  69.9616008
 115.3427568  25.8615178  70.5753532 113.8583448  26.0252303  70.3271701
 111.4921072  28.0514530  55.8934363 111.7874513  27.1425208  55.8401417
 110.5909108  28.0302269  55.5715365 115.0215319  26.1270526  61.8761911
 114.3001905  26.7406494  61.7369385 115.8108575  26.6628291  61.7978557
 117.8241632  23.4624953  68.1502563 118.3476034  23.7087249  68.9128873
 117.6053966  24.2944988  67.7305701 113.2208914  25.7328627  56.0173688
 112.8921620  24.8526006  55.8348794 113.5748284  25.6776296  56.9050077
 116.3350737  26.0201597  56.3849166 116.6746809  26.5487518  55.6627774
 116.7822857  26.3582003  57.1607732 119.0294178  24.4038648  65.8352234
 118.6890998  23.6046461  66.2372914 118.3233184  24.7040359  65.2629067
 119.6810649  21.4887960  64.2879557 120.5036719  21.0148439  64.1658447
 119.9248713  22.2678444  64.7878243 118.3218884  24.5176219  54.5842458
 119.0427246  24.8957472  54.0806175 117.6984188  25.2365096  54.6877436
 117.2049228  28.1807081  62.0971535 117.0593809  28.4947384  62.9895817
 116.7274432  28.7991981  61.5442434 119.0645611  25.1709629  62.1452425
 119.0507180  24.2750722  61.8084723 119.7818039  25.1780293  62.7790711
 120.9171742  25.6046969  64.1905552 120.6589520  26.5264040  64.1889883
 120.3856782  25.2077404  64.8806017 111.6794890  30.7212425  65.0359197
 111.1348358  31.4972233  65.1679471 112.5574240  31.0683230  64.8778318
 118.4682507  24.0524009  57.4139995 118.5898418  23.1240655  57.6130883
 118.1784549  24.0662695  56.5018311 121.3373697  21.7378920  60.5506715
 121.3595394  21.8018253  59.5958694 121.7541756  20.8983428  60.7447221
 112.4660912  29.8482322  67.9289353 111.7242648  29.9964957  68.5153984
 112.1453656  30.1090587  67.0656103 120.4104575  39.3898300  67.7269743
 120.7191701  39.1447447  68.5992443 121.2080057  39.5944938  67.2388614
 120.4325187  41.5436210  59.9575120 119.9930177  41.0512588  60.6507977
 121.1833304  41.0009177  59.7167195 112.9117526  37.7347750  59.9599748
 113.7375546  37.4351522  59.5798392 112.5611578  36.9655373  60.4089537
 117.8799059  37.0874219  62.0297422 117.2579068  36.4244924  61.7299650
 118.5503926  37.1135350  61.3471069 111.1126131  35.6534077  60.9188682
 110.2758039  35.2256251  60.7372683 111.0849776  35.8466520  61.8559473
 117.9523586  25.5656007  71.6229928 118.0011742  26.4418129  71.2407697
 118.4946101  25.0233400  71.0501571 117.4412566  35.6378142  55.5055882
 117.5900686  36.3213606  54.8522555 118.2479009  35.6183232  56.0205338
 120.1822875  26.3187379  68.3776286 119.3126184  26.6120945  68.1058875
 120.4182355  26.9027824  69.0983550 115.1965199  31.6643320  56.5116951
 114.9511241  30.7605650  56.7097161 115.3661113  31.6660470  55.5696429
 114.4660846  27.3971677  54.0103113 113.7730091  27.4716032  53.3543149
 114.2212598  26.6332021  54.5324630 120.9407971  38.1326272  52.9767630
 120.3681938  38.7516460  52.5238101 121.5140765  38.6825634  53.5107552
 121.3254770  29.4687085  50.3183682 122.2713875  29.3393293  50.3872100
 120.9469015  28.7301747  50.7953110 121.2093462  33.5204831  71.7784339
 122.1296472  33.6983430  71.9724386 121.1743045  32.5760877  71.6264038
 119.5097687  27.3937062  50.2538567 118.6029142  27.0970174  50.3301281
 119.7873668  27.0966880  49.3872854 110.4275627  28.7143425  60.7037614
 110.1078412  27.8608733  60.4111988 109.8809056  28.9292003  61.4595581
 114.2055535  31.4305866  64.4207120 114.4241545  32.3622974  64.4395154
 114.6181309  31.0713840  65.2061924 121.1259753  21.9373951  56.4082809
 120.3160481  21.5921036  56.7838055 121.8144170  21.6281495  56.9970420
 119.0783400  27.0039072  73.8109869 118.9780127  27.9533429  73.7421960
 118.8604942  26.6757311  72.9385939 118.2796472  24.2523997  50.3950547
 119.1415636  24.5778895  50.6546364 118.4646816  23.4655493  49.8823612
 110.2963887  32.3346336  62.6730735 109.6027359  31.9200289  62.1600690
 111.0436878  32.3766873  62.0764154 118.9414670  30.4336211  72.6274931
 118.4581752  31.2336571  72.8338820 119.0275609  30.4444155  71.6742375
 112.2100630  32.2664590  60.5496750 112.1871318  32.3652277  59.5978633
 112.5201266  33.1129741  60.8713916 114.8688008  34.3240745  64.6643365
 115.8231261  34.2924688  64.5973296 114.6700531  33.8631369  65.4793591
 115.4587390  32.8941861  67.2314162 116.2780279  33.3885940  67.2549000
 115.7324198  31.9773829  67.2031730 113.2238237  39.8660365  61.6813563
 113.0892705  39.1060766  61.1151561 112.8070299  40.5901265  61.2142351
 116.3807362  40.7629682  61.8932005 116.2639747  41.7075114  61.7910695
 115.5599809  40.4603243  62.2817804 110.7122304  27.2279995  67.9306359
 111.3581168  26.7178949  68.4193585 110.5039455  27.9648677  68.5049785
 119.2325915  21.4920040  53.6830256 119.2204585  22.4361880  53.8398526
 120.1249337  21.3090185  53.3889717 117.4061877  41.4157944  65.1087934
 118.3089123  41.4481554  65.4254429 117.1799247  40.4858395  65.1234269
 119.1615479  40.1688930  61.7698012 118.2111110  40.1690792  61.6562384
 119.4647965  39.4221665  61.2534047 115.0519795  24.3747612  72.0281374
 115.9151257  24.0184417  72.2384698 114.4785206  24.0361507  72.7156778
 121.9103229  43.4009850  64.0167009 122.1611267  44.2856859  64.2824585
 122.4462777  43.2214451  63.2442101 119.1238273  46.5741752  60.5462964
 119.8109313  46.2603482  59.9583980 118.9686401  47.4783117  60.2730216
 118.7006249  44.6542345  62.8180431 118.7390348  44.1205936  63.6117550
 118.1946542  44.1277551  62.1991409 121.9519885  50.9825994  60.9188682
 121.1151794  50.5548169  60.7372683 121.9243531  51.1758438  61.8559473
 121.2669382  44.0435343  60.7037614 120.9472166  43.1900651  60.4111988
 120.7202810  44.2583921  61.4595581 121.1357642  47.6638254  62.6730735
 120.4421113  47.2492207  62.1600690 121.8830633  47.7058791  62.0764154
 121.5516059  42.5571913  67.9306359 122.1974922  42.0470867  68.4193585
 121.3433210  43.2940594  68.5049785 118.0101834  18.0224801  44.3636757
 117.9325864  18.9732626  44.4425237 117.4063478  17.6770673  45.0211683
 115.6488664  20.7710195  48.5084959 115.8885262  21.4028719  49.1863977
 114.8057860  20.4198235  48.7950318 116.1233496  16.7958197  45.8383737
 115.4543871  17.2804325  45.3547777 115.9846366  17.0427418  46.7527116
 120.2638765  18.8301941  52.4366396 120.8157073  18.9933562  53.2015481
 120.6044958  19.4206379  51.7646421 120.4325188  18.5498332  46.6820427
 119.9930178  18.0574711  47.3753283 121.1833305  18.0071300  46.4412502
 113.2238238  16.8722487  48.4058869 113.0892706  16.1122888  47.8396867
 112.8070300  17.5963387  47.9387658 116.3807364  17.7691804  48.6177312
 116.2639748  18.7137237  48.5156002 115.5599810  17.4665366  49.0063111
 117.4061878  18.4220066  51.8333240 118.3089125  18.4543677  52.1499735
 117.1799248  17.4920517  51.8479576 121.9103230  20.4071972  50.7412316
 122.1611268  21.2918982  51.0069892 122.4462778  20.2276574  49.9687408
 119.1238274  23.5803874  47.2708271 119.8109314  23.2665605  46.6829286
 118.9686403  24.4845239  46.9975522 118.7006250  21.6604468  49.5425738
 118.7390350  21.1268059  50.3362856 118.1946543  21.1339673  48.9236715
 121.9519887  27.9888117  47.6433988 121.1151795  27.5610291  47.4617990
 121.9243532  28.1820560  48.5804779 121.2669383  21.0497465  47.4282920
 120.9472168  20.1962773  47.1357294 120.7202811  21.2646043  48.1840888
 121.1357643  24.6700377  49.3976042 120.4421115  24.2554329  48.8845996
 121.8830634  24.7120913  48.8009461 121.5516060  19.5634035  54.6551666
 122.1974924  19.0532989  55.1438891 121.3433211  20.3002717  55.2295091
  25.3292566  63.4416918 119.1726177  24.6554264  63.7448615 119.7811134
  25.7158387  64.2445999 118.8231634  27.4200035  55.2325131 117.7073617
  26.8029206  54.5071959 117.6106669  26.9516524  55.9934491 117.3640691
  29.2949306  61.0202402 120.4466000  29.9900211  61.6409094 120.6653314
  29.6372456  60.1697753 120.7218378  23.3864175  61.1264153 119.3541093
  22.8138142  61.7454340 118.9011565  23.9596968  61.6763515 119.8881015
  26.6061434  61.4101303 120.4849676  27.5392108  61.3446865 120.6882551
  26.5184647  62.2457570 120.0264208  29.2349451  60.7267174 117.4453623
  29.1563083  60.3927037 118.3389381  30.0559118  61.2188942 117.4445096
  26.8053403  58.0435169 117.0663602  27.5089253  58.2485172 117.6821257
  26.0816052  58.6111931 117.3312685  28.7140100  58.4817698 119.1162062
  29.5485704  58.0498897 118.9339536  28.5524443  58.3099712 120.0438956
  37.3424375  68.9987350 129.2117238  37.9802785  68.8794097 128.5080578
  37.2245218  69.9468193 129.2705190  34.1514082  68.9514778 129.1478763
  33.8132593  68.8355842 128.2599298  35.0203850  68.5505943 129.1279769
  30.0100897  70.8050254 125.1375654  29.4465763  70.7140191 124.3691942
  29.8953292  69.9850159 125.6178146  35.5900456  74.4721222 120.4490119
  34.9388436  75.0575302 120.0624133  36.3844819  75.0027417 120.5085156
  29.5156083  71.5610359 120.8477253  30.2886959  71.0139346 120.7090129
  29.8681482  72.4254608 121.0591715  31.8522361  67.7203025 118.4795703
  32.1047882  67.1984546 117.7179166  30.9146920  67.5569170 118.5822387
  36.8965644  66.7238803 126.2870446  37.6828733  66.3058227 125.9360863
  37.1604348  67.6284896 126.4552095  37.0675721  72.1611654 120.9859103
  36.4321554  72.2346280 121.6980008  36.7373128  72.7505253 120.3078182
  42.2974071  66.6614037 127.1903425  43.0299243  66.0913253 127.4241254
  41.5413427  66.2735637 127.6309930  31.5718650  69.6231131 120.6820078
  31.4554908  68.9476034 121.3501162  31.6820910  69.1363505 119.8652231
  33.9150191  69.0841278 124.3866767  33.5508398  68.5571899 125.0979689
  34.7717307  68.6939747 124.2133253  33.5555678  64.1131178 119.3828116
  33.7230080  64.9811414 119.7498587  33.3652847  64.2758459 118.4589405
  36.3131011  72.5748157 131.0493946  36.0131734  73.4773195 130.9409753
  35.9682070  72.3080340 131.9015099  39.7128155  65.0930697 128.7291384
  38.8045032  65.0246105 128.4350145  39.6615751  65.5702642 129.5573209
  33.5344899  66.5688835 120.3674783  33.4144524  67.0145886 121.2060263
  32.8397487  66.9174153 119.8088321  31.2951791  79.3392477 124.0164914
  31.2175820  80.2900302 124.0953394  30.6913434  78.9938350 124.6739840
  39.2329965  67.0410308 121.1955117  40.1447821  67.2737695 121.0202814
  38.7239612  67.6247353 120.6330195  37.8399547  72.0236127 128.5868698
  37.2108410  72.1881841 127.8844766  37.4525209  72.4377736 129.3579662
  41.7188779  72.9590565 125.9413062  41.0339817  73.3389466 125.3910095
  41.8032628  73.5685891 126.6745010  33.3927509  71.7610535 125.8518783
  33.8565854  72.0398238 125.0623406  33.1284307  70.8593980 125.6691874
  32.3296395  67.8833687 122.6608348  33.0320438  68.3354731 123.1282275
  31.9977024  67.2417506 123.2888242  40.0885539  73.4822479 130.7130763
  40.9102982  73.0802666 130.4313444  40.0847941  73.3790713 131.6646879
  48.1791532  69.8261228 127.0615734  47.4255240  69.2568626 126.9059739
  48.3139073  69.7923892 128.0086369  33.5690160  74.6974630 122.7370454
  33.4335834  75.5426166 123.1655301  34.1099972  74.8993908 121.9736387
  27.0219557  72.2150068 123.3098379  27.5344078  73.0093318 123.4603943
  27.6742270  71.5176358 123.2431980  28.8314442  75.3315824 125.3921132
  29.0081070  76.2533789 125.2042116  29.6271275  75.0174244 125.8215512
  24.9868474  70.5438722 124.0857949  25.8243696  70.9535731 123.8691657
  25.1646742  69.6038164 124.0558143  36.8832906  68.2113803 119.7741782
  36.3679529  68.9818408 120.0130170  36.6110214  67.5378939 120.3974844
  34.4680017  63.0563504 124.8327021  33.6121613  62.6670354 124.6532659
  34.8806969  63.1355465 123.9726806  41.8567180  70.9646158 121.7094956
  41.0796623  70.6257317 121.2650118  42.5358661  70.9698781 121.0349921
  36.6719209  66.0840895 121.6001563  36.3669345  66.3987044 122.4511707
  37.6249651  66.1622315 121.6428896  35.1165641  72.2431118 123.2494517
  34.5887003  71.5083878 122.9367755  34.6153144  73.0205795 123.0034486
  40.0958487  70.4380139 128.3661564  39.4382161  71.1279400 128.4541692
  40.8998886  70.8276571 128.7095550  38.9063946  68.7924512 126.4165505
  39.4195828  69.4254503 126.9187215  39.5565170  68.1925707 126.0508865
  30.1753956  64.9355246 119.6297014  29.3391268  65.2729932 119.9506289
  30.0358725  64.8004225 118.6924151  33.2618241  70.0611329 116.2529490
  32.3545303  69.8300582 116.4520639  33.7589273  69.2648948 116.4403472
  36.1686320  78.7708836 119.1726177  35.4948019  79.0740533 119.7811134
  36.5552142  79.5737916 118.8231634  36.1679824  67.6665383 123.7926526
  36.9151643  68.1786780 123.4833648  36.4371414  67.3449436 124.6530920
  34.4406475  70.1623924 120.7753480  33.5317694  69.8782956 120.8725950
  34.4701558  70.5823002 119.9156787  39.6725742  73.7730513 124.5444648
  39.2188069  72.9321423 124.6009839  39.0419709  74.4091911 124.8819428
  38.6158662  64.7022499 125.7745316  37.8781418  64.1899885 126.1055558
  38.8685435  64.2622881 124.9628592  38.1158681  75.6107010 125.4794466
  38.4081656  76.1712067 124.7606832  38.6257302  75.9035571 126.2347625
  32.9891369  67.7752544 126.8763276  33.0439978  66.8226381 126.8005752
  32.1782571  67.9311983 127.3604574  34.1382562  71.7032667 118.1141559
  33.7001992  70.9868526 117.6547196  34.8793003  71.9308782 117.5526650
  30.9283729  66.3929604 124.6353655  30.1151594  66.6923774 125.0418847
  31.4242723  65.9985293 125.3528137  33.0792306  76.3887361 126.5687919
  33.0368485  76.6148207 125.6396451  33.9955005  76.1550735 126.7173721
  42.2555677  69.9789864 124.1717878  42.1173576  70.1691460 123.2439067
  41.8991896  70.7409247 124.6285929  42.2825057  72.0466391 129.1829149
  42.7161563  71.9541680 130.0312203  42.9956637  72.0223892 128.5449165
  31.1958107  73.2650390 126.3649882  31.9898706  72.7700710 126.1632457
  30.4849800  72.7368253 126.0017588  36.0152952  75.6468485 130.7162250
  36.0689974  76.2159422 131.4839966  35.1467733  75.8170370 130.3516287
  27.5040871  67.4093472 122.4409635  26.5738459  67.3477927 122.6579597
  27.5998343  66.8869424 121.6446276  43.1440606  72.0890092 131.7162035
  43.3376496  72.9935902 131.9621309  43.0441224  71.6297511 132.5500620
  33.7729383  73.8379412 130.0447719  33.6340469  73.4698196 130.9173657
  32.9843979  74.3527051 129.8731677  34.3677535  78.9388508 121.3873256
  34.5429291  78.4676551 122.2018878  33.6810323  79.5654274 121.6154516
  35.3234598  73.2161014 127.4336557  34.9884431  73.1761784 128.3294207
  34.8238544  72.5505730 126.9606967  38.2593790  70.5617049 117.7073617
  37.6422961  69.8363877 117.6106669  37.7910278  71.3226409 117.3640691
  30.0492336  64.7802473 116.8294921  29.1721802  64.6591274 116.4657168
  30.5250089  63.9888551 116.5773810  33.2356262  77.1328763 124.0757441
  32.4523784  77.6750444 124.1695666  33.9349007  77.6502743 124.4751683
  36.5452912  62.9423393 126.7191647  37.0421612  62.1893355 126.3992717
  35.7739894  62.9787710 126.1534856  44.3982669  68.6463758 128.3609938
  44.3872546  69.5288474 127.9903871  43.5300049  68.2935309 128.1664475
  37.6282693  71.6995080 124.2930070  36.6938971  71.8196543 124.1234775
  37.8059361  70.7967547 124.0290080  41.0155244  67.5412399 124.8280104
  41.4815696  68.3740391 124.7540407  41.4662745  67.0757381 125.5325363
  39.0831475  73.8856221 121.8266256  39.3591319  73.7712815 122.7360130
  38.2135974  73.4873706 121.7878429  35.7185539  78.1342572 125.4699070
  35.9007934  77.3164228 125.9326822  36.5418525  78.3510264 125.0323960
  36.0527705  77.0610757 122.7314119  36.5815471  76.5503211 122.1184281
  36.3155924  76.7453287 123.5959652  24.7771030  66.3744328 122.2707827
  25.0724471  65.4655007 122.2174880  23.8759065  66.3532068 121.9488829
  36.6857109  78.0951592 129.0758235  36.5608248  77.2941332 128.5669180
  37.3436200  78.5897786 128.5872205  38.7492017  75.8960613 130.7037785
  37.8022352  75.7765964 130.6316112  39.0974790  75.0083111 130.7864046
  26.5058871  64.0558426 122.3947152  26.1771577  63.1755805 122.2122258
  26.8598242  64.0006095 123.2823541  35.7538450  75.6913329 126.9042137
  35.6063413  74.7630036 127.0849707  36.5791944  75.7133419 126.4199213
  29.6200694  64.3431396 122.7622629  29.9596767  64.8717317 122.0401238
  30.0672815  64.6811802 123.5381196  39.3572572  76.5141887 127.9907010
  40.2819120  76.3084749 127.8531461  39.1887875  76.2658289 128.8996352
  31.6068842  62.8406017 120.9615922  32.3277204  63.2187270 120.4579639
  30.9834146  63.5594894 121.0650900  35.7499965  63.5451166 121.8974255
  35.9663579  64.4275804 121.5963083  35.2694032  63.1537380 121.1679897
  39.1467888  77.0327555 123.3469101  39.3204766  76.4673977 122.5942954
  39.6396779  77.8328450 123.1648591  31.7532465  62.3753808 123.7913459
  31.8748376  61.4470454 123.9904346  31.4634507  62.3892494 122.8791774
  45.0007279  69.7963978 124.9659401  45.4438425  69.0471303 124.5678524
  44.1233790  69.7874114 124.5833133  40.1343061  76.3494319 120.4466000
  40.8293965  76.9701012 120.6653314  40.4766211  75.4989671 120.7218378
  42.0334484  73.7994025 121.9753331  42.5585808  74.1381298 121.2502651
  41.9456836  72.8641040 121.7916465  33.7175145  79.8666008 126.3348584
  33.2780135  79.3742387 127.0281440  34.4683262  79.3238976 126.0940659
  30.7262524  73.9607941 121.8829346  30.8750644  74.6443405 121.2296019
  31.5328967  73.9413031 122.3978802  43.3444462  73.7016336 134.8379279
  43.0529270  74.0646317 135.6742740  42.7316593  72.9883345 134.6592611
  44.5440144  71.2669216 127.3581849  45.3787035  71.7059020 127.5219409
  44.6799273  70.7907869 126.5390095  28.4815157  69.9873118 122.8890415
  28.2361199  69.0835448 123.0870625  28.6511071  69.9890269 121.9469893
  27.7510804  65.7201476 120.3876576  27.0580049  65.7945831 119.7316612
  27.5062556  64.9561819 120.9098093  34.2257929  76.4556071 119.3541093
  33.6531896  77.0746258 118.9011565  34.7990723  77.0055433 119.8881015
  37.4455189  76.7393221 120.4849676  38.3785862  76.6738783 120.6882551
  37.3578402  77.5749488 120.0264208  40.0743206  76.0559091 117.4453623
  39.9956837  75.7218955 118.3389381  40.8952872  76.5480859 117.4445096
  42.7721397  68.9220831 130.6529942  42.7397717  67.9836832 130.8389626
  43.3822020  69.0004868 129.9195767  34.6104728  67.7916884 116.6957146
  35.5563832  67.6623092 116.7645564  34.2318973  67.0531546 117.1726574
  48.5897947  69.9836838 129.7935979  49.3201335  69.7222126 130.3543682
  47.9804892  69.2465560 129.8338047  46.6713244  68.1244700 130.3910430
  45.9446407  67.9900665 129.7826921  46.2560531  68.4321529 131.1967148
  32.7947645  65.7166860 116.6312031  31.8879100  65.4199973 116.7074745
  33.0723626  65.4196678 115.7646317  34.4109711  60.2603750 122.7856272
  33.6010439  59.9150835 123.1611518  35.0994127  59.9511294 123.3743884
  31.5646429  62.5753795 116.7724010  32.4265593  62.9008694 117.0319828
  31.7496774  61.7885291 116.2597076  39.7179066  61.4482322 123.9159233
  39.1377735  62.1067126 123.5337286  39.4514999  60.6259666 123.5046651
  38.5003944  63.6082412 122.9715582  37.6129799  63.8932063 122.7535776
  38.9157933  63.4476176 122.1242858  41.8518480  63.6328933 126.6869921
  42.6278870  64.1225386 126.9594538  41.1266614  64.0586987 127.1441790
  44.2891039  64.3456552 127.7443861  44.8835530  64.1052288 127.0337170
  44.3617622  63.6263683 128.3717398  37.6447157  73.3727087 117.0663602
  38.3483008  73.5777089 117.6821257  36.9209806  73.9403849 117.3312685
  38.4744968  69.1236948 123.1865872  38.4180169  69.5805500 122.3473504
  39.0273310  68.3627633 123.0088714  42.2849774  64.9126680 124.0115991
  42.0286708  64.5123316 124.8424199  41.6602642  65.6270474 123.8866130
  46.5962111  67.6522753 126.5187283  46.0361669  67.7215943 127.2918845
  45.9905615  67.4763738 125.7986779  39.5533855  73.8109616 119.1162062
  40.3879459  73.3790815 118.9339536  39.3918198  73.6391630 120.0438956
  39.2079747  70.3141729 120.4818401  39.1528551  70.1486001 119.5406845
  38.5825802  71.0217762 120.6380591  32.5175872  59.8149838 120.0603719
  32.5054542  60.7591678 120.2171990  33.4099294  59.6319984 119.7663180
  44.9907836  84.2806695 129.1478763  44.6526348  84.1647760 128.2599298
  45.8597604  83.8797860 129.1279769  40.8494652  86.1342172 125.1375654
  40.2859517  86.0432109 124.3691942  40.7347047  85.3142076 125.6178146
  46.4294211  89.8013139 120.4490119  45.7782190  90.3867220 120.0624133
  47.2238573  90.3319334 120.5085156  40.3549838  86.8902277 120.8477253
  41.1280714  86.3431264 120.7090129  40.7075237  87.7546526 121.0591715
  42.6916116  83.0494943 118.4795703  42.9441636  82.5276464 117.7179166
  41.7540675  82.8861088 118.5822387  47.7359398  82.0530721 126.2870446
  48.5222488  81.6350144 125.9360863  47.9998103  82.9576813 126.4552095
  47.9069476  87.4903571 120.9859103  47.2715309  87.5638198 121.6980008
  47.5766882  88.0797170 120.3078182  53.1367826  81.9905954 127.1903425
  53.8692997  81.4205171 127.4241254  52.3807181  81.6027555 127.6309930
  42.4112404  84.9523049 120.6820078  42.2948662  84.2767952 121.3501162
  42.5214664  84.4655423 119.8652231  44.7543945  84.4133196 124.3866767
  44.3902152  83.8863817 125.0979689  45.6111061  84.0231665 124.2133253
  50.6593246  75.7027528 131.6498033  50.3276571  76.5722939 131.4259248
  50.0638859  75.3863812 132.3292064  44.3949432  79.4423095 119.3828116
  44.5623835  80.3103332 119.7498587  44.2046601  79.6050377 118.4589405
  40.6037247  84.3553871 127.0830651  39.6787743  84.2230085 127.2908342
  40.8521660  85.1348090 127.5800593  44.3738653  81.8980753 120.3674783
  44.2538278  82.3437804 121.2060263  43.6791241  82.2466071 119.8088321
  42.1345545  94.6684395 124.0164914  42.0569575  95.6192220 124.0953394
  41.5307189  94.3230267 124.6739840  50.0723719  82.3702226 121.1955117
  50.9841575  82.6029613 121.0202814  49.5633366  82.9539270 120.6330195
  47.4159694  78.5460262 129.4444978  46.5544173  78.8441516 129.7361715
  47.4422129  78.7630661 128.5126010  44.2321263  87.0902453 125.8518783
  44.6959609  87.3690156 125.0623406  43.9678062  86.1885897 125.6691874
  41.1245345  86.6373934 128.7898547  41.6946702  87.0661203 128.1516031
  41.7153456  86.3556519 129.4882732  43.1690150  83.2125605 122.6608348
  43.8714193  83.6646649 123.1282275  42.8370778  82.5709424 123.2888242
  36.9115483  81.4709158 127.9625482  36.1214537  81.7266686 127.4865593
  37.4026731  82.2857496 128.0677523  38.8630229  81.8353737 124.9208959
  38.0661392  81.9472431 125.4392454  38.6355821  82.1740389 124.0549849
  44.4083914  90.0266548 122.7370454  44.2729589  90.8718083 123.1655301
  44.9493727  90.2285825 121.9736387  37.8613312  87.5441986 123.3098379
  38.3737832  88.3385236 123.4603943  38.5136024  86.8468276 123.2431980
  39.6708196  90.6607742 125.3921132  39.8474825  91.5825707 125.2042116
  40.4665030  90.3466161 125.8215512  47.7576378  73.5497110 131.2669347
  47.4140647  74.4398751 131.1908458  48.1255340  73.3598767 130.4038932
  35.8262228  85.8730640 124.0857949  36.6637450  86.2827648 123.8691657
  36.0040496  84.9330082 124.0558143  47.7226660  83.5405721 119.7741782
  47.2073284  84.3110325 120.0130170  47.4503969  82.8670857 120.3974844
  45.3073771  78.3855421 124.8327021  44.4515368  77.9962272 124.6532659
  45.7200723  78.4647382 123.9726806  46.8372918  75.9201765 129.2318580
  46.3337714  75.8831900 128.4186386  47.1303525  76.8294507 129.2915237
  43.0815804  76.0040494 128.2384762  43.9468801  75.8083303 127.8790652
  43.1493313  75.7750846 129.1654119  52.6960935  86.2938075 121.7094956
  51.9190377  85.9549235 121.2650118  53.3752416  86.2990698 121.0349921
  47.5112964  81.4132813 121.6001563  47.2063099  81.7278962 122.4511707
  48.4643406  81.4914233 121.6428896  45.9559395  87.5723036 123.2494517
  45.4280757  86.8375796 122.9367755  45.4546898  88.3497712 123.0034486
  40.6878123  78.2342702 125.6101129  41.2621875  78.0117884 124.8774322
  41.2749105  78.3031397 126.3629730  49.7457700  84.1216429 126.4165505
  50.2589582  84.7546421 126.9187215  50.3958924  83.5217625 126.0508865
  41.0147710  80.2647163 119.6297014  40.1785022  80.6021850 119.9506289
  40.8752480  80.1296143 118.6924151  42.9900791  75.1083951 124.3376198
  42.3365203  74.7932968 123.7132813  42.9481265  74.4859692 125.0636021
  44.1011996  85.3903246 116.2529490  43.1939057  85.1592500 116.4520639
  44.5983028  84.5940866 116.4403472  47.0080075  94.1000754 119.1726177
  46.3341773  94.4032450 119.7811134  47.3945896  94.9029834 118.8231634
  46.2238531  81.5965885 128.6623846  45.3061092  81.8180832 128.5045534
  46.6398675  81.6712195 127.8035553  47.0073579  82.9957300 123.7926526
  47.7545398  83.5078698 123.4833648  47.2765168  82.6741353 124.6530920
  45.2800229  85.4915841 120.7753480  44.3711448  85.2074874 120.8725950
  45.3095313  85.9114920 119.9156787  49.4552416  80.0314417 125.7745316
  48.7175173  79.5191803 126.1055558  49.7079190  79.5914798 124.9628592
  49.5564043  72.8090669 126.3687085  49.8622920  71.9488032 126.0813000
  50.2816648  73.4008289 126.1686079  35.8488399  83.2121355 124.7568683
  35.6512799  82.6190716 124.0319749  35.2935063  82.9073566 125.4744621
  43.8285123  83.1044462 126.8763276  43.8833733  82.1518298 126.8005752
  43.0176325  83.2603901 127.3604574  44.9776317  87.0324585 118.1141559
  44.5395747  86.3160444 117.6547196  45.7186758  87.2600700 117.5526650
  41.7677483  81.7221522 124.6353655  40.9545349  82.0215692 125.0418847
  42.2636477  81.3277210 125.3528137  53.0949432  85.3081782 124.1717878
  52.9567330  85.4983378 123.2439067  52.7385650  86.0701165 124.6285929
  41.2591558  79.2939877 130.2514890  41.8990937  79.1528636 129.5537853
  40.4269088  79.0074390 129.8753492  42.0351862  88.5942307 126.3649882
  42.8292460  88.0992628 126.1632457  41.3243554  88.0660171 126.0017588
  38.3434625  82.7385389 122.4409635  37.4132213  82.6769845 122.6579597
  38.4392097  82.2161342 121.6446276  38.2620174  79.2640202 125.0287876
  38.5226991  80.1785535 124.9197037  39.0837347  78.7964645 125.1784489
  45.2071290  94.2680426 121.3873256  45.3823045  93.7968469 122.2018878
  44.5204078  94.8946192 121.6154516  49.0987544  85.8908967 117.7073617
  48.4816715  85.1655795 117.6106669  48.6304033  86.6518327 117.3640691
  40.8886090  80.1094391 116.8294921  40.0115557  79.9883192 116.4657168
  41.3643843  79.3180469 116.5773810  44.0750016  92.4620681 124.0757441
  43.2917538  93.0042361 124.1695666  44.7742762  92.9794661 124.4751683
  47.3846667  78.2715311 126.7191647  47.8815366  77.5185273 126.3992717
  46.6133648  78.3079627 126.1534856  48.4676447  87.0286998 124.2930070
  47.5332726  87.1488460 124.1234775  48.6453116  86.1259465 124.0290080
  43.9681635  80.4132694 126.4463331  43.5979423  79.8603734 127.1344237
  44.4640728  79.8090827 125.8938331  51.8548999  82.8704317 124.8280104
  52.3209451  83.7032309 124.7540407  52.3056499  82.4049299 125.5325363
  49.9225230  89.2148138 121.8266256  50.1985074  89.1004733 122.7360130
  49.0529728  88.8165623 121.7878429  49.8265661  75.2384904 128.8671006
  48.9128741  75.4689131 129.0353213  50.2558763  75.3223348 129.7185038
  46.8921459  92.3902674 122.7314119  47.4209226  91.8795129 122.1184281
  47.1549679  92.0745205 123.5959652  39.3646969  77.8236684 132.6916438
  39.4288295  78.6851515 132.2793835  39.3014089  77.2110686 131.9588796
  35.6164784  81.7036246 122.2707827  35.9118225  80.7946924 122.2174880
  34.7152820  81.6823985 121.9488829  39.1459031  79.7792243 128.2535375
  38.4245617  80.3928210 128.1142849  39.9352287  80.3150007 128.1752021
  37.3452626  79.3850344 122.3947152  37.0165332  78.5047723 122.2122258
  37.6991997  79.3298012 123.2823541  40.4594449  79.6723314 122.7622629
  40.7990521  80.2009235 122.0401238  40.9066569  80.0103720 123.5381196
  43.1537890  78.0560364 132.2125697  42.8134710  77.2568177 132.6146377
  42.4476896  78.3562075 131.6402531  43.8054362  75.1409677 130.6653020
  44.6280431  74.6670155 130.5431911  44.0492425  75.9200160 131.1651707
  42.4462596  78.1697935 120.9615922  43.1670959  78.5479188 120.4579639
  41.8227900  78.8886812 121.0650900  46.5893719  78.8743084 121.8974255
  46.8057333  79.7567722 121.5963083  46.1087786  78.4829297 121.1679897
  41.3292940  81.8328797 128.4744999  41.1837521  82.1469100 129.3669281
  40.8518144  82.4513698 127.9215898  43.1889323  78.8231345 128.5225889
  43.1750892  77.9272439 128.1858187  43.9061751  78.8302009 129.1564175
  45.0415454  79.2568685 130.5679016  44.7833232  80.1785756 130.5663347
  44.5100494  78.8599120 131.2579480  42.5926219  77.7045726 123.7913459
  42.7142130  76.7762372 123.9904346  42.3028262  77.7184412 122.8791774
  45.4617410  75.3900636 126.9280179  45.4839106  75.4539969 125.9732158
  45.8785469  74.5505145 127.1220685  50.9736815  91.6786237 120.4466000
  51.6687720  92.2992930 120.6653314  51.3159965  90.8281588 120.7218378
  52.8728238  89.1285943 121.9753331  53.3979562  89.4673215 121.2502651
  52.7850591  88.1932958 121.7916465  41.5656278  89.2899858 121.8829346
  41.7144399  89.9735323 121.2296019  42.3722722  89.2704948 122.3978802
  39.3208911  85.3165036 122.8890415  39.0754953  84.4127366 123.0870625
  39.4904826  85.3182186 121.9469893  47.0105621  76.1888712 132.2715170
  47.5287565  76.9249739 131.9461659  46.6560754  76.4952706 133.1061930
  38.5904559  81.0493393 120.3876576  37.8973804  81.1237748 119.7316612
  38.3456311  80.2853737 120.9098093  47.2618215  72.6088995 127.7916067
  47.5419969  71.9412184 128.4176494  48.0468822  72.8018090 127.2790731
  45.0651684  91.7847989 119.3541093  44.4925651  92.4038176 118.9011565
  45.6384477  92.3347350 119.8881015  48.2848943  92.0685139 120.4849676
  49.2179617  92.0030701 120.6882551  48.1972156  92.9041406 120.0264208
  50.9136960  91.3851009 117.4453623  50.8350592  91.0510873 118.3389381
  51.7346627  91.8772777 117.4445096  45.4498482  83.1208801 116.6957146
  46.3957587  82.9915010 116.7645564  45.0712727  82.3823463 117.1726574
  51.4220367  74.7864807 126.6584038  51.2245188  74.4779896 127.5427370
  52.0320072  75.5126446 126.7881968  43.6341399  81.0458778 116.6312031
  42.7272855  80.7491891 116.7074745  43.9117380  80.7488596 115.7646317
  45.2503465  75.5895668 122.7856272  44.4404193  75.2442753 123.1611518
  45.9387882  75.2803211 123.3743884  47.1794013  74.6673714 124.4080569
  47.7325052  75.0869168 125.0670592  47.4164100  73.7409462 124.4503525
  42.4040184  77.9045713 116.7724010  43.2659348  78.2300611 117.0319828
  42.5890528  77.1177209 116.2597076  50.5572820  76.7774240 123.9159233
  49.9771489  77.4359044 123.5337286  50.2908753  75.9551584 123.5046651
  49.0076387  76.1779297 126.1180554  49.5076165  76.2895832 125.3094872
  49.6511995  75.8740350 126.7581362  49.3397698  78.9374330 122.9715582
  48.4523553  79.2223981 122.7535776  49.7551688  78.7768093 122.1242858
  52.6912235  78.9620851 126.6869921  53.4672625  79.4517303 126.9594538
  51.9660369  79.3878905 127.1441790  55.1284793  79.6748470 127.7443861
  55.7229284  79.4344206 127.0337170  55.2011377  78.9555601 128.3717398
  48.4840912  88.7019005 117.0663602  49.1876762  88.9069007 117.6821257
  47.7603561  89.2695766 117.3312685  49.3138722  84.4528866 123.1865872
  49.2573924  84.9097417 122.3473504  49.8667065  83.6919550 123.0088714
  53.1243528  80.2418598 124.0115991  52.8680462  79.8415233 124.8424199
  52.4996396  80.9562392 123.8866130  50.3927609  89.1401534 119.1162062
  51.2273213  88.7082732 118.9339536  50.2311952  88.9683547 120.0438956
  50.0473502  85.6433647 120.4818401  49.9922305  85.4777919 119.5406845
  49.4219557  86.3509680 120.6380591  43.3569627  75.1441756 120.0603719
  43.3448297  76.0883596 120.2171990  44.2493049  74.9611901 119.7663180
  47.1721746  71.7384533 124.3149656  46.4054142  71.1843019 124.4606338
  47.5832451  71.8106401 125.1763808  51.8541465  95.5939081 119.6297014
  51.0178777  95.9313768 119.9506289  51.7146234  95.4588061 118.6924151
  51.7279845  95.4386308 116.8294921  50.8509311  95.3175109 116.4657168
  52.2037598  94.6472387 116.5773810  49.4298313  96.3785311 120.3876576
  48.7367558  96.4529666 119.7316612  49.1850065  95.6145655 120.9098093
  54.4735154  96.3750696 116.6312031  53.5666609  96.0783808 116.7074745
  54.7511135  96.0780514 115.7646317  53.2433938  93.2337631 116.7724010
  54.1053102  93.5592529 117.0319828  53.4284283  92.4469127 116.2597076
  54.1963381  90.4733674 120.0603719  54.1842051  91.4175514 120.2171990
  55.0886803  90.2903819 119.7663180  25.3292567  40.4479041 105.8971483
  24.6554266  40.7510738 106.5056441  25.7158389  41.2508121 105.5476940
  27.4200037  32.2387254 104.4318923  26.8029207  31.5134082 104.3351976
  26.9516525  32.9996614 104.0885998  29.2949308  38.0264524 107.1711306
  29.9900212  38.6471217 107.3898621  29.6372458  37.1759875 107.4463684
  23.3864176  38.1326276 106.0786400  22.8138143  38.7516463 105.6256872
  23.9596970  38.6825638 106.6126322  26.6061436  38.4163426 107.2094982
  27.5392109  38.3508988 107.4127858  26.5184649  39.2519693 106.7509515
  29.2349452  37.7329296 104.1698930  29.1563084  37.3989160 105.0634688
  30.0559119  38.2251064 104.1690402  26.8053404  35.0497292 103.7908908
  27.5089254  35.2547294 104.4066564  26.0816053  35.6174054 104.0557992
  28.7140102  35.4879821 105.8407368  29.5485706  35.0561019 105.6584843
  28.5524445  35.3161835 106.7684263  37.3424377  46.0049472 115.9362545
  37.9802787  45.8856219 115.2325885  37.2245220  46.9530316 115.9950497
  34.1514083  45.9576900 115.8724070  33.8132594  45.8417965 114.9844605
  35.0203851  45.5568065 115.8525076  30.0100899  47.8112377 111.8620961
  29.4465764  47.7202314 111.0937248  29.8953294  46.9912281 112.3423453
  35.5900457  51.4783344 107.1735426  34.9388437  52.0637425 106.7869439
  36.3844820  52.0089539 107.2330463  29.5156085  48.5672481 107.5722560
  30.2886961  48.0201469 107.4335436  29.8681483  49.4316731 107.7837021
  31.8522362  44.7265148 105.2041010  32.1047883  44.2046669 104.4424473
  30.9146921  44.5631293 105.3067693  36.8965645  43.7300926 113.0115753
  37.6828734  43.3120349 112.6606170  37.1604350  44.6347018 113.1797401
  37.0675723  49.1673776 107.7104410  36.4321556  49.2408403 108.4225314
  36.7373129  49.7567375 107.0323489  42.2974072  43.6676159 113.9148732
  43.0299244  43.0975376 114.1486561  41.5413428  43.2797760 114.3555237
  31.5718651  46.6293254 107.4065385  31.4554909  45.9538157 108.0746469
  31.6820911  46.1425628 106.5897538  33.9150192  46.0903401 111.1112074
  33.5508399  45.5634022 111.8224995  34.7717308  45.7001870 110.9378559
  33.5555679  41.1193300 106.1073422  33.7230081  41.9873537 106.4743894
  33.3652848  41.2820582 105.1834712  36.3131012  49.5810279 117.7739253
  36.0131735  50.4835318 117.6655060  35.9682072  49.3142462 118.6260406
  39.7128156  42.0992819 115.4536690  38.8045033  42.0308228 115.1595451
  39.6615752  42.5764764 116.2818516  33.5344900  43.5750958 107.0920089
  33.4144525  44.0208009 107.9305570  32.8397488  43.9236276 106.5333627
  31.2951792  56.3454600 110.7410221  31.2175822  57.2962425 110.8198701
  30.6913436  56.0000472 111.3985147  39.2329966  44.0472431 107.9200423
  40.1447822  44.2799818 107.7448121  38.7239613  44.6309475 107.3575502
  37.8399548  49.0298249 115.3114005  37.2108411  49.1943964 114.6090073
  37.4525210  49.4439859 116.0824969  41.7188780  49.9652687 112.6658369
  41.0339818  50.3451589 112.1155402  41.8032630  50.5748014 113.3990316
  33.3927510  48.7672658 112.5764090  33.8565856  49.0460361 111.7868712
  33.1284308  47.8656102 112.3937181  32.3296396  44.8895810 109.3853655
  33.0320440  45.3416854 109.8527581  31.9977025  44.2479629 110.0133548
  40.0885540  50.4884602 117.4376069  40.9102984  50.0864789 117.1558751
  40.0847943  50.3852836 118.3892185  48.1791533  46.8323350 113.7861041
  47.4255241  46.2630748 113.6305045  48.3139074  46.7986015 114.7331676
  33.5690161  51.7036753 109.4615760  33.4335836  52.5488288 109.8900608
  34.1099973  51.9056030 108.6981694  27.0219558  49.2212191 110.0343685
  27.5344079  50.0155441 110.1849250  27.6742271  48.5238481 109.9677287
  28.8314443  52.3377947 112.1166439  29.0081071  53.2595912 111.9287422
  29.6271277  52.0236366 112.5460818  29.9545758  53.8556121 118.1176781
  30.5053184  53.7273184 117.3453775  29.1157234  54.1551010 117.7671674
  24.9868475  47.5500845 110.8103256  25.8243697  47.9597853 110.5936964
  25.1646743  46.6100287 110.7803450  36.8832907  45.2175926 106.4987089
  36.3679531  45.9880530 106.7375476  36.6110216  44.5441062 107.1220150
  34.4680018  40.0625626 111.5572327  33.6121615  39.6732477 111.3777966
  34.8806970  40.1417587 110.6972113  41.8567181  47.9708280 108.4340262
  41.0796624  47.6319440 107.9895424  42.5358662  47.9760903 107.7595227
  36.6719210  43.0903018 108.3246870  36.3669346  43.4049167 109.1757013
  37.6249652  43.1684438 108.3674203  35.1165642  49.2493241 109.9739824
  34.5887004  48.5146001 109.6613061  34.6153145  50.0267917 109.7279792
  40.0958488  47.4442261 115.0906870  39.4382163  48.1341523 115.1786999
  40.8998887  47.8338693 115.4340857  38.9063947  45.7986634 113.1410812
  39.4195829  46.4316626 113.6432522  39.5565171  45.1987830 112.7754172
  30.1753957  41.9417368 106.3542321  29.3391269  42.2792055 106.6751596
  30.0358727  41.8066348 105.4169458  33.2618242  47.0673451 102.9774797
  32.3545304  46.8362705 103.1765946  33.7589274  46.2711070 103.1648779
  36.1686321  55.7770958 105.8971483  35.4948020  56.0802655 106.5056441
  36.5552143  56.5800039 105.5476940  36.1679826  44.6727505 110.5171833
  36.9151645  45.1848903 110.2078955  36.4371415  44.3511558 111.3776226
  34.4406476  47.1686046 107.4998787  33.5317695  46.8845079 107.5971257
  34.4701560  47.5885125 106.6402094  39.6725743  50.7792636 111.2689955
  39.2188070  49.9383545 111.3255145  39.0419710  51.4154034 111.6064735
  38.6158663  41.7084622 112.4990622  37.8781420  41.1962008 112.8300865
  38.8685436  41.2685003 111.6873899  38.1158682  52.6169132 112.2039773
  38.4081657  53.1774189 111.4852138  38.6257303  52.9097693 112.9592932
  32.9891370  44.7814667 113.6008582  33.0439980  43.8288503 113.5251059
  32.1782572  44.9374106 114.0849881  34.1382564  48.7094790 104.8386866
  33.7001994  47.9930649 104.3792503  34.8793004  48.9370905 104.2771957
  30.9283730  43.3991726 111.3598961  30.1151595  43.6985897 111.7664153
  31.4242724  43.0047415 112.0773444  33.0792308  53.3949483 113.2933226
  33.0368486  53.6210330 112.3641758  33.9955007  53.1612858 113.4419027
  42.2555678  46.9851987 110.8963184  42.1173577  47.1753583 109.9684373
  41.8991897  47.7471370 111.3531235  42.2825058  49.0528514 115.9074456
  42.7161565  48.9603803 116.7557510  42.9956639  49.0286014 115.2694472
  31.1958108  50.2712512 113.0895189  31.9898707  49.7762833 112.8877764
  30.4849801  49.7430376 112.7262894  36.0152953  52.6530608 117.4407556
  36.0689975  53.2221544 118.2085272  35.1467734  52.8232493 117.0761594
  27.5040872  44.4155594 109.1654941  26.5738460  44.3540050 109.3824904
  27.5998344  43.8931547 108.3691583  43.1440608  49.0952214 118.4407341
  43.3376498  49.9998025 118.6866616  43.0441226  48.6359634 119.2745926
  33.7729384  50.8441534 116.7693026  33.6340470  50.4760319 117.6418964
  32.9843981  51.3589174 116.5976984  34.3677536  55.9450631 108.1118562
  34.5429292  55.4738674 108.9264185  33.6810324  56.5716397 108.3399823
  35.3234600  50.2223137 114.1581864  34.9884432  50.1823907 115.0539514
  34.8238545  49.5567853 113.6852274  38.2593791  47.5679171 104.4318923
  37.6422962  46.8426000 104.3351976  37.7910280  48.3288532 104.0885998
  28.9338622  59.0939994 114.8858423  29.1735220  59.7258518 115.5637441
  28.0907818  58.7428034 115.1723782  30.0492337  41.7864596 103.5540228
  29.1721803  41.6653397 103.1902474  30.5250090  40.9950674 103.3019116
  33.4466484  54.9019116 117.2899927  33.3736655  55.7074088 117.8019231
  33.0043877  55.1011082 116.4647948  33.2356263  54.1390886 110.8002748
  32.4523785  54.6812566 110.8940973  33.9349008  54.6564866 111.1996989
  36.5452913  39.9485516 113.4436953  37.0421613  39.1955478 113.1238024
  35.7739895  39.9849832 112.8780163  44.3982671  45.6525881 115.0855245
  44.3872547  46.5350597 114.7149178  43.5300050  45.2997432 114.8909782
  35.9065167  54.8005950 119.4458085  36.6193139  55.4353415 119.3733987
  35.4155196  54.8969816 118.6298087  37.6282694  48.7057203 111.0175377
  36.6938973  48.8258665 110.8480081  37.8059362  47.8029670 110.7535387
  41.0155245  44.5474522 111.5525411  41.4815698  45.3802514 111.4785714
  41.4662746  44.0819504 112.2570670  39.0831476  50.8918343 108.5511563
  39.3591320  50.7774938 109.4605437  38.2135975  50.4935828 108.5123736
  35.7185540  55.1404694 112.1944377  35.9007935  54.3226350 112.6572129
  36.5418526  55.3572386 111.7569267  36.0527706  54.0672879 109.4559425
  36.5815472  53.5565334 108.8429587  36.3155926  53.7515410 110.3204958
  29.4083454  55.1187996 112.2157201  28.7393829  55.6034124 111.7321241
  29.2696324  55.3657216 113.1300580  33.5488722  57.1531740 118.8139859
  34.1007031  57.3163361 119.5788945  33.8894916  57.7436177 118.1419884
  24.7771031  43.3806451 108.9953133  25.0724472  42.4717129 108.9420187
  23.8759067  43.3594190 108.6734136  36.6857110  55.1013715 115.8003542
  36.5608249  54.3003455 115.2914487  37.3436201  55.5959908 115.3117512
  38.7492018  52.9022735 117.4283092  37.8022354  52.7828086 117.3561418
  39.0974791  52.0145233 117.5109353  26.5058873  41.0620549 109.1192458
  26.1771579  40.1817928 108.9367564  26.8598243  41.0068217 110.0068848
  35.7538451  52.6975451 113.6287444  35.6063414  51.7692159 113.8095014
  36.5791945  52.7195542 113.1444519  29.6200696  41.3493518 109.4867936
  29.9596768  41.8779440 108.7646544  30.0672816  41.6873925 110.2626503
  39.3572573  53.5204010 114.7152317  40.2819121  53.3146871 114.5776768
  39.1887877  53.2720411 115.6241658  31.6068843  39.8468140 107.6861229
  32.3277205  40.2249393 107.1824946  30.9834147  40.5657017 107.7896207
  35.7499966  40.5513289 108.6219561  35.9663580  41.4337927 108.3208389
  35.2694033  40.1599502 107.8925203  39.1467890  54.0389678 110.0714408
  39.3204767  53.4736100 109.3188261  39.6396781  54.8390572 109.8893898
  31.7532466  39.3815930 110.5158765  31.8748377  38.4532577 110.7149653
  31.4634508  39.3954616 109.6037081  45.0007281  46.8026100 111.6904708
  45.4438427  46.0533426 111.2923831  44.1233791  46.7936237 111.3078440
  40.1343062  53.3556442 107.1711306  40.8293967  53.9763135 107.3898621
  40.4766212  52.5051793 107.4463684  42.0334485  50.8056147 108.6998637
  42.5585809  51.1443420 107.9747957  41.9456838  49.8703163 108.5161772
  33.7175146  56.8728131 113.0593890  33.2780136  56.3804509 113.7526747
  34.4683263  56.3301098 112.8185966  26.1967485  53.0639672 113.0618518
  27.0225505  52.7643443 112.6817162  25.8461537  52.2947294 113.5108307
  31.1649018  52.4166140 115.1316192  30.5429027  51.7536845 114.8318420
  31.8353885  52.4427272 114.4489840  24.3976090  50.9825998 114.0207452
  23.5607998  50.5548172 113.8391453  24.3699735  51.1758441 114.9578243
  30.7262525  50.9670063 108.6074653  30.8750645  51.6505528 107.9541325
  31.5328968  50.9475153 109.1224108  43.3444463  50.7078459 121.5624585
  43.0529271  51.0708440 122.3988046  42.7316594  49.9945467 121.3837917
  44.5440145  48.2731339 114.0827155  45.3787037  48.7121143 114.2464716
  44.6799274  47.7969992 113.2635401  28.4815158  46.9935241 109.6135721
  28.2361200  46.0897571 109.8115932  28.6511072  46.9952391 108.6715199
  27.7510805  42.7263598 107.1121883  27.0580050  42.8007953 106.4561919
  27.5062557  41.9623942 107.6343400  34.2257930  53.4618194 106.0786400
  33.6531898  54.0808381 105.6256872  34.7990724  54.0117555 106.6126322
  37.4455190  53.7455344 107.2094982  38.3785863  53.6800905 107.4127858
  37.3578403  54.5811611 106.7509515  42.7721398  45.9282953 117.3775248
  42.7397718  44.9898954 117.5634932  43.3822022  46.0066990 116.6441073
  34.6104729  44.7979006 103.4202452  35.5563834  44.6685214 103.4890871
  34.2318974  44.0593668 103.8971881  48.5897948  46.9898960 116.5181285
  49.3201336  46.7284248 117.0788989  47.9804893  46.2527682 116.5583353
  46.6713245  45.1306823 117.1155736  45.9446409  44.9962788 116.5072228
  46.2560532  45.4383651 117.9212454  32.7947646  42.7228983 103.3557338
  31.8879101  42.4262095 103.4320051  33.0723627  42.4258801 102.4891624
  34.4109712  37.2665872 109.5101579  33.6010440  36.9212957 109.8856825
  35.0994129  36.9573416 110.0989191  31.5646431  39.5815918 103.4969317
  32.4265595  39.9070816 103.7565134  31.7496775  38.7947414 102.9842383
  39.7179067  38.4544444 110.6404540  39.1377736  39.1129248 110.2582592
  39.4515000  37.6321789 110.2291957  38.5003945  40.6144535 109.6960888
  37.6129800  40.8994185 109.4781083  38.9157934  40.4538298 108.8488165
  41.8518481  40.6391056 113.4115227  42.6278871  41.1287508 113.6839844
  41.1266616  41.0649110 113.8687097  44.2891040  41.3518675 114.4689168
  44.8835531  41.1114411 113.7582476  44.3617624  40.6325806 115.0962704
  26.5088196  55.1952286 114.7832333  26.3742664  54.4352687 114.2170331
  26.0920258  55.9193186 114.3161122  38.4744969  46.1299071 109.9111178
  38.4180170  46.5867622 109.0718811  39.0273311  45.3689755 109.7334021
  42.2849775  41.9188803 110.7361298  42.0286709  41.5185438 111.5669506
  41.6602643  42.6332597 110.6111437  46.5962113  44.6584876 113.2432589
  46.0361671  44.7278065 114.0164151  45.9905616  44.4825860 112.5232085
  29.6657322  56.0921603 114.9950776  29.5489706  57.0367035 114.8929466
  28.8449768  55.7895165 115.3836575  39.5533856  50.8171739 105.8407368
  40.3879460  50.3852937 105.6584843  39.3918199  50.6453752 106.7684263
  39.2079748  47.3203852 107.2063708  39.1528552  47.1548123 106.2652152
  38.5825804  48.0279885 107.3625897  32.5175874  36.8211961 106.7849026
  32.5054544  37.7653801 106.9417297  33.4099296  36.6382106 106.4908487
  30.6911836  56.7449865 118.2106704  31.5939082  56.7773475 118.5273199
  30.4649206  55.8150316 118.2253040  32.4465438  55.4980851 114.8716783
  31.4961069  55.4982713 114.7581155  32.7497924  54.7513586 114.3552817
  48.1818131  61.3341390 115.9362545  48.8196541  61.2148137 115.2325885
  48.0638974  62.2822234 115.9950497  44.9907837  61.2868818 115.8724070
  44.6526349  61.1709883 114.9844605  45.8597606  60.8859983 115.8525076
  40.8494653  63.1404294 111.8620961  40.2859518  63.0494231 111.0937248
  40.7347048  62.3204199 112.3423453  45.4727620  62.4403670 121.8310275
  45.4616261  62.0456468 120.9590779  45.6348260  61.7069742 122.4244047
  38.3959085  64.6355486 114.7005181  39.1880377  64.2946311 114.2851480
  38.6355735  64.7450461 115.6207334  46.4294212  66.8075262 107.1735426
  45.7782192  67.3929342 106.7869439  47.2238575  67.3381457 107.2330463
  40.3549839  63.8964399 107.5722560  41.1280715  63.3493386 107.4335436
  40.7075238  64.7608648 107.7837021  42.1934882  65.2240781 120.7789459
  41.9024748  66.1286412 120.6636125  42.8291866  65.2657309 121.4933529
  43.1191088  62.6017630 117.3690819  43.7154661  62.3773652 116.6547782
  43.1766060  61.8602375 117.9716267  47.7359400  59.0592844 113.0115753
  48.5222489  58.6412267 112.6606170  47.9998104  59.9638936 113.1797401
  47.9069477  64.4965694 107.7104410  47.2715310  64.5700320 108.4225314
  47.5766883  65.0859293 107.0323489  53.1367827  58.9968077 113.9148732
  53.8692999  58.4267294 114.1486561  52.3807182  58.6089677 114.3555237
  42.4112406  61.9585171 107.4065385  42.2948664  61.2830075 108.0746469
  42.5214665  61.4717545 106.5897538  44.7543947  61.4195318 111.1112074
  44.3902154  60.8925939 111.8224995  45.6111062  61.0293787 110.9378559
  50.6593247  52.7089651 118.3743340  50.3276572  53.5785062 118.1504555
  50.0638861  52.3925935 119.0537371  44.3949433  56.4485218 106.1073422
  44.5623836  57.3165454 106.4743894  44.2046603  56.6112500 105.1834712
  47.1524767  64.9102197 117.7739253  46.8525490  65.8127236 117.6655060
  46.8075826  64.6434380 118.6260406  40.6037248  61.3615994 113.8075957
  39.6787745  61.2292208 114.0153649  40.8521661  62.1410213 114.3045900
  50.5521910  57.4284737 115.4536690  49.6438788  57.3600146 115.1595451
  50.5009506  57.9056682 116.2818516  44.3738654  58.9042876 107.0920089
  44.2538280  59.3499926 107.9305570  43.6791243  59.2528193 106.5333627
  37.9646059  61.0049267 114.6419746  38.0938440  61.2583746 115.5559158
  37.2843511  61.5976975 114.3224401  42.1345546  71.6746517 110.7410221
  42.0569576  72.6254342 110.8198701  41.5307190  71.3292390 111.3985147
  44.6262776  58.8474383 123.3971587  43.8496110  59.4068303 123.3874452
  45.2653339  59.3331166 123.9186458  52.4183557  55.6301176 117.2314564
  51.7757937  55.9233709 116.5854359  51.9138485  55.5154096 118.0367761
  50.0723721  59.3764349 107.9200423  50.9841577  59.6091735 107.7448121
  49.5633368  59.9601393 107.3575502  42.8809149  61.6559836 122.9589554
  43.6223833  62.1944880 122.6824378  42.1746134  62.2826125 123.1161106
  48.3564488  63.7988977 121.5561716  48.7647844  63.3571387 120.8116348
  47.6341750  63.2241604 121.8095909  44.7095558  58.7361583 118.9295273
  45.5556753  59.1600997 119.0729922  44.6494196  58.0795208 119.6233836
  48.6793303  64.3590167 115.3114005  48.0502165  64.5235881 114.6090073
  48.2918965  64.7731777 116.0824969  52.5582535  65.2944605 112.6658369
  51.8733573  65.6743506 112.1155402  52.6426384  65.9039932 113.3990316
  47.8595004  56.3965952 120.5876447  47.6155935  57.1508012 120.0510722
  48.1354934  56.7751299 121.4223694  49.8133466  62.9404564 119.2653712
  50.0250362  63.5836324 118.5888093  49.7663215  62.1066881 118.7975642
  47.4159695  55.5522385 116.1690284  46.5544174  55.8503638 116.4607022
  47.4422130  55.7692784 115.2371317  44.2321265  64.0964575 112.5764090
  44.6959610  64.3752278 111.7868712  43.9678063  63.1948020 112.3937181
  41.1245346  63.6436057 115.5143853  41.6946703  64.0723325 114.8761338
  41.7153458  63.3618642 116.2128039  43.1690151  60.2187728 109.3853655
  43.8714194  60.6708771 109.8527581  42.8370779  59.5771546 110.0133548
  41.6170512  58.8099484 123.7604864  40.9869173  59.4915765 123.9940261
  41.5106600  58.6982566 122.8158003  36.9115485  58.4771280 114.6870789
  36.1214539  58.7328809 114.2110899  37.4026732  59.2919618 114.7922829
  50.9279294  65.8176519 117.4376069  51.7496738  65.4156707 117.1558751
  50.9241697  65.7144754 118.3892185  38.8630230  58.8415860 111.6454265
  38.0661393  58.9534554 112.1637761  38.6355822  59.1802512 110.7795156
  44.6935898  65.3660563 119.5936780  44.7580330  65.8280970 120.4294952
  43.9846822  64.7357928 119.7219090  35.1953188  58.7301771 117.1185779
  35.4461226  59.6148781 117.3843355  35.7312736  58.5506372 116.3460871
  59.0185287  62.1615268 113.7861041  58.2648996  61.5922666 113.6305045
  59.1532829  62.1277932 114.7331676  44.4083915  67.0328670 109.4615760
  44.2729590  67.8780206 109.8900608  44.9493728  67.2347948 108.6981694
  37.8613313  64.5504108 110.0343685  38.3737833  65.3447359 110.1849250
  38.5136026  63.8530399 109.9677287  39.6708197  67.6669865 112.1166439
  39.8474826  68.5887829 111.9287422  40.4665031  67.3528284 112.5460818
  43.8119216  54.5278129 123.7150372  44.5528929  55.1285282 123.6354835
  44.0437139  53.7855767 123.1568415  38.9560554  59.7134496 121.9928602
  38.8414069  58.8119754 122.2935701  38.1005072  59.9598193 121.6413418
  46.0352392  67.6552237 123.5916102  45.5916246  66.8688615 123.2737007
  46.6969605  67.8431387 122.9259993  40.7939513  69.1848038 118.1176781
  41.3446938  69.0565102 117.3453775  39.9550989  69.4842927 117.7671674
  48.1333630  67.9355037 121.6197504  48.1152105  68.7563918 121.1277773
  49.0553550  67.8109112 121.8447645  44.5906684  65.4499166 122.4621012
  45.1235021  64.6887454 122.2320320  44.0620765  65.1572818 123.2045166
  47.7576379  50.5559232 117.9914654  47.4140648  51.4460874 117.9153764
  48.1255342  50.3660890 117.1284239  35.8262230  62.8792763 110.8103256
  36.6637452  63.2889771 110.5936964  36.0040497  61.9392205 110.7803450
  47.7226662  60.5467843 106.4987089  47.2073285  61.3172448 106.7375476
  47.4503970  59.8732979 107.1220150  45.3073773  55.3917544 111.5572327
  44.4515369  55.0024394 111.3777966  45.7200724  55.4709505 110.6972113
  46.8372919  52.9263887 115.9563887  46.3337715  52.8894022 115.1431692
  47.1303526  53.8356630 116.0160544  43.0815805  53.0102617 114.9630069
  43.9468802  52.8145426 114.6035958  43.1493314  52.7812969 115.8899425
  52.6960936  63.3000198 108.4340262  51.9190379  62.9611357 107.9895424
  53.3752417  63.3052821 107.7595227  47.5112965  58.4194935 108.3246870
  47.2063100  58.7341085 109.1757013  48.4643407  58.4976355 108.3674203
  45.9559397  64.5785159 109.9739824  45.4280758  63.8437918 109.6613061
  45.4546899  65.3559835 109.7279792  50.9352243  62.7734179 115.0906870
  50.2775917  63.4633441 115.1786999  51.7392642  63.1630611 115.4340857
  40.6878124  55.2404825 112.3346436  41.2621876  55.0180006 111.6019628
  41.2749107  55.3093519 113.0875037  49.7457702  61.1278552 113.1410812
  50.2589583  61.7608544 113.6432522  50.3958925  60.5279747 112.7754172
  41.0147711  57.2709286 106.3542321  40.1785024  57.6083973 106.6751596
  40.8752481  57.1358266 105.4169458  42.9900792  52.1146074 111.0621505
  42.3365204  51.7995091 110.4378120  42.9481266  51.4921814 111.7881328
  47.0080076  71.1062876 105.8971483  46.3341775  71.4094573 106.5056441
  47.3945898  71.9091956 105.5476940  46.2238532  58.6028007 115.3869153
  45.3061094  58.8242954 115.2290841  46.6398676  58.6774318 114.5280860
  47.0073580  60.0019423 110.5171833  47.7545399  60.5140820 110.2078955
  47.2765170  59.6803476 111.3776226  45.2800230  62.4977964 107.4998787
  44.3711450  62.2136997 107.5971257  45.3095314  62.9177042 106.6402094
  50.5119498  66.1084553 111.2689955  50.0581825  65.2675463 111.3255145
  49.8813464  66.7445952 111.6064735  49.4552417  57.0376539 112.4990622
  48.7175174  56.5253926 112.8300865  49.7079191  56.5976921 111.6873899
  48.9552437  67.9461050 112.2039773  49.2475411  68.5066107 111.4852138
  49.4651058  68.2389611 112.9592932  49.5564045  49.8152791 113.0932391
  49.8622921  48.9550155 112.8058306  50.2816649  50.4070412 112.8931385
  35.8488401  60.2183478 111.4813989  35.6512801  59.6252839 110.7565056
  35.2935065  59.9135688 112.1989928  43.8285124  60.1106584 113.6008582
  43.8833734  59.1580421 113.5251059  43.0176326  60.2666023 114.0849881
  41.7677484  58.7283644 111.3598961  40.9545350  59.0277815 111.7664153
  42.2636478  58.3339333 112.0773444  43.9186062  68.7241401 113.2933226
  43.8762241  68.9502247 112.3641758  44.8348761  68.4904776 113.4419027
  47.3651696  59.1925469 120.1913855  47.7201084  59.4196942 121.0508321
  48.0123827  59.5243845 119.5691111  53.0949433  62.3143904 110.8963184
  52.9567331  62.5045500 109.9684373  52.7385652  63.0763287 111.3531235
  41.2591559  56.3002000 116.9760196  41.8990938  56.1590759 116.2783160
  40.4269090  56.0136513 116.5998798  53.1218813  64.3820431 115.9074456
  53.5555319  64.2895721 116.7557510  53.8350393  64.3577932 115.2694472
  42.0351863  65.6004430 113.0895189  42.8292461  65.1054750 112.8877764
  41.3243555  65.0722293 112.7262894  46.8546707  67.9822526 117.4407556
  46.9083730  68.5513462 118.2085272  45.9861489  68.1524411 117.0761594
  38.3434626  59.7447512 109.1654941  37.4132215  59.6831967 109.3824904
  38.4392098  59.2223465 108.3691583  38.2620175  56.2702325 111.7533183
  38.5226993  57.1847658 111.6442344  39.0837348  55.8026767 111.9029796
  39.7345101  57.6840082 118.9232008  40.4068154  57.4757444 118.2744657
  38.9074887  57.4862168 118.4837240  53.9834362  64.4244132 118.4407341
  54.1770252  65.3289943 118.6866616  53.8834980  63.9651551 119.2745926
  45.6370673  54.3102023 120.9397669  44.9898588  55.0091972 120.8462145
  46.4071688  54.7438167 121.3073917  49.0449471  64.5750875 124.0148222
  48.8934977  64.3461427 123.0978305  49.0354150  65.5321476 124.0279567
  45.8134807  62.1482788 118.9994488  46.7426867  62.2993947 118.8263456
  45.3925837  62.2366808 118.1443135  44.6123139  66.1733452 116.7693026
  44.4734225  65.8052236 117.6418964  43.8237735  66.6881091 116.5976984
  45.2071291  71.2742549 108.1118562  45.3823047  70.8030592 108.9264185
  44.5204079  71.9008315 108.3399823  46.1628354  65.5515055 114.1581864
  45.8278187  65.5115825 115.0539514  45.6632300  64.8859771 113.6852274
  40.1372598  60.9582685 119.6834445  39.9992396  60.2262924 120.2845984
  41.0477522  60.8691585 119.4018633  42.7654899  60.6702644 119.1718124
  43.4754517  60.0295836 119.1304743  42.7224207  60.9215539 120.0944305
  50.7541677  67.6069997 122.0924704  50.6954224  66.9229218 121.4255287
  51.1561196  68.3488987 121.6405330  41.4783833  57.6567862 120.9913764
  40.9421190  57.2058600 121.6435360  40.8900541  57.7913771 120.2484228
  39.7732376  74.4231911 114.8858423  40.0128974  75.0550435 115.5637441
  38.9301573  74.0719951 115.1723782  50.7559085  65.5709581 120.3238683
  49.8685863  65.2335503 120.4465082  51.3257636  64.8392613 120.5607449
  32.4088232  61.9033673 113.6481735  33.0959272  61.5895403 113.0602750
  32.2536360  62.8075038 113.3748986  37.2122954  56.7923870 118.0766758
  37.1281143  56.1849539 117.3417168  36.3905660  57.2832888 118.0776255
  44.2860238  70.2311034 117.2899927  44.2130410  71.0366005 117.8019231
  43.8437631  70.4303000 116.4647948  44.0750018  69.4682804 110.8002748
  43.2917540  70.0104484 110.8940973  44.7742763  69.9856783 111.1996989
  47.3846668  55.2777433 113.4436953  47.8815367  54.5247396 113.1238024
  46.6133649  55.3141750 112.8780163  55.2376425  60.9817799 115.0855245
  55.2266301  61.8642514 114.7149178  54.3693805  60.6289350 114.8909782
  46.7458922  70.1297868 119.4458085  47.4586894  70.7645333 119.3733987
  46.2548950  70.2261734 118.6298087  48.4676448  64.0349120 111.0175377
  47.5332727  64.1550583 110.8480081  48.6453117  63.1321587 110.7535387
  43.9681637  57.4194816 113.1708638  43.5979424  56.8665857 113.8589544
  44.4640729  56.8152950 112.6183638  51.8549000  59.8766440 111.5525411
  52.3209452  60.7094431 111.4785714  52.3056500  59.4111421 112.2570670
  41.7970835  67.8792311 120.2663656  42.4980295  68.5128794 120.4193050
  41.3265950  68.2207043 119.5059295  49.9225231  66.2210261 108.5511563
  50.1985075  66.1066856 109.4605437  49.0529730  65.8227746 108.5123736
  49.8265663  52.2447027 115.5916312  48.9128742  52.4751254 115.7598519
  50.2558764  52.3285471 116.4430345  49.5972121  60.4336919 118.0916206
  48.9443571  60.6812826 117.4368659  49.9752501  59.6201057 117.7578684
  46.5579295  70.4696612 112.1944377  46.7401689  69.6518268 112.6572129
  47.3812281  70.6864304 111.7569267  46.8921460  69.3964797 109.4559425
  47.4209227  68.8857252 108.8429587  47.1549680  69.0807327 110.3204958
  45.6459694  61.1756730 124.5782243  44.9700331  61.0750859 125.2484619
  46.4687328  61.0195943 125.0418241  37.3938553  67.4128666 117.1994759
  37.9791990  66.6672354 117.3322663  37.1963392  67.7232623 118.0831423
  40.2477208  70.4479914 112.2157201  39.5787584  70.9326041 111.7321241
  40.1090078  70.6949134 113.1300580  31.9856208  59.9834266 115.9199202
  32.0240307  59.4497857 116.7136320  31.4796501  59.4569472 115.3010179
  44.3882477  72.4823657 118.8139859  44.9400785  72.6455279 119.5788945
  44.7288670  73.0728095 118.1419884  39.3646970  54.8298807 119.4161744
  39.4288297  55.6913638 119.0039142  39.3014090  54.2172809 118.6834103
  38.8399243  56.9021940 123.0634778  39.4671282  56.5199017 123.6772303
  37.9827162  56.6836141 123.4290471  49.2393351  67.3084915 124.6688514
  49.7833255  67.9214873 124.1743469  48.6580196  67.8664493 125.1855527
  35.6164785  58.7098369 108.9953133  35.9118227  57.8009047 108.9420187
  34.7152821  58.6886108 108.6734136  47.5250864  70.4305633 115.8003542
  47.4002004  69.6295373 115.2914487  48.1829955  70.9251826 115.3117512
  39.1459032  56.7854365 114.9780682  38.4245618  57.3990333 114.8388155
  39.9352288  57.3212130 114.8997328  49.5885773  68.2314653 117.4283092
  48.6416108  68.1120004 117.3561418  49.9368546  67.3437151 117.5109353
  41.9485346  54.1208792 121.2521334  42.4719748  54.3671088 122.0147643
  41.7297679  54.9528827 120.8324471  37.3452627  56.3912466 109.1192458
  37.0165333  55.5109845 108.9367564  37.6991998  56.3360135 110.0068848
  46.5932206  68.0267369 113.6287444  46.4457168  67.0984076 113.8095014
  47.4185699  68.0487460 113.1444519  40.4594450  56.6785436 109.4867936
  40.7990523  57.2071357 108.7646544  40.9066571  57.0165842 110.2626503
  50.1966328  68.8495928 114.7152317  51.1212875  68.6438789 114.5776768
  50.0281631  68.6012329 115.6241658  43.1537891  55.0622487 118.9371004
  42.8134711  54.2630300 119.3391684  42.4476897  55.3624198 118.3647837
  43.8054363  52.1471799 117.3898327  44.6280432  51.6732277 117.2677217
  44.0492426  52.9262283 117.8897013  42.4462597  55.1760058 107.6861229
  43.1670960  55.5541310 107.1824946  41.8227901  55.8948935 107.7896207
  46.5893720  55.8805207 108.6219561  46.8057335  56.7629845 108.3208389
  46.1087787  55.4891420 107.8925203  41.3292942  58.8390920 115.1990306
  41.1837522  59.1531223 116.0914587  40.8518145  59.4575820 114.6461204
  43.1889325  55.8293468 115.2471195  43.1750893  54.9334561 114.9103493
  43.9061753  55.8364132 115.8809481  45.0415455  56.2630808 117.2924323
  44.7833233  57.1847879 117.2908653  44.5100496  55.8661243 117.9824787
  49.9861644  69.3681595 110.0714408  50.1598522  68.8028018 109.3188261
  50.4790535  70.1682490 109.8893898  35.8038604  61.3796264 118.1377967
  35.2592072  62.1556072 118.2698241  36.6817954  61.7267069 117.9797088
  42.5926220  54.7107848 110.5158765  42.7142132  53.7824494 110.7149653
  42.3028263  54.7246534 109.6037081  45.4617411  52.3962759 113.6525485
  45.4839108  52.4602092 112.6977465  45.8785470  51.5567267 113.8465991
  55.8401035  62.1318018 111.6904708  56.2832181  61.3825343 111.2923831
  54.9627545  62.1228155 111.3078440  50.9736816  68.6848360 107.1711306
  51.6687721  69.3055052 107.3898621  51.3159967  67.8343711 107.4463684
  36.5904626  60.5066161 121.0308124  35.8486362  60.6548796 121.6172754
  36.2697370  60.7674426 120.1674873  52.8728240  66.1348065 108.6998637
  53.3979564  66.4735338 107.9747957  52.7850592  65.1995080 108.5161772
  44.5348288  70.0482139 120.8288514  44.8435415  69.8031286 121.7011213
  45.3323770  70.2528777 120.3407384  44.5568900  72.2020048 113.0593890
  44.1173891  71.7096427 113.7526747  45.3077017  71.6593016 112.8185966
  37.0361239  68.3931589 113.0618518  37.8619259  68.0935361 112.6817162
  36.6855291  67.6239212 113.5108307  42.0042773  67.7458058 115.1316192
  41.3822782  67.0828763 114.8318420  42.6747639  67.7719189 114.4489840
  35.2369844  66.3117916 114.0207452  34.4001753  65.8840090 113.8391453
  35.2093490  66.5050359 114.9578243  42.0767300  56.2239846 124.7248698
  42.1255455  57.1001968 124.3426468  42.6189814  55.6817239 124.1520341
  52.5622146  66.7680969 124.0049835  51.7717689  66.7505108 123.4654335
  52.3255500  67.3069262 124.7598872  52.6820021  63.6173435 121.3182564
  52.7318026  63.4523443 122.2598086  52.5733944  62.7500694 120.9280444
  41.5656279  66.2961981 108.6074653  41.7144400  66.9797445 107.9541325
  42.3722723  66.2767071 109.1224108  49.9723783  59.6004363 122.6341870
  50.8733646  59.4610828 122.3425868  50.0471758  59.7658818 123.5740048
  44.3066588  56.9771218 121.4795057  43.4369898  57.2704784 121.2077645
  44.5426069  57.5611663 122.2002320  54.1838218  66.0370377 121.5624585
  53.8923026  66.4000357 122.3988046  53.5710349  65.3237385 121.3837917
  55.3833900  63.6023256 114.0827155  56.2180791  64.0413061 114.2464716
  55.5193029  63.1261910 113.2635401  52.4325406  61.1602991 120.0304643
  52.9079527  61.3530638 119.2223495  51.5090971  61.2162177 119.7848027
  39.3208912  62.3227158 109.6135721  39.0754954  61.4189488 109.8115932
  39.4904827  62.3244309 108.6715199  47.0105622  53.1950835 118.9960477
  47.5287566  53.9311862 118.6706966  46.6560755  53.5014828 119.8307236
  38.5904560  58.0555516 107.1121883  37.8973805  58.1299871 106.4561919
  38.3456312  57.2915860 107.6343400  47.2618216  49.6151117 114.5161374
  47.5419970  48.9474306 115.1421800  48.0468823  49.8080213 114.0036038
  45.0651685  68.7910111 106.0786400  44.4925652  69.4100298 105.6256872
  45.6384479  69.3409473 106.6126322  51.1327075  58.0368751 118.2632949
  52.0844498  58.1366849 118.2845173  50.9630525  57.2447020 118.7731033
  49.1541454  55.1224335 118.4492350  48.5591386  55.4029347 117.7538838
  48.8691151  55.6118236 119.2209091  48.2848945  69.0747261 107.2094982
  49.2179618  69.0092823 107.4127858  48.1972158  69.9103528 106.7509515
  53.6115153  61.2574871 117.3775248  53.5791473  60.3190872 117.5634932
  54.2215776  61.3358908 116.6441073  53.7609641  58.0485914 117.4233532
  53.2448690  57.2644371 117.2363460  54.6449590  57.7204631 117.5880051
  51.4220368  51.7926930 113.3829344  51.2245189  51.4842018 114.2672676
  52.0320074  52.5188569 113.5127274  59.4291702  62.3190878 116.5181285
  60.1595091  62.0576166 117.0788989  58.8198648  61.5819600 116.5583353
  57.5107000  60.4598740 117.1155736  56.7840163  60.3254705 116.5072228
  57.0954286  60.7675569 117.9212454  45.3337176  64.1788670 124.8803109
  46.2540185  64.3567269 125.0743156  45.2986759  63.2344716 124.7282809
  34.5519341  59.3727264 113.8056384  34.2322125  58.5192572 113.5130758
  34.0052769  59.5875842 114.5614351  38.3299249  62.0889705 117.5225891
  38.5485258  63.0206813 117.5413924  38.7425022  61.7297679 118.3080694
  45.2503466  52.5957790 109.5101579  44.4404195  52.2504875 109.8856825
  45.9387883  52.2865334 110.0989191  47.1794015  51.6735837 111.1325876
  47.7325053  52.0931290 111.7915899  47.4164101  50.7471585 111.1748832
  34.4207601  62.9930175 115.7749506  33.7271072  62.5784128 115.2619460
  35.1680592  63.0350712 115.1782925  50.5572822  53.7836362 110.6404540
  49.9771491  54.4421166 110.2582592  50.2908754  52.9613707 110.2291957
  49.0076388  53.1841420 112.8425860  49.5076166  53.2957954 112.0340179
  49.6511996  52.8802473 113.4826669  43.0658384  61.0920049 125.7293701
  42.5825466  61.8920410 125.9357590  43.1519323  61.1027994 124.7761145
  36.3344343  62.9248429 113.6515521  36.3115032  63.0236116 112.6997404
  36.6444980  63.7713580 113.9732687  38.9931721  64.9824584 117.7662135
  39.9474975  64.9508526 117.6992067  38.7944245  64.5215208 118.5812361
  39.5831103  63.5525700 120.3332933  40.4023992  64.0469779 120.3567770
  39.8567911  62.6357668 120.3050500  49.3397700  55.9436452 109.6960888
  48.4523555  56.2286103 109.4781083  49.7551689  55.7830216 108.8488165
  52.6912236  55.9682973 113.4115227  53.4672626  56.4579426 113.6839844
  51.9660370  56.3941028 113.8687097  55.1284794  56.6810593 114.4689168
  55.7229285  56.4406329 113.7582476  55.2011378  55.9617723 115.0962704
  37.3481950  70.5244204 114.7832333  37.2136418  69.7644605 114.2170331
  36.9314012  71.2485103 114.3161122  49.3138723  61.4590988 109.9111178
  49.2573925  61.9159540 109.0718811  49.8667066  60.6981673 109.7334021
  53.1243529  57.2480720 110.7361298  52.8680464  56.8477356 111.5669506
  52.4996397  57.9624514 110.6111437  57.4355867  59.9876794 113.2432589
  56.8755425  60.0569983 114.0164151  56.8299371  59.8117778 112.5232085
  40.5051076  71.4213521 114.9950776  40.3883460  72.3658953 114.8929466
  39.6843522  71.1187082 115.3836575  50.3927611  66.1463656 105.8407368
  51.2273215  65.7144855 105.6584843  50.2311953  65.9745670 106.7684263
  50.0473503  62.6495770 107.2063708  49.9922307  62.4840041 106.2652152
  49.4219558  63.3571803 107.3625897  34.8366018  57.8863834 121.0325130
  35.4824881  57.3762788 121.5212355  34.6283169  58.6232516 121.6068555
  47.3619410  64.9544682 126.5317270  48.2310570  65.1285334 126.1703905
  46.8826161  65.7739098 126.4093000  43.3569628  52.1503879 106.7849026
  43.3448298  53.0945719 106.9417297  44.2493050  51.9674024 106.4908487
  41.5305590  72.0741783 118.2106704  42.4332837  72.1065393 118.5273199
  41.3042960  71.1442233 118.2253040  43.2859192  70.8272769 114.8716783
  42.3354823  70.8274631 114.7581155  43.5891678  70.0805504 114.3552817
  47.1721748  48.7446655 111.0394963  46.4054143  48.1905142 111.1851645
  47.5832453  48.8168524 111.9009114  59.0211886  76.6633307 115.9362545
  59.6590296  76.5440055 115.2325885  58.9032729  77.6114151 115.9950497
  55.8301592  76.6160736 115.8724070  55.4920103  76.5001800 114.9844605
  56.6991360  76.2151901 115.8525076  51.6888408  78.4696212 111.8620961
  51.1253273  78.3786149 111.0937248  51.5740803  77.6496116 112.3423453
  56.3121375  77.7695587 121.8310275  56.3010016  77.3748386 120.9590779
  56.4742014  77.0361660 122.4244047  49.2352840  79.9647404 114.7005181
  50.0274131  79.6238228 114.2851480  49.4749490  80.0742379 115.6207334
  57.2687966  82.1367180 107.1735426  56.6175946  82.7221260 106.7869439
  58.0632329  82.6673375 107.2330463  51.1943594  79.2256317 107.5722560
  51.9674470  78.6785304 107.4335436  51.5468992  80.0900566 107.7837021
  53.0328636  80.5532699 120.7789459  52.7418502  81.4578330 120.6636125
  53.6685620  80.5949227 121.4933529  53.9584843  77.9309548 117.3690819
  54.5548415  77.7065570 116.6547782  54.0159814  77.1894293 117.9716267
  53.5309871  75.3848983 105.2041010  53.7835392  74.8630504 104.4424473
  52.5934430  75.2215128 105.3067693  58.5753154  74.3884761 113.0115753
  59.3616243  73.9704184 112.6606170  58.8391858  75.2930854 113.1797401
  58.7463232  79.8257612 107.7104410  58.1109064  79.8992238 108.4225314
  58.4160638  80.4151210 107.0323489  63.9761581  74.3259995 113.9148732
  64.7086753  73.7559211 114.1486561  63.2200937  73.9381595 114.3555237
  53.2506160  77.2877089 107.4065385  53.1342418  76.6121992 108.0746469
  53.3608420  76.8009463 106.5897538  55.5937701  76.7487236 111.1112074
  55.2295908  76.2217857 111.8224995  56.4504817  76.3585705 110.9378559
  61.4987002  68.0381569 118.3743340  61.1670326  68.9076980 118.1504555
  60.9032615  67.7217853 119.0537371  55.2343188  71.7777136 106.1073422
  55.4017590  72.6457372 106.4743894  55.0440357  71.9404417 105.1834712
  57.9918521  80.2394115 117.7739253  57.6919244  81.1419153 117.6655060
  57.6469581  79.9726298 118.6260406  51.4431003  76.6907911 113.8075957
  50.5181499  76.5584126 114.0153649  51.6915416  77.4702131 114.3045900
  61.3915665  72.7576655 115.4536690  60.4832542  72.6892063 115.1595451
  61.3403261  73.2348600 116.2818516  55.2132409  74.2334793 107.0920089
  55.0932034  74.6791844 107.9305570  54.5184997  74.5820111 106.5333627
  48.8039814  76.3341185 114.6419746  48.9332195  76.5875664 115.5559158
  48.1237265  76.9268893 114.3224401  52.9739301  87.0038435 110.7410221
  52.8963331  87.9546260 110.8198701  52.3700945  86.6584307 111.3985147
  55.4656531  74.1766300 123.3971587  54.6889865  74.7360221 123.3874452
  56.1047094  74.6623083 123.9186458  63.2577311  70.9593093 117.2314564
  62.6151692  71.2525626 116.5854359  62.7532240  70.8446014 118.0367761
  60.9117475  74.7056266 107.9200423  61.8235331  74.9383653 107.7448121
  60.4027122  75.2893311 107.3575502  53.7202903  76.9851754 122.9589554
  54.4617587  77.5236798 122.6824378  53.0139889  77.6118043 123.1161106
  59.1958243  79.1280894 121.5561716  59.6041599  78.6863305 120.8116348
  58.4735504  78.5533522 121.8095909  55.5489313  74.0653501 118.9295273
  56.3950508  74.4892915 119.0729922  55.4887950  73.4087125 119.6233836
  59.5187057  79.6882085 115.3114005  58.8895920  79.8527799 114.6090073
  59.1312719  80.1023694 116.0824969  63.3976289  80.6236523 112.6658369
  62.7127327  81.0035424 112.1155402  63.4820139  81.2331849 113.3990316
  58.6988758  71.7257869 120.5876447  58.4549690  72.4799930 120.0510722
  58.9748689  72.1043217 121.4223694  60.6527221  78.2696482 119.2653712
  60.8644116  78.9128242 118.5888093  60.6056969  77.4358798 118.7975642
  58.2553450  70.8814302 116.1690284  57.3937929  71.1795556 116.4607022
  58.2815884  71.0984701 115.2371317  55.0715019  79.4256493 112.5764090
  55.5353365  79.7044196 111.7868712  54.8071817  78.5239938 112.3937181
  51.9639100  78.9727974 115.5143853  52.5340457  79.4015243 114.8761338
  52.5547212  78.6910559 116.2128039  54.0083905  75.5479645 109.3853655
  54.7107949  76.0000689 109.8527581  53.6764534  74.9063464 110.0133548
  52.4564267  74.1391402 123.7604864  51.8262927  74.8207683 123.9940261
  52.3500355  74.0274484 122.8158003  47.7509239  73.8063198 114.6870789
  46.9608293  74.0620727 114.2110899  48.2420487  74.6211536 114.7922829
  61.7673049  81.1468437 117.4376069  62.5890493  80.7448624 117.1558751
  61.7635452  81.0436671 118.3892185  49.7023985  74.1707777 111.6454265
  48.9055148  74.2826471 112.1637761  49.4749577  74.5094429 110.7795156
  55.5329652  80.6952480 119.5936780  55.5974085  81.1572888 120.4294952
  54.8240576  80.0649845 119.7219090  46.0346942  74.0593688 117.1185779
  46.2854981  74.9440698 117.3843355  46.5706491  73.8798290 116.3460871
  69.8579042  77.4907186 113.7861041  69.1042750  76.9214584 113.6305045
  69.9926583  77.4569850 114.7331676  55.2477670  82.3620588 109.4615760
  55.1123345  83.2072124 109.8900608  55.7887482  82.5639866 108.6981694
  51.7345010  68.4412168 126.1230115  51.3411955  67.8878366 126.7977760
  52.5511150  68.7522746 126.5136633  48.7007067  79.8796026 110.0343685
  49.2131588  80.6739276 110.1849250  49.3529780  79.1822316 109.9677287
  50.5101952  82.9961782 112.1166439  50.6868580  83.9179747 111.9287422
  51.3058785  82.6820201 112.5460818  54.6512971  69.8570047 123.7150372
  55.3922684  70.4577200 123.6354835  54.8830893  69.1147685 123.1568415
  49.7954309  75.0426414 121.9928602  49.6807824  74.1411671 122.2935701
  48.9398826  75.2890111 121.6413418  56.8746146  82.9844154 123.5916102
  56.4310000  82.1980533 123.2737007  57.5363360  83.1723305 122.9259993
  51.6333267  84.5139956 118.1176781  52.1840693  84.3857019 117.3453775
  50.7944743  84.8134845 117.7671674  58.9727384  83.2646954 121.6197504
  58.9545860  84.0855835 121.1277773  59.8947304  83.1401030 121.8447645
  55.4300438  80.7791084 122.4621012  55.9628775  80.0179372 122.2320320
  54.9014520  80.4864736 123.2045166  58.5970133  65.8851150 117.9914654
  58.2534403  66.7752791 117.9153764  58.9649096  65.6952807 117.1284239
  46.6655984  78.2084680 110.8103256  47.5031206  78.6181689 110.5936964
  46.8434252  77.2684122 110.7803450  58.5620416  75.8759761 106.4987089
  58.0467040  76.6464366 106.7375476  58.2897725  75.2024897 107.1220150
  56.1467527  70.7209462 111.5572327  55.2909124  70.3316312 111.3777966
  56.5594479  70.8001423 110.6972113  57.6766674  68.2555805 115.9563887
  57.1731469  68.2185940 115.1431692  57.9697281  69.1648548 116.0160544
  53.9209560  68.3394535 114.9630069  54.7862556  68.1437343 114.6035958
  53.9887069  68.1104886 115.8899425  63.5354690  78.6292116 108.4340262
  62.7584133  78.2903275 107.9895424  64.2146171  78.6344739 107.7595227
  58.3506719  73.7486853 108.3246870  58.0456855  74.0633002 109.1757013
  59.3037161  73.8268273 108.3674203  56.7953151  79.9077076 109.9739824
  56.2674513  79.1729836 109.6613061  56.2940654  80.6851753 109.7279792
  61.7745997  78.1026097 115.0906870  61.1169672  78.7925358 115.1786999
  62.5786396  78.4922529 115.4340857  51.5271879  70.5696743 112.3346436
  52.1015631  70.3471924 111.6019628  52.1142861  70.6385437 113.0875037
  60.5851456  76.4570470 113.1410812  61.0983338  77.0900461 113.6432522
  61.2352680  75.8571665 112.7754172  51.8541466  72.6001204 106.3542321
  51.0178778  72.9375890 106.6751596  51.7146236  72.4650183 105.4169458
  53.8294547  67.4437992 111.0621505  53.1758959  67.1287009 110.4378120
  53.7875021  66.8213732 111.7881328  54.9405751  77.7257287 102.9774797
  54.0332813  77.4946540 103.1765946  55.4376783  76.9294906 103.1648779
  57.8473830  86.4354794 105.8971483  57.1735529  86.7386491 106.5056441
  58.2339652  87.2383874 105.5476940  57.0632287  73.9319925 115.3869153
  56.1454848  74.1534872 115.2290841  57.4792430  74.0066236 114.5280860
  57.8467335  75.3311341 110.5171833  58.5939154  75.8432738 110.2078955
  58.1158924  75.0095393 111.3776226  56.1193985  77.8269881 107.4998787
  55.2105204  77.5428914 107.5971257  56.1489069  78.2468960 106.6402094
  61.3513252  81.4376471 111.2689955  60.8975579  80.5967381 111.3255145
  60.7207219  82.0737869 111.6064735  60.2946172  72.3668457 112.4990622
  59.5568929  71.8545843 112.8300865  60.5472945  71.9268839 111.6873899
  59.7946191  83.2752968 112.2039773  60.0869166  83.8358025 111.4852138
  60.3044812  83.5681529 112.9592932  60.3957799  65.1444709 113.0932391
  60.7016676  64.2842072 112.8058306  61.1210404  65.7362329 112.8931385
  46.6882155  75.5475396 111.4813989  46.4906555  74.9544756 110.7565056
  46.1328819  75.2427606 112.1989928  54.6678879  75.4398502 113.6008582
  54.7227489  74.4872338 113.5251059  53.8570081  75.5957941 114.0849881
  55.8170073  79.3678625 104.8386866  55.3789503  78.6514484 104.3792503
  56.5580513  79.5954740 104.2771957  52.6071239  74.0575562 111.3598961
  51.7939104  74.3569732 111.7664153  53.1030233  73.6631251 112.0773444
  54.7579817  84.0533319 113.2933226  54.7155995  84.2794165 112.3641758
  55.6742516  83.8196693 113.4419027  58.2045450  74.5217386 120.1913855
  58.5594838  74.7488859 121.0508321  58.8517582  74.8535763 119.5691111
  63.9343187  77.6435822 110.8963184  63.7961086  77.8337418 109.9684373
  63.5779406  78.4055205 111.3531235  52.0985314  71.6293917 116.9760196
  52.7384693  71.4882676 116.2783160  51.2662844  71.3428431 116.5998798
  63.9612567  79.7112349 115.9074456  64.3949074  79.6187638 116.7557510
  64.6744148  79.6869850 115.2694472  52.8745617  80.9296348 113.0895189
  53.6686216  80.4346668 112.8877764  52.1637310  80.4014211 112.7262894
  57.6940462  83.3114443 117.4407556  57.7477484  83.8805380 118.2085272
  56.8255243  83.4816328 117.0761594  49.1828381  75.0739429 109.1654941
  48.2525969  75.0123885 109.3824904  49.2785853  74.5515382 108.3691583
  49.1013930  71.5994242 111.7533183  49.3620747  72.5139576 111.6442344
  49.9231102  71.1318685 111.9029796  50.5738855  73.0131999 118.9232008
  51.2461909  72.8049362 118.2744657  49.7468642  72.8154085 118.4837240
  64.8228117  79.7536050 118.4407341  65.0164007  80.6581860 118.6866616
  64.7228735  79.2943469 119.2745926  56.4764427  69.6393940 120.9397669
  55.8292342  70.3383890 120.8462145  57.2465443  70.0730084 121.3073917
  59.8843225  79.9042793 124.0148222  59.7328732  79.6753344 123.0978305
  59.8747905  80.8613394 124.0279567  56.6528562  77.4774705 118.9994488
  57.5820622  77.6285865 118.8263456  56.2319592  77.5658726 118.1443135
  55.4516893  81.5025370 116.7693026  55.3127979  81.1344154 117.6418964
  54.6631490  82.0173009 116.5976984  56.0465045  86.6034466 108.1118562
  56.2216801  86.1322509 108.9264185  55.3597833  87.2300232 108.3399823
  57.0022109  80.8806972 114.1581864  56.6671941  80.8407742 115.0539514
  56.5026054  80.2151688 113.6852274  50.9766353  76.2874602 119.6834445
  50.8386150  75.5554841 120.2845984  51.8871276  76.1983503 119.4018633
  59.9381300  78.2263007 104.4318923  59.3210471  77.5009835 104.3351976
  59.4697789  78.9872367 104.0885998  53.6048653  75.9994562 119.1718124
  54.3148272  75.3587754 119.1304743  53.5617961  76.2507457 120.0944305
  61.5935432  82.9361915 122.0924704  61.5347978  82.2521135 121.4255287
  61.9954950  83.6780905 121.6405330  52.3177587  72.9859780 120.9913764
  51.7814944  72.5350518 121.6435360  51.7294296  73.1205689 120.2484228
  50.6126131  89.7523829 114.8858423  50.8522729  90.3842353 115.5637441
  49.7695327  89.4011869 115.1723782  61.5952839  80.9001499 120.3238683
  60.7079618  80.5627421 120.4465082  62.1651390  80.1684530 120.5607449
  43.2481986  77.2325591 113.6481735  43.9353026  76.9187321 113.0602750
  43.0930115  78.1366955 113.3748986  48.0516708  72.1215787 118.0766758
  47.9674897  71.5141457 117.3417168  47.2299415  72.6124806 118.0776255
  55.1253993  85.5602951 117.2899927  55.0524164  86.3657923 117.8019231
  54.6831386  85.7594917 116.4647948  54.9143772  84.7974721 110.8002748
  54.1311294  85.3396402 110.8940973  55.6136517  85.3148701 111.1996989
  58.2240422  70.6069351 113.4436953  58.7209122  69.8539313 113.1238024
  57.4527404  70.6433668 112.8780163  66.0770180  76.3109716 115.0855245
  66.0660056  77.1934432 114.7149178  65.2087559  75.9581267 114.8909782
  57.5852676  85.4589785 119.4458085  58.2980648  86.0937250 119.3733987
  57.0942705  85.5553651 118.6298087  59.3070203  79.3641038 111.0175377
  58.3726482  79.4842501 110.8480081  59.4846871  78.4613505 110.7535387
  54.8075391  72.7486734 113.1708638  54.4373179  72.1957774 113.8589544
  55.3034483  72.1444867 112.6183638  62.6942754  75.2058357 111.5525411
  63.1603207  76.0386349 111.4785714  63.1450255  74.7403339 112.2570670
  52.6364590  83.2084229 120.2663656  53.3374049  83.8420712 120.4193050
  52.1659705  83.5498960 119.5059295  60.7618985  81.5502179 108.5511563
  61.0378829  81.4358773 109.4605437  59.8923484  81.1519664 108.5123736
  60.6659417  67.5738944 115.5916312  59.7522497  67.8043171 115.7598519
  61.0952519  67.6577388 116.4430345  60.4365876  75.7628836 118.0916206
  59.7837326  76.0104744 117.4368659  60.8146255  74.9492975 117.7578684
  57.3973049  85.7988530 112.1944377  57.5795444  84.9810185 112.6572129
  58.2206035  86.0156222 111.7569267  57.7315215  84.7256715 109.4559425
  58.2602981  84.2149169 108.8429587  57.9943435  84.4099245 110.3204958
  56.4853449  76.5048647 124.5782243  55.8094086  76.4042777 125.2484619
  57.3081082  76.3487861 125.0418241  48.2332308  82.7420584 117.1994759
  48.8185744  81.9964272 117.3322663  48.0357146  83.0524541 118.0831423
  51.0870963  85.7771831 112.2157201  50.4181338  86.2617959 111.7321241
  50.9483833  86.0241052 113.1300580  42.8249962  75.3126184 115.9199202
  42.8634062  74.7789775 116.7136320  42.3190255  74.7861390 115.3010179
  55.2276231  87.8115575 118.8139859  55.7794540  87.9747196 119.5788945
  55.5682425  88.4020013 118.1419884  50.2040725  70.1590725 119.4161744
  50.2682051  71.0205556 119.0039142  50.1407845  69.5464726 118.6834103
  49.6792997  72.2313857 123.0634778  50.3065036  71.8490935 123.6772303
  48.8220916  72.0128059 123.4290471  46.4558540  74.0390286 108.9953133
  46.7511981  73.1300965 108.9420187  45.5546576  74.0178026 108.6734136
  58.3644619  85.7597550 115.8003542  58.2395758  84.9587290 115.2914487
  59.0223710  86.2543744 115.3117512  49.9852787  72.1146283 114.9780682
  49.2639373  72.7282251 114.8388155  50.7746043  72.6504048 114.8997328
  60.4279527  83.5606570 117.4283092  59.4809863  83.4411922 117.3561418
  60.7762300  82.6729069 117.5109353  52.7879101  69.4500709 121.2521334
  53.3113502  69.6963006 122.0147643  52.5691434  70.2820744 120.8324471
  48.1846382  71.7204384 109.1192458  47.8559088  70.8401763 108.9367564
  48.5385752  71.6652053 110.0068848  57.4325960  83.3559287 113.6287444
  57.2850923  82.4275994 113.8095014  58.2579454  83.3779377 113.1444519
  51.2988205  72.0077354 109.4867936  51.6384277  72.5363275 108.7646544
  51.7460325  72.3457760 110.2626503  61.0360082  84.1787845 114.7152317
  61.9606630  83.9730707 114.5776768  60.8675386  83.9304247 115.6241658
  53.9931646  70.3914405 118.9371004  53.6528466  69.5922218 119.3391684
  53.2870652  70.6916115 118.3647837  54.6448117  67.4763717 117.3898327
  55.4674187  67.0024195 117.2677217  54.8886181  68.2554201 117.8897013
  53.2856352  70.5051975 107.6861229  54.0064714  70.8833228 107.1824946
  52.6621656  71.2240852 107.7896207  57.4287475  71.2097124 108.6219561
  57.6451089  72.0921762 108.3208389  56.9481542  70.8183338 107.8925203
  52.1686696  74.1682838 115.1990306  52.0231277  74.4823141 116.0914587
  51.6911900  74.7867738 114.6461204  54.0283079  71.1585386 115.2471195
  54.0144648  70.2626479 114.9103493  54.7455507  71.1656049 115.8809481
  55.8809210  71.5922726 117.2924323  55.6226988  72.5139796 117.2908653
  55.3494250  71.1953160 117.9824787  60.8255398  84.6973513 110.0714408
  60.9992276  84.1319935 109.3188261  61.3184290  85.4974408 109.8893898
  46.6432358  76.7088182 118.1377967  46.0985826  77.4847990 118.2698241
  47.5211708  77.0558986 117.9797088  53.4319975  70.0399766 110.5158765
  53.5535886  69.1116412 110.7149653  53.1422017  70.0538452 109.6037081
  56.3011165  67.7254676 113.6525485  56.3232862  67.7894009 112.6977465
  56.7179224  66.8859185 113.8465991  66.6794790  77.4609936 111.6904708
  67.1225936  76.7117261 111.2923831  65.8021300  77.4520072 111.3078440
  61.8130571  84.0140277 107.1711306  62.5081476  84.6346970 107.3898621
  62.1553721  83.1635629 107.4463684  47.4298380  75.8358078 121.0308124
  46.6880116  75.9840714 121.6172754  47.1091124  76.0966344 120.1674873
  63.7121994  81.4639983 108.6998637  64.2373318  81.8027256 107.9747957
  63.6244347  80.5286998 108.5161772  55.3742043  85.3774056 120.8288514
  55.6829169  85.1323203 121.7011213  56.1717525  85.5820695 120.3407384
  55.3962655  87.5311966 113.0593890  54.9567645  87.0388345 113.7526747
  56.1470772  86.9884934 112.8185966  47.8754994  83.7223507 113.0618518
  48.7013014  83.4227279 112.6817162  47.5249046  82.9531129 113.5108307
  52.8436527  83.0749975 115.1316192  52.2216536  82.4120680 114.8318420
  53.5141394  83.1011107 114.4489840  46.0763599  81.6409833 114.0207452
  45.2395507  81.2132008 113.8391453  46.0487244  81.8342277 114.9578243
  52.9161054  71.5531763 124.7248698  52.9649210  72.4293886 124.3426468
  53.4583569  71.0109156 124.1520341  63.5213775  78.9465353 121.3182564
  63.5711780  78.7815360 122.2598086  63.4127699  78.0792612 120.9280444
  60.8117538  74.9296281 122.6341870  61.7127400  74.7902746 122.3425868
  60.8865512  75.0950736 123.5740048  55.1460343  72.3063136 121.4795057
  54.2763652  72.5996702 121.2077645  55.3819823  72.8903581 122.2002320
  65.0231972  81.3662294 121.5624585  64.7316780  81.7292275 122.3988046
  64.4104103  80.6529303 121.3837917  66.2227654  78.9315174 114.0827155
  67.0574546  79.3704978 114.2464716  66.3586783  78.4553827 113.2635401
  63.2719160  76.4894909 120.0304643  63.7473282  76.6822555 119.2223495
  62.3484726  76.5454095 119.7848027  50.1602667  77.6519076 109.6135721
  49.9148709  76.7481406 109.8115932  50.3298581  77.6536227 108.6715199
  57.8499377  68.5242753 118.9960477  58.3681321  69.2603779 118.6706966
  57.4954510  68.8306746 119.8307236  49.4298314  73.3847434 107.1121883
  48.7367559  73.4591789 106.4561919  49.1850066  72.6207777 107.6343400
  58.1011971  64.9443035 114.5161374  58.3813725  64.2766224 115.1421800
  58.8862578  65.1372131 114.0036038  55.9045439  84.1202029 106.0786400
  55.3319407  84.7392216 105.6256872  56.4778233  84.6701391 106.6126322
  61.9720829  73.3660669 118.2632949  62.9238252  73.4658767 118.2845173
  61.8024280  72.5738938 118.7731033  59.9935209  70.4516252 118.4492350
  59.3985141  70.7321265 117.7538838  59.7084905  70.9410153 119.2209091
  59.1242699  84.4039179 107.2094982  60.0573372  84.3384741 107.4127858
  59.0365912  85.2395446 106.7509515  61.7530716  83.7205049 104.1698930
  61.6744347  83.3864913 105.0634688  62.5740383  84.2126817 104.1690402
  64.4508907  76.5866789 117.3775248  64.4185227  75.6482789 117.5634932
  65.0609531  76.6650825 116.6441073  56.2892238  75.4562842 103.4202452
  57.2351343  75.3269050 103.4890871  55.9106483  74.7177504 103.8971881
  64.6003396  73.3777832 117.4233532  64.0842444  72.5936289 117.2363460
  65.4843344  73.0496549 117.5880051  62.2614122  67.1218848 113.3829344
  62.0638944  66.8133936 114.2672676  62.8713828  67.8480487 113.5127274
  70.2685457  77.6482796 116.5181285  70.9988845  77.3868084 117.0788989
  69.6592402  76.9111518 116.5583353  68.3500754  75.7890658 117.1155736
  67.6233918  75.6546623 116.5072228  67.9348041  76.0967487 117.9212454
  56.1730930  79.5080588 124.8803109  57.0933940  79.6859187 125.0743156
  56.1380513  78.5636633 124.7282809  54.4735155  73.3812818 103.3557338
  53.5666610  73.0845931 103.4320051  54.7511136  73.0842636 102.4891624
  45.3913095  74.7019182 113.8056384  45.0715880  73.8484490 113.5130758
  44.8446524  74.9167760 114.5614351  49.1693003  77.4181623 117.5225891
  49.3879013  78.3498730 117.5413924  49.5818777  77.0589597 118.3080694
  56.0897221  67.9249708 109.5101579  55.2797949  67.5796793 109.8856825
  56.7781638  67.6157252 110.0989191  58.0187769  67.0027755 111.1325876
  58.5718808  67.4223208 111.7915899  58.2557855  66.0763503 111.1748832
  54.0420868  72.9914828 126.9128640  53.9417595  73.9409185 126.8440731
  53.8242410  72.6633067 126.0404710  45.2601355  78.3222093 115.7749506
  44.5664827  77.9076046 115.2619460  46.0074346  78.3642630 115.1782925
  61.3966576  69.1128280 110.6404540  60.8165245  69.7713084 110.2582592
  61.1302509  68.2905624 110.2291957  59.8470143  68.5133338 112.8425860
  60.3469921  68.6249872 112.0340179  60.4905750  68.2094390 113.4826669
  53.9052138  76.4211967 125.7293701  53.4219220  77.2212327 125.9357590
  53.9913077  76.4319912 124.7761145  47.1738098  78.2540347 113.6515521
  47.1508786  78.3528034 112.6997404  47.4838734  79.1005498 113.9732687
  49.8325476  80.3116502 117.7662135  50.7868729  80.2800444 117.6992067
  49.6337999  79.8507126 118.5812361  50.4224858  78.8817618 120.3332933
  51.2417747  79.3761697 120.3567770  50.6961666  77.9649586 120.3050500
  60.1791454  71.2728370 109.6960888  59.2917309  71.5578021 109.4781083
  60.5945443  71.1122134 108.8488165  63.5305990  71.2974891 113.4115227
  64.3066380  71.7871344 113.6839844  62.8054124  71.7232945 113.8687097
  65.9678549  72.0102510 114.4689168  66.5623040  71.7698246 113.7582476
  66.0405133  71.2909641 115.0962704  48.1875705  85.8536121 114.7832333
  48.0530173  85.0936522 114.2170331  47.7707767  86.5777021 114.3161122
  59.3234668  81.0373045 103.7908908  60.0270518  81.2423047 104.4066564
  58.5997316  81.6049807 104.0557992  60.1532478  76.7882906 109.9111178
  60.0967679  77.2451458 109.0718811  60.7060820  76.0273591 109.7334021
  63.9637284  72.5772638 110.7361298  63.7074218  72.1769274 111.5669506
  63.3390152  73.2916432 110.6111437  68.2749622  75.3168711 113.2432589
  67.7149180  75.3861901 114.0164151  67.6693125  75.1409696 112.5232085
  51.3444831  86.7505438 114.9950776  51.2277215  87.6950871 114.8929466
  50.5237277  86.4479000 115.3836575  61.2321365  81.4755574 105.8407368
  62.0666969  81.0436773 105.6584843  61.0705708  81.3037588 106.7684263
  60.8867257  77.9787687 107.2063708  60.8316061  77.8131959 106.2652152
  60.2613313  78.6863720 107.3625897  45.6759772  73.2155752 121.0325130
  46.3218636  72.7054706 121.5212355  45.4676923  73.9524433 121.6068555
  54.1963383  67.4795796 106.7849026  54.1842053  68.4237636 106.9417297
  55.0886805  67.2965942 106.4908487  52.3699345  87.4033700 118.2106704
  53.2726591  87.4357310 118.5273199  52.1436715  86.4734151 118.2253040
  54.1252947  86.1564687 114.8716783  53.1748578  86.1566548 114.7581155
  54.4285433  85.4097421 114.3552817  58.0115502  64.0738573 111.0394963
  57.2447898  63.5197060 111.1851645  58.4226207  64.1460442 111.9009114
  50.0157263  70.3623369 125.1300144  50.8788725  70.0060174 125.3403469
  49.4422674  70.0237264 125.8175548  66.6695346  91.9452653 115.8724070
  66.3313858  91.8293718 114.9844605  67.5385115  91.5443818 115.8525076
  62.5282162  93.7988130 111.8620961  61.9647027  93.7078067 111.0937248
  62.4134557  92.9788034 112.3423453  60.0746594  95.2939321 114.7005181
  60.8667886  94.9530146 114.2851480  60.3143244  95.4034296 115.6207334
  68.1081721  97.4659097 107.1735426  67.4569701  98.0513178 106.7869439
  68.9026084  97.9965292 107.2330463  62.0337348  94.5548235 107.5722560
  62.8068224  94.0077222 107.4335436  62.3862747  95.4192484 107.7837021
  64.3703626  90.7140901 105.2041010  64.6229147  90.1922422 104.4424473
  63.4328185  90.5507046 105.3067693  69.4146909  89.7176679 113.0115753
  70.2009998  89.2996102 112.6606170  69.6785613  90.6222771 113.1797401
  69.5856986  95.1549529 107.7104410  68.9502819  95.2284156 108.4225314
  69.2554392  95.7443128 107.0323489  74.8155336  89.6551912 113.9148732
  75.5480508  89.0851129 114.1486561  74.0594691  89.2673513 114.3555237
  64.0899915  92.6169007 107.4065385  63.9736173  91.9413910 108.0746469
  64.2002174  92.1301381 106.5897538  66.4331455  92.0779154 111.1112074
  66.0689663  91.5509775 111.8224995  67.2898571  91.6877623 110.9378559
  72.3380756  83.3673486 118.3743340  72.0064081  84.2368897 118.1504555
  71.7426370  83.0509770 119.0537371  66.0736942  87.1069053 106.1073422
  66.2411345  87.9749290 106.4743894  65.8834112  87.2696335 105.1834712
  62.2824757  92.0199829 113.8075957  61.3575254  91.8876043 114.0153649
  62.5309170  92.7994048 114.3045900  66.0526163  89.5626711 107.0920089
  65.9325789  90.0083762 107.9305570  65.3578752  89.9112029 106.5333627
  59.6433568  91.6633103 114.6419746  59.7725949  91.9167582 115.5559158
  58.9631019  92.2560811 114.3224401  63.8133055 102.3330353 110.7410221
  63.7357085 103.2838178 110.8198701  63.2094699 101.9876225 111.3985147
  71.7511230  90.0348184 107.9200423  72.6629086  90.2675571 107.7448121
  71.2420877  90.6185228 107.3575502  69.0947204  86.2106220 116.1690284
  68.2331683  86.5087474 116.4607022  69.1209639  86.4276619 115.2371317
  65.9108774  94.7548411 112.5764090  66.3747119  95.0336114 111.7868712
  65.6465572  93.8531855 112.3937181  62.8032855  94.3019892 115.5143853
  63.3734212  94.7307161 114.8761338  63.3940967  94.0202477 116.2128039
  64.8477660  90.8771563 109.3853655  65.5501703  91.3292607 109.8527581
  64.5158288  90.2355382 110.0133548  58.5902994  89.1355116 114.6870789
  57.8002048  89.3912644 114.2110899  59.0814241  89.9503454 114.7922829
  60.5417739  89.4999695 111.6454265  59.7448902  89.6118389 112.1637761
  60.3143331  89.8386347 110.7795156  56.8740697  89.3885606 117.1185779
  57.1248735  90.2732616 117.3843355  57.4100245  89.2090208 116.3460871
  66.0871424  97.6912506 109.4615760  65.9517099  98.5364041 109.8900608
  66.6281237  97.8931783 108.6981694  59.5400822  95.2087944 110.0343685
  60.0525342  96.0031194 110.1849250  60.1923535  94.5114234 109.9677287
  61.3495706  98.3253700 112.1166439  61.5262335  99.2471665 111.9287422
  62.1452540  98.0112119 112.5460818  69.4363888  81.2143067 117.9914654
  69.0928157  82.1044709 117.9153764  69.8042851  81.0244725 117.1284239
  57.5049739  93.5376598 110.8103256  58.3424961  93.9473606 110.5936964
  57.6828006  92.5976040 110.7803450  69.4014171  91.2051679 106.4987089
  68.8860794  91.9756283 106.7375476  69.1291479  90.5316815 107.1220150
  66.9861282  86.0501379 111.5572327  66.1302878  85.6608230 111.3777966
  67.3988233  86.1293340 110.6972113  68.5160428  83.5847723 115.9563887
  68.0125224  83.5477858 115.1431692  68.8091035  84.4940465 116.0160544
  64.7603314  83.6686452 114.9630069  65.6256311  83.4729261 114.6035958
  64.8280823  83.4396804 115.8899425  74.3748445  93.9584033 108.4340262
  73.5977888  93.6195193 107.9895424  75.0539926  93.9636656 107.7595227
  69.1900474  89.0778771 108.3246870  68.8850609  89.3924920 109.1757013
  70.1430916  89.1560191 108.3674203  67.6346906  95.2368994 109.9739824
  67.1068267  94.5021754 109.6613061  67.1334408  96.0143670 109.7279792
  62.3665633  85.8988660 112.3346436  62.9409385  85.6763842 111.6019628
  62.9536616  85.9677355 113.0875037  71.4245211  91.7862387 113.1410812
  71.9377092  92.4192379 113.6432522  72.0746434  91.1863583 112.7754172
  62.6935220  87.9293121 106.3542321  61.8572533  88.2667808 106.6751596
  62.5539990  87.7942101 105.4169458  64.6688301  82.7729909 111.0621505
  64.0152713  82.4578926 110.4378120  64.6268775  82.1505650 111.7881328
  65.7799506  93.0549204 102.9774797  64.8726568  92.8238458 103.1765946
  66.2770538  92.2586824 103.1648779  68.6867585 101.7646711 105.8971483
  68.0129284 102.0678408 106.5056441  69.0733407 102.5675792 105.5476940
  67.9026041  89.2611843 115.3869153  66.9848603  89.4826790 115.2290841
  68.3186185  89.3358153 114.5280860  68.6861089  90.6603258 110.5171833
  69.4332908  91.1724656 110.2078955  68.9552679  90.3387311 111.3776226
  66.9587739  93.1561799 107.4998787  66.0498959  92.8720832 107.5971257
  66.9882823  93.5760878 106.6402094  71.1339926  87.6960375 112.4990622
  70.3962683  87.1837761 112.8300865  71.3866700  87.2560756 111.6873899
  71.2351554  80.4736627 113.0932391  71.5410430  79.6133990 112.8058306
  71.9604158  81.0654247 112.8931385  57.5275910  90.8767313 111.4813989
  57.3300309  90.2836674 110.7565056  56.9722574  90.5719523 112.1989928
  65.5072633  90.7690420 113.6008582  65.5621243  89.8164256 113.5251059
  64.6963835  90.9249859 114.0849881  66.6563827  94.6970543 104.8386866
  66.2183257  93.9806402 104.3792503  67.3974268  94.9246658 104.2771957
  63.4464993  89.3867479 111.3598961  62.6332859  89.6861650 111.7664153
  63.9423987  88.9923168 112.0773444  74.7736942  92.9727740 110.8963184
  74.6354840  93.1629336 109.9684373  74.4173161  93.7347123 111.3531235
  62.9379068  86.9585835 116.9760196  63.5778447  86.8174594 116.2783160
  62.1056599  86.6720348 116.5998798  63.7139372  96.2588265 113.0895189
  64.5079970  95.7638586 112.8877764  63.0031064  95.7306129 112.7262894
  60.0222135  90.4031347 109.1654941  59.0919723  90.3415803 109.3824904
  60.1179607  89.8807300 108.3691583  59.9407684  86.9286160 111.7533183
  60.2014502  87.8431493 111.6442344  60.7624857  86.4610603 111.9029796
  61.4132610  88.3423917 118.9232008  62.0855663  88.1341279 118.2744657
  60.5862396  88.1446003 118.4837240  66.8858800 101.9326384 108.1118562
  67.0610556 101.4614427 108.9264185  66.1991588 102.5592150 108.3399823
  70.7775055  93.5554924 104.4318923  70.1604225  92.8301753 104.3351976
  70.3091543  94.3164285 104.0885998  62.5673601  87.7740349 103.5540228
  61.6903067  87.6529150 103.1902474  63.0431354  86.9826427 103.3019116
  54.0875741  92.5617508 113.6481735  54.7746781  92.2479239 113.0602750
  53.9323869  93.4658873 113.3748986  58.8910463  87.4507705 118.0766758
  58.8068652  86.8433375 117.3417168  58.0693169  87.9416723 118.0776255
  65.7537527 100.1266639 110.8002748  64.9705049 100.6688319 110.8940973
  66.4530272 100.6440619 111.1996989  69.0634177  85.9361269 113.4436953
  69.5602876  85.1831231 113.1238024  68.2921158  85.9725585 112.8780163
  70.1463957  94.6932956 111.0175377  69.2120236  94.8134418 110.8480081
  70.3240626  93.7905423 110.7535387  65.6469146  88.0778652 113.1708638
  65.2766933  87.5249692 113.8589544  66.1428238  87.4736785 112.6183638
  73.5336509  90.5350275 111.5525411  73.9996961  91.3678267 111.4785714
  73.9844009  90.0695257 112.2570670  71.6012740  96.8794096 108.5511563
  71.8772584  96.7650691 109.4605437  70.7317239  96.4811581 108.5123736
  71.5053172  82.9030862 115.5916312  70.5916251  83.1335089 115.7598519
  71.9346273  82.9869306 116.4430345  68.5708969 100.0548632 109.4559425
  69.0996736  99.5441087 108.8429587  68.8337189  99.7391163 110.3204958
  53.6643717  90.6418102 115.9199202  53.7027816  90.1081693 116.7136320
  53.1584010  90.1153307 115.3010179  61.0434479  85.4882642 119.4161744
  61.1075806  86.3497473 119.0039142  60.9801599  84.8756644 118.6834103
  57.2952294  89.3682204 108.9953133  57.5905736  88.4592882 108.9420187
  56.3940330  89.3469943 108.6734136  60.8246541  87.4438201 114.9780682
  60.1033127  88.0574168 114.8388155  61.6139797  87.9795965 114.8997328
  59.0240136  87.0496302 109.1192458  58.6952842  86.1693681 108.9367564
  59.3779507  86.9943970 110.0068848  62.1381959  87.3369271 109.4867936
  62.4778032  87.8655193 108.7646544  62.5854080  87.6749678 110.2626503
  64.8325400  85.7206322 118.9371004  64.4922220  84.9214135 119.3391684
  64.1264406  86.0208033 118.3647837  65.4841872  82.8055635 117.3898327
  66.3067941  82.3316113 117.2677217  65.7279935  83.5846118 117.8897013
  64.1250106  85.8343893 107.6861229  64.8458469  86.2125146 107.1824946
  63.5015410  86.5532770 107.7896207  68.2681229  86.5389042 108.6219561
  68.4844844  87.4213680 108.3208389  67.7875296  86.1475255 107.8925203
  63.0080451  89.4974755 115.1990306  62.8625031  89.8115058 116.0914587
  62.5305654  90.1159656 114.6461204  64.8676833  86.4877303 115.2471195
  64.8538402  85.5918397 114.9103493  65.5849262  86.4947967 115.8809481
  66.7202964  86.9214643 117.2924323  66.4620742  87.8431714 117.2908653
  66.1888005  86.5245078 117.9824787  57.4826113  92.0380100 118.1377967
  56.9379581  92.8139908 118.2698241  58.3605463  92.3850904 117.9797088
  64.2713729  85.3691684 110.5158765  64.3929641  84.4408330 110.7149653
  63.9815772  85.3830369 109.6037081  67.1404920  83.0546594 113.6525485
  67.1626617  83.1185927 112.6977465  67.5572979  82.2151103 113.8465991
  72.6524325  99.3432195 107.1711306  73.3475230  99.9638888 107.3898621
  72.9947476  98.4927546 107.4463684  74.5515749  96.7931900 108.6998637
  75.0767073  97.1319173 107.9747957  74.4638101  95.8578916 108.5161772
  58.7148748  99.0515425 113.0618518  59.5406768  98.7519196 112.6817162
  58.3642800  98.2823047 113.5108307  56.9157353  96.9701751 114.0207452
  56.0789262  96.5423925 113.8391453  56.8880999  97.1634194 114.9578243
  63.2443788  96.9545816 108.6074653  63.3931909  97.6381281 107.9541325
  64.0510232  96.9350906 109.1224108  60.9996421  92.9810994 109.6135721
  60.7542463  92.0773324 109.8115932  61.1692336  92.9828144 108.6715199
  68.6893131  83.8534670 118.9960477  69.2075075  84.5895697 118.6706966
  68.3348264  84.1598664 119.8307236  60.2692069  88.7139351 107.1121883
  59.5761314  88.7883706 106.4561919  60.0243821  87.9499695 107.6343400
  68.9405725  80.2734953 114.5161374  69.2207479  79.6058142 115.1421800
  69.7256332  80.4664048 114.0036038  66.7439194  99.4493947 106.0786400
  66.1713161 100.0684134 105.6256872  67.3171988  99.9993308 106.6126322
  69.9636454  99.7331097 107.2094982  70.8967127  99.6676658 107.4127858
  69.8759667 100.5687364 106.7509515  72.5924470  99.0496967 104.1698930
  72.5138102  98.7156831 105.0634688  73.4134137  99.5418735 104.1690402
  67.1285992  90.7854759 103.4202452  68.0745097  90.6560968 103.4890871
  66.7500237  90.0469421 103.8971881  73.1007877  82.4510765 113.3829344
  72.9032698  82.1425854 114.2672676  73.7107583  83.1772404 113.5127274
  65.3128910  88.7104736 103.3557338  64.4060365  88.4137848 103.4320051
  65.5904891  88.4134554 102.4891624  56.2306850  90.0311099 113.8056384
  55.9109634  89.1776407 113.5130758  55.6840278  90.2459677 114.5614351
  60.0086757  92.7473540 117.5225891  60.2272767  93.6790648 117.5413924
  60.4212531  92.3881515 118.3080694  66.9290975  83.2541625 109.5101579
  66.1191704  82.9088710 109.8856825  67.6175392  82.9449169 110.0989191
  68.8581524  82.3319672 111.1325876  69.4112562  82.7515126 111.7915899
  69.0951610  81.4055420 111.1748832  64.0827694  85.5691671 103.4969317
  64.9446858  85.8946569 103.7565134  64.2678038  84.7823167 102.9842383
  56.0995110  93.6514011 115.7749506  55.4058581  93.2367963 115.2619460
  56.8468101  93.6934547 115.1782925  72.2360331  84.4420197 110.6404540
  71.6559000  85.1005001 110.2582592  71.9696263  83.6197542 110.2291957
  70.6863897  83.8425255 112.8425860  71.1863675  83.9541790 112.0340179
  71.3299505  83.5386308 113.4826669  58.0131852  93.5832264 113.6515521
  57.9902541  93.6819952 112.6997404  58.3232489  94.4297415 113.9732687
  71.0185209  86.6020288 109.6960888  70.1311064  86.8869938 109.4781083
  71.4339198  86.4414051 108.8488165  74.3699745  86.6266809 113.4115227
  75.1460135  87.1163261 113.6839844  73.6447879  87.0524863 113.8687097
  76.8072303  87.3394428 114.4689168  77.4016794  87.0990164 113.7582476
  76.8798887  86.6201559 115.0962704  70.1628422  96.3664963 103.7908908
  70.8664272  96.5714965 104.4066564  69.4391071  96.9341724 104.0557992
  70.9926232  92.1174824 109.9111178  70.9361434  92.5743375 109.0718811
  71.5454575  91.3565508 109.7334021  74.8031038  87.9064556 110.7361298
  74.5467973  87.5061191 111.5669506  74.1783906  88.6208350 110.6111437
  72.0715120  96.8047492 105.8407368  72.9060723  96.3728690 105.6584843
  71.9099462  96.6329505 106.7684263  71.7261012  93.3079605 107.2063708
  71.6709816  93.1423876 106.2652152  71.1007067  94.0155638 107.3625897
  56.5153527  88.5447669 121.0325130  57.1612390  88.0346623 121.5212355
  56.3070678  89.2816351 121.6068555  65.0357137  82.8087714 106.7849026
  65.0235807  83.7529554 106.9417297  65.9280559  82.6257859 106.4908487
  68.8509257  79.4030491 111.0394963  68.0841652  78.8488977 111.1851645
  69.2619962  79.4752359 111.9009114  73.5328975 103.2585039 106.3542321
  72.6966287 103.5959726 106.6751596  73.3933745 103.1234019 105.4169458
  73.4067355 103.1032266 103.5540228  72.5296821 102.9821067 103.1902474
  73.8825108 102.3118345 103.3019116  71.1085823 104.0431269 107.1121883
  70.4155068 104.1175624 106.4561919  70.8637575 103.2791613 107.6343400
  76.1522664 104.0396653 103.3557338  75.2454119 103.7429766 103.4320051
  76.4298645 103.7426472 102.4891624  74.9221449 100.8983589 103.4969317
  75.7840613 101.2238487 103.7565134  75.1071793 100.1115085 102.9842383
  75.8750892  98.1379632 106.7849026  75.8629562  99.0821472 106.9417297
  76.7674314  97.9549777 106.4908487  25.3292568  17.4541163  92.6216790
  24.6554267  17.7572860  93.2301748  25.7158390  18.2570244  92.2722247
  27.4200038   9.2449376  91.1564230  26.8029209   8.5196205  91.0597283
  26.9516526  10.0058737  90.8131304  29.2949309  15.0326647  93.8956613
  29.9900213  15.6533340  94.1143928  29.6372459  14.1821998  94.1708991
  23.3864177  15.1388399  92.8031707  22.8138144  15.7578586  92.3502179
  23.9596971  15.6887760  93.3371629  26.6061437  15.4225549  93.9340289
  27.5392110  15.3571110  94.1373164  26.5184650  16.2581816  93.4754822
  29.2349454  14.7391419  90.8944236  29.1563085  14.4051283  91.7879994
  30.0559120  15.2313187  90.8935709  26.8053405  12.0559414  90.5154215
  27.5089256  12.2609417  91.1311870  26.0816054  12.6236176  90.7803298
  28.7140103  12.4941944  92.5652675  29.5485707  12.0623142  92.3830150
  28.5524446  12.3223957  93.4929569  37.3424378  23.0111595 102.6607852
  37.9802788  22.8918342 101.9571192  37.2245221  23.9592439 102.7195804
  34.1514084  22.9639023 102.5969376  33.8132596  22.8480088 101.7089911
  35.0203852  22.5630188 102.5770382  30.0100900  24.8174499  98.5866267
  29.4465765  24.7264436  97.8182555  29.8953295  23.9974404  99.0668760
  35.5900459  28.4845467  93.8980732  34.9388438  29.0699547  93.5114746
  36.3844821  29.0151662  93.9575770  29.5156086  25.5734604  94.2967867
  30.2886962  25.0263591  94.1580742  29.8681485  26.4378853  94.5082328
  31.8522364  21.7327270  91.9286316  32.1047884  21.2108791  91.1669779
  30.9146923  21.5693416  92.0313000  36.8965646  20.7363049  99.7361060
  37.6828736  20.3182472  99.3851477  37.1604351  21.6409141  99.9042708
  37.0675724  26.1735899  94.4349716  36.4321557  26.2470525  95.1470621
  36.7373130  26.7629498  93.7568796  42.2974074  20.6738282 100.6394038
  43.0299246  20.1037499 100.8731868  41.5413429  20.2859882 101.0800544
  31.5718652  23.6355376  94.1310691  31.4554910  22.9600280  94.7991776
  31.6820912  23.1487750  93.3142844  33.9150193  23.0965523  97.8357381
  33.5508401  22.5696144  98.5470302  34.7717309  22.7063992  97.6623866
  33.5555680  18.1255423  92.8318729  33.7230083  18.9935659  93.1989200
  33.3652849  18.2882705  91.9080018  36.3131013  26.5872402 104.4984559
  36.0131737  27.4897441 104.3900367  35.9682073  26.3204585 105.3505712
  39.7128157  19.1054942 102.1781997  38.8045035  19.0370350 101.8840758
  39.6615753  19.5826887 103.0063822  33.5344901  20.5813080  93.8165396
  33.4144526  21.0270131  94.6550876  32.8397490  20.9298398  93.2578934
  31.2951793  33.3516722  97.4655527  31.2175823  34.3024547  97.5444008
  30.6913437  33.0062595  98.1230453  39.2329967  21.0534554  94.6445730
  40.1447823  21.2861940  94.4693428  38.7239614  21.6371598  94.0820809
  37.8399550  26.0360372 102.0359311  37.2108412  26.2006086 101.3335379
  37.4525212  26.4501982 102.8070275  41.7188782  26.9714810  99.3903675
  41.0339820  27.3513711  98.8400709  41.8032631  27.5810137 100.1235623
  33.3927511  25.7734780  99.3009397  33.8565857  26.0522483  98.5114019
  33.1284310  24.8718225  99.1182487  32.3296398  21.8957933  96.1098962
  33.0320441  22.3478976  96.5772888  31.9977026  21.2541751  96.7378855
  40.0885541  27.4946724 104.1621376  40.9102985  27.0926912 103.8804058
  40.0847944  27.3914959 105.1137492  48.1791534  23.8385473 100.5106348
  47.4255242  23.2692871 100.3550352  48.3139075  23.8048137 101.4576982
  33.5690162  28.7098875  96.1861067  33.4335837  29.5550411  96.6145915
  34.1099975  28.9118153  95.4227001  27.0219560  26.2274313  96.7588992
  27.5344080  27.0217563  96.9094557  27.6742272  25.5300604  96.6922593
  28.8314444  29.3440069  98.8411745  29.0081073  30.2658034  98.6532729
  29.6271278  29.0298489  99.2706125  29.9545760  30.8618243 104.8422088
  30.5053185  30.7335307 104.0699081  29.1157236  31.1613132 104.4916980
  24.9868476  24.5562968  97.5348563  25.8243698  24.9659976  97.3182270
  25.1646744  23.6162410  97.5048756  36.8832908  22.2238048  93.2232395
  36.3679532  22.9942653  93.4620783  36.6110217  21.5503184  93.8465457
  34.4680019  17.0687749  98.2817634  33.6121616  16.6794599  98.1023273
  34.8806971  17.1479710  97.4217419  41.8567183  24.9770403  95.1585569
  41.0796625  24.6381562  94.7140731  42.5358664  24.9823026  94.4840534
  36.6719212  20.0965140  95.0492177  36.3669347  20.4111289  95.9002320
  37.6249654  20.1746560  95.0919510  35.1165643  26.2555364  96.6985131
  34.5887005  25.5208123  96.3858368  34.6153146  27.0330040  96.4525099
  40.0958489  24.4504384 101.8152177  39.4382164  25.1403645 101.9032306
  40.8998889  24.8400816 102.1586163  38.9063948  22.8048757  99.8656119
  39.4195830  23.4378749 100.3677828  39.5565172  22.2049952  99.4999479
  30.1753958  18.9479491  93.0787627  29.3391270  19.2854177  93.3996902
  30.0358728  18.8128471  92.1414764  33.2618244  24.0735574  89.7020104
  32.3545305  23.8424827  89.9011253  33.7589276  23.2773193  89.8894085
  36.1686323  32.7833081  92.6216790  35.4948021  33.0864778  93.2301748
  36.5552144  33.5862161  92.2722247  36.1679827  21.6789628  97.2417139
  36.9151646  22.1911025  96.9324262  36.4371416  21.3573681  98.1021533
  34.4406477  24.1748169  94.2244094  33.5317696  23.8907202  94.3216564
  34.4701561  24.5947247  93.3647401  39.6725744  27.7854758  97.9935261
  39.2188072  26.9445668  98.0500452  39.0419711  28.4216157  98.3310041
  38.6158664  18.7146744  99.2235929  37.8781421  18.2024130  99.5546171
  38.8685438  18.2747126  98.4119206  38.1158684  29.6231255  98.9285079
  38.4081658  30.1836312  98.2097445  38.6257304  29.9159816  99.6838239
  32.9891371  21.7876789 100.3253889  33.0439981  20.8350626 100.2496366
  32.1782573  21.9436228 100.8095188  34.1382565  25.7156912  91.5632172
  33.7001995  24.9992771  91.1037810  34.8793006  25.9433027  91.0017264
  30.9283731  20.4053849  98.0844268  30.1151597  20.7048020  98.4909460
  31.4242725  20.0109538  98.8018750  33.0792309  30.4011606 100.0178533
  33.0368488  30.6272452  99.0887065  33.9955008  30.1674981 100.1664334
  42.2555680  23.9914109  97.6208491  42.1173578  24.1815705  96.6929680
  41.8991898  24.7533492  98.0776542  42.2825059  26.0590636 102.6319762
  42.7161566  25.9665926 103.4802816  42.9956640  26.0348137 101.9939778
  31.1958110  27.2774635  99.8140495  31.9898708  26.7824955  99.6123070
  30.4849802  26.7492498  99.4508201  36.0152954  29.6592731 104.1652863
  36.0689976  30.2283667 104.9330579  35.1467736  29.8294616 103.8006900
  27.5040873  21.4217717  95.8900248  26.5738461  21.3602172  96.1070210
  27.5998345  20.8993669  95.0936889  43.1440609  26.1014337 105.1652648
  43.3376499  27.0060148 105.4111923  43.0441227  25.6421756 105.9991233
  33.7729386  27.8503657 103.4938333  33.6340471  27.4822441 104.3664271
  32.9843982  28.3651296 103.3222290  34.3677538  32.9512753  94.8363869
  34.5429293  32.4800797  95.6509492  33.6810326  33.5778520  95.0645130
  35.3234601  27.2285260 100.8827170  34.9884433  27.1886030 101.7784820
  34.8238547  26.5629976 100.4097581  38.2593792  24.5741294  91.1564230
  37.6422963  23.8488122  91.0597283  37.7910281  25.3350654  90.8131304
  28.9338623  36.1002116 101.6103729  29.1735221  36.7320640 102.2882748
  28.0907819  35.7490156 101.8969088  30.0492338  18.7926718  90.2785534
  29.1721805  18.6715519  89.9147781  30.5250091  18.0012797  90.0264423
  33.4466485  31.9081239 104.0145233  33.3736656  32.7136210 104.5264538
  33.0043878  32.1073204 103.1893255  33.2356264  31.1453009  97.5248055
  32.4523786  31.6874689  97.6186279  33.9349010  31.6626988  97.9242296
  36.5452915  16.9547638 100.1682260  37.0421614  16.2017600  99.8483330
  35.7739896  16.9911955  99.6025469  44.3982672  22.6588004 101.8100552
  44.3872548  23.5412719 101.4394485  43.5300051  22.3059555 101.6155089
  35.9065168  31.8068073 106.1703392  36.6193141  32.4415538 106.0979293
  35.4155197  31.9031939 105.3543394  37.6282695  25.7119325  97.7420684
  36.6938974  25.8320788  97.5725388  37.8059364  24.8091792  97.4780693
  41.0155247  21.5536645  98.2770718  41.4815699  22.3864636  98.2031020
  41.4662747  21.0881626  98.9815976  39.0831478  27.8980466  95.2756870
  39.3591322  27.7837061  96.1850744  38.2135976  27.4997951  95.2369043
  35.7185542  32.1466817  98.9189683  35.9007936  31.3288473  99.3817436
  36.5418528  32.3634509  98.4814573  36.0527707  31.0735002  96.1804732
  36.5815474  30.5627457  95.5674894  36.3155927  30.7577532  97.0450265
  29.4083455  32.1250119  98.9402508  28.7393830  32.6096246  98.4566548
  29.2696325  32.3719339  99.8545886  33.5488724  34.1593862 105.5385166
  34.1007032  34.3225484 106.3034251  33.8894917  34.7498300 104.8665191
  24.7771032  20.3868574  95.7198440  25.0724473  19.4779252  95.6665494
  23.8759068  20.3656313  95.3979442  36.6857111  32.1075838 102.5248848
  36.5608250  31.3065577 102.0159794  37.3436202  32.6022031 102.0362818
  38.7492019  29.9084858 104.1528398  37.8022355  29.7890209 104.0806725
  39.0974793  29.0207356 104.2354660  26.5058874  18.0682671  95.8437765
  26.1771580  17.1880050  95.6612871  26.8598245  18.0130340  96.7314154
  35.7538453  29.7037574 100.3532751  35.6063415  28.7754281 100.5340321
  36.5791946  29.7257665  99.8689826  29.6200697  18.3555641  96.2113243
  29.9596769  18.8841562  95.4891851  30.0672817  18.6936047  96.9871809
  39.3572575  30.5266133 101.4397623  40.2819122  30.3208994 101.3022074
  39.1887878  30.2782534 102.3486965  31.6068844  16.8530263  94.4106535
  32.3277207  17.2311515  93.9070252  30.9834148  17.5719139  94.5141513
  35.7499967  17.5575412  95.3464868  35.9663581  18.4400049  95.0453696
  35.2694034  17.1661625  94.6170510  39.1467891  31.0451800  96.7959715
  39.3204768  30.4798223  96.0433567  39.6396782  31.8452695  96.6139205
  31.7532467  16.3878053  97.2404072  31.8748378  15.4594699  97.4394960
  31.4634510  16.4016739  96.3282388  45.0007282  23.8088223  98.4150015
  45.4438428  23.0595548  98.0169138  44.1233792  23.7998359  98.0323746
  40.1343063  30.3618565  93.8956613  40.8293968  30.9825257  94.1143928
  40.4766213  29.5113916  94.1708991  42.0334486  27.8118270  95.4243944
  42.5585810  28.1505543  94.6993264  41.9456839  26.8765285  95.2407078
  33.7175147  33.8790253  99.7839197  33.2780137  33.3866632 100.4772054
  34.4683264  33.3363221  99.5431272  26.1967486  30.0701794  99.7863825
  27.0225506  29.7705566  99.4062469  25.8461538  29.3009417 100.2353614
  31.1649019  29.4228262 101.8561499  30.5429029  28.7598967 101.5563727
  31.8353886  29.4489394 101.1735146  24.3976091  27.9888121 100.7452759
  23.5607999  27.5610295 100.5636760  24.3699737  28.1820564 101.6823550
  30.7262526  27.9732186  95.3319959  30.8750647  28.6567650  94.6786632
  31.5328970  27.9537276  95.8469415  43.3444464  27.7140582 108.2869892
  43.0529273  28.0770562 109.1233353  42.7316596  27.0007590 108.1083224
  44.5440147  25.2793461 100.8072462  45.3787038  25.7183265 100.9710022
  44.6799275  24.8032115  99.9880708  28.4815159  23.9997363  96.3381028
  28.2361201  23.0959693  96.5361238  28.6511074  24.0014514  95.3960506
  27.7510807  19.7325721  93.8367190  27.0580052  19.8070076  93.1807226
  27.5062559  18.9686065  94.3588707  34.2257932  30.4680316  92.8031707
  33.6531899  31.0870503  92.3502179  34.7990725  31.0179678  93.3371629
  37.4455191  30.7517466  93.9340289  38.3785865  30.6863028  94.1373164
  37.3578404  31.5873733  93.4754822  40.0743208  30.0683337  90.8944236
  39.9956840  29.7343200  91.7879994  40.8952875  30.5605105  90.8935709
  42.7721399  22.9345076 104.1020555  42.7397719  21.9961077 104.2880239
  43.3822023  23.0129113 103.3686380  34.6104730  21.8041129  90.1447759
  35.5563835  21.6747337  90.2136177  34.2318975  21.0655791  90.6217187
  48.5897949  23.9961083 103.2426592  49.3201338  23.7346371 103.8034295
  47.9804895  23.2589805 103.2828660  46.6713246  22.1368945 103.8401043
  45.9446410  22.0024910 103.2317535  46.2560533  22.4445774 104.6457761
  32.7947647  19.7291105  90.0802644  31.8879103  19.4324218  90.1565358
  33.0723628  19.4320923  89.2136931  34.4109713  14.2727995  96.2346886
  33.6010441  13.9275080  96.6102132  35.0994130  13.9635539  96.8234497
  31.5646432  16.5878041  90.2214624  32.4265596  16.9132939  90.4810441
  31.7496776  15.8009536  89.7087689  39.7179068  15.4606567  97.3649847
  39.1377738  16.1191371  96.9827899  39.4515001  14.6383912  96.9537264
  38.5003946  17.6206657  96.4206195  37.6129801  17.9056308  96.2026390
  38.9157936  17.4600421  95.5733472  41.8518483  17.6453178 100.1360534
  42.6278873  18.1349631 100.4085151  41.1266617  18.0711233 100.5932404
  44.2891041  18.3580798 101.1934475  44.8835532  18.1176534 100.4827783
  44.3617625  17.6387928 101.8208011  26.5088197  32.2014409 101.5077640
  26.3742665  31.4414809 100.9415638  26.0920259  32.9255308 101.0406428
  37.6447160  27.3851332  90.5154215  38.3483010  27.5901335  91.1311870
  36.9209809  27.9528094  90.7803298  38.4744970  23.1361193  96.6356485
  38.4180172  23.5929745  95.7964117  39.0273313  22.3751878  96.4579328
  42.2849776  18.9250925  97.4606604  42.0286710  18.5247561  98.2914812
  41.6602644  19.6394719  97.3356744  46.5962114  21.6646998  99.9677896
  46.0361672  21.7340188 100.7409458  45.9905617  21.4887983  99.2477392
  29.6657323  33.0983726 101.7196082  29.5489707  34.0429158 101.6174772
  28.8449769  32.7957287 102.1081881  39.5533857  27.8233861  92.5652675
  40.3879461  27.3915060  92.3830150  39.3918200  27.6515875  93.4929569
  39.2079750  24.3265975  93.9309014  39.1528553  24.1610246  92.9897458
  38.5825805  25.0342008  94.0871204  32.5175875  13.8274084  93.5094333
  32.5054545  14.7715924  93.6662603  33.4099297  13.6444229  93.2153794
  30.6911837  33.7511987 104.9352011  31.5939084  33.7835598 105.2518506
  30.4649207  32.8212438 104.9498346  32.4465439  32.5042974 101.5962089
  31.4961070  32.5044836 101.4826461  32.7497925  31.7575709 101.0798124
  48.1818132  38.3403512 102.6607852  48.8196542  38.2210260 101.9571192
  48.0638975  39.2884356 102.7195804  44.9907839  38.2930941 102.5969376
  44.6526350  38.1772005 101.7089911  45.8597607  37.8922106 102.5770382
  40.8494654  40.1466417  98.5866267  40.2859520  40.0556354  97.8182555
  40.7347049  39.3266321  99.0668760  45.4727622  39.4465792 108.5555582
  45.4616262  39.0518591 107.6836085  45.6348261  38.7131865 109.1489353
  38.3959086  41.6417609 101.4250488  39.1880378  41.3008433 101.0096787
  38.6355737  41.7512584 102.3452641  46.4294213  43.8137385  93.8980732
  45.7782193  44.3991465  93.5114746  47.2238576  44.3443580  93.9575770
  40.3549840  40.9026522  94.2967867  41.1280716  40.3555509  94.1580742
  40.7075239  41.7670771  94.5082328  42.1934883  42.2302904 107.5034766
  41.9024749  43.1348535 107.3881432  42.8291867  42.2719432 108.2178835
  43.1191090  39.6079753 104.0936125  43.7154662  39.3835775 103.3793088
  43.1766061  38.8664498 104.6961573  42.6916118  37.0619188  91.9286316
  42.9441639  36.5400709  91.1669779  41.7540677  36.8985333  92.0313000
  47.7359401  36.0654966  99.7361060  48.5222490  35.6474389  99.3851477
  47.9998105  36.9701058  99.9042708  47.9069478  41.5027817  94.4349716
  47.2715311  41.5762443  95.1470621  47.5766885  42.0921415  93.7568796
  53.1367828  36.0030199 100.6394038  53.8693000  35.4329416 100.8731868
  52.3807184  35.6151800 101.0800544  42.4112407  38.9647294  94.1310691
  42.2948665  38.2892197  94.7991776  42.5214667  38.4779668  93.3142844
  44.7543948  38.4257441  97.8357381  44.3902155  37.8988062  98.5470302
  45.6111064  38.0355910  97.6623866  50.6593248  29.7151774 105.0988647
  50.3276573  30.5847185 104.8749862  50.0638862  29.3988058 105.7782677
  44.3949435  33.4547341  92.8318729  44.5623837  34.3227577  93.1989200
  44.2046604  33.6174622  91.9080018  47.1524768  41.9164320 104.4984559
  46.8525491  42.8189358 104.3900367  46.8075827  41.6496503 105.3505712
  40.6037249  38.3678116 100.5321264  39.6787746  38.2354330 100.7398956
  40.8521663  39.1472336 101.0291206  50.5521912  34.4346860 102.1781997
  49.6438789  34.3662268 101.8840758  50.5009508  34.9118805 103.0063822
  44.3738656  35.9104998  93.8165396  44.2538281  36.3562049  94.6550876
  43.6791244  36.2590316  93.2578934  37.9646060  38.0111390 101.3665053
  38.0938442  38.2645869 102.2804465  37.2843512  38.6039098 101.0469708
  42.1345548  48.6808640  97.4655527  42.0569577  49.6316465  97.5444008
  41.5307191  48.3354512  98.1230453  44.6262777  35.8536505 110.1216894
  43.8496112  36.4130425 110.1119759  45.2653341  36.3393288 110.6431764
  52.4183558  32.6363298 103.9559871  51.7757938  32.9295831 103.3099665
  51.9138487  32.5216218 104.7613067  50.0723722  36.3826471  94.6445730
  50.9841578  36.6153858  94.4693428  49.5633369  36.9663516  94.0820809
  42.8809150  38.6621959 109.6834861  43.6223834  39.2007003 109.4069685
  42.1746135  39.2888247 109.8406413  48.3564489  40.8051099 108.2807023
  48.7647845  40.3633510 107.5361655  47.6341751  40.2303727 108.5341215
  44.7095559  35.7423706 105.6540580  45.5556755  36.1663119 105.7975229
  44.6494197  35.0857330 106.3479143  48.6793304  41.3652290 102.0359311
  48.0502167  41.5298004 101.3335379  48.2918966  41.7793899 102.8070275
  52.5582536  42.3006728  99.3903675  51.8733574  42.6805629  98.8400709
  52.6426385  42.9102054 100.1235623  47.8595005  33.4028074 107.3121753
  47.6155937  34.1570135 106.7756029  48.1354935  33.7813422 108.1469000
  49.8133468  39.9466687 105.9899019  50.0250363  40.5898447 105.3133400
  49.7663216  39.1129003 105.5220949  47.4159697  32.5584507 102.8935591
  46.5544176  32.8565761 103.1852328  47.4422131  32.7754906 101.9616624
  44.2321266  41.1026698  99.3009397  44.6959612  41.3814401  98.5114019
  43.9678064  40.2010142  99.1182487  41.1245347  40.6498179 102.2389160
  41.6946704  41.0785448 101.6006644  41.7153459  40.3680764 102.9373345
  43.1690152  37.2249850  96.1098962  43.8714195  37.6770894  96.5772888
  42.8370781  36.5833669  96.7378855  41.6170514  35.8161607 110.4850171
  40.9869174  36.4977888 110.7185568  41.5106601  35.7044688 109.5403309
  36.9115486  35.4833403 101.4116095  36.1214540  35.7390931 100.9356206
  37.4026733  36.2981741 101.5168136  50.9279296  42.8238642 104.1621376
  51.7496739  42.4218829 103.8804058  50.9241698  42.7206876 105.1137492
  38.8630231  35.8477982  98.3699572  38.0661395  35.9596676  98.8883068
  38.6355824  36.1864634  97.5040462  44.6935899  42.3722685 106.3182087
  44.7580332  42.8343093 107.1540258  43.9846823  41.7420050 106.4464396
  35.1953189  35.7363893 103.8431086  35.4461227  36.6210903 104.1088662
  35.7312737  35.5568495 103.0706178  59.0185289  39.1677391 100.5106348
  58.2648997  38.5984789 100.3550352  59.1532830  39.1340055 101.4576982
  44.4083917  44.0390793  96.1861067  44.2729591  44.8842329  96.6145915
  44.9493729  44.2410070  95.4227001  37.8613314  41.5566231  96.7588992
  38.3737835  42.3509481  96.9094557  38.5136027  40.8592521  96.6922593
  39.6708199  44.6731987  98.8411745  39.8474827  45.5949952  98.6532729
  40.4665032  44.3590406  99.2706125  43.8119217  31.5340252 110.4395679
  44.5528931  32.1347405 110.3600141  44.0437140  30.7917890 109.8813721
  38.9560555  36.7196619 108.7173908  38.8414070  35.8181876 109.0181007
  38.1005073  36.9660316 108.3658725  46.0352393  44.6614359 110.3161409
  45.5916247  43.8750738 109.9982313  46.6969607  44.8493510 109.6505300
  40.7939514  46.1910161 104.8422088  41.3446939  46.0627224 104.0699081
  39.9550990  46.4905050 104.4916980  48.1333631  44.9417159 108.3442810
  48.1152106  45.7626040 107.8523079  49.0553551  44.8171235 108.5692951
  44.5906685  42.4561289 109.1866319  45.1235022  41.6949577 108.9565627
  44.0620766  42.1634941 109.9290473  47.7576380  27.5621355 104.7159960
  47.4140650  28.4522996 104.6399071  48.1255343  27.3723012 103.8529545
  35.8262231  39.8854885  97.5348563  36.6637453  40.2951894  97.3182270
  36.0040499  38.9454327  97.5048756  47.7226663  37.5529966  93.2232395
  47.2073286  38.3234570  93.4620783  47.4503971  36.8795102  93.8465457
  45.3073774  32.3979667  98.2817634  44.4515370  32.0086517  98.1023273
  45.7200726  32.4771627  97.4217419  46.8372921  29.9326010 102.6809194
  46.3337716  29.8956145 101.8676999  47.1303527  30.8418753 102.7405850
  43.0815806  30.0164740 101.6875375  43.9468803  29.8207548 101.3281265
  43.1493315  29.7875091 102.6144732  52.6960937  40.3062320  95.1585569
  51.9190380  39.9673480  94.7140731  53.3752418  40.3114944  94.4840534
  47.5112966  35.4257058  95.0492177  47.2063102  35.7403207  95.9002320
  48.4643408  35.5038478  95.0919510  45.9559398  41.5847281  96.6985131
  45.4280760  40.8500041  96.3858368  45.4546901  42.3621958  96.4525099
  50.9352244  39.7796302 101.8152177  50.2775918  40.4695563 101.9032306
  51.7392643  40.1692734 102.1586163  40.6878126  32.2466948  99.0591742
  41.2621877  32.0242129  98.3264935  41.2749108  32.3155642  99.8120343
  49.7457703  38.1340674  99.8656119  50.2589585  38.7670666 100.3677828
  50.3958927  37.5341870  99.4999479  41.0147713  34.2771409  93.0787627
  40.1785025  34.6146095  93.3996902  40.8752482  34.1420388  92.1414764
  42.9900793  29.1208196  97.7866812  42.3365206  28.8057214  97.1623426
  42.9481267  28.4983937  98.5126635  44.1011998  39.4027492  89.7020104
  43.1939060  39.1716745  89.9011253  44.5983030  38.6065111  89.8894085
  47.0080077  48.1124999  92.6216790  46.3341776  48.4156695  93.2301748
  47.3945899  48.9154079  92.2722247  46.2238534  35.6090130 102.1114459
  45.3061095  35.8305077 101.9536147  46.6398677  35.6836440 101.2526167
  47.0073581  37.0081546  97.2417139  47.7545400  37.5202943  96.9324262
  47.2765171  36.6865598  98.1021533  45.2800232  39.5040086  94.2244094
  44.3711451  39.2199119  94.3216564  45.3095315  39.9239165  93.3647401
  50.5119499  43.1146676  97.9935261  50.0581826  42.2737586  98.0500452
  49.8813466  43.7508074  98.3310041  49.4552419  34.0438662  99.2235929
  48.7175175  33.5316048  99.5546171  49.7079192  33.6039044  98.4119206
  48.9552438  44.9523173  98.9285079  49.2475413  45.5128230  98.2097445
  49.4651059  45.2451734  99.6838239  49.5564046  26.8214914  99.8177698
  49.8622923  25.9612277  99.5303613  50.2816651  27.4132534  99.6176692
  35.8488402  37.2245601  98.2059296  35.6512802  36.6314961  97.4810363
  35.2935066  36.9197811  98.9235235  43.8285126  37.1168707 100.3253889
  43.8833735  36.1642543 100.2496366  43.0176328  37.2728146 100.8095188
  44.9776319  41.0448830  91.5632172  44.5395749  40.3284689  91.1037810
  45.7186760  41.2724945  91.0017264  41.7677486  35.7345767  98.0844268
  40.9545351  36.0339937  98.4909460  42.2636480  35.3401456  98.8018750
  43.9186063  45.7303524 100.0178533  43.8762242  45.9564370  99.0887065
  44.8348762  45.4966898 100.1664334  47.3651697  36.1987591 106.9159162
  47.7201085  36.4259064 107.7753628  48.0123828  36.5305968 106.2936417
  53.0949434  39.3206027  97.6208491  52.9567333  39.5107623  96.6929680
  52.7385653  40.0825410  98.0776542  41.2591560  33.3064122 103.7005503
  41.8990940  33.1652881 103.0028466  40.4269091  33.0198636 103.3244105
  53.1218814  41.3882554 102.6319762  53.5555320  41.2957843 103.4802816
  53.8350394  41.3640055 101.9939778  42.0351864  42.6066553  99.8140495
  42.8292463  42.1116873  99.6123070  41.3243557  42.0784416  99.4508201
  46.8546709  44.9884648 104.1652863  46.9083731  45.5575585 104.9330579
  45.9861490  45.1586533 103.8006900  38.3434628  36.7509634  95.8900248
  37.4132216  36.6894090  96.1070210  38.4392100  36.2285587  95.0936889
  38.2620177  33.2764447  98.4778490  38.5226994  34.1909780  98.3687650
  39.0837349  32.8088890  98.6275103  39.7345102  34.6902204 105.6477314
  40.4068155  34.4819567 104.9989963  38.9074889  34.4924290 105.2082547
  53.9834363  41.4306255 105.1652648  54.1770253  42.3352065 105.4111923
  53.8834981  40.9713674 105.9991233  45.6370674  31.3164145 107.6642975
  44.9898589  32.0154095 107.5707452  46.4071689  31.7500289 108.0319223
  49.0449472  41.5812998 110.7393528  48.8934978  41.3523549 109.8223612
  49.0354151  42.5383599 110.7524873  45.8134808  39.1544910 105.7239795
  46.7426868  39.3056070 105.5508762  45.3925838  39.2428931 104.8688441
  44.6123140  43.1795575 103.4938333  44.4734226  42.8114359 104.3664271
  43.8237736  43.6943214 103.3222290  45.2071292  48.2804671  94.8363869
  45.3823048  47.8092714  95.6509492  44.5204080  48.9070437  95.0645130
  46.1628355  42.5577177 100.8827170  45.8278188  42.5177947 101.7784820
  45.6632301  41.8921893 100.4097581  40.1372599  37.9644807 106.4079751
  39.9992397  37.2325046 107.0091290  41.0477523  37.8753707 106.1263939
  49.0987547  39.9033212  91.1564230  48.4816718  39.1780040  91.0597283
  48.6304035  40.6642572  90.8131304  42.7654900  37.6764767 105.8963431
  43.4754518  37.0357959 105.8550050  42.7224208  37.9277662 106.8189612
  50.7541679  44.6132120 108.8170010  50.6954225  43.9291340 108.1500593
  51.1561197  45.3551110 108.3650636  41.4783834  34.6629985 107.7159071
  40.9421191  34.2120723 108.3680667  40.8900542  34.7975893 106.9729535
  40.8886093  34.1218636  90.2785534  40.0115559  34.0007437  89.9147781
  41.3643846  33.3304714  90.0264423  50.7559086  42.5771704 107.0483990
  49.8685865  42.2397626 107.1710389  51.3257637  41.8454735 107.2852755
  32.4088233  38.9095796 100.3727041  33.0959273  38.5957526  99.7848057
  32.2536362  39.8137160 100.0994293  37.2122955  33.7985992 104.8012065
  37.1281144  33.1911662 104.0662475  36.3905662  34.2895011 104.8021561
  44.2860239  47.2373156 104.0145233  44.2130411  48.0428128 104.5264538
  43.8437632  47.4365122 103.1893255  44.0750019  46.4744926  97.5248055
  43.2917541  47.0166607  97.6186279  44.7742764  46.9918906  97.9242296
  47.3846669  32.2839556 100.1682260  47.8815369  31.5309518  99.8483330
  46.6133651  32.3203872  99.6025469  55.2376426  37.9879921 101.8100552
  55.2266303  38.8704637 101.4394485  54.3693806  37.6351472 101.6155089
  46.7458923  47.1359990 106.1703392  47.4586895  47.7707455 106.0979293
  46.2548951  47.2323856 105.3543394  48.4676450  41.0411243  97.7420684
  47.5332728  41.1612706  97.5725388  48.6453118  40.1383710  97.4780693
  43.9681638  34.4256939  99.8953945  43.5979425  33.8727979 100.5834850
  44.4640730  33.8215072  99.3428945  51.8549001  36.8828562  98.2770718
  52.3209453  37.7156554  98.2031020  52.3056502  36.4173544  98.9815976
  41.7970836  44.8854434 106.9908963  42.4980296  45.5190917 107.1438357
  41.3265951  45.2269165 106.2304602  49.9225232  43.2272384  95.2756870
  50.1985076  43.1128978  96.1850744  49.0529731  42.8289868  95.2369043
  49.8265664  29.2509149 102.3161619  48.9128744  29.4813376 102.4843826
  50.2558765  29.3347593 103.1675651  49.5972122  37.4399041 104.8161513
  48.9443573  37.6874949 104.1613966  49.9752502  36.6263179 104.4823990
  46.5579296  47.4758734  98.9189683  46.7401691  46.6580390  99.3817436
  47.3812282  47.6926427  98.4814573  46.8921462  46.4026920  96.1804732
  47.4209228  45.8919374  95.5674894  47.1549681  46.0869450  97.0450265
  45.6459695  38.1818852 111.3027550  44.9700332  38.0812982 111.9729925
  46.4687329  38.0258066 111.7663547  37.3938554  44.4190789 103.9240065
  37.9791991  43.6734477 104.0567970  37.1963393  44.7294746 104.8076729
  40.2477210  47.4542036  98.9402508  39.5787585  47.9388164  98.4566548
  40.1090079  47.7011257  99.8545886  31.9856209  36.9896389 102.6444508
  32.0240309  36.4559980 103.4381627  31.4796502  36.4631595 102.0255486
  44.3882478  49.4885780 105.5385166  44.9400786  49.6517401 106.3034251
  44.7288672  50.0790218 104.8665191  39.3646971  31.8360930 106.1407051
  39.4288298  32.6975760 105.7284448  39.3014092  31.2234931 105.4079409
  38.8399244  33.9084062 109.7880085  39.4671283  33.5261139 110.4017609
  37.9827163  33.6898264 110.1535778  49.2393353  44.3147037 111.3933821
  49.7833257  44.9276996 110.8988775  48.6580197  44.8726616 111.9100834
  35.6164787  35.7160491  95.7198440  35.9118228  34.8071170  95.6665494
  34.7152823  35.6948231  95.3979442  47.5250866  47.4367755 102.5248848
  47.4002005  46.6357495 102.0159794  48.1829957  47.9313949 102.0362818
  39.1459034  33.7916488 101.7025988  38.4245619  34.4052456 101.5633462
  39.9352290  34.3274253 101.6242634  49.5885774  45.2376775 104.1528398
  48.6416109  45.1182127 104.0806725  49.9368547  44.3499273 104.2354660
  41.9485347  31.1270914 107.9766640  42.4719749  31.3733211 108.7392950
  41.7297681  31.9590949 107.5569778  37.3452628  33.3974589  95.8437765
  37.0165334  32.5171968  95.6612871  37.6991999  33.3422258  96.7314154
  46.5932207  45.0329492 100.3532751  46.4457170  44.1046199 100.5340321
  47.4185701  45.0549582  99.8689826  40.4594451  33.6847559  96.2113243
  40.7990524  34.2133480  95.4891851  40.9066572  34.0227965  96.9871809
  50.1966329  45.8558050 101.4397623  51.1212877  45.6500912 101.3022074
  50.0281632  45.6074452 102.3486965  43.1537892  32.0684609 105.6616311
  42.8134713  31.2692422 106.0636991  42.4476899  32.3686320 105.0893144
  43.8054364  29.1533922 104.1143634  44.6280433  28.6794400 103.9922524
  44.0492428  29.9324406 104.6142320  42.4462599  32.1822180  94.4106535
  43.1670961  32.5603433  93.9070252  41.8227903  32.9011057  94.5141513
  46.5893722  32.8867329  95.3464868  46.8057336  33.7691967  95.0453696
  46.1087789  32.4953543  94.6170510  41.3292943  35.8453042 101.9235612
  41.1837524  36.1593346 102.8159894  40.8518147  36.4637943 101.3706511
  43.1889326  32.8355590 101.9716502  43.1750895  31.9396684 101.6348800
  43.9061754  32.8426254 102.6054788  45.0415456  33.2692931 104.0169629
  44.7833234  34.1910001 104.0153960  44.5100497  32.8723365 104.7070094
  49.9861645  46.3743718  96.7959715  50.1598523  45.8090140  96.0433567
  50.4790536  47.1744613  96.6139205  35.8038605  38.3858387 104.8623274
  35.2592073  39.1618195 104.9943548  36.6817955  38.7329191 104.7042395
  42.5926222  31.7169971  97.2404072  42.7142133  30.7886617  97.4394960
  42.3028264  31.7308657  96.3282388  45.4617412  29.4024881 100.3770792
  45.4839109  29.4664214  99.4222771  45.8785471  28.5629390 100.5711298
  55.8401036  39.1380141  98.4150015  56.2832182  38.3887466  98.0169138
  54.9627547  39.1290277  98.0323746  50.9736818  45.6910482  93.8956613
  51.6687722  46.3117175  94.1143928  51.3159968  44.8405833  94.1708991
  36.5904627  37.5128283 107.7553430  35.8486363  37.6610919 108.3418061
  36.2697371  37.7736549 106.8920180  52.8728241  43.1410188  95.4243944
  53.3979565  43.4797460  94.6993264  52.7850593  42.2057203  95.2407078
  44.5348290  47.0544261 107.5533820  44.8435416  46.8093408 108.4256520
  45.3323772  47.2590900 107.0652691  44.5568902  49.2082171  99.7839197
  44.1173892  48.7158550 100.4772054  45.3077019  48.6655139  99.5431272
  37.0361241  45.3993712  99.7863825  37.8619260  45.0997484  99.4062469
  36.6855293  44.6301334 100.2353614  42.0042774  44.7520180 101.8561499
  41.3822783  44.0890885 101.5563727  42.6747641  44.7781312 101.1735146
  35.2369846  43.3180038 100.7452759  34.4001754  42.8902213 100.5636760
  35.2093491  43.5112482 101.6823550  42.0767301  33.2301968 111.4494005
  42.1255457  34.1064091 111.0671774  42.6189815  32.6879361 110.8765648
  52.5622147  43.7743091 110.7295142  51.7717691  43.7567230 110.1899641
  52.3255501  44.3131385 111.4844178  52.6820022  40.6235558 108.0427870
  52.7318027  40.4585565 108.9843393  52.5733945  39.7562817 107.6525751
  41.5656281  43.3024103  95.3319959  41.7144401  43.9859568  94.6786632
  42.3722724  43.2829194  95.8469415  49.9723784  36.6066486 109.3587177
  50.8733647  36.4672951 109.0671175  50.0471759  36.7720941 110.2985354
  44.3066590  33.9833341 108.2040363  43.4369899  34.2766907 107.9322952
  44.5426070  34.5673786 108.9247627  54.1838219  43.0432499 108.2869892
  53.8923027  43.4062480 109.1233353  53.5710350  42.3299508 108.1083224
  55.3833901  40.6085379 100.8072462  56.2180793  41.0475183 100.9710022
  55.5193030  40.1324032  99.9880708  52.4325407  38.1665114 106.7549950
  52.9079529  38.3592760 105.9468801  51.5090972  38.2224300 106.5093334
  39.3208914  39.3289281  96.3381028  39.0754956  38.4251611  96.5361238
  39.4904828  39.3306432  95.3960506  47.0105624  30.2012957 105.7205784
  47.5287567  30.9373984 105.3952272  46.6560756  30.5076951 106.5552543
  38.5904561  35.0617639  93.8367190  37.8973806  35.1361994  93.1807226
  38.3456313  34.2977982  94.3588707  47.2618218  26.6213240 101.2406680
  47.5419971  25.9536429 101.8667107  48.0468825  26.8142336 100.7281344
  45.0651686  45.7972234  92.8031707  44.4925653  46.4162421  92.3502179
  45.6384480  46.3471596  93.3371629  51.1327076  35.0430874 104.9878255
  52.0844499  35.1428972 105.0090479  50.9630526  34.2509143 105.4976340
  49.1541456  32.1286457 105.1737656  48.5591388  32.4091470 104.4784145
  48.8691152  32.6180358 105.9454397  48.2848946  46.0809384  93.9340289
  49.2179619  46.0154946  94.1373164  48.1972159  46.9165651  93.4754822
  50.9136963  45.3975254  90.8944236  50.8350594  45.0635118  91.7879994
  51.7346629  45.8897022  90.8935709  53.6115154  38.2636994 104.1020555
  53.5791474  37.3252994 104.2880239  54.2215777  38.3421030 103.3686380
  45.4498485  37.1333047  90.1447759  46.3957589  37.0039255  90.2136177
  45.0712730  36.3947709  90.6217187  53.7609642  35.0548037 104.1478838
  53.2448691  34.2706494 103.9608767  54.6449591  34.7266754 104.3125358
  51.4220369  28.7989053 100.1074651  51.2245190  28.4904141 100.9917983
  52.0320075  29.5250692 100.2372581  59.4291704  39.3253001 103.2426592
  60.1595092  39.0638289 103.8034295  58.8198649  38.5881722 103.2828660
  57.5107001  37.4660863 103.8401043  56.7840164  37.3316828 103.2317535
  57.0954288  37.7737692 104.6457761  45.3337177  41.1850793 111.6048416
  46.2540187  41.3629392 111.7988463  45.2986760  40.2406838 111.4528115
  43.6341402  35.0583023  90.0802644  42.7272857  34.7616136  90.1565358
  43.9117383  34.7612841  89.2136931  34.5519342  36.3789386 100.5301691
  34.2322127  35.5254695 100.2376065  34.0052770  36.5937965 101.2859658
  38.3299250  39.0951827 104.2471197  38.5485260  40.0268935 104.2659231
  38.7425024  38.7359802 105.0326001  45.2503468  29.6019913  96.2346886
  44.4404196  29.2566998  96.6102132  45.9387884  29.2927456  96.8234497
  47.1794016  28.6797960  97.8571182  47.7325054  29.0993413  98.5161205
  47.4164102  27.7533708  97.8994138  42.4040186  31.9169958  90.2214624
  43.2659350  32.2424857  90.4810441  42.5890531  31.1301454  89.7087689
  34.4207602  39.9992298 102.4994812  33.7271074  39.5846251 101.9864767
  35.1680593  40.0412834 101.9028231  50.5572823  30.7898485  97.3649847
  49.9771492  31.4483289  96.9827899  50.2908756  29.9675829  96.9537264
  49.0076389  30.1903542  99.5671167  49.5076168  30.3020077  98.7585486
  49.6511997  29.8864595 100.2071975  43.0658385  38.0982172 112.4539008
  42.5825467  38.8982532 112.6602897  43.1519324  38.1090117 111.5006452
  36.3344345  39.9310552 100.3760827  36.3115033  40.0298239  99.4242710
  36.6444981  40.7775703 100.6977993  38.9931723  41.9886707 104.4907442
  39.9474976  41.9570649 104.4237373  38.7944246  41.5277330 105.3057668
  39.5831105  40.5587823 107.0578239  40.4023994  41.0531901 107.0813077
  39.8567912  39.6419791 107.0295807  49.3397701  32.9498575  96.4206195
  48.4523556  33.2348226  96.2026390  49.7551690  32.7892338  95.5733472
  52.6912237  32.9745096 100.1360534  53.4672627  33.4641549 100.4085151
  51.9660371  33.4003150 100.5932404  55.1284796  33.6872715 101.1934475
  55.7229287  33.4468451 100.4827783  55.2011379  32.9679846 101.8208011
  37.3481951  47.5306326 101.5077640  37.2136419  46.7706727 100.9415638
  36.9314014  48.2547226 101.0406428  48.4840914  42.7143250  90.5154215
  49.1876765  42.9193252  91.1311870  47.7603563  43.2820012  90.7803298
  49.3138725  38.4653111  96.6356485  49.2573926  38.9221662  95.7964117
  49.8667067  37.7043796  96.4579328  53.1243531  34.2542843  97.4606604
  52.8680465  33.8539479  98.2914812  52.4996399  34.9686637  97.3356744
  57.4355868  36.9938916  99.9677896  56.8755426  37.0632105 100.7409458
  56.8299372  36.8179901  99.2477392  40.5051077  48.4275643 101.7196082
  40.3883461  49.3721076 101.6174772  39.6843524  48.1249205 102.1081881
  50.3927612  43.1525779  92.5652675  51.2273216  42.7206977  92.3830150
  50.2311955  42.9807793  93.4929569  50.0473504  39.6557892  93.9309014
  49.9922308  39.4902164  92.9897458  49.4219559  40.3633925  94.0871204
  34.8366019  34.8925957 107.7570436  35.4824883  34.3824911 108.2457662
  34.6283170  35.6294638 108.3313862  47.3619411  41.9606804 113.2562577
  48.2310571  42.1347456 112.8949212  46.8826163  42.7801221 113.1338306
  43.3569629  29.1566001  93.5094333  43.3448299  30.1007841  93.6662603
  44.2493051  28.9736147  93.2153794  41.5305591  49.0803905 104.9352011
  42.4332838  49.1127515 105.2518506  41.3042961  48.1504356 104.9498346
  43.2859193  47.8334892 101.5962089  42.3354824  47.8336753 101.4826461
  43.5891680  47.0867626 101.0798124  47.1721749  25.7508778  97.7640269
  46.4054145  25.1967265  97.9096952  47.5832454  25.8230647  98.6254421
  59.0211887  53.6695430 102.6607852  59.6590297  53.5502177 101.9571192
  58.9032730  54.6176274 102.7195804  55.8301593  53.6222858 102.5969376
  55.4920105  53.5063923 101.7089911  56.6991361  53.2214023 102.5770382
  51.6888409  55.4758335  98.5866267  51.1253274  55.3848272  97.8182555
  51.5740804  54.6558239  99.0668760  56.3121376  54.7757710 108.5555582
  56.3010017  54.3810508 107.6836085  56.4742016  54.0423783 109.1489353
  51.1943595  56.2318439  94.2967867  51.9674471  55.6847427  94.1580742
  51.5468994  57.0962689  94.5082328  53.0328637  57.5594822 107.5034766
  52.7418503  58.4640453 107.3881432  53.6685622  57.6011349 108.2178835
  53.9584844  54.9371670 104.0936125  54.5548416  54.7127693 103.3793088
  54.0159816  54.1956416 104.6961573  53.5309873  52.3911106  91.9286316
  53.7835393  51.8692627  91.1669779  52.5934432  52.2277251  92.0313000
  58.5753155  51.3946884  99.7361060  59.3616245  50.9766307  99.3851477
  58.8391860  52.2992976  99.9042708  58.7463233  56.8319734  94.4349716
  58.1109066  56.9054361  95.1470621  58.4160639  57.4213333  93.7568796
  63.9761583  51.3322117 100.6394038  64.7086754  50.7621334 100.8731868
  63.2200938  50.9443718 101.0800544  53.2506161  54.2939212  94.1310691
  53.1342419  53.6184115  94.7991776  53.3608421  53.8071585  93.3142844
  55.5937702  53.7549359  97.8357381  55.2295909  53.2279980  98.5470302
  56.4504818  53.3647828  97.6623866  61.4987003  45.0443691 105.0988647
  61.1670328  45.9139102 104.8749862  60.9032616  44.7279975 105.7782677
  55.2343189  48.7839258  92.8318729  55.4017592  49.6519495  93.1989200
  55.0440358  48.9466540  91.9080018  57.9918522  57.2456237 104.4984559
  57.6919246  58.1481276 104.3900367  57.6469582  56.9788420 105.3505712
  51.4431004  53.6970034 100.5321264  50.5181500  53.5646248 100.7398956
  51.6915417  54.4764253 101.0291206  61.3915666  49.7638777 102.1781997
  60.4832544  49.6954186 101.8840758  61.3403262  50.2410722 103.0063822
  55.2132410  51.2396916  93.8165396  55.0932035  51.6853967  94.6550876
  54.5184998  51.5882233  93.2578934  48.8039815  53.3403308 101.3665053
  48.9332196  53.5937787 102.2804465  48.1237266  53.9331016 101.0469708
  55.4656532  51.1828423 110.1216894  54.6889866  51.7422343 110.1119759
  56.1047095  51.6685206 110.6431764  63.2577313  47.9655216 103.9559871
  62.6151693  48.2587749 103.3099665  62.7532241  47.8508136 104.7613067
  60.9117476  51.7118389  94.6445730  61.8235332  51.9445776  94.4693428
  60.4027123  52.2955433  94.0820809  53.7202904  53.9913876 109.6834861
  54.4617589  54.5298920 109.4069685  53.0139890  54.6180165 109.8406413
  59.1958244  56.1343017 108.2807023  59.6041600  55.6925427 107.5361655
  58.4735505  55.5595644 108.5341215  55.5489314  51.0715624 105.6540580
  56.3950509  51.4955037 105.7975229  55.4887952  50.4149248 106.3479143
  59.5187059  56.6944207 102.0359311  58.8895921  56.8589922 101.3335379
  59.1312721  57.1085817 102.8070275  63.3976290  57.6298645  99.3903675
  62.7127329  58.0097547  98.8400709  63.4820140  58.2393972 100.1235623
  58.6988759  48.7319992 107.3121753  58.4549691  49.4862052 106.7756029
  58.9748690  49.1105340 108.1469000  60.6527222  55.2758604 105.9899019
  60.8644117  55.9190364 105.3133400  60.6056970  54.4420921 105.5220949
  58.2553451  47.8876425 102.8935591  57.3937930  48.1857679 103.1852328
  58.2815886  48.1046824 101.9616624  55.0715020  56.4318616  99.3009397
  55.5353366  56.7106319  98.5114019  54.8071819  55.5302060  99.1182487
  51.9639102  55.9790097 102.2389160  52.5340459  56.4077365 101.6006644
  52.5547213  55.6972682 102.9373345  54.0083907  52.5541768  96.1098962
  54.7107950  53.0062812  96.5772888  53.6764535  51.9125587  96.7378855
  52.4564268  51.1453525 110.4850171  51.8262929  51.8269805 110.7185568
  52.3500356  51.0336606 109.5403309  47.7509240  50.8125321 101.4116095
  46.9608294  51.0682849 100.9356206  48.2420488  51.6273658 101.5168136
  61.7673050  58.1530560 104.1621376  62.5890494  57.7510747 103.8804058
  61.7635453  58.0498794 105.1137492  49.7023986  51.1769900  98.3699572
  48.9055149  51.2888594  98.8883068  49.4749578  51.5156552  97.5040462
  55.5329653  57.7014603 106.3182087  55.5974086  58.1635010 107.1540258
  54.8240577  57.0711968 106.4464396  46.0346943  51.0655811 103.8431086
  46.2854982  51.9502821 104.1088662  46.5706492  50.8860413 103.0706178
  69.8579043  54.4969308 100.5106348  69.1042751  53.9276706 100.3550352
  69.9926584  54.4631973 101.4576982  55.2477671  59.3682711  96.1861067
  55.1123346  60.2134246  96.6145915  55.7887484  59.5701988  95.4227001
  51.7345011  45.4474290 112.8475422  51.3411956  44.8940489 113.5223066
  52.5511151  45.7584869 113.2381940  48.7007069  56.8858149  96.7588992
  49.2131589  57.6801399  96.9094557  49.3529781  56.1884439  96.6922593
  50.5101953  60.0023905  98.8411745  50.6868582  60.9241870  98.6532729
  51.3058787  59.6882324  99.2706125  54.6512972  46.8632169 110.4395679
  55.3922685  47.4639323 110.3600141  54.8830895  46.1209807 109.8813721
  49.7954310  52.0488537 108.7173908  49.6807825  51.1473794 109.0181007
  48.9398828  52.2952233 108.3658725  56.8746148  59.9906277 110.3161409
  56.4310002  59.2042656 109.9982313  57.5363361  60.1785428 109.6505300
  51.6333269  61.5202079 104.8422088  52.1840694  61.3919142 104.0699081
  50.7944745  61.8196968 104.4916980  58.9727386  60.2709077 108.3442810
  58.9545861  61.0917958 107.8523079  59.8947306  60.1463152 108.5692951
  55.4300440  57.7853206 109.1866319  55.9628777  57.0241495 108.9565627
  54.9014521  57.4926858 109.9290473  58.5970135  42.8913272 104.7159960
  58.2534404  43.7814914 104.6399071  58.9649097  42.7014930 103.8529545
  58.5620417  52.8821884  93.2232395  58.0467041  53.6526488  93.4620783
  58.2897726  52.2087020  93.8465457  56.1467528  47.7271584  98.2817634
  55.2909125  47.3378435  98.1023273  56.5594480  47.8063545  97.4217419
  57.6766675  45.2617928 102.6809194  57.1731471  45.2248063 101.8676999
  57.9697282  46.1710670 102.7405850  53.9209561  45.3456657 101.6875375
  54.7862558  45.1499466 101.3281265  53.9887070  45.1167009 102.6144732
  63.5354692  55.6354238  95.1585569  62.7584134  55.2965398  94.7140731
  64.2146173  55.6406861  94.4840534  58.3506721  50.7548976  95.0492177
  58.0456856  51.0695125  95.9002320  59.3037163  50.8330396  95.0919510
  56.7953152  56.9139199  96.6985131  56.2674514  56.1791959  96.3858368
  56.2940655  57.6913875  96.4525099  61.7745998  55.1088219 101.8152177
  61.1169673  55.7987481 101.9032306  62.5786398  55.4984651 102.1586163
  51.5271880  47.5758865  99.0591742  52.1015632  47.3534047  98.3264935
  52.1142862  47.6447560  99.8120343  60.5851457  53.4632592  99.8656119
  61.0983339  54.0962584 100.3677828  61.2352681  52.8633788  99.4999479
  51.8541467  49.6063326  93.0787627  51.0178779  49.9438013  93.3996902
  51.7146237  49.4712306  92.1414764  53.8294548  44.4500114  97.7866812
  53.1758960  44.1349131  97.1623426  53.7875022  43.8275855  98.5126635
  54.9405753  54.7319409  89.7020104  54.0332814  54.5008663  89.9011253
  55.4376785  53.9357028  89.8894085  57.0632288  50.9382048 102.1114459
  56.1454850  51.1596995 101.9536147  57.4792432  51.0128358 101.2526167
  57.8467336  52.3373463  97.2417139  58.5939155  52.8494861  96.9324262
  58.1158925  52.0157516  98.1021533  56.1193986  54.8332004  94.2244094
  55.2105205  54.5491037  94.3216564  56.1489070  55.2531083  93.3647401
  61.3513253  58.4438594  97.9935261  60.8975581  57.6029503  98.0500452
  60.7207220  59.0799992  98.3310041  60.2946173  49.3730580  99.2235929
  59.5568930  48.8607966  99.5546171  60.5472947  48.9330961  98.4119206
  59.7946193  60.2815090  98.9285079  60.0869167  60.8420147  98.2097445
  60.3044813  60.5743651  99.6838239  60.3957800  42.1506832  99.8177698
  60.7016677  41.2904195  99.5303613  61.1210405  42.7424452  99.6176692
  54.6678880  52.4460625 100.3253889  54.7227490  51.4934461 100.2496366
  53.8570082  52.6020064 100.8095188  55.8170074  56.3740748  91.5632172
  55.3789504  55.6576607  91.1037810  56.5580515  56.6016863  91.0017264
  52.6071240  51.0637684  98.0844268  51.7939106  51.3631855  98.4909460
  53.1030234  50.6693373  98.8018750  54.7579818  61.0595441 100.0178533
  54.7155997  61.2856288  99.0887065  55.6742517  60.8258816 100.1664334
  58.2045452  51.5279509 106.9159162  58.5594839  51.7550982 107.7753628
  58.8517583  51.8597886 106.2936417  63.9343189  54.6497945  97.6208491
  63.7961087  54.8399541  96.6929680  63.5779407  55.4117328  98.0776542
  52.0985315  48.6356040 103.7005503  52.7384694  48.4944799 103.0028466
  51.2662845  48.3490553 103.3244105  63.9612568  56.7174472 102.6319762
  64.3949075  56.6249761 103.4802816  64.6744149  56.6931972 101.9939778
  52.8745619  57.9358470  99.8140495  53.6686217  57.4408790  99.6123070
  52.1637311  57.4076333  99.4508201  57.6940463  60.3176566 104.1652863
  57.7477485  60.8867502 104.9330579  56.8255245  60.4878451 103.8006900
  49.1828382  52.0801552  95.8900248  48.2525970  52.0186008  96.1070210
  49.2785854  51.5577505  95.0936889  49.1013931  48.6056365  98.4778490
  49.3620749  49.5201698  98.3687650  49.9231104  48.1380807  98.6275103
  50.5738857  50.0194122 105.6477314  51.2461910  49.8111484 104.9989963
  49.7468643  49.8216208 105.2082547  64.8228118  56.7598172 105.1652648
  65.0164008  57.6643983 105.4111923  64.7228736  56.3005592 105.9991233
  56.4764429  46.6456063 107.6642975  55.8292344  47.3446013 107.5707452
  57.2465444  47.0792207 108.0319223  59.8843226  56.9104915 110.7393528
  59.7328733  56.6815467 109.8223612  59.8747906  57.8675517 110.7524873
  56.6528563  54.4836828 105.7239795  57.5820623  54.6347988 105.5508762
  56.2319593  54.5720849 104.8688441  55.4516895  58.5087492 103.4938333
  55.3127980  58.1406277 104.3664271  54.6631491  59.0235132 103.3222290
  57.0022110  57.8869095 100.8827170  56.6671942  57.8469865 101.7784820
  56.5026056  57.2213811 100.4097581  50.9766354  53.2936725 106.4079751
  50.8386152  52.5616964 107.0091290  51.8871277  53.2045625 106.1263939
  59.9381301  55.2325129  91.1564230  59.3210472  54.5071958  91.0597283
  59.4697790  55.9934490  90.8131304  53.6048654  53.0056684 105.8963431
  54.3148273  52.3649877 105.8550050  53.5617963  53.2569579 106.8189612
  61.5935433  59.9424038 108.8170010  61.5347979  59.2583258 108.1500593
  61.9954952  60.6843028 108.3650636  52.3177588  49.9921902 107.7159071
  51.7814945  49.5412641 108.3680667  51.7294297  50.1267811 106.9729535
  51.7279847  49.4510554  90.2785534  50.8509314  49.3299354  89.9147781
  52.2037600  48.6596632  90.0264423  61.5952840  57.9063622 107.0483990
  60.7079619  57.5689543 107.1710389  62.1651391  57.1746653 107.2852755
  48.0516710  49.1277910 104.8012065  47.9674898  48.5203580 104.0662475
  47.2299416  49.6186928 104.8021561  55.1253994  62.5665074 104.0145233
  55.0524165  63.3720046 104.5264538  54.6831387  62.7657040 103.1893255
  54.9143773  61.8036844  97.5248055  54.1311295  62.3458524  97.6186279
  55.6136519  62.3210824  97.9242296  58.2240424  47.6131474 100.1682260
  58.7209123  46.8601436  99.8483330  57.4527405  47.6495790  99.6025469
  66.0770181  53.3171839 101.8100552  66.0660057  54.1996554 101.4394485
  65.2087560  52.9643390 101.6155089  57.5852677  62.4651908 106.1703392
  58.2980650  63.0999373 106.0979293  57.0942706  62.5615774 105.3543394
  59.3070204  56.3703161  97.7420684  58.3726483  56.4904623  97.5725388
  59.4846873  55.4675627  97.4780693  54.8075392  49.7548856  99.8953945
  54.4373180  49.2019897 100.5834850  55.3034485  49.1506990  99.3428945
  62.6942756  52.2120480  98.2770718  63.1603208  53.0448472  98.2031020
  63.1450256  51.7465462  98.9815976  52.6364591  60.2146352 106.9908963
  53.3374050  60.8482834 107.1438357  52.1659706  60.5561083 106.2304602
  60.7618987  58.5564301  95.2756870  61.0378831  58.4420896  96.1850744
  59.8923485  58.1581786  95.2369043  60.6659418  44.5801067 102.3161619
  59.7522498  44.8105294 102.4843826  61.0952520  44.6639511 103.1675651
  60.4365877  52.7690959 104.8161513  59.7837327  53.0166866 104.1613966
  60.8146257  51.9555097 104.4823990  56.4853450  53.5110770 111.3027550
  55.8094087  53.4104899 111.9729925  57.3081084  53.3549984 111.7663547
  48.2332309  59.7482707 103.9240065  48.8185746  59.0026394 104.0567970
  48.0357147  60.0586663 104.8076729  42.8249964  52.3188307 102.6444508
  42.8634063  51.7851897 103.4381627  42.3190256  51.7923512 102.0255486
  55.2276233  64.8177697 105.5385166  55.7794541  64.9809319 106.3034251
  55.5682426  65.4082135 104.8665191  50.2040726  47.1652847 106.1407051
  50.2682052  48.0267678 105.7284448  50.1407846  46.5526849 105.4079409
  49.6792998  49.2375980 109.7880085  50.3065037  48.8553057 110.4017609
  48.8220917  49.0190182 110.1535778  60.0787107  59.6438955 111.3933821
  60.6227011  60.2568913 110.8988775  59.4973952  60.2018533 111.9100834
  46.4558541  51.0452409  95.7198440  46.7511982  50.1363087  95.6665494
  45.5546577  51.0240148  95.3979442  58.3644620  62.7659673 102.5248848
  58.2395759  61.9649413 102.0159794  59.0223711  63.2605866 102.0362818
  49.9852788  49.1208405 101.7025988  49.2639374  49.7344373 101.5633462
  50.7746044  49.6566170 101.6242634  60.4279528  60.5668693 104.1528398
  59.4809864  60.4474044 104.0806725  60.7762301  59.6791191 104.2354660
  52.7879102  46.4562832 107.9766640  53.3113504  46.7025129 108.7392950
  52.5691435  47.2882867 107.5569778  48.1846383  48.7266507  95.8437765
  47.8559089  47.8463886  95.6612871  48.5385754  48.6714175  96.7314154
  57.4325962  60.3621409 100.3532751  57.2850924  59.4338117 100.5340321
  58.2579455  60.3841500  99.8689826  51.2988206  49.0139476  96.2113243
  51.6384278  49.5425398  95.4891851  51.7460326  49.3519883  96.9871809
  61.0360084  61.1849968 101.4397623  61.9606631  60.9792829 101.3022074
  60.8675387  60.9366369 102.3486965  53.9931647  47.3976527 105.6616311
  53.6528467  46.5984340 106.0636991  53.2870653  47.6978238 105.0893144
  54.6448119  44.4825840 104.1143634  55.4674188  44.0086318 103.9922524
  54.8886182  45.2616323 104.6142320  53.2856353  47.5114098  94.4106535
  54.0064716  47.8895351  93.9070252  52.6621657  48.2302975  94.5141513
  57.4287476  48.2159247  95.3464868  57.6451090  49.0983885  95.0453696
  56.9481543  47.8245460  94.6170510  52.1686697  51.1744960 101.9235612
  52.0231278  51.4885263 102.8159894  51.6911901  51.7929860 101.3706511
  54.0283080  48.1647508 101.9716502  54.0144649  47.2688601 101.6348800
  54.7455508  48.1718172 102.6054788  55.8809211  48.5984848 104.0169629
  55.6226989  49.5201919 104.0153960  55.3494251  48.2015283 104.7070094
  46.6432360  53.7150305 104.8623274  46.0985828  54.4910113 104.9943548
  47.5211709  54.0621109 104.7042395  53.4319976  47.0461888  97.2404072
  53.5535887  46.1178535  97.4394960  53.1422019  47.0600574  96.3282388
  56.3011167  44.7316799 100.3770792  56.3232863  44.7956132  99.4222771
  56.7179226  43.8921308 100.5711298  66.6794791  54.4672058  98.4150015
  67.1225937  53.7179384  98.0169138  65.8021301  54.4582195  98.0323746
  47.4298381  52.8420201 107.7553430  46.6880117  52.9902836 108.3418061
  47.1091126  53.1028466 106.8920180  63.7121995  58.4702105  95.4243944
  64.2373319  58.8089378  94.6993264  63.6244348  57.5349121  95.2407078
  55.3742044  62.3836179 107.5533820  55.6829170  62.1385326 108.4256520
  56.1717526  62.5882818 107.0652691  52.8436528  60.0812098 101.8561499
  52.2216538  59.4182803 101.5563727  53.5141395  60.1073230 101.1735146
  52.9161056  48.5593886 111.4494005  52.9649211  49.4356009 111.0671774
  53.4583570  48.0171279 110.8765648  63.4015901  59.1035009 110.7295142
  62.6111445  59.0859148 110.1899641  63.1649256  59.6423303 111.4844178
  63.5213776  55.9527475 108.0427870  63.5711781  55.7877483 108.9843393
  63.4127700  55.0854734 107.6525751  52.4050035  58.6316021  95.3319959
  52.5538156  59.3151486  94.6786632  53.2116479  58.6121111  95.8469415
  60.8117539  51.9358403 109.3587177  61.7127402  51.7964868 109.0671175
  60.8865513  52.1012858 110.2985354  55.1460344  49.3125258 108.2040363
  54.2763654  49.6058824 107.9322952  55.3819825  49.8965703 108.9247627
  65.0231973  58.3724417 108.2869892  64.7316782  58.7354397 109.1233353
  64.4104105  57.6591425 108.1083224  66.2227656  55.9377297 100.8072462
  67.0574547  56.3767101 100.9710022  66.3586784  55.4615950  99.9880708
  63.2719162  53.4957032 106.7549950  63.7473283  53.6884678 105.9468801
  62.3484727  53.5516217 106.5093334  50.1602668  54.6581199  96.3381028
  49.9148710  53.7543529  96.5361238  50.3298583  54.6598349  95.3960506
  57.8499378  45.5304875 105.7205784  58.3681322  46.2665902 105.3952272
  57.4954511  45.8368868 106.5552543  49.4298316  50.3909556  93.8367190
  48.7367561  50.4653911  93.1807226  49.1850068  49.6269900  94.3588707
  58.1011972  41.9505158 101.2406680  58.3813726  41.2828347 101.8667107
  58.8862579  42.1434253 100.7281344  61.9720831  50.3722792 104.9878255
  62.9238253  50.4720889 105.0090479  61.8024281  49.5801060 105.4976340
  59.9935210  47.4578375 105.1737656  59.3985142  47.7383388 104.4784145
  59.7084907  47.9472276 105.9454397  64.4508908  53.5928911 104.1020555
  64.4185228  52.6544912 104.2880239  65.0609532  53.6712948 103.3686380
  56.2892239  52.4624964  90.1447759  57.2351344  52.3331172  90.2136177
  55.9106484  51.7239626  90.6217187  64.6003397  50.3839955 104.1478838
  64.0842445  49.5998411 103.9608767  65.4843345  50.0558671 104.3125358
  62.2614124  44.1280970 100.1074651  62.0638945  43.8196059 100.9917983
  62.8713829  44.8542609 100.2372581  70.2685458  54.6544918 103.2426592
  70.9988847  54.3930206 103.8034295  69.6592404  53.9173640 103.2828660
  68.3500755  52.7952781 103.8401043  67.6233919  52.6608746 103.2317535
  67.9348042  53.1029609 104.6457761  56.1730932  56.5142710 111.6048416
  57.0933941  56.6921309 111.7988463  56.1380515  55.5698756 111.4528115
  54.4735156  50.3874941  90.0802644  53.5666612  50.0908053  90.1565358
  54.7511137  50.0904759  89.2136931  45.3913097  51.7081304 100.5301691
  45.0715881  50.8546612 100.2376065  44.8446525  51.9229882 101.2859658
  49.1693004  54.4243745 104.2471197  49.3879014  55.3560853 104.2659231
  49.5818778  54.0651720 105.0326001  56.0897222  44.9311830  96.2346886
  55.2797950  44.5858915  96.6102132  56.7781639  44.6219374  96.8234497
  58.0187770  44.0089877  97.8571182  58.5718809  44.4285331  98.5161205
  58.2557857  43.0825625  97.8994138  54.0420870  49.9976951 113.6373946
  53.9417596  50.9471308 113.5686037  53.8242412  49.6695190 112.7650016
  53.2433941  47.2461876  90.2214624  54.1053105  47.5716774  90.4810441
  53.4284285  46.4593372  89.7087689  61.3966577  46.1190402  97.3649847
  60.8165246  46.7775206  96.9827899  61.1302510  45.2967747  96.9537264
  59.8470144  45.5195460  99.5671167  60.3469922  45.6311995  98.7585486
  60.4905752  45.2156513 100.2071975  53.9052140  53.4274090 112.4539008
  53.4219221  54.2274450 112.6602897  53.9913079  53.4382035 111.5006452
  49.8325477  57.3178624 104.4907442  50.7868731  57.2862567 104.4237373
  49.6338001  56.8569248 105.3057668  50.4224859  55.8879740 107.0578239
  51.2417748  56.3823819 107.0813077  50.6961667  54.9711709 107.0295807
  60.1791455  48.2790493  96.4206195  59.2917310  48.5640143  96.2026390
  60.5945445  48.1184256  95.5733472  63.5305992  48.3037014 100.1360534
  64.3066382  48.7933466 100.4085151  62.8054126  48.7295068 100.5932404
  65.9678550  49.0164633 101.1934475  66.5623041  48.7760369 100.4827783
  66.0405134  48.2971764 101.8208011  60.1532479  53.7945029  96.6356485
  60.0967681  54.2513580  95.7964117  60.7060822  53.0335713  96.4579328
  63.9637285  49.5834761  97.4606604  63.7074219  49.1831396  98.2914812
  63.3390153  50.2978555  97.3356744  68.2749623  52.3230834  99.9677896
  67.7149181  52.3924023 100.7409458  67.6693126  52.1471818  99.2477392
  51.3444832  63.7567561 101.7196082  51.2277216  64.7012993 101.6174772
  50.5237278  63.4541122 102.1081881  61.2321366  58.4817697  92.5652675
  62.0666970  58.0498895  92.3830150  61.0705709  58.3099710  93.4929569
  60.8867259  54.9849810  93.9309014  60.8316062  54.8194081  92.9897458
  60.2613314  55.6925843  94.0871204  45.6759773  50.2217874 107.7570436
  46.3218637  49.7116828 108.2457662  45.4676925  50.9586556 108.3313862
  58.2013166  57.2898722 113.2562577  59.0704325  57.4639374 112.8949212
  57.7219917  58.1093139 113.1338306  54.1963384  44.4857919  93.5094333
  54.1842054  45.4299759  93.6662603  55.0886806  44.3028064  93.2153794
  52.3699346  64.4095823 104.9352011  53.2726593  64.4419433 105.2518506
  52.1436716  63.4796274 104.9498346  54.1252948  63.1626809 101.5962089
  53.1748579  63.1628671 101.4826461  54.4285434  62.4159544 101.0798124
  58.0115503  41.0800696  97.7640269  57.2447899  40.5259182  97.9096952
  58.4226208  41.1522564  98.6254421  50.0157264  47.3685491 111.8545451
  50.8788726  47.0122296 112.0648775  49.4422675  47.0299386 112.5420855
  69.8605641  68.9987348 102.6607852  70.4984051  68.8794095 101.9571192
  69.7426484  69.9468192 102.7195804  66.6695348  68.9514776 102.5969376
  66.3313859  68.8355841 101.7089911  67.5385116  68.5505941 102.5770382
  67.1515131  70.1049628 108.5555582  67.1403771  69.7102426 107.6836085
  67.3135770  69.3715700 109.1489353  63.8722392  72.8886739 107.5034766
  63.5812258  73.7932370 107.3881432  64.5079376  72.9303267 108.2178835
  64.7978599  70.2663588 104.0936125  65.3942171  70.0419610 103.3793088
  64.8553570  69.5248333 104.6961573  69.4146910  66.7238802  99.7361060
  70.2009999  66.3058225  99.3851477  69.6785614  67.6284894  99.9042708
  74.8155337  66.6614035 100.6394038  75.5480509  66.0913252 100.8731868
  74.0594693  66.2735635 101.0800544  72.3380757  60.3735609 105.0988647
  72.0064082  61.2431020 104.8749862  71.7426371  60.0571893 105.7782677
  68.8312277  72.5748155 104.4984559  68.5313000  73.4773194 104.3900367
  68.4863336  72.3080338 105.3505712  62.2824758  69.0261952 100.5321264
  61.3575255  68.8938166 100.7398956  62.5309172  69.8056171 101.0291206
  72.2309421  65.0930695 102.1781997  71.3226298  65.0246104 101.8840758
  72.1797016  65.5702640 103.0063822  66.3050286  66.5120341 110.1216894
  65.5283621  67.0714261 110.1119759  66.9440850  66.9977124 110.6431764
  74.0971067  63.2947133 103.9559871  73.4545447  63.5879667 103.3099665
  73.5925996  63.1800054 104.7613067  64.5596659  69.3205794 109.6834861
  65.3011343  69.8590838 109.4069685  63.8533644  69.9472083 109.8406413
  70.0351998  71.4634935 108.2807023  70.4435354  71.0217345 107.5361655
  69.3129260  70.8887562 108.5341215  66.3883068  66.4007541 105.6540580
  67.2344264  66.8246955 105.7975229  66.3281706  65.7441166 106.3479143
  70.3580813  72.0236125 102.0359311  69.7289676  72.1881839 101.3335379
  69.9706475  72.4377735 102.8070275  74.2370045  72.9590563  99.3903675
  73.5521083  73.3389464  98.8400709  74.3213894  73.5685890 100.1235623
  69.5382514  64.0611910 107.3121753  69.2943446  64.8153970 106.7756029
  69.8142444  64.4397257 108.1469000  71.4920977  70.6050522 105.9899019
  71.7037872  71.2482282 105.3133400  71.4450725  69.7712839 105.5220949
  69.0947206  63.2168343 102.8935591  68.2331685  63.5149596 103.1852328
  69.1209640  63.4338742 101.9616624  62.8032856  71.3082015 102.2389160
  63.3734213  71.7369283 101.6006644  63.3940968  71.0264599 102.9373345
  63.2958023  66.4745442 110.4850171  62.6656683  67.1561723 110.7185568
  63.1894110  66.3628524 109.5403309  58.5902995  66.1417238 101.4116095
  57.8002049  66.3974767 100.9356206  59.0814242  66.9565576 101.5168136
  72.6066805  73.4822477 104.1621376  73.4284248  73.0802665 103.8804058
  72.6029207  73.3790712 105.1137492  66.3723408  73.0306521 106.3182087
  66.4367840  73.4926928 107.1540258  65.6634332  72.4003886 106.4464396
  56.8740698  66.3947729 103.8431086  57.1248736  67.2794739 104.1088662
  57.4100246  66.2152330 103.0706178  80.6972798  69.8261226 100.5106348
  79.9436506  69.2568624 100.3550352  80.8320339  69.7923890 101.4576982
  62.5738765  60.7766208 112.8475422  62.1805711  60.2232407 113.5223066
  63.3904906  61.0876787 113.2381940  65.4906726  62.1924087 110.4395679
  66.2316440  62.7931240 110.3600141  65.7224649  61.4501725 109.8813721
  60.6348064  67.3780454 108.7173908  60.5201579  66.4765712 109.0181007
  59.7792582  67.6244151 108.3658725  67.7139902  75.3198195 110.3161409
  67.2703756  74.5334573 109.9982313  68.3757116  75.5077345 109.6505300
  62.4727023  76.8493996 104.8422088  63.0234448  76.7211060 104.0699081
  61.6338499  77.1488885 104.4916980  69.8121140  75.6000995 108.3442810
  69.7939615  76.4209876 107.8523079  70.7341060  75.4755070 108.5692951
  66.2694194  73.1145124 109.1866319  66.8022531  72.3533412 108.9565627
  65.7408275  72.8218776 109.9290473  69.4363889  58.2205190 104.7159960
  69.0928159  59.1106832 104.6399071  69.8042852  58.0306848 103.8529545
  68.5160430  60.5909845 102.6809194  68.0125225  60.5539980 101.8676999
  68.8091036  61.5002588 102.7405850  64.7603315  60.6748575 101.6875375
  65.6256312  60.4791384 101.3281265  64.8280824  60.4458927 102.6144732
  74.3748446  70.9646156  95.1585569  73.5977889  70.6257315  94.7140731
  75.0539927  70.9698779  94.4840534  72.6139753  70.4380137 101.8152177
  71.9563427  71.1279398 101.9032306  73.4180152  70.8276569 102.1586163
  62.3665635  62.9050783  99.0591742  62.9409386  62.6825964  98.3264935
  62.9536617  62.9739477  99.8120343  71.4245212  68.7924510  99.8656119
  71.9377094  69.4254502 100.3677828  72.0746436  68.1925705  99.4999479
  64.6688302  59.7792032  97.7866812  64.0152715  59.4641049  97.1623426
  64.6268776  59.1567772  98.5126635  67.9026043  66.2673965 102.1114459
  66.9848604  66.4888912 101.9536147  68.3186186  66.3420276 101.2526167
  72.1907008  73.7730511  97.9935261  71.7369335  72.9321421  98.0500452
  71.5600975  74.4091910  98.3310041  71.1339928  64.7022497  99.2235929
  70.3962684  64.1899883  99.5546171  71.3866701  64.2622879  98.4119206
  70.6339947  75.6107008  98.9285079  70.9262922  76.1712065  98.2097445
  71.1438568  75.9035569  99.6838239  71.2351555  57.4798749  99.8177698
  71.5410432  56.6196113  99.5303613  71.9604160  58.0716369  99.6176692
  69.0439206  66.8571427 106.9159162  69.3988594  67.0842900 107.7753628
  69.6911337  67.1889803 106.2936417  74.7736943  69.9789862  97.6208491
  74.6354842  70.1691458  96.6929680  74.4173162  70.7409245  98.0776542
  62.9379069  63.9647958 103.7005503  63.5778449  63.8236717 103.0028466
  62.1056600  63.6782471 103.3244105  74.8006323  72.0466389 102.6319762
  75.2342829  71.9541679 103.4802816  75.5137903  72.0223890 101.9939778
  68.5334218  75.6468484 104.1652863  68.5871240  76.2159420 104.9330579
  67.6648999  75.8170369 103.8006900  61.4132611  65.3486040 105.6477314
  62.0855664  65.1403402 104.9989963  60.5862398  65.1508126 105.2082547
  75.6621872  72.0890090 105.1652648  75.8557762  72.9935901 105.4111923
  75.5622490  71.6297509 105.9991233  67.3158183  61.9747981 107.6642975
  66.6686098  62.6737930 107.5707452  68.0859198  62.4084125 108.0319223
  70.7236981  72.2396833 110.7393528  70.5722487  72.0107385 109.8223612
  70.7141660  73.1967434 110.7524873  67.4922317  69.8128746 105.7239795
  68.4214377  69.9639905 105.5508762  67.0713347  69.9012766 104.8688441
  66.2910649  73.8379410 103.4938333  66.1521735  73.4698194 104.3664271
  65.5025245  74.3527049 103.3222290  67.8415864  73.2161013 100.8827170
  67.5065697  73.1761783 101.7784820  67.3419810  72.5505729 100.4097581
  61.8160108  68.6228643 106.4079751  61.6779906  67.8908882 107.0091290
  62.7265032  68.5337543 106.1263939  64.4442409  68.3348602 105.8963431
  65.1542027  67.6941794 105.8550050  64.4011717  68.5861497 106.8189612
  72.4329188  75.2715955 108.8170010  72.3741734  74.5875176 108.1500593
  72.8348706  76.0134945 108.3650636  63.1571343  65.3213820 107.7159071
  62.6208700  64.8704558 108.3680667  62.5688051  65.4559729 106.9729535
  61.4519886  82.0877869 101.6103729  61.6916485  82.7196393 102.2882748
  60.6089083  81.7365909 101.8969088  72.4346595  73.2355539 107.0483990
  71.5473374  72.8981461 107.1710389  73.0045146  72.5038571 107.2852755
  58.8910464  64.4569828 104.8012065  58.8068653  63.8495497 104.0662475
  58.0693171  64.9478846 104.8021561  65.9647748  77.8956992 104.0145233
  65.8917920  78.7011963 104.5264538  65.5225141  78.0948958 103.1893255
  69.0634178  62.9423391 100.1682260  69.5602878  62.1893354  99.8483330
  68.2921160  62.9787708  99.6025469  76.9163935  68.6463757 101.8100552
  76.9053812  69.5288472 101.4394485  76.0481315  68.2935308 101.6155089
  68.4246432  77.7943826 106.1703392  69.1374404  78.4291291 106.0979293
  67.9336460  77.8907692 105.3543394  70.1463959  71.6995078  97.7420684
  69.2120237  71.8196541  97.5725388  70.3240627  70.7967545  97.4780693
  73.5336510  67.5412398  98.2770718  73.9996962  68.3740389  98.2031020
  73.9844011  67.0757379  98.9815976  63.4758345  75.5438269 106.9908963
  64.1767805  76.1774752 107.1438357  63.0053460  75.8853001 106.2304602
  71.6012741  73.8856219  95.2756870  71.8772585  73.7712814  96.1850744
  70.7317240  73.4873704  95.2369043  71.5053173  59.9092985 102.3161619
  70.5916253  60.1397212 102.4843826  71.9346274  59.9931429 103.1675651
  71.2759631  68.0982877 104.8161513  70.6231082  68.3458784 104.1613966
  71.6540011  67.2847015 104.4823990  68.2366805  78.1342570  98.9189683
  68.4189200  77.3164226  99.3817436  69.0599791  78.3510262  98.4814573
  68.5708971  77.0610755  96.1804732  69.0996737  76.5503210  95.5674894
  68.8337190  76.7453285  97.0450265  67.3247204  68.8402688 111.3027550
  66.6487841  68.7396817 111.9729925  68.1474838  68.6841901 111.7663547
  59.0726063  75.0774624 103.9240065  59.6579500  74.3318312 104.0567970
  58.8750902  75.3878581 104.8076729  66.0669987  80.1469615 105.5385166
  66.6188295  80.3101237 106.3034251  66.4076181  80.7374053 104.8665191
  61.0434480  62.4944765 106.1407051  61.1075807  63.3559596 105.7284448
  60.9801601  61.8818767 105.4079409  60.5186753  64.5667897 109.7880085
  61.1458792  64.1844975 110.4017609  59.6614672  64.3482099 110.1535778
  70.9180862  74.9730873 111.3933821  71.4620766  75.5860831 110.8988775
  70.3367706  75.5310451 111.9100834  69.2038374  78.0951591 102.5248848
  69.0789514  77.2941331 102.0159794  69.8617466  78.5897784 102.0362818
  60.8246543  64.4500323 101.7025988  60.1033128  65.0636291 101.5633462
  61.6139798  64.9858088 101.6242634  71.2673283  75.8960611 104.1528398
  70.3203618  75.7765962 104.0806725  71.6156056  75.0083109 104.2354660
  63.6272856  61.7854750 107.9766640  64.1507258  62.0317046 108.7392950
  63.4085190  62.6174784 107.5569778  68.2719716  75.6913327 100.3532751
  68.1244679  74.7630034 100.5340321  69.0973210  75.7133418  99.8689826
  71.8753838  76.5141886 101.4397623  72.8000385  76.3084747 101.3022074
  71.7069141  76.2658287 102.3486965  64.8325401  62.7268445 105.6616311
  64.4922222  61.9276258 106.0636991  64.1264408  63.0270156 105.0893144
  65.4841873  59.8117757 104.1143634  66.3067942  59.3378235 103.9922524
  65.7279937  60.5908241 104.6142320  63.0080452  66.5036878 101.9235612
  62.8625033  66.8177181 102.8159894  62.5305656  67.1221778 101.3706511
  64.8676835  63.4939426 101.9716502  64.8538404  62.5980519 101.6348800
  65.5849263  63.5010090 102.6054788  66.7202965  63.9276766 104.0169629
  66.4620743  64.8493837 104.0153960  66.1888006  63.5307201 104.7070094
  71.6649154  77.0327553  96.7959715  71.8386032  76.4673976  96.0433567
  72.1578045  77.8328448  96.6139205  57.4826114  69.0442222 104.8623274
  56.9379582  69.8202030 104.9943548  58.3605464  69.3913027 104.7042395
  67.1404921  60.0608717 100.3770792  67.1626618  60.1248050  99.4222771
  67.5572980  59.2213225 100.5711298  77.5188545  69.7963976  98.4150015
  77.9619691  69.0471301  98.0169138  76.6415056  69.7874112  98.0323746
  58.2692136  68.1712119 107.7553430  57.5273872  68.3194754 108.3418061
  57.9484880  68.4320384 106.8920180  74.5515750  73.7994023  95.4243944
  75.0767074  74.1381296  94.6993264  74.4638102  72.8641038  95.2407078
  66.2135799  77.7128097 107.5533820  66.5222925  77.4677244 108.4256520
  67.0111281  77.9174735 107.0652691  66.2356411  79.8666006  99.7839197
  65.7961401  79.3742385 100.4772054  66.9864528  79.3238974  99.5431272
  63.6830283  75.4104015 101.8561499  63.0610292  74.7474720 101.5563727
  64.3535150  75.4365147 101.1735146  63.7554810  63.8885803 111.4494005
  63.8042966  64.7647926 111.0671774  64.2977324  63.3463197 110.8765648
  74.2409656  74.4326927 110.7295142  73.4505200  74.4151066 110.1899641
  74.0043010  74.9715220 111.4844178  74.3607531  71.2819393 108.0427870
  74.4105536  71.1169401 108.9843393  74.2521454  70.4146652 107.6525751
  71.6511293  67.2650321 109.3587177  72.5521156  67.1256786 109.0671175
  71.7259268  67.4304776 110.2985354  65.9854099  64.6417176 108.2040363
  65.1157408  64.9350742 107.9322952  66.2213579  65.2257621 108.9247627
  75.8625728  73.7016335 108.2869892  75.5710536  74.0646315 109.1233353
  75.2497859  72.9883343 108.1083224  77.0621410  71.2669214 100.8072462
  77.8968301  71.7059018 100.9710022  77.1980539  70.7907868  99.9880708
  74.1112916  68.8248949 106.7549950  74.5867038  69.0176596 105.9468801
  73.1878481  68.8808135 106.5093334  68.6893133  60.8596793 105.7205784
  69.2075076  61.5957820 105.3952272  68.3348265  61.1660786 106.5552543
  68.9405727  57.2797075 101.2406680  69.2207480  56.6120264 101.8667107
  69.7256334  57.4726171 100.7281344  72.8114585  65.7014709 104.9878255
  73.7632008  65.8012807 105.0090479  72.6418035  64.9092978 105.4976340
  70.8328964  62.7870293 105.1737656  70.2378897  63.0675305 104.4784145
  70.5478661  63.2764193 105.9454397  69.9636455  76.7393219  93.9340289
  70.8967128  76.6738781  94.1373164  69.8759668  77.5749486  93.4754822
  75.2902663  68.9220829 104.1020555  75.2578983  67.9836830 104.2880239
  75.9003286  69.0004866 103.3686380  75.4397151  65.7131872 104.1478838
  74.9236200  64.9290329 103.9608767  76.3237100  65.3850589 104.3125358
  73.1007878  59.4572888 100.1074651  72.9032699  59.1487976 100.9917983
  73.7107584  60.1834527 100.2372581  81.1079213  69.9836836 103.2426592
  81.8382601  69.7222124 103.8034295  80.4986158  69.2465558 103.2828660
  79.1894510  68.1244698 103.8401043  78.4627673  67.9900663 103.2317535
  78.7741797  68.4321527 104.6457761  67.0124686  71.8434628 111.6048416
  67.9327696  72.0213227 111.7988463  66.9774269  70.8990673 111.4528115
  60.0086759  69.7535663 104.2471197  60.2272769  70.6852771 104.2659231
  60.4212533  69.3943637 105.0326001  66.9290977  60.2603748  96.2346886
  66.1191705  59.9150833  96.6102132  67.6175393  59.9511292  96.8234497
  68.8581525  59.3381795  97.8571182  69.4112563  59.7577248  98.5161205
  69.0951611  58.4117543  97.8994138  64.8814624  65.3268869 113.6373946
  64.7811351  66.2763226 113.5686037  64.6636166  64.9987107 112.7650016
  72.2360332  61.4482320  97.3649847  71.6559001  62.1067124  96.9827899
  71.9696265  60.6259665  96.9537264  70.6863898  60.8487378  99.5671167
  71.1863677  60.9603912  98.7585486  71.3299506  60.5448431 100.2071975
  64.7445894  68.7566007 112.4539008  64.2612976  69.5566368 112.6602897
  64.8306833  68.7673952 111.5006452  60.6719232  72.6470542 104.4907442
  61.6262485  72.6154484 104.4237373  60.4731755  72.1861166 105.3057668
  61.2618614  71.2171658 107.0578239  62.0811503  71.7115737 107.0813077
  61.5355421  70.3003626 107.0295807  71.0185210  63.6082410  96.4206195
  70.1311065  63.8932061  96.2026390  71.4339199  63.4476174  95.5733472
  74.3699746  63.6328931 100.1360534  75.1460136  64.1225384 100.4085151
  73.6447880  64.0586986 100.5932404  76.8072305  64.3456551 101.1934475
  77.4016796  64.1052287 100.4827783  76.8798888  63.6263681 101.8208011
  59.0269460  78.1890162 101.5077640  58.8923928  77.4290562 100.9415638
  58.6101523  78.9131061 101.0406428  74.8031040  64.9126678  97.4606604
  74.5467974  64.5123314  98.2914812  74.1783908  65.6270472  97.3356744
  79.1143377  67.6522751  99.9677896  78.5542935  67.7215941 100.7409458
  78.5086881  67.4763736  99.2477392  62.1838586  79.0859479 101.7196082
  62.0670970  80.0304911 101.6174772  61.3631033  78.7833040 102.1081881
  56.5153528  65.5509792 107.7570436  57.1612392  65.0408746 108.2457662
  56.3070679  66.2878474 108.3313862  69.0406920  72.6190639 113.2562577
  69.9098080  72.7931292 112.8949212  68.5613672  73.4385056 113.1338306
  65.0357138  59.8149837  93.5094333  65.0235808  60.7591677  93.6662603
  65.9280560  59.6319982  93.2153794  63.2093100  79.7387740 104.9352011
  64.1120347  79.7711351 105.2518506  62.9830470  78.8088191 104.9498346
  64.9646702  78.4918727 101.5962089  64.0142333  78.4920589 101.4826461
  65.2679189  77.7451462 101.0798124  68.8509258  56.4092613  97.7640269
  68.0841654  55.8551100  97.9096952  69.2619963  56.4814482  98.6254421
  60.8551019  62.6977409 111.8545451  61.7182481  62.3414214 112.0648775
  60.2816430  62.3591304 112.5420855  80.6999396  84.3279265 102.6607852
  81.3377806  84.2086013 101.9571192  80.5820239  85.2760109 102.7195804
  77.5089102  84.2806694 102.5969376  77.1707614  84.1647758 101.7089911
  78.3778870  83.8797859 102.5770382  73.3675918  86.1342170  98.5866267
  72.8040783  86.0432107  97.8182555  73.2528313  85.3142074  99.0668760
  77.9908885  85.4341545 108.5555582  77.9797526  85.0394344 107.6836085
  78.1529525  84.7007618 109.1489353  70.9140350  87.6293362 101.4250488
  71.7061642  87.2884186 101.0096787  71.1537000  87.7388337 102.3452641
  78.9475477  89.8013138  93.8980732  78.2963456  90.3867218  93.5114746
  79.7419839  90.3319333  93.9575770  72.8731104  86.8902275  94.2967867
  73.6461980  86.3431262  94.1580742  73.2256503  87.7546524  94.5082328
  74.7116146  88.2178657 107.5034766  74.4206012  89.1224288 107.3881432
  75.3473131  88.2595185 108.2178835  75.6372353  85.5955506 104.0936125
  76.2335925  85.3711528 103.3793088  75.6947325  84.8540251 104.6961573
  75.2097382  83.0494941  91.9286316  75.4622902  82.5276462  91.1669779
  74.2721941  82.8861086  92.0313000  80.2540664  82.0530719  99.7361060
  81.0403754  81.6350142  99.3851477  80.5179369  82.9576811  99.9042708
  80.4250742  87.4903570  94.4349716  79.7896575  87.5638196  95.1470621
  80.0948148  88.0797168  93.7568796  85.6549092  81.9905952 100.6394038
  86.3874263  81.4205169 100.8731868  84.8988447  81.6027553 101.0800544
  74.9293670  84.9523047  94.1310691  74.8129928  84.2767950  94.7991776
  75.0395930  84.4655421  93.3142844  77.2725211  84.4133194  97.8357381
  76.9083418  83.8863815  98.5470302  78.1292327  84.0231663  97.6623866
  83.1774512  75.7027527 105.0988647  82.8457837  76.5722938 104.8749862
  82.5820125  75.3863811 105.7782677  76.9130698  79.4423094  92.8318729
  77.0805101  80.3103330  93.1989200  76.7227867  79.6050375  91.9080018
  79.6706031  87.9040073 104.4984559  79.3706754  88.8065111 104.3900367
  79.3257091  87.6372256 105.3505712  73.1218513  84.3553869 100.5321264
  72.1969009  84.2230084 100.7398956  73.3702926  85.1348089 101.0291206
  83.0703175  80.4222613 102.1781997  82.1620053  80.3538021 101.8840758
  83.0190771  80.8994558 103.0063822  76.8919919  81.8980751  93.8165396
  76.7719544  82.3437802  94.6550876  76.1972507  82.2466069  93.2578934
  70.4827324  83.9987143 101.3665053  70.6119705  84.2521622 102.2804465
  69.8024775  84.5914851 101.0469708  74.6526811  94.6684393  97.4655527
  74.5750841  95.6192218  97.5444008  74.0488455  94.3230265  98.1230453
  77.1444041  81.8412258 110.1216894  76.3677375  82.4006178 110.1119759
  77.7834604  82.3269041 110.6431764  84.9364822  78.6239051 103.9559871
  84.2939202  78.9171584 103.3099665  84.4319750  78.5091971 104.7613067
  82.5904985  82.3702224  94.6445730  83.5022841  82.6029611  94.4693428
  82.0814632  82.9539269  94.0820809  75.3990413  84.6497712 109.6834861
  76.1405098  85.1882756 109.4069685  74.6927399  85.2764000 109.8406413
  80.8745753  86.7926852 108.2807023  81.2829109  86.3509263 107.5361655
  80.1523014  86.2179480 108.5341215  77.2276823  81.7299459 105.6540580
  78.0738018  82.1538873 105.7975229  77.1675461  81.0733083 106.3479143
  81.1974568  87.3528043 102.0359311  80.5683430  87.5173757 101.3335379
  80.8100230  87.7669652 102.8070275  85.0763799  88.2882481  99.3903675
  84.3914838  88.6681382  98.8400709  85.1607649  88.8977807 100.1235623
  80.3776268  79.3903827 107.3121753  80.1337200  80.1445888 106.7756029
  80.6536199  79.7689175 108.1469000  82.3314731  85.9342440 105.9899019
  82.5431626  86.5774200 105.3133400  82.2844479  85.1004756 105.5220949
  79.9340960  78.5460260 102.8935591  79.0725439  78.8441514 103.1852328
  79.9603395  78.7630659 101.9616624  76.7502529  87.0902451  99.3009397
  77.2140875  87.3690154  98.5114019  76.4859328  86.1885895  99.1182487
  73.6426611  86.6373932 102.2389160  74.2127968  87.0661201 101.6006644
  74.2334722  86.3556517 102.9373345  75.6871416  83.2125603  96.1098962
  76.3895459  83.6646647  96.5772888  75.3552044  82.5709422  96.7378855
  74.1351777  81.8037360 110.4850171  73.5050438  82.4853641 110.7185568
  74.0287865  81.6920441 109.5403309  69.4296749  81.4709156 101.4116095
  68.6395803  81.7266684 100.9356206  69.9207997  82.2857494 101.5168136
  83.4460559  88.8114395 104.1621376  84.2678003  88.4094582 103.8804058
  83.4422962  88.7082629 105.1137492  71.3811495  81.8353735  98.3699572
  70.5842658  81.9472429  98.8883068  71.1537087  82.1740387  97.5040462
  77.2117162  88.3598438 106.3182087  77.2761595  88.8218846 107.1540258
  76.5028086  87.7295803 106.4464396  67.7134452  81.7239646 103.8431086
  67.9642491  82.6086656 104.1088662  68.2494001  81.5444248 103.0706178
  91.5366552  85.1553144 100.5106348  90.7830260  84.5860542 100.3550352
  91.6714093  85.1215808 101.4576982  76.9265180  90.0266546  96.1861067
  76.7910855  90.8718082  96.6145915  77.4674993  90.2285824  95.4227001
  73.4132520  76.1058126 112.8475422  73.0199465  75.5524324 113.5223066
  74.2298660  76.4168704 113.2381940  70.3794578  87.5441984  96.7588992
  70.8919098  88.3385234  96.9094557  71.0317290  86.8468274  96.6922593
  72.1889462  90.6607740  98.8411745  72.3656091  91.5825705  98.6532729
  72.9846296  90.3466159  99.2706125  76.3300481  77.5216005 110.4395679
  77.0710194  78.1223158 110.3600141  76.5618404  76.7793643 109.8813721
  71.4741819  82.7072372 108.7173908  71.3595334  81.8057629 109.0181007
  70.6186337  82.9536069 108.3658725  78.5533657  90.6490112 110.3161409
  78.1097511  89.8626491 109.9982313  79.2150870  90.8369263 109.6505300
  73.3120778  92.1785914 104.8422088  73.8628203  92.0502977 104.0699081
  72.4732254  92.4780803 104.4916980  80.6514895  90.9292912 108.3442810
  80.6333370  91.7501793 107.8523079  81.5734815  90.8046988 108.5692951
  77.1087949  88.4437042 109.1866319  77.6416286  87.6825330 108.9565627
  76.5802030  88.1510694 109.9290473  80.2757644  73.5497108 104.7159960
  79.9321913  74.4398749 104.6399071  80.6436606  73.3598765 103.8529545
  68.3443494  85.8730638  97.5348563  69.1818716  86.2827647  97.3182270
  68.5221762  84.9330080  97.5048756  80.2407926  83.5405719  93.2232395
  79.7254550  84.3110324  93.4620783  79.9685235  82.8670855  93.8465457
  77.8255037  78.3855420  98.2817634  76.9696634  77.9962270  98.1023273
  78.2381989  78.4647380  97.4217419  79.3554184  75.9201763 102.6809194
  78.8518980  75.8831898 101.8676999  79.6484791  76.8294506 102.7405850
  75.5997070  76.0040493 101.6875375  76.4650067  75.8083301 101.3281265
  75.6674579  75.7750844 102.6144732  85.2142201  86.2938074  95.1585569
  84.4371643  85.9549233  94.7140731  85.8933682  86.2990697  94.4840534
  80.0294230  81.4132811  95.0492177  79.7244365  81.7278960  95.9002320
  80.9824672  81.4914231  95.0919510  78.4740661  87.5723034  96.6985131
  77.9462023  86.8375794  96.3858368  77.9728164  88.3497711  96.4525099
  83.4533507  85.7672055 101.8152177  82.7957182  86.4571316 101.9032306
  84.2573907  86.1568487 102.1586163  73.2059389  78.2342701  99.0591742
  73.7803141  78.0117882  98.3264935  73.7930371  78.3031395  99.8120343
  82.2638966  84.1216427  99.8656119  82.7770848  84.7546419 100.3677828
  82.9140190  83.5217623  99.4999479  73.5328976  80.2647162  93.0787627
  72.6966288  80.6021848  93.3996902  73.3933746  80.1296141  92.1414764
  75.5082057  75.1083949  97.7866812  74.8546469  74.7932967  97.1623426
  75.4662531  74.4859690  98.5126635  76.6193262  85.3903245  89.7020104
  75.7120323  85.1592498  89.9011253  77.1164294  84.5940864  89.8894085
  79.5261340  94.1000752  92.6216790  78.8523039  94.4032448  93.2301748
  79.9127162  94.9029832  92.2722247  78.7419797  81.5965883 102.1114459
  77.8242358  81.8180830 101.9536147  79.1579941  81.6712193 101.2526167
  79.5254845  82.9957299  97.2417139  80.2726664  83.5078696  96.9324262
  79.7946434  82.6741351  98.1021533  77.7981495  85.4915839  94.2244094
  76.8892714  85.2074872  94.3216564  77.8276579  85.9114918  93.3647401
  83.0300762  89.1022429  97.9935261  82.5763090  88.2613339  98.0500452
  82.3994729  89.7383827  98.3310041  81.9733682  80.0314415  99.2235929
  81.2356439  79.5191801  99.5546171  82.2260456  79.5914797  98.4119206
  81.4733702  90.9398926  98.9285079  81.7656676  91.5003983  98.2097445
  81.9832322  91.2327487  99.6838239  82.0745309  72.8090667  99.8177698
  82.3804186  71.9488030  99.5303613  82.7997914  73.4008287  99.6176692
  68.3669665  83.2121354  98.2059296  68.1694065  82.6190714  97.4810363
  67.8116329  82.9073564  98.9235235  76.3466389  83.1044460 100.3253889
  76.4014999  82.1518296 100.2496366  75.5357591  83.2603899 100.8095188
  77.4957583  87.0324583  91.5632172  77.0577013  86.3160442  91.1037810
  78.2368024  87.2600698  91.0017264  74.2858749  81.7221520  98.0844268
  73.4726615  82.0215690  98.4909460  74.7817743  81.3277209  98.8018750
  76.4367327  91.7179277 100.0178533  76.3943506  91.9440123  99.0887065
  77.3530026  91.4842651 100.1664334  79.8832961  82.1863344 106.9159162
  80.2382348  82.4134817 107.7753628  80.5305092  82.5181721 106.2936417
  85.6130698  85.3081780  97.6208491  85.4748596  85.4983376  96.6929680
  85.2566916  86.0701163  98.0776542  73.7772824  79.2939875 103.7005503
  74.4172203  79.1528634 103.0028466  72.9450354  79.0074389 103.3244105
  85.6400077  87.3758307 102.6319762  86.0736584  87.2833596 103.4802816
  86.3531658  87.3515808 101.9939778  74.5533128  88.5942306  99.8140495
  75.3473726  88.0992626  99.6123070  73.8424820  88.0660169  99.4508201
  79.3727972  90.9760401 104.1652863  79.4264994  91.5451338 104.9330579
  78.5042754  91.1462286 103.8006900  70.8615891  82.7385387  95.8900248
  69.9313479  82.6769843  96.1070210  70.9573363  82.2161340  95.0936889
  70.7801440  79.2640200  98.4778490  71.0408257  80.1785534  98.3687650
  71.6018613  78.7964643  98.6275103  72.2526366  80.6777957 105.6477314
  72.9249419  80.4695320 104.9989963  71.4256152  80.4800043 105.2082547
  86.5015627  87.4182008 105.1652648  86.6951517  88.3227818 105.4111923
  86.4016245  86.9589427 105.9991233  78.1551938  77.3039898 107.6642975
  77.5079853  78.0029848 107.5707452  78.9252953  77.7376042 108.0319223
  81.5630735  87.5688751 110.7393528  81.4116242  87.3399302 109.8223612
  81.5535415  88.5259352 110.7524873  78.3316072  85.1420663 105.7239795
  79.2608132  85.2931823 105.5508762  77.9107102  85.2304684 104.8688441
  77.1304404  89.1671328 103.4938333  76.9915489  88.7990112 104.3664271
  76.3419000  89.6818967 103.3222290  77.7252556  94.2680424  94.8363869
  77.9004311  93.7968467  95.6509492  77.0385344  94.8946190  95.0645130
  78.6809619  88.5452930 100.8827170  78.3459451  88.5053700 101.7784820
  78.1813564  87.8797646 100.4097581  72.6553863  83.9520560 106.4079751
  72.5173661  83.2200799 107.0091290  73.5658786  83.8629461 106.1263939
  81.6168810  85.8908965  91.1564230  80.9997981  85.1655793  91.0597283
  81.1485299  86.6518325  90.8131304  75.2836163  83.6640520 105.8963431
  75.9935782  83.0233712 105.8550050  75.2405472  83.9153415 106.8189612
  83.2722942  90.6007873 108.8170010  83.2135488  89.9167093 108.1500593
  83.6742461  91.3426863 108.3650636  73.9965097  80.6505738 107.7159071
  73.4602454  80.1996476 108.3680667  73.4081806  80.7851646 106.9729535
  72.2913641  97.4169787 101.6103729  72.5310239  98.0488311 102.2882748
  71.4482837  97.0657827 101.8969088  73.4067356  80.1094389  90.2785534
  72.5296823  79.9883190  89.9147781  73.8825109  79.3180467  90.0264423
  83.2740349  88.5647457 107.0483990  82.3867128  88.2273379 107.1710389
  83.8438900  87.8330488 107.2852755  64.9269497  84.8971549 100.3727041
  65.6140536  84.5833279  99.7848057  64.7717625  85.8012913 100.0994293
  69.7304219  79.7861745 104.8012065  69.6462407  79.1787415 104.0662475
  68.9086925  80.2770764 104.8021561  76.8041503  93.2248909 104.0145233
  76.7311674  94.0303881 104.5264538  76.3618896  93.4240875 103.1893255
  76.5931282  92.4620679  97.5248055  75.8098804  93.0042360  97.6186279
  77.2924028  92.9794659  97.9242296  79.9027933  78.2715309 100.1682260
  80.3996632  77.5185271  99.8483330  79.1314914  78.3079626  99.6025469
  87.7557690  83.9755674 101.8100552  87.7447566  84.8580390 101.4394485
  86.8875069  83.6227225 101.6155089  79.2640186  93.1235743 106.1703392
  79.9768159  93.7583208 106.0979293  78.7730215  93.2199609 105.3543394
  80.9857713  87.0286996  97.7420684  80.0513992  87.1488459  97.5725388
  81.1634382  86.1259463  97.4780693  76.4862901  80.4132692  99.8953945
  76.1160689  79.8603732 100.5834850  76.9821994  79.8090825  99.3428945
  84.3730265  82.8704315  98.2770718  84.8390717  83.7032307  98.2031020
  84.8237765  82.4049297  98.9815976  74.3152100  90.8730187 106.9908963
  75.0161559  91.5066670 107.1438357  73.8447215  91.2144918 106.2304602
  82.4406496  89.2148137  95.2756870  82.7166340  89.1004731  96.1850744
  81.5710994  88.8165622  95.2369043  82.3446927  75.2384902 102.3161619
  81.4310007  75.4689129 102.4843826  82.7740029  75.3223346 103.1675651
  82.1153386  83.4274794 104.8161513  81.4624836  83.6750702 104.1613966
  82.4933766  82.6138933 104.4823990  79.0760560  93.4634487  98.9189683
  79.2582954  92.6456143  99.3817436  79.8993546  93.6802180  98.4814573
  79.4102725  92.3902673  96.1804732  79.9390492  91.8795127  95.5674894
  79.6730945  92.0745203  97.0450265  78.1640959  84.1694605 111.3027550
  77.4881596  84.0688735 111.9729925  78.9868593  84.0133819 111.7663547
  69.9119818  90.4066542 103.9240065  70.4973255  89.6610230 104.0567970
  69.7144656  90.7170499 104.8076729  72.7658473  93.4417789  98.9402508
  72.0968848  93.9263917  98.4566548  72.6271343  93.6887010  99.8545886
  64.5037473  82.9772142 102.6444508  64.5421572  82.4435733 103.4381627
  63.9977765  82.4507348 102.0255486  76.9063742  95.4761533 105.5385166
  77.4582050  95.6393154 106.3034251  77.2469935  96.0665971 104.8665191
  71.8828235  77.8236683 106.1407051  71.9469561  78.6851514 105.7284448
  71.8195355  77.2110684 105.4079409  71.3580507  79.8959815 109.7880085
  71.9852546  79.5136892 110.4017609  70.5008426  79.6774017 110.1535778
  68.1346050  81.7036244  95.7198440  68.4299491  80.7946923  95.6665494
  67.2334086  81.6823984  95.3979442  80.0432129  93.4243508 102.5248848
  79.9183268  92.6233248 102.0159794  80.7011220  93.9189702 102.0362818
  71.6640297  79.7792241 101.7025988  70.9426883  80.3928209 101.5633462
  72.4533553  80.3150006 101.6242634  82.1067037  91.2252528 104.1528398
  81.1597373  91.1057880 104.0806725  82.4549810  90.3375026 104.2354660
  74.4666611  77.1146667 107.9766640  74.9901013  77.3608964 108.7392950
  74.2478944  77.9466702 107.5569778  69.8633892  79.3850342  95.8437765
  69.5346598  78.5047721  95.6612871  70.2173262  79.3298011  96.7314154
  79.1113471  91.0205245 100.3532751  78.9638433  90.0921952 100.5340321
  79.9366964  91.0425335  99.8689826  72.9775715  79.6723312  96.2113243
  73.3171787  80.2009233  95.4891851  73.4247835  80.0103718  96.9871809
  82.7147593  91.8433803 101.4397623  83.6394140  91.6376665 101.3022074
  82.5462896  91.5950205 102.3486965  75.6719156  78.0560362 105.6616311
  75.3315976  77.2568176 106.0636991  74.9658162  78.3562073 105.0893144
  76.3235628  75.1409675 104.1143634  77.1461697  74.6670153 103.9922524
  76.5673691  75.9200159 104.6142320  74.9643862  78.1697933  94.4106535
  75.6852225  78.5479186  93.9070252  74.3409166  78.8886810  94.5141513
  79.1074985  78.8743082  95.3464868  79.3238599  79.7567720  95.0453696
  78.6269052  78.4829296  94.6170510  73.8474206  81.8328796 101.9235612
  73.7018787  82.1469099 102.8159894  73.3699410  82.4513696 101.3706511
  75.7070589  78.8231344 101.9716502  75.6932158  77.9272437 101.6348800
  76.4243017  78.8302007 102.6054788  77.5596720  79.2568684 104.0169629
  77.3014498  80.1785754 104.0153960  77.0281760  78.8599118 104.7070094
  82.5042909  92.3619471  96.7959715  82.6779786  91.7965893  96.0433567
  82.9971800  93.1620366  96.6139205  68.3219869  84.3734140 104.8623274
  67.7773337  85.1493948 104.9943548  69.1999218  84.7204944 104.7042395
  75.1107485  77.7045724  97.2404072  75.2323396  76.7762370  97.4394960
  74.8209528  77.7184410  96.3282388  77.9798676  75.3900634 100.3770792
  78.0020372  75.4539967  99.4222771  78.3966735  74.5505143 100.5711298
  88.3582300  85.1255894  98.4150015  88.8013446  84.3763219  98.0169138
  87.4808810  85.1166030  98.0323746  83.4918081  91.6786235  93.8956613
  84.1868986  92.2992928  94.1143928  83.8341231  90.8281586  94.1708991
  69.1085890  83.5004036 107.7553430  68.3667626  83.6486672 108.3418061
  68.7878635  83.7612302 106.8920180  85.3909504  89.1285941  95.4243944
  85.9160828  89.4673214  94.6993264  85.3031857  88.1932956  95.2407078
  77.0529553  93.0420014 107.5533820  77.3616679  92.7969161 108.4256520
  77.8505035  93.2466653 107.0652691  77.0750165  95.1957924  99.7839197
  76.6355155  94.7034303 100.4772054  77.8258282  94.6530892  99.5431272
  69.5542504  91.3869465  99.7863825  70.3800524  91.0873237  99.4062469
  69.2036556  90.6177087 100.2353614  74.5224037  90.7395933 101.8561499
  73.9004047  90.0766638 101.5563727  75.1928904  90.7657065 101.1735146
  67.7551109  89.3055791 100.7452759  66.9183017  88.8777966 100.5636760
  67.7274755  89.4988235 101.6823550  74.5948565  79.2177721 111.4494005
  74.6436720  80.0939844 111.0671774  75.1371079  78.6755114 110.8765648
  85.2001285  86.6111311 108.0427870  85.2499290  86.4461318 108.9843393
  85.0915209  85.7438570 107.6525751  74.0837544  89.2899856  95.3319959
  74.2325665  89.9735321  94.6786632  74.8903988  89.2704947  95.8469415
  82.4905048  82.5942239 109.3587177  83.3914911  82.4548704 109.0671175
  82.5653022  82.7596694 110.2985354  76.8247853  79.9709094 108.2040363
  75.9551163  80.2642660 107.9322952  77.0607334  80.5549539 108.9247627
  86.7019482  89.0308252 108.2869892  86.4104291  89.3938233 109.1233353
  86.0891614  88.3175261 108.1083224  87.9015165  86.5961132 100.8072462
  88.7362056  87.0350936 100.9710022  88.0374293  86.1199785  99.9880708
  84.9506671  84.1540867 106.7549950  85.4260792  84.3468513 105.9468801
  84.0272236  84.2100053 106.5093334  71.8390177  85.3165034  96.3381028
  71.5936219  84.4127364  96.5361238  72.0086092  85.3182185  95.3960506
  79.5286887  76.1888710 105.7205784  80.0468831  76.9249737 105.3952272
  79.1742020  76.4952704 106.5552543  71.1085825  81.0493392  93.8367190
  70.4155070  81.1237747  93.1807226  70.8637577  80.2853735  94.3588707
  79.7799481  72.6088993 101.2406680  80.0601235  71.9412182 101.8667107
  80.5650088  72.8018089 100.7281344  77.5832950  91.7847987  92.8031707
  77.0106917  92.4038174  92.3502179  78.1565743  92.3347349  93.3371629
  83.6508340  81.0306627 104.9878255  84.6025762  81.1304725 105.0090479
  83.4811790  80.2384896 105.4976340  81.6722719  78.1162210 105.1737656
  81.0772651  78.3967223 104.4784145  81.3872416  78.6056111 105.9454397
  80.8030209  92.0685137  93.9340289  81.7360883  92.0030699  94.1373164
  80.7153422  92.9041404  93.4754822  83.4318226  91.3851007  90.8944236
  83.3531858  91.0510871  91.7879994  84.2527893  91.8772775  90.8935709
  86.1296417  84.2512747 104.1020555  86.0972737  83.3128747 104.2880239
  86.7397041  84.3296783 103.3686380  77.9679748  83.1208800  90.1447759
  78.9138853  82.9915008  90.2136177  77.5893993  82.3823462  90.6217187
  86.2790906  81.0423790 104.1478838  85.7629954  80.2582247 103.9608767
  87.1630854  80.7142507 104.3125358  83.9401633  74.7864806 100.1074651
  83.7426454  74.4779894 100.9917983  84.5501338  75.5126445 100.2372581
  91.9472967  85.3128754 103.2426592  92.6776356  85.0514042 103.8034295
  91.3379913  84.5757475 103.2828660  90.0288264  83.4536616 103.8401043
  89.3021428  83.3192581 103.2317535  89.6135551  83.7613445 104.6457761
  77.8518441  87.1726546 111.6048416  78.7721450  87.3505145 111.7988463
  77.8168024  86.2282591 111.4528115  76.1522665  81.0458776  90.0802644
  75.2454121  80.7491889  90.1565358  76.4298646  80.7488594  89.2136931
  67.0700606  82.3665139 100.5301691  66.7503390  81.5130448 100.2376065
  66.5234034  82.5813718 101.2859658  70.8480513  85.0827580 104.2471197
  71.0666523  86.0144688 104.2659231  71.2606287  84.7235555 105.0326001
  77.7684731  75.5895666  96.2346886  76.9585459  75.2442751  96.6102132
  78.4569148  75.2803210  96.8234497  79.6975279  74.6673713  97.8571182
  80.2506318  75.0869166  98.5161205  79.9345366  73.7409461  97.8994138
  75.7208379  80.6560786 113.6373946  75.6205105  81.6055143 113.5686037
  75.5029921  80.3279025 112.7650016  66.9388866  85.9868051 102.4994812
  66.2452337  85.5722004 101.9864767  67.6861857  86.0288587 101.9028231
  83.0754086  76.7774238  97.3649847  82.4952755  77.4359042  96.9827899
  82.8090019  75.9551582  96.9537264  81.5257653  76.1779295  99.5671167
  82.0257431  76.2895830  98.7585486  82.1693261  75.8740348 100.2071975
  75.5839649  84.0857925 112.4539008  75.1006730  84.8858285 112.6602897
  75.6700588  84.0965870 111.5006452  68.8525608  85.9186305 100.3760827
  68.8296296  86.0173992  99.4242710  69.1626245  86.7651456 100.6977993
  71.5112986  87.9762460 104.4907442  72.4656240  87.9446402 104.4237373
  71.3125510  87.5153084 105.3057668  72.1012368  86.5463576 107.0578239
  72.9205257  87.0407654 107.0813077  72.3749176  85.6295544 107.0295807
  81.8578964  78.9374328  96.4206195  80.9704819  79.2223979  96.2026390
  82.2732954  78.7768091  95.5733472  85.2093501  78.9620849 100.1360534
  85.9853891  79.4517302 100.4085151  84.4841635  79.3878903 100.5932404
  87.6466059  79.6748468 101.1934475  88.2410550  79.4344204 100.4827783
  87.7192643  78.9555599 101.8208011  69.8663215  93.5182079 101.5077640
  69.7317683  92.7582480 100.9415638  69.4495277  94.2422979 101.0406428
  81.0022178  88.7019003  90.5154215  81.7058028  88.9069005  91.1311870
  80.2784827  89.2695765  90.7803298  81.8319988  84.4528864  96.6356485
  81.7755190  84.9097415  95.7964117  82.3848331  83.6919549  96.4579328
  85.6424794  80.2418596  97.4606604  85.3861728  79.8415232  98.2914812
  85.0177662  80.9562390  97.3356744  89.9537132  82.9814669  99.9677896
  89.3936690  83.0507858 100.7409458  89.3480635  82.8055654  99.2477392
  73.0232341  94.4151396 101.7196082  72.9064725  95.3596829 101.6174772
  72.2024787  94.1124958 102.1081881  82.9108875  89.1401532  92.5652675
  83.7454479  88.7082730  92.3830150  82.7493218  88.9683546  93.4929569
  82.5654767  85.6433645  93.9309014  82.5103571  85.4777917  92.9897458
  81.9400823  86.3509678  94.0871204  67.3547282  80.8801710 107.7570436
  68.0006146  80.3700664 108.2457662  67.1464434  81.6170391 108.3313862
  75.8750893  75.1441754  93.5094333  75.8629563  76.0883594  93.6662603
  76.7674315  74.9611900  93.2153794  74.0486855  95.0679658 104.9352011
  74.9514102  95.1003268 105.2518506  73.8224225  94.1380109 104.9498346
  75.8040457  93.8210645 101.5962089  74.8536088  93.8212506 101.4826461
  76.1072943  93.0743379 101.0798124  79.6903012  71.7384531  97.7640269
  78.9235408  71.1843018  97.9096952  80.1013717  71.8106400  98.6254421
  71.6944773  78.0269327 111.8545451  72.5576235  77.6706132 112.0648775
  71.1210184  77.6883222 112.5420855  88.3482857  99.6098611 102.5969376
  88.0101368  99.4939676 101.7089911  89.2172625  99.2089776 102.5770382
  84.2069672 101.4634088  98.5866267  83.6434538 101.3724025  97.8182555
  84.0922067 100.6433992  99.0668760  81.7534104 102.9585279 101.4250488
  82.5455396 102.6176104 101.0096787  81.9930754 103.0680254 102.3452641
  89.7869231 105.1305055  93.8980732  89.1357211 105.7159136  93.5114746
  90.5813594 105.6611250  93.9575770  83.7124858 102.2194192  94.2967867
  84.4855734 101.6723180  94.1580742  84.0650257 103.0838442  94.5082328
  86.0491136  98.3786859  91.9286316  86.3016657  97.8568380  91.1669779
  85.1115695  98.2153004  92.0313000  91.0934419  97.3822637  99.7361060
  91.8797508  96.9642060  99.3851477  91.3573123  98.2868729  99.9042708
  91.2644496 102.8195487  94.4349716  90.6290329 102.8930114  95.1470621
  90.9341903 103.4089086  93.7568796  96.4942846  97.3197870 100.6394038
  97.2268018  96.7497087 100.8731868  95.7382202  96.9319471 101.0800544
  85.7687425 100.2814965  94.1310691  85.6523683  99.6059868  94.7991776
  85.8789685  99.7947338  93.3142844  88.1118966  99.7425112  97.8357381
  87.7477173  99.2155733  98.5470302  88.9686082  99.3523581  97.6623866
  94.0168266  91.0319444 105.0988647  93.6851591  91.9014855 104.8749862
  93.4213880  90.7155728 105.7782677  87.7524453  94.7715011  92.8318729
  87.9198855  95.6395248  93.1989200  87.5621622  94.9342293  91.9080018
  83.9612267  99.6845787 100.5321264  83.0362764  99.5522001 100.7398956
  84.2096681 100.4640006 101.0291206  87.7313674  97.2272669  93.8165396
  87.6113299  97.6729720  94.6550876  87.0366262  97.5757987  93.2578934
  81.3221078  99.3279061 101.3665053  81.4513460  99.5813540 102.2804465
  80.6418530  99.9206769 101.0469708  85.4920566 109.9976311  97.4655527
  85.4144595 110.9484136  97.5444008  84.8882209 109.6522183  98.1230453
  93.4298740  97.6994142  94.6445730  94.3416596  97.9321529  94.4693428
  92.9208387  98.2831186  94.0820809  90.7734715  93.8752178 102.8935591
  89.9119194  94.1733432 103.1852328  90.7997149  94.0922577 101.9616624
  87.5896284 102.4194369  99.3009397  88.0534629 102.6982072  98.5114019
  87.3253082 101.5177813  99.1182487  84.4820365 101.9665850 102.2389160
  85.0521722 102.3953118 101.6006644  85.0728477 101.6848435 102.9373345
  86.5265170  98.5417521  96.1098962  87.2289213  98.9938565  96.5772888
  86.1945798  97.9001340  96.7378855  80.2690504  96.8001074 101.4116095
  79.4789558  97.0558602 100.9356206  80.7601751  97.6149411 101.5168136
  82.2205249  97.1645653  98.3699572  81.4236413  97.2764347  98.8883068
  81.9930842  97.5032305  97.5040462  78.5528207  97.0531564 103.8431086
  78.8036245  97.9378574 104.1088662  79.0887755  96.8736166 103.0706178
  87.7658935 105.3558464  96.1861067  87.6304609 106.2009999  96.6145915
  88.3068747 105.5577741  95.4227001  81.2188332 102.8733902  96.7588992
  81.7312853 103.6677152  96.9094557  81.8711045 102.1760192  96.6922593
  83.0283217 105.9899658  98.8411745  83.2049845 106.9117623  98.6532729
  83.8240050 105.6758077  99.2706125  91.1151398  88.8789025 104.7159960
  90.7715668  89.7690667 104.6399071  91.4830361  88.6890683 103.8529545
  79.1837249 101.2022556  97.5348563  80.0212471 101.6119564  97.3182270
  79.3615516 100.2621998  97.5048756  91.0801681  98.8697637  93.2232395
  90.5648304  99.6402241  93.4620783  90.8078989  98.1962773  93.8465457
  88.6648792  93.7147337  98.2817634  87.8090388  93.3254188  98.1023273
  89.0775744  93.7939298  97.4217419  90.1947939  91.2493681 102.6809194
  89.6912734  91.2123816 101.8676999  90.4878545  92.1586423 102.7405850
  86.4390824  91.3332410 101.6875375  87.3043821  91.1375219 101.3281265
  86.5068333  91.1042762 102.6144732  96.0535955 101.6229991  95.1585569
  95.2765398 101.2841151  94.7140731  96.7327436 101.6282614  94.4840534
  90.8687984  96.7424729  95.0492177  90.5638120  97.0570878  95.9002320
  91.8218426  96.8206149  95.0919510  89.3134416 102.9014952  96.6985131
  88.7855777 102.1667712  96.3858368  88.8121919 103.6789628  96.4525099
  84.0453144  93.5634618  99.0591742  84.6196895  93.3409800  98.3264935
  84.6324126  93.6323313  99.8120343  93.1032721  99.4508345  99.8656119
  93.6164602 100.0838337 100.3677828  93.7533945  98.8509541  99.4999479
  84.3722731  95.5939079  93.0787627  83.5360043  95.9313766  93.3996902
  84.2327500  95.4588059  92.1414764  86.3475811  90.4375867  97.7866812
  85.6940224  90.1224884  97.1623426  86.3056285  89.8151608  98.5126635
  87.4587016 100.7195162  89.7020104  86.5514078 100.4884416  89.9011253
  87.9558048  99.9232781  89.8894085  90.3655095 109.4292669  92.6216790
  89.6916794 109.7324366  93.2301748  90.7520917 110.2321750  92.2722247
  89.5813552  96.9257801 102.1114459  88.6636113  97.1472748 101.9536147
  89.9973695  97.0004111 101.2526167  90.3648599  98.3249216  97.2417139
  91.1120418  98.8370614  96.9324262  90.6340189  98.0033269  98.1021533
  88.6375250 100.8207757  94.2244094  87.7286469 100.5366790  94.3216564
  88.6670333 101.2406836  93.3647401  92.8127437  95.3606333  99.2235929
  92.0750193  94.8483719  99.5546171  93.0654210  94.9206714  98.4119206
  92.9139064  88.1382585  99.8177698  93.2197941  87.2779948  99.5303613
  93.6391669  88.7300205  99.6176692  79.2063420  98.5413271  98.2059296
  79.0087820  97.9482632  97.4810363  78.6510084  98.2365481  98.9235235
  87.1860144  98.4336378 100.3253889  87.2408753  97.4810214 100.2496366
  86.3751346  98.5895817 100.8095188  88.3351337 102.3616501  91.5632172
  87.8970767 101.6452360  91.1037810  89.0761778 102.5892616  91.0017264
  85.1252503  97.0513437  98.0844268  84.3120369  97.3507608  98.4909460
  85.6211498  96.6569126  98.8018750  96.4524452 100.6373698  97.6208491
  96.3142351 100.8275294  96.6929680  96.0960671 101.3993081  98.0776542
  84.6166578  94.6231793 103.7005503  85.2565958  94.4820552 103.0028466
  83.7844109  94.3366306 103.3244105  85.3926882 103.9234223  99.8140495
  86.1867481 103.4284544  99.6123070  84.6818575 103.3952087  99.4508201
  81.7009646  98.0677305  95.8900248  80.7707234  98.0061761  96.1070210
  81.7967118  97.5453258  95.0936889  81.6195195  94.5932118  98.4778490
  81.8802012  95.5077451  98.3687650  82.4412367  94.1256561  98.6275103
  83.0920120  96.0069875 105.6477314  83.7643173  95.7987237 104.9989963
  82.2649907  95.8091961 105.2082547  88.5646310 109.5972342  94.8363869
  88.7398066 109.1260385  95.6509492  87.8779098 110.2238108  95.0645130
  92.4562565 101.2200882  91.1564230  91.8391736 100.4947711  91.0597283
  91.9879053 101.9810243  90.8131304  84.2461111  95.4386307  90.2785534
  83.3690577  95.3175107  89.9147781  84.7218864  94.6472385  90.0264423
  75.7663251 100.2263466 100.3727041  76.4534291  99.9125196  99.7848057
  75.6111380 101.1304831 100.0994293  80.5697973  95.1153663 104.8012065
  80.4856162  94.5079333 104.0662475  79.7480680  95.6062681 104.8021561
  87.4325037 107.7912597  97.5248055  86.6492559 108.3334277  97.6186279
  88.1317782 108.3086577  97.9242296  90.7421687  93.6007227 100.1682260
  91.2390387  92.8477189  99.8483330  89.9708669  93.6371543  99.6025469
  91.8251468 102.3578914  97.7420684  90.8907746 102.4780376  97.5725388
  92.0028136 101.4551381  97.4780693  87.3256656  95.7424610  99.8953945
  86.9554443  95.1895650 100.5834850  87.8215748  95.1382743  99.3428945
  95.2124019  98.1996233  98.2770718  95.6784471  99.0324225  98.2031020
  95.6631520  97.7341215  98.9815976  93.2800250 104.5440054  95.2756870
  93.5560094 104.4296649  96.1850744  92.4104749 104.1457539  95.2369043
  93.1840682  90.5676820 102.3161619  92.2703762  90.7981047 102.4843826
  93.6133783  90.6515264 103.1675651  90.2496480 107.7194590  96.1804732
  90.7784246 107.2087045  95.5674894  90.5124699 107.4037121  97.0450265
  75.3431227  98.3064060 102.6444508  75.3815327  97.7727650 103.4381627
  74.8371520  97.7799265 102.0255486  82.7221989  93.1528600 106.1407051
  82.7863316  94.0143431 105.7284448  82.6589110  92.5402602 105.4079409
  78.9739805  97.0328162  95.7198440  79.2693246  96.1238840  95.6665494
  78.0727840  97.0115901  95.3979442  82.5034052  95.1084159 101.7025988
  81.7820637  95.7220126 101.5633462  83.2927307  95.6441923 101.6242634
  80.7027646  94.7142260  95.8437765  80.3740352  93.8339639  95.6612871
  81.0567017  94.6589928  96.7314154  83.8169469  95.0015229  96.2113243
  84.1565542  95.5301151  95.4891851  84.2641590  95.3395636  96.9871809
  86.5112910  93.3852280 105.6616311  86.1709731  92.5860093 106.0636991
  85.8051917  93.6853991 105.0893144  87.1629382  90.4701593 104.1143634
  87.9855451  89.9962071 103.9922524  87.4067446  91.2492076 104.6142320
  85.8037617  93.4989851  94.4106535  86.5245979  93.8771104  93.9070252
  85.1802921  94.2178728  94.5141513  89.9468739  94.2035000  95.3464868
  90.1632354  95.0859638  95.0453696  89.4662807  93.8121213  94.6170510
  84.6867961  97.1620713 101.9235612  84.5412542  97.4761016 102.8159894
  84.2093164  97.7805614 101.3706511  86.5464344  94.1523261 101.9716502
  86.5325912  93.2564354 101.6348800  87.2636772  94.1593925 102.6054788
  88.3990474  94.5860601 104.0169629  88.1408252  95.5077672 104.0153960
  87.8675515  94.1891036 104.7070094  79.1613623  99.7026058 104.8623274
  78.6167091 100.4785866 104.9943548  80.0392973 100.0496862 104.7042395
  85.9501240  93.0337641  97.2404072  86.0717151  92.1054288  97.4394960
  85.6603282  93.0476327  96.3282388  88.8192430  90.7192552 100.3770792
  88.8414127  90.7831885  99.4222771  89.2360489  89.8797061 100.5711298
  94.3311836 107.0078153  93.8956613  95.0262740 107.6284846  94.1143928
  94.6734986 106.1573504  94.1708991  96.2303259 104.4577858  95.4243944
  96.7554583 104.7965131  94.6993264  96.1425611 103.5224874  95.2407078
  80.3936259 106.7161383  99.7863825  81.2194278 106.4165154  99.4062469
  80.0430311 105.9469005 100.2353614  78.5944864 104.6347709 100.7452759
  77.7576772 104.2069883 100.5636760  78.5668509 104.8280152 101.6823550
  84.9231299 104.6191774  95.3319959  85.0719419 105.3027239  94.6786632
  85.7297742 104.5996864  95.8469415  82.6783932 100.6456952  96.3381028
  82.4329974  99.7419282  96.5361238  82.8479846 100.6474102  95.3960506
  90.3680641  91.5180628 105.7205784  90.8862585  92.2541655 105.3952272
  90.0135774  91.8244621 106.5552543  81.9479579  96.3785309  93.8367190
  81.2548824  96.4529664  93.1807226  81.7031331  95.6145653  94.3588707
  90.6193236  87.9380911 101.2406680  90.8994989  87.2704100 101.8667107
  91.4043843  88.1310006 100.7281344  88.4226704 107.1139905  92.8031707
  87.8500671 107.7330092  92.3502179  88.9959498 107.6639266  93.3371629
  91.6423964 107.3977055  93.9340289  92.5754637 107.3322616  94.1373164
  91.5547177 108.2333322  93.4754822  94.2711981 106.7142925  90.8944236
  94.1925612 106.3802789  91.7879994  95.0921647 107.2064693  90.8935709
  88.8073503  98.4500717  90.1447759  89.7532607  98.3206925  90.2136177
  88.4287748  97.7115379  90.6217187  94.7795387  90.1156723 100.1074651
  94.5820208  89.8071812 100.9917983  95.3895093  90.8418362 100.2372581
  86.9916420  96.3750694  90.0802644  86.0847875  96.0783806  90.1565358
  87.2692401  96.0780512  89.2136931  77.9094360  97.6957057 100.5301691
  77.5897145  96.8422365 100.2376065  77.3627788  97.9105635 101.2859658
  81.6874268 100.4119498 104.2471197  81.9060278 101.3436606 104.2659231
  82.1000042 100.0527473 105.0326001  88.6078486  90.9187583  96.2346886
  87.7979214  90.5734668  96.6102132  89.2962902  90.6095127  96.8234497
  90.5369034  89.9965630  97.8571182  91.0900072  90.4161084  98.5161205
  90.7739120  89.0701378  97.8994138  85.7615204  93.2337629  90.2214624
  86.6234368  93.5592527  90.4810441  85.9465549  92.4469125  89.7087689
  77.7782620 101.3159969 102.4994812  77.0846092 100.9013921 101.9864767
  78.5255611 101.3580505 101.9028231  93.9147841  92.1066155  97.3649847
  93.3346510  92.7650959  96.9827899  93.6483774  91.2843500  96.9537264
  92.3651407  91.5071213  99.5671167  92.8651186  91.6187748  98.7585486
  93.0087015  91.2032266 100.2071975  79.6919363 101.2478222 100.3760827
  79.6690051 101.3465910  99.4242710  80.0019999 102.0943373 100.6977993
  92.6972719  94.2666246  96.4206195  91.8098574  94.5515896  96.2026390
  93.1126708  94.1060009  95.5733472  96.0487255  94.2912767 100.1360534
  96.8247645  94.7809219 100.4085151  95.3235389  94.7170821 100.5932404
  98.4859814  95.0040386 101.1934475  99.0804304  94.7636122 100.4827783
  98.5586397  94.2847517 101.8208011  91.8415932 104.0310920  90.5154215
  92.5451783 104.2360923  91.1311870  91.1178581 104.5987682  90.7803298
  92.6713743  99.7820782  96.6356485  92.6148944 100.2389333  95.7964117
  93.2242085  99.0211466  96.4579328  96.4818549  95.5710514  97.4606604
  96.2255483  95.1707149  98.2914812  95.8571417  96.2854308  97.3356744
  93.7502630 104.4693450  92.5652675  94.5848234 104.0374648  92.3830150
  93.5886973 104.2975463  93.4929569  93.4048522 100.9725563  93.9309014
  93.3497326 100.8069834  92.9897458  92.7794577 101.6801596  94.0871204
  78.1941037  96.2093627 107.7570436  78.8399901  95.6992581 108.2457662
  77.9858188  96.9462309 108.3313862  86.7144647  90.4733672  93.5094333
  86.7023317  91.4175512  93.6662603  87.6068069  90.2903817  93.2153794
  90.5296767  87.0676449  97.7640269  89.7629163  86.5134935  97.9096952
  90.9407472  87.1398317  98.6254421  95.2116485 110.9230997  93.0787627
  94.3753797 111.2605683  93.3996902  95.0721255 110.7879977  92.1414764
  95.0854865 110.7678224  90.2785534  94.2084332 110.6467025  89.9147781
  95.5612618 109.9764303  90.0264423  92.7873334 111.7077227  93.8367190
  92.0942579 111.7821582  93.1807226  92.5425086 110.9437571  94.3588707
  97.8310174 111.7042611  90.0802644  96.9241630 111.4075724  90.1565358
  98.1086155 111.4072429  89.2136931  96.6008959 108.5629547  90.2214624
  97.4628123 108.8884445  90.4810441  96.7859303 107.7761043  89.7087689
  97.5538402 105.8025590  93.5094333  97.5417072 106.7467430  93.6662603
  98.4461824 105.6195735  93.2153794  37.3424379   0.0173717  89.3853158
  37.9802789  -0.1019535  88.6816498  37.2245222   0.9654561  89.4441110
  34.1514085  -0.0298855  89.3214683  33.8132597  -0.1457790  88.4335218
  35.0203854  -0.4307689  89.3015689  30.0100901   1.8236622  85.3111574
  29.4465766   1.7326559  84.5427862  29.8953296   1.0036526  85.7914066
  35.5900460   5.4907590  80.6226039  34.9388440   6.0761670  80.2360053
  36.3844823   6.0213784  80.6821076  29.5156087   2.5796727  81.0213173
  30.2886963   2.0325714  80.8826049  29.8681486   3.4440976  81.2327635
  31.8522365  -1.2610607  78.6531623  32.1047886  -1.7829086  77.8915086
  30.9146924  -1.4244462  78.7558307  36.8965648  -2.2574829  86.4606366
  37.6828737  -2.6755406  86.1096783  37.1604352  -1.3528737  86.6288015
  37.0675725   3.1798021  81.1595023  36.4321558   3.2532648  81.8715928
  36.7373131   3.7691620  80.4814102  42.2974075  -2.3199596  87.3639345
  43.0299247  -2.8900379  87.5977174  41.5413431  -2.7077995  87.8045850
  31.5718654   0.6417499  80.8555998  31.4554912  -0.0337598  81.5237082
  31.6820914   0.1549873  80.0388151  33.9150195   0.1027646  84.5602687
  33.5508402  -0.4241733  85.2715609  34.7717310  -0.2873885  84.3869173
  33.5555682  -4.8682454  79.5564036  33.7230084  -4.0002218  79.9234507
  33.3652851  -4.7055173  78.6325325  36.3131015   3.5934524  91.2229866
  36.0131738   4.4959563  91.1145673  35.9682074   3.3266708  92.0751019
  39.7128158  -3.8882935  88.9027303  38.8045036  -3.9567527  88.6086064
  39.6615754  -3.4110990  89.7309129  33.5344902  -2.4124797  80.5410703
  33.4144528  -1.9667746  81.3796183  32.8397491  -2.0639479  79.9824241
  31.2951795  10.3578845  84.1900834  31.2175824  11.3086670  84.2689314
  30.6913438  10.0124717  84.8475760  39.2329969  -1.9403324  81.3691037
  40.1447825  -1.7075937  81.1938734  38.7239616  -1.3566280  80.8066115
  37.8399551   3.0422495  88.7604618  37.2108413   3.2068209  88.0580686
  37.4525213   3.4564104  89.5315582  41.7188783   3.9776933  86.1148982
  41.0339821   4.3575834  85.5646015  41.8032632   4.5872259  86.8480930
  33.3927513   2.7796903  86.0254703  33.8565858   3.0584606  85.2359326
  33.1284311   1.8780347  85.8427794  32.3296399  -1.0979945  82.8344268
  33.0320442  -0.6458901  83.3018195  31.9977027  -1.7396126  83.4624161
  40.0885542   4.5008847  90.8866683  40.9102986   4.0989034  90.6049364
  40.0847945   4.3977081  91.8382799  48.1791535   0.8447595  87.2351654
  47.4255244   0.2754994  87.0795659  48.3139077   0.8110260  88.1822289
  33.5690163   5.7160998  82.9106374  33.4335838   6.5612533  83.3391221
  34.1099976   5.9180275  82.1472307  27.0219561   3.2336436  83.4834299
  27.5344081   4.0279686  83.6339863  27.6742274   2.5362726  83.4167900
  28.8314446   6.3502192  85.5657052  29.0081074   7.2720157  85.3778036
  29.6271279   6.0360611  85.9951432  29.9545761   7.8680366  91.5667394
  30.5053186   7.7397429  90.7944388  29.1157237   8.1675255  91.2162287
  36.8832910  -0.7699829  79.9477702  36.3679533   0.0004775  80.1866090
  36.6110218  -1.4434693  80.5710764  41.8567184   1.9832525  81.8830876
  41.0796627   1.6443685  81.4386038  42.5358665   1.9885149  81.2085841
  36.6719213  -2.8972737  81.7737483  36.3669348  -2.5826588  82.6247626
  37.6249655  -2.8191317  81.8164816  35.1165645   3.2617486  83.4230437
  34.5887006   2.5270246  83.1103675  34.6153147   4.0392163  83.1770406
  40.0958491   1.4566507  88.5397484  39.4382165   2.1465768  88.6277612
  40.8998890   1.8462939  88.8831470  38.9063950  -0.1889121  86.5901425
  39.4195831   0.4440871  87.0923135  39.5565173  -0.7887925  86.2244785
  33.2618245   1.0797696  76.4265410  32.3545307   0.8486950  76.6256559
  33.7589277   0.2835316  76.6139392  36.1686324   9.7895204  79.3462096
  35.4948023  10.0926900  79.9547054  36.5552146  10.5924284  78.9967554
  36.1679828  -1.3148249  83.9662446  36.9151647  -0.8026852  83.6569568
  36.4371418  -1.6364197  84.8266840  34.4406478   1.1810291  80.9489400
  33.5317698   0.8969324  81.0461870  34.4701562   1.6009370  80.0892707
  39.6725746   4.7916881  84.7180568  39.2188073   3.9507791  84.7745758
  39.0419712   5.4278279  85.0555348  38.6158665  -4.2791133  85.9481235
  37.8781422  -4.7913747  86.2791478  38.8685439  -4.7190752  85.1364512
  38.1158685   6.6293377  85.6530386  38.4081659   7.1898435  84.9342752
  38.6257306   6.9221938  86.4083545  32.9891372  -1.2061088  87.0499196
  33.0439982  -2.1587252  86.9741672  32.1782574  -1.0501649  87.5340494
  34.1382566   2.7219035  78.2877479  33.7001996   2.0054894  77.8283116
  34.8793007   2.9495150  77.7262570  30.9283732  -2.5884028  84.8089575
  30.1151598  -2.2889858  85.2154767  31.4242726  -2.9828340  85.5264057
  33.0792310   7.4073729  86.7423839  33.0368489   7.6334575  85.8132371
  33.9955009   7.1737103  86.8909640  42.2555681   0.9976232  84.3453798
  42.1173580   1.1877828  83.4174987  41.8991900   1.7595615  84.8021849
  42.2825061   3.0652759  89.3565069  42.7161567   2.9728048  90.2048123
  42.9956641   3.0410259  88.7185085  31.1958111   4.2836758  86.5385802
  31.9898709   3.7887078  86.3368377  30.4849803   3.7554621  86.1753508
  36.0152955   6.6654853  90.8898170  36.0689978   7.2345789  91.6575886
  35.1467737   6.8356738  90.5252207  43.1440610   3.1076460  91.8897954
  43.3376500   4.0122270  92.1357229  43.0441228   2.6483879  92.7236539
  33.7729387   4.8565780  90.2183639  33.6340473   4.4884564  91.0909577
  32.9843983   5.3713419  90.0467597  34.3677539   9.9574876  81.5609176
  34.5429295   9.4862919  82.3754798  33.6810327  10.5840642  81.7890436
  35.3234602   4.2347382  87.6072477  34.9884435   4.1948152  88.5030127
  34.8238548   3.5692098  87.1342887  38.2593794   1.5803417  77.8809537
  37.6422964   0.8550245  77.7842589  37.7910282   2.3412777  77.5376611
  28.9338624  13.1064239  88.3349036  29.1735222  13.7382763  89.0128054
  28.0907821  12.7552279  88.6214395  33.4466486   8.9143361  90.7390540
  33.3736658   9.7198333  91.2509844  33.0043879   9.1135327  89.9138561
  33.2356266   8.1515131  84.2493361  32.4523788   8.6936811  84.3431586
  33.9349011   8.6689111  84.6487603  36.5452916  -6.0390239  86.8927567
  37.0421615  -6.7920277  86.5728637  35.7739897  -6.0025923  86.3270776
  44.3982673  -0.3349874  88.5345858  44.3872549   0.5474842  88.1639791
  43.5300053  -0.6878323  88.3400395  35.9065170   8.8130195  92.8948698
  36.6193142   9.4477660  92.8224600  35.4155198   8.9094061  92.0788700
  37.6282697   2.7181448  84.4665990  36.6938975   2.8382910  84.2970694
  37.8059365   1.8153915  84.2026000  41.0155248  -1.4401233  85.0016024
  41.4815700  -0.6073241  84.9276327  41.4662748  -1.9056251  85.7061283
  39.0831479   4.9042589  82.0002176  39.3591323   4.7899183  82.9096050
  38.2135978   4.5060073  81.9614349  35.7185543   9.1528939  85.6434990
  35.9007938   8.3350595  86.1062742  36.5418529   9.3696632  85.2059880
  36.0527708   8.0797125  82.9050038  36.5815475   7.5689579  82.2920201
  36.3155928   7.7639655  83.7695571  29.4083456   9.1312241  85.6647814
  28.7393832   9.6158369  85.1811854  29.2696326   9.3781462  86.5791193
  33.5488725  11.1655985  92.2630473  34.1007033  11.3287606  93.0279558
  33.8894918  11.7560423  91.5910498  36.6857112   9.1137960  89.2494155
  36.5608252   8.3127700  88.7405100  37.3436203   9.6084154  88.7608125
  38.7492021   6.9146980  90.8773705  37.8022356   6.7952332  90.8052032
  39.0974794   6.0269478  90.9599966  35.7538454   6.7099697  87.0778057
  35.6063416   5.7816404  87.2585627  36.5791947   6.7319787  86.5935132
  39.3572576   7.5328255  88.1642930  40.2819123   7.3271117  88.0267381
  39.1887879   7.2844656  89.0732271  35.7499968  -5.4362466  82.0710174
  35.9663583  -4.5537828  81.7699003  35.2694035  -5.8276252  81.3415816
  39.1467892   8.0513923  83.5205021  39.3204770   7.4860345  82.7678874
  39.6396783   8.8514818  83.3384511  45.0007283   0.8150346  85.1395321
  45.4438429   0.0657671  84.7414444  44.1233793   0.8060482  84.7569053
  40.1343065   7.3680687  80.6201920  40.8293969   7.9887380  80.8389234
  40.4766215   6.5176038  80.8954298  42.0334488   4.8180393  82.1489250
  42.5585812   5.1567665  81.4238570  41.9456840   3.8827408  81.9652385
  33.7175148  10.8852376  86.5084504  33.2780139  10.3928755  87.2017360
  34.4683265  10.3425344  86.2676579  26.1967487   7.0763917  86.5109132
  27.0225507   6.7767689  86.1307775  25.8461539   6.3071539  86.9598920
  31.1649021   6.4290385  88.5806805  30.5429030   5.7661090  88.2809033
  31.8353887   6.4551517  87.8980453  24.3976092   4.9950243  87.4698065
  23.5608001   4.5672418  87.2882067  24.3699738   5.1882687  88.4068856
  30.7262527   4.9794308  82.0565266  30.8750648   5.6629773  81.4031939
  31.5328971   4.9599398  82.5714722  43.3444466   4.7202704  95.0115198
  43.0529274   5.0832685  95.8478659  42.7316597   4.0069712  94.8328531
  44.5440148   2.2855584  87.5317769  45.3787039   2.7245388  87.6955329
  44.6799277   1.8094237  86.7126014  28.4815160   1.0059486  83.0626335
  28.2361202   0.1021816  83.2606545  28.6511075   1.0076636  82.1205813
  34.2257933   7.4742439  79.5277013  33.6531900   8.0932626  79.0747485
  34.7990727   8.0241801  80.0616935  37.4455193   7.7579589  80.6585596
  38.3785866   7.6925151  80.8618471  37.3578406   8.5935856  80.2000128
  40.0743209   7.0745459  77.6189543  39.9956841   6.7405323  78.5125301
  40.8952876   7.5667227  77.6181015  42.7721401  -0.0592801  90.8265862
  42.7397721  -0.9976801  91.0125546  43.3822024   0.0191235  90.0931687
  34.6104731  -1.1896748  76.8693066  35.5563836  -1.3190540  76.9381484
  34.2318976  -1.9282087  77.3462494  48.5897950   1.0023205  89.9671899
  49.3201339   0.7408494  90.5279602  47.9804896   0.2651927  90.0073966
  46.6713248  -0.8568932  90.5646350  45.9446411  -0.9912967  89.9562841
  46.2560534  -0.5492103  91.3703068  32.7947649  -3.2646772  76.8047951
  31.8879104  -3.5613659  76.8810665  33.0723630  -3.5616954  75.9382237
  39.7179070  -7.5331310  84.0895153  39.1377739  -6.8746506  83.7073206
  39.4515002  -8.3553966  83.6782571  38.5003948  -5.3731220  83.1451501
  37.6129803  -5.0881569  82.9271696  38.9157937  -5.5337457  82.2978778
  41.8518484  -5.3484699  86.8605841  42.6278874  -4.8588247  87.1330458
  41.1266618  -4.9226645  87.3177710  44.2891042  -4.6357080  87.9179781
  44.8835533  -4.8761344  87.2073090  44.3617626  -5.3549949  88.5453318
  26.5088198   9.2076531  88.2322946  26.3742666   8.4476932  87.6660944
  26.0920260   9.9317431  87.7651735  37.6447161   4.3913455  77.2399521
  38.3483011   4.5963457  77.8557177  36.9209810   4.9590217  77.5048605
  38.4744971   0.1423316  83.3601792  38.4180173   0.5991867  82.5209424
  39.0273314  -0.6185999  83.1824634  42.2849777  -4.0686952  84.1851911
  42.0286712  -4.4690317  85.0160119  41.6602645  -3.3543158  84.0602050
  46.5962115  -1.3290879  86.6923203  46.0361673  -1.2597690  87.4654765
  45.9905619  -1.5049894  85.9722699  29.6657324  10.1045848  88.4441389
  29.5489708  11.0491281  88.3420079  28.8449770   9.8019410  88.8327188
  39.5533859   4.8295984  79.2897981  40.3879463   4.3977182  79.1075456
  39.3918202   4.6577998  80.2174876  39.2079751   1.3328097  80.6554321
  39.1528555   1.1672369  79.7142765  38.5825806   2.0404130  80.8116511
  30.6911838  10.7574110  91.6597317  31.5939085  10.7897720  91.9763812
  30.4649208   9.8274561  91.6743653  32.4465440   9.5105097  88.3207396
  31.4961071   9.5106958  88.2071768  32.7497926   8.7637831  87.8043430
  48.1818134  15.3465635  89.3853158  48.8196544  15.2272382  88.6816498
  48.0638977  16.2946479  89.4441110  44.9907840  15.2993063  89.3214683
  44.6526351  15.1834128  88.4335218  45.8597608  14.8984228  89.3015689
  40.8494656  17.1528540  85.3111574  40.2859521  17.0618476  84.5427862
  40.7347051  16.3328444  85.7914066  45.4727623  16.4527915  95.2800888
  45.4616264  16.0580713  94.4081392  45.6348262  15.7193987  95.8734660
  38.3959088  18.6479731  88.1495794  39.1880380  18.3070556  87.7342094
  38.6355738  18.7574706  89.0697948  46.4294214  20.8199507  80.6226039
  45.7782194  21.4053588  80.2360053  47.2238577  21.3505702  80.6821076
  40.3549842  17.9088644  81.0213173  41.1280718  17.3617631  80.8826049
  40.7075240  18.7732894  81.2327635  42.1934884  19.2365027  94.2280072
  41.9024750  20.1410657  94.1126739  42.8291868  19.2781554  94.9424142
  43.1191091  16.6141875  90.8181432  43.7154663  16.3897898  90.1038395
  43.1766062  15.8726621  91.4206880  42.6916119  14.0681310  78.6531623
  42.9441640  13.5462832  77.8915086  41.7540678  13.9047456  78.7558307
  47.7359402  13.0717089  86.4606366  48.5222491  12.6536512  86.1096783
  47.9998107  13.9763181  86.6288015  47.9069480  18.5089939  81.1595023
  47.2715313  18.5824566  81.8715928  47.5766886  19.0983538  80.4814102
  53.1367829  13.0092322  87.3639345  53.8693001  12.4391539  87.5977174
  52.3807185  12.6213922  87.8045850  42.4112408  15.9709416  80.8555998
  42.2948666  15.2954320  81.5237082  42.5214668  15.4841790  80.0388151
  44.7543949  15.4319564  84.5602687  44.3902156  14.9050185  85.2715609
  45.6111065  15.0418033  84.3869173  50.6593250   6.7213896  91.8233953
  50.3276574   7.5909307  91.5995168  50.0638863   6.4050180  92.5027984
  44.3949436  10.4609463  79.5564036  44.5623838  11.3289700  79.9234507
  44.2046605  10.6236745  78.6325325  47.1524769  18.9226442  91.2229866
  46.8525492  19.8251481  91.1145673  46.8075829  18.6558625  92.0751019
  40.6037251  15.3740239  87.2566571  39.6787747  15.2416453  87.4644262
  40.8521664  16.1534458  87.7536513  50.5521913  11.4408982  88.9027303
  49.6438790  11.3724391  88.6086064  50.5009509  11.9180927  89.7309129
  44.3738657  12.9167121  80.5410703  44.2538282  13.3624172  81.3796183
  43.6791245  13.2652438  79.9824241  37.9646062  15.0173513  88.0910360
  38.0938443  15.2707991  89.0049771  37.2843513  15.6101221  87.7715015
  42.1345549  25.6870762  84.1900834  42.0569579  26.6378588  84.2689314
  41.5307193  25.3416635  84.8475760  44.6262779  12.8598628  96.8462201
  43.8496113  13.4192548  96.8365065  45.2653342  13.3455411  97.3677071
  52.4183559   9.6425421  90.6805177  51.7757940   9.9357954  90.0344972
  51.9138488   9.5278341  91.4858374  50.0723723  13.3888594  81.3691037
  50.9841579  13.6215981  81.1938734  49.5633370  13.9725638  80.8066115
  42.8809151  15.6684081  96.4080168  43.6223835  16.2069125  96.1314991
  42.1746137  16.2950370  96.5651720  48.3564491  17.8113222  95.0052329
  48.7647847  17.3695632  94.2606962  47.6341752  17.2365849  95.2586522
  44.7095561  12.7485829  92.3785886  45.5556756  13.1725242  92.5220535
  44.6494198  12.0919453  93.0724449  48.6793305  18.3714412  88.7604618
  48.0502168  18.5360126  88.0580686  48.2918967  18.7856022  89.5315582
  52.5582537  19.3068850  86.1148982  51.8733575  19.6867752  85.5646015
  52.6426387  19.9164177  86.8480930  47.8595006  10.4090197  94.0367060
  47.6155938  11.1632257  93.5001335  48.1354937  10.7875544  94.8714307
  49.8133469  16.9528809  92.7144325  50.0250364  17.5960569  92.0378706
  49.7663217  16.1191126  92.2466255  47.4159698   9.5646630  89.6180898
  46.5544177   9.8627883  89.9097635  47.4422132   9.7817029  88.6861930
  44.2321267  18.1088820  86.0254703  44.6959613  18.3876523  85.2359326
  43.9678065  17.2072265  85.8427794  41.1245348  17.6560302  88.9634466
  41.6946705  18.0847570  88.3251951  41.7153460  17.3742887  89.6618652
  43.1690153  14.2311973  82.8344268  43.8714197  14.6833016  83.3018195
  42.8370782  13.5895792  83.4624161  41.6170515  12.8223729  97.2095478
  40.9869175  13.5040010  97.4430875  41.5106603  12.7106811  96.2648616
  36.9115487  12.4895525  88.1361402  36.1214541  12.7453054  87.6601513
  37.4026735  13.3043863  88.2413442  50.9279297  19.8300765  90.8866683
  51.7496741  19.4280952  90.6049364  50.9241700  19.7268999  91.8382799
  38.8630233  12.8540105  85.0944879  38.0661396  12.9658799  85.6128374
  38.6355825  13.1926757  84.2285769  44.6935900  19.3784808  93.0427393
  44.7580333  19.8405215  93.8785565  43.9846824  18.7482173  93.1709703
  35.1953190  12.7426016  90.5676393  35.4461229  13.6273026  90.8333969
  35.7312739  12.5630617  89.7951485  59.0185290  16.1739513  87.2351654
  58.2648998  15.6046911  87.0795659  59.1532831  16.1402178  88.1822289
  44.4083918  21.0452915  82.9106374  44.2729593  21.8904451  83.3391221
  44.9493730  21.2472193  82.1472307  37.8613315  18.5628353  83.4834299
  38.3737836  19.3571604  83.6339863  38.5136028  17.8654644  83.4167900
  39.6708200  21.6794110  85.5657052  39.8474828  22.6012074  85.3778036
  40.4665034  21.3652529  85.9951432  43.8119219   8.5402374  97.1640985
  44.5528932   9.1409528  97.0845448  44.0437141   7.7980012  96.6059028
  38.9560557  13.7258742  95.4419215  38.8414072  12.8243999  95.7426314
  38.1005074  13.9722438  95.0904032  46.0352394  21.6676482  97.0406716
  45.5916248  20.8812861  96.7227620  46.6969608  21.8555632  96.3750606
  40.7939515  23.1972284  91.5667394  41.3446941  23.0689347  90.7944388
  39.9550991  23.4967173  91.2162287  48.1333632  21.9479282  95.0688117
  48.1152108  22.7688163  94.5768386  49.0553552  21.8233357  95.2938258
  44.5906687  19.4623411  95.9111625  45.1235023  18.7011700  95.6810933
  44.0620768  19.1697063  96.6535780  47.7576381   4.5683477  91.4405267
  47.4140651   5.4585119  91.3644378  48.1255344   4.3785135  90.5774852
  35.8262232  16.8917008  84.2593869  36.6637454  17.3014016  84.0427577
  36.0040500  15.9516450  84.2294063  47.7226664  14.5592088  79.9477702
  47.2073288  15.3296693  80.1866090  47.4503973  13.8857225  80.5710764
  45.3073775   9.4041789  85.0062941  44.4515372   9.0148640  84.8268579
  45.7200727   9.4833750  84.1462726  46.8372922   6.9388132  89.4054500
  46.3337717   6.9018268  88.5922306  47.1303529   7.8480875  89.4651157
  43.0815808   7.0226862  88.4120682  43.9468805   6.8269671  88.0526571
  43.1493317   6.7937214  89.3390039  52.6960938  17.3124443  81.8830876
  51.9190381  16.9735603  81.4386038  53.3752419  17.3177066  81.2085841
  47.5112967  12.4319181  81.7737483  47.2063103  12.7465330  82.6247626
  48.4643409  12.5100600  81.8164816  45.9559399  18.5909404  83.4230437
  45.4280761  17.8562163  83.1103675  45.4546902  19.3684080  83.1770406
  50.9352245  16.7858424  88.5397484  50.2775920  17.4757686  88.6277612
  51.7392644  17.1754856  88.8831470  40.6878127   9.2529070  85.7837049
  41.2621879   9.0304252  85.0510242  41.2749109   9.3217765  86.5365650
  49.7457704  15.1402797  86.5901425  50.2589586  15.7732789  87.0923135
  50.3958928  14.5403993  86.2244785  41.0147714  11.2833531  79.8032934
  40.1785026  11.6208218  80.1242209  40.8752484  11.1482511  78.8660071
  42.9900795   6.1270319  84.5112118  42.3365207   5.8119336  83.8868733
  42.9481269   5.5046059  85.2371941  44.1011999  16.4089614  76.4265410
  43.1939061  16.1778868  76.6256559  44.5983031  15.6127233  76.6139392
  47.0080078  25.1187121  79.3462096  46.3341777  25.4218818  79.9547054
  47.3945900  25.9216202  78.9967554  46.2238535  12.6152253  88.8359766
  45.3061096  12.8367200  88.6781454  46.6398679  12.6898563  87.9771473
  47.0073583  14.0143668  83.9662446  47.7545402  14.5265065  83.6569568
  47.2765172  13.6927721  84.8266840  45.2800233  16.5102209  80.9489400
  44.3711452  16.2261242  81.0461870  45.3095317  16.9301288  80.0892707
  50.5119500  20.1208798  84.7180568  50.0581827  19.2799708  84.7745758
  49.8813467  20.7570197  85.0555348  49.4552420  11.0500785  85.9481235
  48.7175177  10.5378171  86.2791478  49.7079193  10.6101166  85.1364512
  48.9552439  21.9585295  85.6530386  49.2475414  22.5190352  84.9342752
  49.4651060  22.2513856  86.4083545  49.5564047   3.8277037  86.5423005
  49.8622924   2.9674400  86.2548920  50.2816652   4.4194657  86.3421999
  35.8488403  14.2307723  84.9304603  35.6512803  13.6377084  84.2055669
  35.2935067  13.9259933  85.6480541  43.8285127  14.1230830  87.0499196
  43.8833737  13.1704666  86.9741672  43.0176329  14.2790269  87.5340494
  44.9776321  18.0510953  78.2877479  44.5395751  17.3346812  77.8283116
  45.7186762  18.2787067  77.7262570  41.7677487  12.7407889  84.8089575
  40.9545352  13.0402060  85.2154767  42.2636481  12.3463578  85.5264057
  43.9186065  22.7365646  86.7423839  43.8762243  22.9626493  85.8132371
  44.8348764  22.5029021  86.8909640  47.3651698  13.2049714  93.6404469
  47.7201086  13.4321187  94.4998934  48.0123830  13.5368091  93.0181724
  53.0949435  16.3268150  84.3453798  52.9567334  16.5169746  83.4174987
  52.7385654  17.0887533  84.8021849  41.2591562  10.3126245  90.4250810
  41.8990941  10.1715004  89.7273773  40.4269092  10.0260758  90.0489412
  53.1218815  18.3944677  89.3565069  53.5555322  18.3019966  90.2048123
  53.8350396  18.3702177  88.7185085  42.0351865  19.6128675  86.5385802
  42.8292464  19.1178995  86.3368377  41.3243558  19.0846538  86.1753508
  46.8546710  21.9946771  90.8898170  46.9083732  22.5637707  91.6575886
  45.9861491  22.1648656  90.5252207  38.3434629  13.7571757  82.6145555
  37.4132217  13.6956212  82.8315517  38.4392101  13.2347710  81.8182196
  38.2620178  10.2826570  85.2023796  38.5226995  11.1971903  85.0932957
  39.0837350   9.8151012  85.3520409  39.7345103  11.6964327  92.3722621
  40.4068157  11.4881689  91.7235270  38.9074890  11.4986413  91.9327853
  53.9834365  18.4368377  91.8897954  54.1770255  19.3414188  92.1357229
  53.8834983  17.9775796  92.7236539  45.6370675   8.3226268  94.3888282
  44.9898590   9.0216218  94.2952758  46.4071691   8.7562412  94.7564530
  49.0449473  18.5875120  97.4638835  48.8934980  18.3585672  96.5468919
  49.0354153  19.5445722  97.4770180  45.8134810  16.1607033  92.4485102
  46.7426870  16.3118192  92.2754069  45.3925840  16.2491054  91.5933748
  44.6123141  20.1857697  90.2183639  44.4734227  19.8176482  91.0909577
  43.8237738  20.7005337  90.0467597  45.2071293  25.2866794  81.5609176
  45.3823049  24.8154837  82.3754798  44.5204081  25.9132560  81.7890436
  46.1628357  19.5639300  87.6072477  45.8278189  19.5240070  88.5030127
  45.6632302  18.8984016  87.1342887  40.1372601  14.9706930  93.1325058
  39.9992398  14.2387169  93.7336597  41.0477524  14.8815830  92.8509246
  49.0987548  16.9095334  77.8809537  48.4816719  16.1842162  77.7842589
  48.6304037  17.6704695  77.5376611  42.7654901  14.6826889  92.6208738
  43.4754520  14.0420082  92.5795356  42.7224209  14.9339784  93.5434919
  50.7541680  21.6194243  95.5415317  50.6954226  20.9353463  94.8745900
  51.1561198  22.3613233  95.0895943  41.4783835  11.6692107  94.4404377
  40.9421192  11.2182846  95.0925974  40.8900544  11.8038016  93.6974842
  39.7732379  28.4356156  88.3349036  40.0128977  29.0674681  89.0128054
  38.9301575  28.0844197  88.6214395  40.8886094  11.1280759  77.0030841
  40.0115560  11.0069559  76.6393088  41.3643847  10.3366837  76.7509730
  50.7559087  19.5833827  93.7729297  49.8685866  19.2459748  93.8955695
  51.3257638  18.8516858  94.0098062  32.4088234  15.9157918  87.0972348
  33.0959274  15.6019648  86.5093363  32.2536363  16.8199283  86.8239599
  37.2122956  10.8048115  91.5257372  37.1281145  10.1973784  90.7907782
  36.3905663  11.2957133  91.5266868  44.2860241  24.2435279  90.7390540
  44.2130412  25.0490250  91.2509844  43.8437634  24.4427245  89.9138561
  44.0750020  23.4807049  84.2493361  43.2917542  24.0228729  84.3431586
  44.7742765  23.9981029  84.6487603  47.3846670   9.2901678  86.8927567
  47.8815370   8.5371641  86.5728637  46.6133652   9.3265995  86.3270776
  55.2376428  14.9942044  88.5345858  55.2266304  15.8766759  88.1639791
  54.3693807  14.6413595  88.3400395  46.7458924  24.1422113  92.8948698
  47.4586896  24.7769578  92.8224600  46.2548953  24.2385979  92.0788700
  48.4676451  18.0473366  84.4665990  47.5332730  18.1674828  84.2970694
  48.6453119  17.1445832  84.2026000  43.9681639  11.4319061  86.6199251
  43.5979427  10.8790102  87.3080157  44.4640732  10.8277195  86.0674251
  51.8549002  13.8890685  85.0016024  52.3209455  14.7218677  84.9276327
  52.3056503  13.4235666  85.7061283  41.7970838  21.8916556  93.7154269
  42.4980297  22.5253039  93.8683664  41.3265953  22.2331288  92.9549909
  49.9225233  20.2334506  82.0002176  50.1985077  20.1191101  82.9096050
  49.0529732  19.8351991  81.9614349  49.8265665   6.2571272  89.0406926
  48.9128745   6.4875499  89.2089133  50.2558767   6.3409716  89.8920958
  49.5972124  14.4461164  91.5406820  48.9443574  14.6937071  90.8859272
  49.9752503  13.6325302  91.2069297  46.5579297  24.4820857  85.6434990
  46.7401692  23.6642513  86.1062742  47.3812283  24.6988549  85.2059880
  46.8921463  23.4089042  82.9050038  47.4209229  22.8981497  82.2920201
  47.1549683  23.0931572  83.7695571  45.6459697  15.1880975  98.0272857
  44.9700334  15.0875104  98.6975232  46.4687330  15.0320189  98.4908854
  37.3938556  21.4252911  90.6485372  37.9791993  20.6796599  90.7813276
  37.1963394  21.7356868  91.5322036  40.2477211  24.4604159  85.6647814
  39.5787586  24.9450286  85.1811854  40.1090081  24.7073379  86.5791193
  31.9856210  13.9958512  89.3689815  32.0240310  13.4622102  90.1626933
  31.4796503  13.4693717  88.7500792  44.3882479  26.4947902  92.2630473
  44.9400788  26.6579524  93.0279558  44.7288673  27.0852340  91.5910498
  39.3646973   8.8423052  92.8652357  39.4288299   9.7037883  92.4529755
  39.3014093   8.2297054  92.1324716  38.8399245  10.9146185  96.5125392
  39.4671284  10.5323262  97.1262916  37.9827164  10.6960387  96.8781084
  49.2393354  21.3209160  98.1179127  49.7833258  21.9339118  97.6234082
  48.6580199  21.8788738  98.6346140  35.6164788  12.7222614  82.4443747
  35.9118229  11.8133292  82.3910800  34.7152824  12.7010353  82.1224749
  47.5250867  24.4429878  89.2494155  47.4002006  23.6419618  88.7405100
  48.1829958  24.9376071  88.7608125  39.1459035  10.7978610  88.4271295
  38.4245621  11.4114578  88.2878768  39.9352291  11.3336375  88.3487941
  49.5885775  22.2438898  90.8773705  48.6416111  22.1244249  90.8052032
  49.9368548  21.3561396  90.9599966  41.9485349   8.1333037  94.7011947
  42.4719750   8.3795333  95.4638256  41.7297682   8.9653072  94.2815084
  37.3452630  10.4036711  82.5683072  37.0165336   9.5234090  82.3858178
  37.6992000  10.3484380  83.4559461  46.5932208  22.0391614  87.0778057
  46.4457171  21.1108322  87.2585627  47.4185702  22.0611705  86.5935132
  40.4594453  10.6909681  82.9358549  40.7990525  11.2195603  82.2137158
  40.9066573  11.0290087  83.7117116  50.1966330  22.8620173  88.1642930
  51.1212878  22.6563034  88.0267381  50.0281634  22.6136574  89.0732271
  43.1537894   9.0746732  92.3861617  42.8134714   8.2754545  92.7882297
  42.4476900   9.3748443  91.8138451  43.8054365   6.1596044  90.8388940
  44.6280435   5.6856523  90.7167831  44.0492429   6.9386528  91.3387627
  42.4462600   9.1884303  81.1351842  43.1670962   9.5665556  80.6315559
  41.8227904   9.9073180  81.2386820  46.5893723   9.8929452  82.0710174
  46.8057337  10.7754090  81.7699003  46.1087790   9.5015665  81.3415816
  41.3292944  12.8515165  88.6480919  41.1837525  13.1655468  89.5405201
  40.8518148  13.4700065  88.0951818  43.1889327   9.8417713  88.6961809
  43.1750896   8.9458806  88.3594107  43.9061755   9.8488377  89.3300095
  45.0415458  10.2755053  90.7414936  44.7833236  11.1972124  90.7399266
  44.5100498   9.8785488  91.4315400  49.9861647  23.3805840  83.5205021
  50.1598524  22.8152263  82.7678874  50.4790538  24.1806735  83.3384511
  35.8038606  15.3920509  91.5868580  35.2592074  16.1680317  91.7188855
  36.6817956  15.7391314  91.4287702  42.5926223   8.7232093  83.9649379
  42.7142134   7.7948740  84.1640266  42.3028265   8.7370779  83.0527694
  45.4617413   6.4087004  87.1016099  45.4839110   6.4726337  86.1468078
  45.8785472   5.5691512  87.2956605  55.8401038  16.1442263  85.1395321
  56.2832184  15.3949589  84.7414444  54.9627548  16.1352400  84.7569053
  50.9736819  22.6972605  80.6201920  51.6687724  23.3179297  80.8389234
  51.3159969  21.8467956  80.8954298  36.5904628  14.5190406  94.4798737
  35.8486364  14.6673041  95.0663367  36.2697372  14.7798671  93.6165486
  52.8728242  20.1472310  82.1489250  53.3979566  20.4859583  81.4238570
  52.7850595  19.2119326  81.9652385  44.5348291  24.0606384  94.2779127
  44.8435417  23.8155531  95.1501827  45.3323773  24.2653022  93.7897997
  44.5568903  26.2144294  86.5084504  44.1173893  25.7220672  87.2017360
  45.3077020  25.6717261  86.2676579  37.0361242  22.4055834  86.5109132
  37.8619262  22.1059606  86.1307775  36.6855294  21.6363457  86.9598920
  42.0042775  21.7582303  88.5806805  41.3822784  21.0953008  88.2809033
  42.6747642  21.7843435  87.8980453  35.2369847  20.3242161  87.4698065
  34.4001755  19.8964335  87.2882067  35.2093492  20.5174604  88.4068856
  42.0767303  10.2364091  98.1739311  42.1255458  11.1126214  97.7917081
  42.6189817   9.6941484  97.6010955  52.5622148  20.7805214  97.4540448
  51.7717692  20.7629353  96.9144948  52.3255503  21.3193508  98.2089485
  52.6820023  17.6297680  94.7673177  52.7318028  17.4647688  95.7088700
  52.5733947  16.7624939  94.3771058  41.5656282  20.3086226  82.0565266
  41.7144402  20.9921690  81.4031939  42.3722725  20.2891316  82.5714722
  49.9723786  13.6128608  96.0832484  50.8733648  13.4735073  95.7916481
  50.0471760  13.7783063  97.0230661  44.3066591  10.9895463  94.9285670
  43.4369900  11.2829029  94.6568259  44.5426071  11.5735908  95.6492934
  54.1838220  20.0494622  95.0115198  53.8923028  20.4124602  95.8478659
  53.5710351  19.3361630  94.8328531  55.3833902  17.6147502  87.5317769
  56.2180794  18.0537306  87.6955329  55.5193031  17.1386155  86.7126014
  52.4325408  15.1727236  93.4795256  52.9079530  15.3654883  92.6714108
  51.5090974  15.2286422  93.2338640  39.3208915  16.3351404  83.0626335
  39.0754957  15.4313734  83.2606545  39.4904829  16.3368554  82.1205813
  47.0105625   7.2075080  92.4451090  47.5287569   7.9436107  92.1197579
  46.6560758   7.5139073  93.2797849  38.5904562  12.0679761  80.5612496
  37.8973807  12.1424116  79.9052532  38.3456314  11.3040105  81.0834013
  47.2618219   3.6275363  87.9651987  47.5419973   2.9598552  88.5912413
  48.0468826   3.8204458  87.4526651  45.0651687  22.8034356  79.5277013
  44.4925655  23.4224544  79.0747485  45.6384481  23.3533718  80.0616935
  51.1327077  12.0492997  91.7123562  52.0844500  12.1491094  91.7335786
  50.9630528  11.2571265  92.2221646  49.1541457   9.1348580  91.8982963
  48.5591389   9.4153593  91.2029452  48.8691153   9.6242481  92.6699704
  48.2848947  23.0871507  80.6585596  49.2179620  23.0217068  80.8618471
  48.1972160  23.9227773  80.2000128  50.9136964  22.4037377  77.6189543
  50.8350595  22.0697241  78.5125301  51.7346631  22.8959145  77.6181015
  53.6115155  15.2699116  90.8265862  53.5791475  14.3315117  91.0125546
  54.2215779  15.3483153  90.0931687  45.4498486  14.1395169  76.8693066
  46.3957591  14.0101377  76.9381484  45.0712731  13.4009831  77.3462494
  53.7609644  12.0610160  90.8724145  53.2448692  11.2768616  90.6854074
  54.6449592  11.7328876  91.0370664  51.4220370   5.8051175  86.8319958
  51.2245192   5.4966263  87.7163290  52.0320076   6.5312814  86.9617887
  59.4291705  16.3315123  89.9671899  60.1595093  16.0700411  90.5279602
  58.8198650  15.5943845  90.0073966  57.5107002  14.4722986  90.5646350
  56.7840166  14.3378951  89.9562841  57.0954289  14.7799814  91.3703068
  45.3337178  18.1912915  98.3293723  46.2540188  18.3691514  98.5233769
  45.2986762  17.2468961  98.1773422  43.6341403  12.0645146  76.8047951
  42.7272858  11.7678258  76.8810665  43.9117384  11.7674964  75.9382237
  34.5519343  13.3851509  87.2546997  34.2322128  12.5316817  86.9621371
  34.0052772  13.6000087  88.0104965  38.3299251  16.1013950  90.9716504
  38.5485261  17.0331058  90.9904538  38.7425025  15.7421924  91.7571308
  45.2503469   6.6082035  82.9592192  44.4404197   6.2629120  83.3347438
  45.9387886   6.2989579  83.5479804  47.1794017   5.6860082  84.5816489
  47.7325056   6.1055536  85.2406512  47.4164103   4.7595830  84.6239445
  42.4040188   8.9232081  76.9459930  43.2659352   9.2486979  77.2055748
  42.5890532   8.1363577  76.4332996  34.4207603  17.0054421  89.2240119
  33.7271075  16.5908373  88.7110073  35.1680594  17.0474957  88.6273538
  50.5572824   7.7960607  84.0895153  49.9771493   8.4545411  83.7073206
  50.2908757   6.9737952  83.6782571  49.0076391   7.1965665  86.2916474
  49.5076169   7.3082200  85.4830792  49.6511998   6.8926718  86.9317282
  43.0658386  15.1044295  99.1784314  42.5825468  15.9044655  99.3848204
  43.1519325  15.1152239  98.2251758  36.3344346  16.9372674  87.1006134
  36.3115034  17.0360362  86.1488017  36.6444983  17.7837825  87.4223300
  38.9931724  18.9948829  91.2152748  39.9474977  18.9632772  91.1482680
  38.7944247  18.5339453  92.0302974  39.5831106  17.5649945  93.7823546
  40.4023995  18.0594024  93.8058383  39.8567914  16.6481914  93.7541113
  49.3397702   9.9560698  83.1451501  48.4523557  10.2410348  82.9271696
  49.7551691   9.7954461  82.2978778  52.6912238   9.9807219  86.8605841
  53.4672628  10.4703671  87.1330458  51.9660373  10.4065273  87.3177710
  55.1284797  10.6934838  87.9179781  55.7229288  10.4530574  87.2073090
  55.2011381   9.9741968  88.5453318  37.3481953  24.5368449  88.2322946
  37.2136421  23.7768850  87.6660944  36.9314015  25.2609349  87.7651735
  48.4840916  19.7205372  77.2399521  49.1876766  19.9255375  77.8557177
  47.7603564  20.2882134  77.5048605  49.3138726  15.4715234  83.3601792
  49.2573927  15.9283785  82.5209424  49.8667068  14.7105918  83.1824634
  53.1243532  11.2604965  84.1851911  52.8680466  10.8601601  85.0160119
  52.4996400  11.9748759  84.0602050  57.4355870  14.0001039  86.6923203
  56.8755428  14.0694228  87.4654765  56.8299373  13.8242023  85.9722699
  40.5051079  25.4337766  88.4441389  40.3883463  26.3783198  88.3420079
  39.6843525  25.1311327  88.8327188  50.3927613  20.1587902  79.2897981
  51.2273217  19.7269100  79.1075456  50.2311956  19.9869915  80.2174876
  50.0473505  16.6620015  80.6554321  49.9922309  16.4964286  79.7142765
  49.4219561  17.3696048  80.8116511  34.8366020  11.8988079  94.4815743
  35.4824884  11.3887033  94.9702968  34.6283171  12.6356761  95.0559168
  47.3619412  18.9668927  99.9807884  48.2310572  19.1409579  99.6194518
  46.8826164  19.7863344  99.8583613  43.3569631   6.1628124  80.2339639
  43.3448301   7.1069964  80.3907910  44.2493053   5.9798269  79.9399100
  41.5305593  26.0866028  91.6597317  42.4332839  26.1189638  91.9763812
  41.3042963  25.1566479  91.6743653  43.2859195  24.8397014  88.3207396
  42.3354826  24.8398876  88.2071768  43.5891681  24.0929749  87.8043430
  47.1721750   2.7570901  84.4885576  46.4054146   2.2029387  84.6342258
  47.5832455   2.8292769  85.3499728  59.0211888  30.6757553  89.3853158
  59.6590298  30.5564300  88.6816498  58.9032731  31.6238397  89.4441110
  55.8301594  30.6284981  89.3214683  55.4920106  30.5126045  88.4335218
  56.6991363  30.2276146  89.3015689  51.6888410  32.4820457  85.3111574
  51.1253275  32.3910394  84.5427862  51.5740805  31.6620362  85.7914066
  56.3121377  31.7819833  95.2800888  56.3010018  31.3872631  94.4081392
  56.4742017  31.0485905  95.8734660  49.2352842  33.9771649  88.1495794
  50.0274134  33.6362473  87.7342094  49.4749492  34.0866624  89.0697948
  57.2687969  36.1491425  80.6226039  56.6175949  36.7345505  80.2360053
  58.0632332  36.6797620  80.6821076  51.1943596  33.2380562  81.0213173
  51.9674472  32.6909549  80.8826049  51.5468995  34.1024811  81.2327635
  53.0328639  34.5656944  94.2280072  52.7418505  35.4702575  94.1126739
  53.6685623  34.6073472  94.9424142  53.9584845  31.9433793  90.8181432
  54.5548418  31.7189815  90.1038395  54.0159817  31.2018538  91.4206880
  53.5309874  29.3973228  78.6531623  53.7835395  28.8754749  77.8915086
  52.5934433  29.2339374  78.7558307  58.5753157  28.4009007  86.4606366
  59.3616246  27.9828430  86.1096783  58.8391861  29.3055099  86.6288015
  58.7463234  33.8381857  81.1595023  58.1109067  33.9116483  81.8715928
  58.4160640  34.4275456  80.4814102  63.9761584  28.3384240  87.3639345
  64.7086756  27.7683457  87.5977174  63.2200940  27.9505840  87.8045850
  53.2506163  31.3001334  80.8555998  53.1342421  30.6246237  81.5237082
  53.3608422  30.8133708  80.0388151  55.5937704  30.7611481  84.5602687
  55.2295911  30.2342102  85.2715609  56.4504819  30.3709950  84.3869173
  61.4987004  22.0505814  91.8233953  61.1670329  22.9201225  91.5995168
  60.9032618  21.7342098  92.5027984  55.2343191  25.7901381  79.5564036
  55.4017593  26.6581617  79.9234507  55.0440360  25.9528663  78.6325325
  57.9918524  34.2518360  91.2229866  57.6919247  35.1543399  91.1145673
  57.6469583  33.9850543  92.0751019  51.4431005  30.7032157  87.2566571
  50.5181502  30.5708371  87.4644262  51.6915418  31.4826376  87.7536513
  61.3915667  26.7700900  88.9027303  60.4832545  26.7016308  88.6086064
  61.3403263  27.2472845  89.7309129  55.2132411  28.2459038  80.5410703
  55.0932037  28.6916089  81.3796183  54.5185000  28.5944356  79.9824241
  48.8039816  30.3465430  88.0910360  48.9332197  30.5999909  89.0049771
  48.1237268  30.9393138  87.7715015  52.9739303  41.0162680  84.1900834
  52.8963333  41.9670505  84.2689314  52.3700947  40.6708553  84.8475760
  55.4656533  28.1890546  96.8462201  54.6889867  28.7484466  96.8365065
  56.1047096  28.6747329  97.3677071  63.2577314  24.9717338  90.6805177
  62.6151694  25.2649872  90.0344972  62.7532242  24.8570259  91.4858374
  60.9117478  28.7180512  81.3691037  61.8235334  28.9507898  81.1938734
  60.4027125  29.3017556  80.8066115  53.7202906  30.9975999  96.4080168
  54.4617590  31.5361043  96.1314991  53.0139891  31.6242288  96.5651720
  59.1958245  33.1405139  95.0052329  59.6041601  32.6987550  94.2606962
  58.4735507  32.5657767  95.2586522  55.5489315  28.0777746  92.3785886
  56.3950510  28.5017160  92.5220535  55.4887953  27.4211371  93.0724449
  59.5187060  33.7006330  88.7604618  58.8895922  33.8652044  88.0580686
  59.1312722  34.1147940  89.5315582  63.3976292  34.6360768  86.1148982
  62.7127330  35.0159669  85.5646015  63.4820141  35.2456095  86.8480930
  58.6988761  25.7382115  94.0367060  58.4549692  26.4924175  93.5001335
  58.9748691  26.1167462  94.8714307  60.6527223  32.2820727  92.7144325
  60.8644119  32.9252487  92.0378706  60.6056972  31.4483043  92.2466255
  58.2553452  24.8938548  89.6180898  57.3937931  25.1919801  89.9097635
  58.2815887  25.1108946  88.6861930  55.0715022  33.4380738  86.0254703
  55.5353367  33.7168441  85.2359326  54.8071820  32.5364183  85.8427794
  51.9639103  32.9852220  88.9634466  52.5340460  33.4139488  88.3251951
  52.5547215  32.7034804  89.6618652  54.0083908  29.5603891  82.8344268
  54.7107951  30.0124934  83.3018195  53.6764536  28.9187709  83.4624161
  52.4564269  28.1515647  97.2095478  51.8262930  28.8331928  97.4430875
  52.3500357  28.0398729  96.2648616  47.7509242  27.8187443  88.1361402
  46.9608296  28.0744972  87.6601513  48.2420489  28.6335781  88.2413442
  61.7673051  35.1592682  90.8866683  62.5890495  34.7572870  90.6049364
  61.7635454  35.0560917  91.8382799  49.7023987  28.1832022  85.0944879
  48.9055150  28.2950717  85.6128374  49.4749579  28.5218675  84.2285769
  55.5329655  34.7076726  93.0427393  55.5974087  35.1697133  93.8785565
  54.8240579  34.0774091  93.1709703  46.0346945  28.0717934  90.5676393
  46.2854983  28.9564944  90.8333969  46.5706493  27.8922535  89.7951485
  69.8579044  31.5031431  87.2351654  69.1042753  30.9338829  87.0795659
  69.9926586  31.4694095  88.1822289  55.2477672  36.3744833  82.9106374
  55.1123347  37.2196369  83.3391221  55.7887485  36.5764111  82.1472307
  51.7345012  22.4536413  99.5720729  51.3411958  21.9002612 100.2468373
  52.5511152  22.7646991  99.9627246  48.7007070  33.8920271  83.4834299
  49.2131590  34.6863521  83.6339863  49.3529783  33.1946562  83.4167900
  50.5101954  37.0086027  85.5657052  50.6868583  37.9303992  85.3778036
  51.3058788  36.6944447  85.9951432  54.6512973  23.8694292  97.1640985
  55.3922686  24.4701445  97.0845448  54.8830896  23.1271930  96.6059028
  49.7954311  29.0550659  95.4419215  49.6807826  28.1535917  95.7426314
  48.9398829  29.3014356  95.0904032  56.8746149  36.9968400  97.0406716
  56.4310003  36.2104778  96.7227620  57.5363362  37.1847550  96.3750606
  51.6333270  38.5264201  91.5667394  52.1840695  38.3981265  90.7944388
  50.7944746  38.8259090  91.2162287  58.9727387  37.2771200  95.0688117
  58.9545862  38.0980081  94.5768386  59.8947307  37.1525275  95.2938258
  55.4300441  34.7915329  95.9111625  55.9628778  34.0303617  95.6810933
  54.9014522  34.4988981  96.6535780  58.5970136  19.8975395  91.4405267
  58.2534405  20.7877037  91.3644378  58.9649099  19.7077053  90.5774852
  46.6655987  32.2208925  84.2593869  47.5031209  32.6305934  84.0427577
  46.8434254  31.2808368  84.2294063  58.5620419  29.8884006  79.9477702
  58.0467042  30.6588611  80.1866090  58.2897727  29.2149142  80.5710764
  56.1467530  24.7333707  85.0062941  55.2909126  24.3440557  84.8268579
  56.5594481  24.8125668  84.1462726  57.6766676  22.2680050  89.4054500
  57.1731472  22.2310185  88.5922306  57.9697283  23.1772793  89.4651157
  53.9209562  22.3518780  88.4120682  54.7862559  22.1561589  88.0526571
  53.9887071  22.1229132  89.3390039  63.5354693  32.6416361  81.8830876
  62.7584136  32.3027520  81.4386038  64.2146174  32.6468984  81.2085841
  58.3506722  27.7611098  81.7737483  58.0456857  28.0757247  82.6247626
  59.3037164  27.8392518  81.8164816  56.7953154  33.9201322  83.4230437
  56.2674515  33.1854081  83.1103675  56.2940656  34.6975998  83.1770406
  61.7746000  32.1150342  88.5397484  61.1169674  32.8049603  88.6277612
  62.5786399  32.5046774  88.8831470  51.5271881  24.5820988  85.7837049
  52.1015633  24.3596169  85.0510242  52.1142864  24.6509682  86.5365650
  60.5851459  30.4694715  86.5901425  61.0983340  31.1024707  87.0923135
  61.2352682  29.8695910  86.2244785  51.8541468  26.6125449  79.8032934
  51.0178781  26.9500135  80.1242209  51.7146238  26.4774429  78.8660071
  53.8294549  21.4562237  84.5112118  53.1758961  21.1411254  83.8868733
  53.7875023  20.8337977  85.2371941  54.9405754  31.7381532  76.4265410
  54.0332816  31.5070785  76.6256559  55.4376786  30.9419151  76.6139392
  57.8473833  40.4479039  79.3462096  57.1735532  40.7510736  79.9547054
  58.2339655  41.2508119  78.9967554  57.0632289  27.9444170  88.8359766
  56.1454851  28.1659117  88.6781454  57.4792433  28.0190481  87.9771473
  57.8467337  29.3435586  83.9662446  58.5939156  29.8556983  83.6569568
  58.1158927  29.0219639  84.8266840  56.1193987  31.8394127  80.9489400
  55.2105207  31.5553159  81.0461870  56.1489071  32.2593205  80.0892707
  61.3513255  35.4500716  84.7180568  60.8975582  34.6091626  84.7745758
  60.7207221  36.0862115  85.0555348  60.2946174  26.3792702  85.9481235
  59.5568931  25.8670088  86.2791478  60.5472948  25.9393084  85.1364512
  59.7946194  37.2877213  85.6530386  60.0869168  37.8482270  84.9342752
  60.3044815  37.5805774  86.4083545  60.3957802  19.1568954  86.5423005
  60.7016678  18.2966318  86.2548920  61.1210406  19.7486574  86.3421999
  46.6882158  29.5599641  84.9304603  46.4906558  28.9669001  84.2055669
  46.1328822  29.2551851  85.6480541  54.6678881  29.4522747  87.0499196
  54.7227491  28.4996584  86.9741672  53.8570083  29.6082186  87.5340494
  55.8170075  33.3802870  78.2877479  55.3789505  32.6638729  77.8283116
  56.5580516  33.6078985  77.7262570  52.6071241  28.0699807  84.8089575
  51.7939107  28.3693978  85.2154767  53.1030235  27.6755496  85.5264057
  54.7579819  38.0657564  86.7423839  54.7155998  38.2918410  85.8132371
  55.6742518  37.8320939  86.8909640  58.2045453  28.5341631  93.6404469
  58.5594841  28.7613105  94.4998934  58.8517584  28.8660008  93.0181724
  63.9343190  31.6560067  84.3453798  63.7961088  31.8461663  83.4174987
  63.5779409  32.4179450  84.8021849  52.0985316  25.6418163  90.4250810
  52.7384695  25.5006922  89.7273773  51.2662847  25.3552676  90.0489412
  63.9612570  33.7236594  89.3565069  64.3949076  33.6311883  90.2048123
  64.6744150  33.6994095  88.7185085  52.8745620  34.9420593  86.5385802
  53.6686218  34.4470913  86.3368377  52.1637312  34.4138456  86.1753508
  57.6940464  37.3238688  90.8898170  57.7477487  37.8929625  91.6575886
  56.8255246  37.4940574  90.5252207  49.1828383  29.0863675  82.6145555
  48.2525972  29.0248130  82.8315517  49.2785855  28.5639627  81.8182196
  49.1013932  25.6118488  85.2023796  49.3620750  26.5263821  85.0932957
  49.9231105  25.1442930  85.3520409  50.5738858  27.0256245  92.3722621
  51.2461911  26.8173607  91.7235270  49.7468644  26.8278331  91.9327853
  64.8228119  33.7660295  91.8897954  65.0164009  34.6706106  92.1357229
  64.7228737  33.3067714  92.7236539  56.4764430  23.6518186  94.3888282
  55.8292345  24.3508135  94.2952758  57.2465445  24.0854330  94.7564530
  59.8843228  33.9167038  97.4638835  59.7328734  33.6877589  96.5468919
  59.8747907  34.8737639  97.4770180  56.6528564  31.4898951  92.4485102
  57.5820624  31.6410110  92.2754069  56.2319594  31.5782971  91.5933748
  55.4516896  35.5149615  90.2183639  55.3127982  35.1468399  91.0909577
  54.6631492  36.0297254  90.0467597  56.0465048  40.6158711  81.5609176
  56.2216804  40.1446755  82.3754798  55.3597836  41.2424478  81.7890436
  57.0022111  34.8931218  87.6072477  56.6671944  34.8531988  88.5030127
  56.5026057  34.2275934  87.1342887  50.9766355  30.2998848  93.1325058
  50.8386153  29.5679086  93.7336597  51.8871279  30.2107748  92.8509246
  59.9381303  32.2387252  77.8809537  59.3210473  31.5134080  77.7842589
  59.4697791  32.9996612  77.5376611  53.6048656  30.0118807  92.6208738
  54.3148274  29.3711999  92.5795356  53.5617964  30.2631702  93.5434919
  61.5935434  36.9486160  95.5415317  61.5347981  36.2645380  94.8745900
  61.9954953  37.6905150  95.0895943  52.3177590  26.9984025  94.4404377
  51.7814947  26.5474763  95.0925974  51.7294298  27.1329934  93.6974842
  50.6126133  43.7648074  88.3349036  50.8522731  44.3966598  89.0128054
  49.7695330  43.4136114  88.6214395  51.7279849  26.4572676  77.0030841
  50.8509315  26.3361477  76.6393088  52.2037602  25.6658755  76.7509730
  61.5952842  34.9125744  93.7729297  60.7079620  34.5751666  93.8955695
  62.1651393  34.1808775  94.0098062  43.2481989  31.2449836  87.0972348
  43.9353029  30.9311566  86.5093363  43.0930117  32.1491201  86.8239599
  48.0516711  26.1340033  91.5257372  47.9674900  25.5265702  90.7907782
  47.2299417  26.6249051  91.5266868  55.1253995  39.5727197  90.7390540
  55.0524167  40.3782168  91.2509844  54.6831388  39.7719162  89.9138561
  54.9143775  38.8098967  84.2493361  54.1311297  39.3520647  84.3431586
  55.6136520  39.3272946  84.6487603  58.2240425  24.6193596  86.8927567
  58.7209124  23.8663558  86.5728637  57.4527406  24.6557913  86.3270776
  66.0770182  30.3233962  88.5345858  66.0660058  31.2058677  88.1639791
  65.2087562  29.9705512  88.3400395  57.5852679  39.4714031  92.8948698
  58.2980651  40.1061495  92.8224600  57.0942707  39.5677897  92.0788700
  59.3070205  33.3765283  84.4665990  58.3726484  33.4966746  84.2970694
  59.4846874  32.4737750  84.2026000  54.8075394  26.7610979  86.6199251
  54.4373181  26.2082019  87.3080157  55.3034486  26.1569113  86.0674251
  62.6942757  29.2182603  85.0016024  63.1603209  30.0510594  84.9276327
  63.1450257  28.7527584  85.7061283  52.6364592  37.2208474  93.7154269
  53.3374052  37.8544957  93.8683664  52.1659707  37.5623206  92.9549909
  60.7618988  35.5626424  82.0002176  61.0378832  35.4483018  82.9096050
  59.8923487  35.1643909  81.9614349  60.6659420  21.5863190  89.0406926
  59.7522499  21.8167416  89.2089133  61.0952521  21.6701634  89.8920958
  60.4365878  29.7753082  91.5406820  59.7837328  30.0228989  90.8859272
  60.8146258  28.9617220  91.2069297  57.3973052  39.8112775  85.6434990
  57.5795446  38.9934431  86.1062742  58.2206038  40.0280467  85.2059880
  57.7315217  38.7380960  82.9050038  58.2602984  38.2273414  82.2920201
  57.9943437  38.4223490  83.7695571  56.4853451  30.5172893  98.0272857
  55.8094088  30.4167022  98.6975232  57.3081085  30.3612106  98.4908854
  48.2332310  36.7544829  90.6485372  48.8185747  36.0088517  90.7813276
  48.0357149  37.0648786  91.5322036  51.0870965  39.7896077  85.6647814
  50.4181341  40.2742204  85.1811854  50.9483835  40.0365297  86.5791193
  42.8249965  29.3250429  89.3689815  42.8634064  28.7914020  90.1626933
  42.3190258  28.7985635  88.7500792  55.2276234  41.8239820  92.2630473
  55.7794542  41.9871442  93.0279558  55.5682427  42.4144258  91.5910498
  50.2040727  24.1714970  92.8652357  50.2682054  25.0329801  92.4529755
  50.1407847  23.5588972  92.1324716  49.6793000  26.2438102  96.5125392
  50.3065039  25.8615180  97.1262916  48.8220919  26.0252304  96.8781084
  60.0787108  36.6501078  98.1179127  60.6227012  37.2631036  97.6234082
  59.4973953  37.2080656  98.6346140  46.4558542  28.0514532  82.4443747
  46.7511984  27.1425210  82.3910800  45.5546578  28.0302271  82.1224749
  58.3644621  39.7721796  89.2494155  58.2395761  38.9711535  88.7405100
  59.0223712  40.2667989  88.7608125  49.9852789  26.1270528  88.4271295
  49.2639375  26.7406496  88.2878768  50.7746045  26.6628293  88.3487941
  60.4279530  37.5730816  90.8773705  59.4809865  37.4536167  90.8052032
  60.7762303  36.6853314  90.9599966  52.7879103  23.4624955  94.7011947
  53.3113505  23.7087251  95.4638256  52.5691436  24.2944989  94.2815084
  48.1846384  25.7328629  82.5683072  47.8559090  24.8526008  82.3858178
  48.5385755  25.6776298  83.4559461  57.4325963  37.3683532  87.0778057
  57.2850925  36.4400239  87.2585627  58.2579456  37.3903623  86.5935132
  51.2988207  26.0201599  82.9358549  51.6384280  26.5487520  82.2137158
  51.7460328  26.3582005  83.7117116  61.0360085  38.1912091  88.1642930
  61.9606632  37.9854952  88.0267381  60.8675388  37.9428492  89.0732271
  53.9931648  24.4038650  92.3861617  53.6528468  23.6046463  92.7882297
  53.2870654  24.7040361  91.8138451  54.6448120  21.4887962  90.8388940
  55.4674189  21.0148440  90.7167831  54.8886183  22.2678446  91.3387627
  53.2856354  24.5176221  81.1351842  54.0064717  24.8957473  80.6315559
  52.6621659  25.2365097  81.2386820  57.4287477  25.2221370  82.0710174
  57.6451092  26.1046007  81.7699003  56.9481544  24.8307583  81.3415816
  52.1686699  28.1807083  88.6480919  52.0231279  28.4947386  89.5405201
  51.6911902  28.7991983  88.0951818  54.0283082  25.1709631  88.6961809
  54.0144650  24.2750724  88.3594107  54.7455510  25.1780294  89.3300095
  55.8809212  25.6046971  90.7414936  55.6226990  26.5264042  90.7399266
  55.3494253  25.2077405  91.4315400  60.8255401  38.7097758  83.5205021
  60.9992279  38.1444181  82.7678874  61.3184292  39.5098653  83.3384511
  46.6432361  30.7212427  91.5868580  46.0985829  31.4972235  91.7188855
  47.5211711  31.0683232  91.4287702  53.4319977  24.0524011  83.9649379
  53.5535889  23.1240657  84.1640266  53.1422020  24.0662697  83.0527694
  56.3011168  21.7378921  87.1016099  56.3232865  21.8018255  86.1468078
  56.7179227  20.8983430  87.2956605  66.6794792  31.4734181  85.1395321
  67.1225938  30.7241506  84.7414444  65.8021302  31.4644317  84.7569053
  61.8130573  38.0264522  80.6201920  62.5081478  38.6471215  80.8389234
  62.1553724  37.1759874  80.8954298  47.4298383  29.8482323  94.4798737
  46.6880119  29.9964959  95.0663367  47.1091127  30.1090589  93.6165486
  63.7121997  35.4764228  82.1489250  64.2373321  35.8151501  81.4238570
  63.6244349  34.5411243  81.9652385  55.3742045  39.3898302  94.2779127
  55.6829172  39.1447448  95.1501827  56.1717527  39.5944940  93.7897997
  55.3962657  41.5436211  86.5084504  54.9567648  41.0512590  87.2017360
  56.1470774  41.0009179  86.2676579  47.8754996  37.7347752  86.5109132
  48.7013016  37.4351524  86.1307775  47.5249048  36.9655375  86.9598920
  52.8436530  37.0874220  88.5806805  52.2216539  36.4244925  88.2809033
  53.5141396  37.1135352  87.8980453  46.0763601  35.6534079  87.4698065
  45.2395510  35.2256253  87.2882067  46.0487247  35.8466522  88.4068856
  52.9161057  25.5656008  98.1739311  52.9649212  26.4418131  97.7917081
  53.4583571  25.0233401  97.6010955  63.4015903  36.1097132  97.4540448
  62.6111446  36.0921270  96.9144948  63.1649257  36.6485425  98.2089485
  63.5213778  32.9589598  94.7673177  63.5711783  32.7939605  95.7088700
  63.4127701  32.0916857  94.3771058  52.4050036  35.6378144  82.0565266
  52.5538157  36.3213608  81.4031939  53.2116480  35.6183234  82.5714722
  60.8117540  28.9420526  96.0832484  61.7127403  28.8026991  95.7916481
  60.8865515  29.1074981  97.0230661  55.1460345  26.3187381  94.9285670
  54.2763655  26.6120947  94.6568259  55.3819826  26.9027826  95.6492934
  65.0231975  35.3786540  95.0115198  64.7316783  35.7416520  95.8478659
  64.4104106  34.6653548  94.8328531  66.2227657  32.9439419  87.5317769
  67.0574548  33.3829223  87.6955329  66.3586786  32.4678073  86.7126014
  63.2719163  30.5019154  93.4795256  63.7473284  30.6946800  92.6714108
  62.3484728  30.5578340  93.2338640  50.1602669  31.6643321  83.0626335
  49.9148711  30.7605651  83.2606545  50.3298584  31.6660472  82.1205813
  57.8499379  22.5366998  92.4451090  58.3681323  23.2728025  92.1197579
  57.4954512  22.8430991  93.2797849  49.4298317  27.3971679  80.5612496
  48.7367562  27.4716034  79.9052532  49.1850069  26.6332023  81.0834013
  58.1011973  18.9567280  87.9651987  58.3813727  18.2890469  88.5912413
  58.8862580  19.1496376  87.4526651  55.9045442  38.1326274  79.5277013
  55.3319409  38.7516461  79.0747485  56.4778236  38.6825636  80.0616935
  61.9720832  27.3784914  91.7123562  62.9238255  27.4783012  91.7335786
  61.8024282  26.5863183  92.2221646  59.9935211  24.4640497  91.8982963
  59.3985143  24.7445510  91.2029452  59.7084908  24.9534398  92.6699704
  59.1242702  38.4163424  80.6585596  60.0573375  38.3508986  80.8618471
  59.0365915  39.2519691  80.2000128  61.7530718  37.7329295  77.6189543
  61.6744350  37.3989158  78.5125301  62.5740385  38.2251063  77.6181015
  64.4508910  30.5991034  90.8265862  64.4185230  29.6607035  91.0125546
  65.0609533  30.6775071  90.0931687  56.2892240  29.4687087  76.8693066
  57.2351345  29.3393295  76.9381484  55.9106485  28.7301749  77.3462494
  64.6003398  27.3902077  90.8724145  64.0842447  26.6060534  90.6854074
  65.4843347  27.0620794  91.0370664  62.2614125  21.1343093  86.8319958
  62.0638946  20.8258181  87.7163290  62.8713831  21.8604732  86.9617887
  70.2685459  31.6607041  89.9671899  70.9988848  31.3992329  90.5279602
  69.6592405  30.9235763  90.0073966  68.3500757  29.8014903  90.5646350
  67.6233920  29.6670868  89.9562841  67.9348043  30.1091732  91.3703068
  56.1730933  33.5204833  98.3293723  57.0933942  33.6983432  98.5233769
  56.1380516  32.5760878  98.1773422  54.4735158  27.3937063  76.8047951
  53.5666613  27.0970176  76.8810665  54.7511139  27.0966881  75.9382237
  45.3913098  28.7143427  87.2546997  45.0715882  27.8608735  86.9621371
  44.8446526  28.9292005  88.0104965  49.1693006  31.4305868  90.9716504
  49.3879015  32.3622976  90.9904538  49.5818779  31.0713842  91.7571308
  56.0897223  21.9373953  82.9592192  55.2797952  21.5921038  83.3347438
  56.7781640  21.6281497  83.5479804  58.0187772  21.0152000  84.5816489
  58.5718810  21.4347453  85.2406512  58.2557858  20.0887748  84.6239445
  54.0420871  27.0039073 100.3619253  53.9417598  27.9533430 100.2931344
  53.8242413  26.6757312  99.4895323  53.2433942  24.2523999  76.9459930
  54.1053106  24.5778897  77.2055748  53.4284286  23.4655494  76.4332996
  45.2601358  32.3346338  89.2240119  44.5664829  31.9200291  88.7110073
  46.0074349  32.3766875  88.6273538  61.3966579  23.1252525  84.0895153
  60.8165248  23.7837329  83.7073206  61.1302511  22.3029870  83.6782571
  59.8470145  22.5257583  86.2916474  60.3469923  22.6374117  85.4830792
  60.4905753  22.2218636  86.9317282  53.9052141  30.4336212  99.1784314
  53.4219223  31.2336572  99.3848204  53.9913080  30.4444157  98.2251758
  47.1738100  32.2664592  87.1006134  47.1508789  32.3652279  86.1488017
  47.4838737  33.1129743  87.4223300  49.8325478  34.3240747  91.2152748
  50.7868732  34.2924689  91.1482680  49.6338002  33.8631371  92.0302974
  50.4224861  32.8941863  93.7823546  51.2417749  33.3885942  93.8058383
  50.6961668  31.9773831  93.7541113  60.1791457  25.2852615  83.1451501
  59.2917312  25.5702266  82.9271696  60.5945446  25.1246379  82.2978778
  63.5305993  25.3099136  86.8605841  64.3066383  25.7995589  87.1330458
  62.8054127  25.7357191  87.3177710  65.9678551  26.0226756  87.9179781
  66.5623042  25.7822492  87.2073090  66.0405135  25.3033886  88.5453318
  48.1875707  39.8660367  88.2322946  48.0530175  39.1060767  87.6660944
  47.7707769  40.5901266  87.7651735  59.3234670  35.0497290  77.2399521
  60.0270520  35.2547293  77.8557177  58.5997319  35.6174052  77.5048605
  60.1532480  30.8007151  83.3601792  60.0967682  31.2575703  82.5209424
  60.7060823  30.0397836  83.1824634  63.9637286  26.5896883  84.1851911
  63.7074221  26.1893519  85.0160119  63.3390154  27.3040677  84.0602050
  68.2749624  29.3292956  86.6923203  67.7149182  29.3986146  87.4654765
  67.6693128  29.1533941  85.9722699  51.3444833  40.7629684  88.4441389
  51.2277217  41.7075116  88.3420079  50.5237279  40.4603245  88.8327188
  61.2321368  35.4879819  79.2897981  62.0666972  35.0561018  79.1075456
  61.0705710  35.3161833  80.2174876  60.8867260  31.9911933  80.6554321
  60.8316064  31.8256204  79.7142765  60.2613315  32.6987965  80.8116511
  45.6759775  27.2279997  94.4815743  46.3218638  26.7178951  94.9702968
  45.4676926  27.9648679  95.0559168  58.2013167  34.2960844  99.9807884
  59.0704327  34.4701497  99.6194518  57.7219918  35.1155261  99.8583613
  54.1963385  21.4920042  80.2339639  54.1842055  22.4361881  80.3907910
  55.0886807  21.3090187  79.9399100  52.3699347  41.4157945  91.6597317
  53.2726594  41.4481556  91.9763812  52.1436717  40.4858396  91.6743653
  54.1252949  40.1688932  88.3207396  53.1748580  40.1690794  88.2071768
  54.4285435  39.4221667  87.8043430  58.0115505  18.0862818  84.4885576
  57.2447900  17.5321305  84.6342258  58.4226210  18.1584687  85.3499728
  50.0157266  24.3747614  98.5790757  50.8788727  24.0184419  98.7894082
  49.4422676  24.0361509  99.2666162  69.8605643  46.0049470  89.3853158
  70.4984053  45.8856218  88.6816498  69.7426486  46.9530314  89.4441110
  66.6695349  45.9576898  89.3214683  66.3313860  45.8417963  88.4335218
  67.5385117  45.5568064  89.3015689  62.5282165  47.8112375  85.3111574
  61.9647030  47.7202312  84.5427862  62.4134560  46.9912279  85.7914066
  67.1515132  47.1111750  95.2800888  67.1403773  46.7164548  94.4081392
  67.3135771  46.3777823  95.8734660  60.0746597  49.3063566  88.1495794
  60.8667889  48.9654391  87.7342094  60.3143247  49.4158542  89.0697948
  63.8722393  49.8948862  94.2280072  63.5812259  50.7994493  94.1126739
  64.5079377  49.9365390  94.9424142  64.7978600  47.2725711  90.8181432
  65.3942172  47.0481733  90.1038395  64.8553571  46.5310456  91.4206880
  64.3703628  44.7265146  78.6531623  64.6229149  44.2046667  77.8915086
  63.4328187  44.5631291  78.7558307  69.4146911  43.7300924  86.4606366
  70.2010000  43.3120347  86.1096783  69.6785615  44.6347016  86.6288015
  69.5856989  49.1673775  81.1595023  68.9502821  49.2408401  81.8715928
  69.2554395  49.7567373  80.4814102  74.8155338  43.6676157  87.3639345
  75.5480510  43.0975374  87.5977174  74.0594694  43.2797758  87.8045850
  66.4331458  46.0903399  84.5602687  66.0689665  45.5634020  85.2715609
  67.2898574  45.7001868  84.3869173  72.3380759  37.3797732  91.8233953
  72.0064083  38.2493142  91.5995168  71.7426372  37.0634016  92.5027984
  66.0736945  41.1193299  79.5564036  66.2411347  41.9873535  79.9234507
  65.8834114  41.2820580  78.6325325  68.8312278  49.5810277  91.2229866
  68.5313001  50.4835316  91.1145673  68.4863338  49.3142461  92.0751019
  62.2824760  46.0324074  87.2566571  61.3575256  45.9000288  87.4644262
  62.5309173  46.8118294  87.7536513  72.2309422  42.0992818  88.9027303
  71.3226299  42.0308226  88.6086064  72.1797018  42.5764763  89.7309129
  66.0526166  43.5750956  80.5410703  65.9325791  44.0208007  81.3796183
  65.3578754  43.9236274  79.9824241  59.6433571  45.6757348  88.0910360
  59.7725952  45.9291827  89.0049771  58.9631022  46.2685056  87.7715015
  63.8133058  56.3454598  84.1900834  63.7357088  57.2962423  84.2689314
  63.2094702  56.0000470  84.8475760  66.3050288  43.5182463  96.8462201
  65.5283622  44.0776383  96.8365065  66.9440851  44.0039246  97.3677071
  74.0971068  40.3009256  90.6805177  73.4545449  40.5941789  90.0344972
  73.5925997  40.1862176  91.4858374  71.7511232  44.0472429  81.3691037
  72.6629088  44.2799816  81.1938734  71.2420879  44.6309473  80.8066115
  64.5596660  46.3267917  96.4080168  65.3011344  46.8652961  96.1314991
  63.8533646  46.9534205  96.5651720  70.0352000  48.4697057  95.0052329
  70.4435356  48.0279468  94.2606962  69.3129261  47.8949685  95.2586522
  66.3883070  43.4069664  92.3785886  67.2344265  43.8309077  92.5220535
  66.3281707  42.7503288  93.0724449  70.3580814  49.0298248  88.7604618
  69.7289677  49.1943962  88.0580686  69.9706476  49.4439857  89.5315582
  74.2370046  49.9652686  86.1148982  73.5521084  50.3451587  85.5646015
  74.3213896  50.5748012  86.8480930  69.5382515  41.0674032  94.0367060
  69.2943447  41.8216093  93.5001335  69.8142446  41.4459380  94.8714307
  71.4920978  47.6112645  92.7144325  71.7037873  48.2544404  92.0378706
  71.4450726  46.7774961  92.2466255  69.0947207  40.2230465  89.6180898
  68.2331686  40.5211719  89.9097635  69.1209641  40.4400864  88.6861930
  65.9108776  48.7672656  86.0254703  66.3747122  49.0460359  85.2359326
  65.6465574  47.8656100  85.8427794  62.8032857  48.3144137  88.9634466
  63.3734214  48.7431406  88.3251951  63.3940969  48.0326722  89.6618652
  64.8477662  44.8895808  82.8344268  65.5501706  45.3416852  83.3018195
  64.5158291  44.2479627  83.4624161  63.2958024  43.4807565  97.2095478
  62.6656684  44.1623846  97.4430875  63.1894112  43.3690646  96.2648616
  58.5902996  43.1479361  88.1361402  57.8002050  43.4036889  87.6601513
  59.0814244  43.9627699  88.2413442  72.6066806  50.4884600  90.8866683
  73.4284250  50.0864787  90.6049364  72.6029209  50.3852834  91.8382799
  60.5417742  43.5123940  85.0944879  59.7448905  43.6242634  85.6128374
  60.3143334  43.8510592  84.2285769  66.3723409  50.0368643  93.0427393
  66.4367842  50.4989051  93.8785565  65.6634333  49.4066008  93.1709703
  56.8740699  43.4009851  90.5676393  57.1248738  44.2856861  90.8333969
  57.4100248  43.2214453  89.7951485  80.6972799  46.8323348  87.2351654
  79.9436507  46.2630747  87.0795659  80.8320340  46.7986013  88.1822289
  66.0871427  51.7036751  82.9106374  65.9517102  52.5488287  83.3391221
  66.6281239  51.9056028  82.1472307  62.5738767  37.7828331  99.5720729
  62.1805712  37.2294529 100.2468373  63.3904907  38.0938909  99.9627246
  59.5400824  49.2212189  83.4834299  60.0525345  50.0155439  83.6339863
  60.1923537  48.5238479  83.4167900  61.3495709  52.3377945  85.5657052
  61.5262337  53.2595910  85.3778036  62.1452543  52.0236364  85.9951432
  65.4906728  39.1986210  97.1640985  66.2316441  39.7993363  97.0845448
  65.7224650  38.4563848  96.6059028  60.6348066  44.3842577  95.4419215
  60.5201581  43.4827834  95.7426314  59.7792583  44.6306274  95.0904032
  67.7139903  52.3260317  97.0406716  67.2703757  51.5396696  96.7227620
  68.3757117  52.5139468  96.3750606  62.4727024  53.8556119  91.5667394
  63.0234450  53.7273182  90.7944388  61.6338500  54.1551008  91.2162287
  69.8121141  52.6063117  95.0688117  69.7939617  53.4271998  94.5768386
  70.7341061  52.4817192  95.2938258  66.2694195  50.1207247  95.9111625
  66.8022532  49.3595535  95.6810933  65.7408277  49.8280899  96.6535780
  69.4363890  35.2267313  91.4405267  69.0928160  36.1168954  91.3644378
  69.8042853  35.0368970  90.5774852  69.4014173  45.2175924  79.9477702
  68.8860797  45.9880528  80.1866090  69.1291482  44.5441060  80.5710764
  66.9861284  40.0625625  85.0062941  66.1302881  39.6732475  84.8268579
  67.3988236  40.1417585  84.1462726  68.5160431  37.5971968  89.4054500
  68.0125226  37.5602103  88.5922306  68.8091038  38.5064711  89.4651157
  64.7603317  37.6810698  88.4120682  65.6256314  37.4853506  88.0526571
  64.8280826  37.4521049  89.3390039  74.3748447  47.9708278  81.8830876
  73.5977890  47.6319438  81.4386038  75.0539928  47.9760902  81.2085841
  69.1900476  43.0903016  81.7737483  68.8850612  43.4049165  82.6247626
  70.1430918  43.1684436  81.8164816  67.6346908  49.2493239  83.4230437
  67.1068270  48.5145999  83.1103675  67.1334411  50.0267916  83.1770406
  72.6139754  47.4442260  88.5397484  71.9563429  48.1341521  88.6277612
  73.4180153  47.8338692  88.8831470  62.3665636  39.9112905  85.7837049
  62.9409388  39.6888087  85.0510242  62.9536618  39.9801600  86.5365650
  71.4245213  45.7986632  86.5901425  71.9377095  46.4316624  87.0923135
  72.0746437  45.1987828  86.2244785  62.6935223  41.9417367  79.8032934
  61.8572535  42.2792053  80.1242209  62.5539993  41.8066346  78.8660071
  64.6688304  36.7854154  84.5112118  64.0152716  36.4703172  83.8868733
  64.6268778  36.1629895  85.2371941  67.9026044  43.2736088  88.8359766
  66.9848605  43.4951035  88.6781454  68.3186188  43.3482398  87.9771473
  68.6861092  44.6727504  83.9662446  69.4332911  45.1848901  83.6569568
  68.9552681  44.3511556  84.8266840  66.9587742  47.1686044  80.9489400
  66.0498961  46.8845077  81.0461870  66.9882826  47.5885123  80.0892707
  72.1907009  50.7792634  84.7180568  71.7369336  49.9383544  84.7745758
  71.5600976  51.4154032  85.0555348  71.1339929  41.7084620  85.9481235
  70.3962686  41.1962006  86.2791478  71.3866702  41.2685001  85.1364512
  70.6339948  52.6169131  85.6530386  70.9262923  53.1774188  84.9342752
  71.1438569  52.9097692  86.4083545  71.2351556  34.4860872  86.5423005
  71.5410433  33.6258235  86.2548920  71.9604161  35.0778492  86.3421999
  57.5275912  44.8891558  84.9304603  57.3300312  44.2960919  84.2055669
  56.9722576  44.5843769  85.6480541  65.5072636  44.7814665  87.0499196
  65.5621246  43.8288501  86.9741672  64.6963838  44.9374104  87.5340494
  63.4464996  43.3991725  84.8089575  62.6332861  43.6985895  85.2154767
  63.9423990  43.0047413  85.5264057  65.5973574  53.3949482  86.7423839
  65.5549752  53.6210328  85.8132371  66.5136273  53.1612856  86.8909640
  69.0439207  43.8633549  93.6404469  69.3988595  44.0905022  94.4998934
  69.6911339  44.1951926  93.0181724  74.7736944  46.9851985  84.3453798
  74.6354843  47.1753581  83.4174987  74.4173163  47.7471368  84.8021849
  62.9379071  40.9710080  90.4250810  63.5778450  40.8298839  89.7273773
  62.1056601  40.6844594  90.0489412  74.8006324  49.0528512  89.3565069
  75.2342831  48.9603801  90.2048123  75.5137905  49.0286013  88.7185085
  63.7139374  50.2712511  86.5385802  64.5079973  49.7762831  86.3368377
  63.0031067  49.7430374  86.1753508  68.5334219  52.6530606  90.8898170
  68.5871241  53.2221542  91.6575886  67.6649000  52.8232491  90.5252207
  60.0222138  44.4155592  82.6145555  59.0919726  44.3540048  82.8315517
  60.1179610  43.8931545  81.8182196  59.9407687  40.9410405  85.2023796
  60.2014504  41.8555738  85.0932957  60.7624859  40.4734848  85.3520409
  61.4132612  42.3548162  92.3722621  62.0855666  42.1465524  91.7235270
  60.5862399  42.1570248  91.9327853  75.6621874  49.0952213  91.8897954
  75.8557764  49.9998023  92.1357229  75.5622492  48.6359632  92.7236539
  67.3158184  38.9810103  94.3888282  66.6686099  39.6800053  94.2952758
  68.0859200  39.4146247  94.7564530  70.7236982  49.2458955  97.4638835
  70.5722489  49.0169507  96.5468919  70.7141662  50.2029557  97.4770180
  67.4922319  46.8190868  92.4485102  68.4214379  46.9702028  92.2754069
  67.0713349  46.9074889  91.5933748  66.2910650  50.8441533  90.2183639
  66.1521736  50.4760317  91.0909577  65.5025247  51.3589172  90.0467597
  66.8858802  55.9450629  81.5609176  67.0610558  55.4738672  82.3754798
  66.1991590  56.5716395  81.7890436  67.8415866  50.2223135  87.6072477
  67.5065698  50.1823905  88.5030127  67.3419811  49.5567851  87.1342887
  61.8160110  45.6290765  93.1325058  61.6779907  44.8971004  93.7336597
  62.7265033  45.5399665  92.8509246  70.7775057  47.5679170  77.8809537
  70.1604228  46.8425998  77.7842589  70.3091546  48.3288530  77.5376611
  64.4442410  45.3410725  92.6208738  65.1542029  44.7003917  92.5795356
  64.4011718  45.5923620  93.5434919  72.4329189  52.2778078  95.5415317
  72.3741735  51.5937298  94.8745900  72.8348707  53.0197068  95.0895943
  63.1571344  42.3275943  94.4404377  62.6208701  41.8766681  95.0925974
  62.5688053  42.4621851  93.6974842  62.5673603  41.7864594  77.0030841
  61.6903069  41.6653395  76.6393088  63.0431356  40.9950672  76.7509730
  72.4346596  50.2417662  93.7729297  71.5473375  49.9043584  93.8955695
  73.0045147  49.5100693  94.0098062  54.0875743  46.5741754  87.0972348
  54.7746783  46.2603484  86.5093363  53.9323872  47.4783118  86.8239599
  58.8910465  41.4631950  91.5257372  58.8068654  40.8557620  90.7907782
  58.0693172  41.9540969  91.5266868  65.9647750  54.9019114  90.7390540
  65.8917921  55.7074086  91.2509844  65.5225143  55.1011080  89.9138561
  65.7537529  54.1390884  84.2493361  64.9705051  54.6812565  84.3431586
  66.4530274  54.6564864  84.6487603  69.0634179  39.9485514  86.8927567
  69.5602879  39.1955476  86.5728637  68.2921161  39.9849830  86.3270776
  76.9163937  45.6525879  88.5345858  76.9053813  46.5350595  88.1639791
  76.0481316  45.2997430  88.3400395  68.4246433  54.8005948  92.8948698
  69.1374405  55.4353413  92.8224600  67.9336462  54.8969814  92.0788700
  70.1463960  48.7057201  84.4665990  69.2120239  48.8258663  84.2970694
  70.3240628  47.8029668  84.2026000  65.6469148  42.0902897  86.6199251
  65.2766936  41.5373937  87.3080157  66.1428240  41.4861030  86.0674251
  73.5336511  44.5474520  85.0016024  73.9996964  45.3802512  84.9276327
  73.9844012  44.0819502  85.7061283  63.4758347  52.5500392  93.7154269
  64.1767806  53.1836875  93.8683664  63.0053462  52.8915123  92.9549909
  71.6012742  50.8918342  82.0002176  71.8772586  50.7774936  82.9096050
  70.7317241  50.4935826  81.9614349  71.5053174  36.9155107  89.0406926
  70.5916254  37.1459334  89.2089133  71.9346276  36.9993551  89.8920958
  71.2759633  45.1044999  91.5406820  70.6231083  45.3520907  90.8859272
  71.6540012  44.2909137  91.2069297  68.2366806  55.1404692  85.6434990
  68.4189201  54.3226348  86.1062742  69.0599792  55.3572385  85.2059880
  68.5708972  54.0672878  82.9050038  69.0996738  53.5565332  82.2920201
  68.8337192  53.7515408  83.7695571  67.3247206  45.8464810  98.0272857
  66.6487843  45.7458940  98.6975232  68.1474839  45.6904024  98.4908854
  59.0726065  52.0836747  90.6485372  59.6579501  51.3380435  90.7813276
  58.8750903  52.3940704  91.5322036  61.9264720  55.1187994  85.6647814
  61.2575095  55.6034122  85.1811854  61.7877590  55.3657215  86.5791193
  53.6643719  44.6542347  89.3689815  53.7027819  44.1205938  90.1626933
  53.1584012  44.1277553  88.7500792  66.0669988  57.1531738  92.2630473
  66.6188297  57.3163359  93.0279558  66.4076182  57.7436176  91.5910498
  61.0434482  39.5006888  92.8652357  61.1075808  40.3621718  92.4529755
  60.9801602  38.8880889  92.1324716  60.5186754  41.5730020  96.5125392
  61.1458793  41.1907097  97.1262916  59.6614673  41.3544222  96.8781084
  70.9180863  51.9792995  98.1179127  71.4620767  52.5922954  97.6234082
  70.3367708  52.5372574  98.6346140  57.2952297  43.3806449  82.4443747
  57.5905738  42.4717128  82.3910800  56.3940333  43.3594189  82.1224749
  69.2038376  55.1013713  89.2494155  69.0789515  54.3003453  88.7405100
  69.8617467  55.5959907  88.7608125  60.8246544  41.4562446  88.4271295
  60.1033130  42.0698413  88.2878768  61.6139800  41.9920211  88.3487941
  71.2673284  52.9022733  90.8773705  70.3203620  52.7828085  90.8052032
  71.6156057  52.0145231  90.9599966  63.6272858  38.7916872  94.7011947
  64.1507259  39.0379169  95.4638256  63.4085191  39.6236907  94.2815084
  59.0240139  41.0620547  82.5683072  58.6952845  40.1817926  82.3858178
  59.3779509  41.0068216  83.4559461  68.2719717  52.6975450  87.0778057
  68.1244680  51.7692157  87.2585627  69.0973211  52.7195540  86.5935132
  62.1381962  41.3493517  82.9358549  62.4778034  41.8779438  82.2137158
  62.5854082  41.6873923  83.7117116  71.8753839  53.5204008  88.1642930
  72.8000387  53.3146870  88.0267381  71.7069143  53.2720409  89.0732271
  64.8325403  39.7330567  92.3861617  64.4922223  38.9338380  92.7882297
  64.1264409  40.0332278  91.8138451  65.4841874  36.8179880  90.8388940
  66.3067944  36.3440358  90.7167831  65.7279938  37.5970364  91.3387627
  64.1250109  39.8468138  81.1351842  64.8458471  40.2249391  80.6315559
  63.5015413  40.5657015  81.2386820  68.2681232  40.5513287  82.0710174
  68.4844846  41.4337925  81.7699003  67.7875299  40.1599501  81.3415816
  63.0080453  43.5099000  88.6480919  62.8625034  43.8239304  89.5405201
  62.5305657  44.1283901  88.0951818  64.8676836  40.5001548  88.6961809
  64.8538405  39.6042642  88.3594107  65.5849264  40.5072212  89.3300095
  66.7202967  40.9338889  90.7414936  66.4620745  41.8555959  90.7399266
  66.1888007  40.5369323  91.4315400  71.6649155  54.0389676  83.5205021
  71.8386033  53.4736098  82.7678874  72.1578047  54.8390571  83.3384511
  57.4826115  46.0504345  91.5868580  56.9379583  46.8264153  91.7188855
  58.3605465  46.3975149  91.4287702  64.2713732  39.3815929  83.9649379
  64.3929643  38.4532575  84.1640266  63.9815774  39.3954615  83.0527694
  67.1404922  37.0670839  87.1016099  67.1626619  37.1310172  86.1468078
  67.5572981  36.2275348  87.2956605  77.5188547  46.8026099  85.1395321
  77.9619693  46.0533424  84.7414444  76.6415057  46.7936235  84.7569053
  72.6524328  53.3556440  80.6201920  73.3475233  53.9763133  80.8389234
  72.9947478  52.5051791  80.8954298  58.2692137  45.1774241  94.4798737
  57.5273873  45.3256876  95.0663367  57.9484881  45.4382507  93.6165486
  74.5515751  50.8056146  82.1489250  75.0767075  51.1443418  81.4238570
  74.4638104  49.8703161  81.9652385  66.2135800  54.7190219  94.2779127
  66.5222926  54.4739366  95.1501827  67.0111282  54.9236858  93.7897997
  66.2356412  56.8728129  86.5084504  65.7961402  56.3804508  87.2017360
  66.9864529  56.3301097  86.2676579  58.7148751  53.0639670  86.5109132
  59.5406771  52.7643442  86.1307775  58.3642803  52.2947292  86.9598920
  63.6830284  52.4166138  88.5806805  63.0610293  51.7536843  88.2809033
  64.3535151  52.4427270  87.8980453  56.9157356  50.9825996  87.4698065
  56.0789264  50.5548171  87.2882067  56.8881001  51.1758440  88.4068856
  63.7554811  40.8947926  98.1739311  63.8042967  41.7710049  97.7917081
  64.2977326  40.3525319  97.6010955  74.2409657  51.4389049  97.4540448
  73.4505201  51.4213188  96.9144948  74.0043012  51.9777343  98.2089485
  74.3607532  48.2881516  94.7673177  74.4105537  48.1231523  95.7088700
  74.2521456  47.4208775  94.3771058  71.6511295  44.2712444  96.0832484
  72.5521157  44.1318909  95.7916481  71.7259269  44.4366899  97.0230661
  65.9854100  41.6479298  94.9285670  65.1157409  41.9412865  94.6568259
  66.2213580  42.2319743  95.6492934  75.8625729  50.7078457  95.0115198
  75.5710537  51.0708438  95.8478659  75.2497860  49.9945465  94.8328531
  77.0621411  48.2731337  87.5317769  77.8968303  48.7121141  87.6955329
  77.1980540  47.7969990  86.7126014  74.1112917  45.8311072  93.4795256
  74.5867039  46.0238718  92.6714108  73.1878483  45.8870258  93.2338640
  60.9996424  46.9935239  83.0626335  60.7542466  46.0897569  83.2606545
  61.1692338  46.9952389  82.1205813  68.6893134  37.8658915  92.4451090
  69.2075078  38.6019942  92.1197579  68.3348267  38.1722909  93.2797849
  60.2692071  42.7263597  80.5612496  59.5761316  42.8007952  79.9052532
  60.0243823  41.9623940  81.0834013  68.9405728  34.2859198  87.9651987
  69.2207482  33.6182387  88.5912413  69.7256335  34.4788294  87.4526651
  72.8114586  42.7076832  91.7123562  73.7632009  42.8074930  91.7335786
  72.6418037  41.9155100  92.2221646  70.8328966  39.7932415  91.8982963
  70.2378898  40.0737428  91.2029452  70.5478662  40.2826316  92.6699704
  69.9636456  53.7455342  80.6585596  70.8967129  53.6800904  80.8618471
  69.8759669  54.5811609  80.2000128  72.5924473  53.0621212  77.6189543
  72.5138104  52.7281076  78.5125301  73.4134140  53.5542980  77.6181015
  75.2902664  45.9282952  90.8265862  75.2578984  44.9898952  91.0125546
  75.9003288  46.0066988  90.0931687  67.1285995  44.7979005  76.8693066
  68.0745100  44.6685213  76.9381484  66.7500240  44.0593666  77.3462494
  75.4397153  42.7193995  90.8724145  74.9236201  41.9352452  90.6854074
  76.3237101  42.3912712  91.0370664  73.1007879  36.4635011  86.8319958
  72.9032701  36.1550099  87.7163290  73.7107585  37.1896650  86.9617887
  81.1079214  46.9898958  89.9671899  81.8382602  46.7284247  90.5279602
  80.4986159  46.2527680  90.0073966  79.1894511  45.1306821  90.5646350
  78.4627675  44.9962786  89.9562841  78.7741798  45.4383650  91.3703068
  67.0124687  48.8496751  98.3293723  67.9327697  49.0275350  98.5233769
  66.9774271  47.9052796  98.1773422  65.3128912  42.7228981  76.8047951
  64.4060367  42.4262094  76.8810665  65.5904893  42.4258799  75.9382237
  56.2306852  44.0435344  87.2546997  55.9109637  43.1900653  86.9621371
  55.6840281  44.2583923  88.0104965  60.0086760  46.7597785  90.9716504
  60.2272770  47.6914893  90.9904538  60.4212534  46.4005760  91.7571308
  66.9290978  37.2665871  82.9592192  66.1191706  36.9212956  83.3347438
  67.6175395  36.9573414  83.5479804  68.8581526  36.3443918  84.5816489
  69.4112565  36.7639371  85.2406512  69.0951612  35.4179666  84.6239445
  64.8814625  42.3330991 100.3619253  64.7811352  43.2825348 100.2931344
  64.6636167  42.0049230  99.4895323  64.0827697  39.5815916  76.9459930
  64.9446861  39.9070815  77.2055748  64.2678041  38.7947412  76.4332996
  56.0995112  47.6638256  89.2240119  55.4058584  47.2492209  88.7110073
  56.8468103  47.7058792  88.6273538  72.2360333  38.4544443  84.0895153
  71.6559002  39.1129247  83.7073206  71.9696266  37.6321787  83.6782571
  70.6863900  37.8549500  86.2916474  71.1863678  37.9666035  85.4830792
  71.3299507  37.5510553  86.9317282  64.7445895  45.7628130  99.1784314
  64.2612977  46.5628490  99.3848204  64.8306834  45.7736075  98.2251758
  58.0131855  47.5956510  87.1006134  57.9902543  47.6944197  86.1488017
  58.3232491  48.4421660  87.4223300  60.6719233  49.6532665  91.2152748
  61.6262486  49.6216607  91.1482680  60.4731756  49.1923288  92.0302974
  61.2618615  48.2233781  93.7823546  62.0811504  48.7177859  93.8058383
  61.5355423  47.3065749  93.7541113  71.0185211  40.6144533  83.1451501
  70.1311066  40.8994184  82.9271696  71.4339200  40.4538296  82.2978778
  74.3699747  40.6391054  86.8605841  75.1460137  41.1287506  87.1330458
  73.6447882  41.0649108  87.3177710  76.8072306  41.3518673  87.9179781
  77.4016797  41.1114409  87.2073090  76.8798890  40.6325804  88.5453318
  59.0269462  55.1952284  88.2322946  58.8923930  54.4352685  87.6660944
  58.6101524  55.9193184  87.7651735  70.9926235  46.1299069  83.3601792
  70.9361436  46.5867620  82.5209424  71.5454577  45.3689754  83.1824634
  74.8031041  41.9188801  84.1851911  74.5467975  41.5185437  85.0160119
  74.1783909  42.6332595  84.0602050  79.1143379  44.6584874  86.6923203
  78.5542937  44.7278063  87.4654765  78.5086882  44.4825859  85.9722699
  62.1838588  56.0921601  88.4441389  62.0670972  57.0367034  88.3420079
  61.3631034  55.7895163  88.8327188  72.0715122  50.8171737  79.2897981
  72.9060726  50.3852935  79.1075456  71.9099465  50.6453751  80.2174876
  71.7261014  47.3203850  80.6554321  71.6709818  47.1548122  79.7142765
  71.1007070  48.0279883  80.8116511  56.5153529  42.5571915  94.4815743
  57.1612393  42.0470869  94.9702968  56.3070680  43.2940596  95.0559168
  69.0406921  49.6252762  99.9807884  69.9098081  49.7993414  99.6194518
  68.5613673  50.4447179  99.8583613  65.0357140  36.8211959  80.2339639
  65.0235810  37.7653799  80.3907910  65.9280562  36.6382105  79.9399100
  63.2093102  56.7449863  91.6597317  64.1120348  56.7773473  91.9763812
  62.9830472  55.8150314  91.6743653  64.9646704  55.4980850  88.3207396
  64.0142335  55.4982711  88.2071768  65.2679190  54.7513584  87.8043430
  68.8509259  33.4154736  84.4885576  68.0841655  32.8613223  84.6342258
  69.2619964  33.4876605  85.3499728  60.8551020  39.7039532  98.5790757
  61.7182482  39.3476337  98.7894082  60.2816431  39.3653426  99.2666162
  80.6999397  61.3341388  89.3853158  81.3377807  61.2148135  88.6816498
  80.5820240  62.2822232  89.4441110  77.5089103  61.2868816  89.3214683
  77.1707615  61.1709881  88.4335218  78.3778872  60.8859981  89.3015689
  77.9908886  62.4403668  95.2800888  77.9797527  62.0456466  94.4081392
  78.1529526  61.7069740  95.8734660  78.9475478  66.8075260  80.6226039
  78.2963458  67.3929341  80.2360053  79.7419841  67.3381455  80.6821076
  74.7116148  65.2240780  94.2280072  74.4206014  66.1286411  94.1126739
  75.3473132  65.2657307  94.9424142  75.6372354  62.6017628  90.8181432
  76.2335927  62.3773651  90.1038395  75.6947326  61.8602374  91.4206880
  80.2540666  59.0592842  86.4606366  81.0403755  58.6412265  86.1096783
  80.5179370  59.9638934  86.6288015  80.4250743  64.4965692  81.1595023
  79.7896576  64.5700319  81.8715928  80.0948149  65.0859291  80.4814102
  85.6549093  58.9968075  87.3639345  86.3874265  58.4267292  87.5977174
  84.8988448  58.6089676  87.8045850  77.2725213  61.4195317  84.5602687
  76.9083420  60.8925938  85.2715609  78.1292328  61.0293786  84.3869173
  83.1774513  52.7089649  91.8233953  82.8457838  53.5785060  91.5995168
  82.5820127  52.3925933  92.5027984  76.9130699  56.4485216  79.5564036
  77.0805102  57.3165453  79.9234507  76.7227869  56.6112498  78.6325325
  79.6706033  64.9102195  91.2229866  79.3706756  65.8127234  91.1145673
  79.3257092  64.6434378  92.0751019  73.1218514  61.3615992  87.2566571
  72.1969011  61.2292206  87.4644262  73.3702927  62.1410211  87.7536513
  83.0703176  57.4284735  88.9027303  82.1620054  57.3600144  88.6086064
  83.0190772  57.9056680  89.7309129  76.8919920  58.9042874  80.5410703
  76.7719546  59.3499925  81.3796183  76.1972509  59.2528191  79.9824241
  77.1444042  58.8474381  96.8462201  76.3677376  59.4068301  96.8365065
  77.7834605  59.3331164  97.3677071  84.9364823  55.6301174  90.6805177
  84.2939203  55.9233707  90.0344972  84.4319751  55.5154094  91.4858374
  82.5904987  59.3764347  81.3691037  83.5022843  59.6091734  81.1938734
  82.0814634  59.9601391  80.8066115  75.3990415  61.6559834  96.4080168
  76.1405099  62.1944878  96.1314991  74.6927400  62.2826123  96.5651720
  80.8745754  63.7988975  95.0052329  81.2829110  63.3571385  94.2606962
  80.1523016  63.2241602  95.2586522  77.2276824  58.7361582  92.3785886
  78.0738019  59.1600995  92.5220535  77.1675462  58.0795206  93.0724449
  81.1974569  64.3590165  88.7604618  80.5683431  64.5235880  88.0580686
  80.8100231  64.7731775  89.5315582  85.0763801  65.2944603  86.1148982
  84.3914839  65.6743505  85.5646015  85.1607650  65.9039930  86.8480930
  80.3776270  56.3965950  94.0367060  80.1337201  57.1508010  93.5001335
  80.6536200  56.7751298  94.8714307  82.3314732  62.9404562  92.7144325
  82.5431628  63.5836322  92.0378706  82.2844481  62.1066879  92.2466255
  79.9340961  55.5522383  89.6180898  79.0725440  55.8503636  89.9097635
  79.9603396  55.7692782  88.6861930  76.7502531  64.0964573  86.0254703
  77.2140876  64.3752276  85.2359326  76.4859329  63.1948018  85.8427794
  73.6426612  63.6436055  88.9634466  74.2127969  64.0723323  88.3251951
  74.2334724  63.3618640  89.6618652  75.6871417  60.2187726  82.8344268
  76.3895460  60.6708770  83.3018195  75.3552045  59.5771545  83.4624161
  74.1351778  58.8099482  97.2095478  73.5050439  59.4915763  97.4430875
  74.0287866  58.6982564  96.2648616  69.4296751  58.4771279  88.1361402
  68.6395805  58.7328807  87.6601513  69.9207998  59.2919616  88.2413442
  83.4460560  65.8176518  90.8866683  84.2678004  65.4156705  90.6049364
  83.4422963  65.7144752  91.8382799  71.3811496  58.8415858  85.0944879
  70.5842659  58.9534552  85.6128374  71.1537088  59.1802510  84.2285769
  77.2117164  65.3660561  93.0427393  77.2761596  65.8280968  93.8785565
  76.5028088  64.7357926  93.1709703  67.7134454  58.7301769  90.5676393
  67.9642492  59.6148779  90.8333969  68.2494002  58.5506370  89.7951485
  91.5366553  62.1615266  87.2351654  90.7830262  61.5922664  87.0795659
  91.6714095  62.1277931  88.1822289  73.4132521  53.1120248  99.5720729
  73.0199467  52.5586447 100.2468373  74.2298661  53.4230827  99.9627246
  76.3300482  54.5278127  97.1640985  77.0710195  55.1285281  97.0845448
  76.5618405  53.7855765  96.6059028  71.4741820  59.7134495  95.4419215
  71.3595335  58.8119752  95.7426314  70.6186338  59.9598191  95.0904032
  78.5533658  67.6552235  97.0406716  78.1097512  66.8688614  96.7227620
  79.2150871  67.8431385  96.3750606  80.6514896  67.9355035  95.0688117
  80.6333371  68.7563916  94.5768386  81.5734816  67.8109110  95.2938258
  77.1087950  65.4499164  95.9111625  77.6416287  64.6887453  95.6810933
  76.5802031  65.1572816  96.6535780  80.2757645  50.5559230  91.4405267
  79.9321914  51.4460872  91.3644378  80.6436608  50.3660888  90.5774852
  80.2407928  60.5467841  79.9477702  79.7254551  61.3172446  80.1866090
  79.9685236  59.8732978  80.5710764  77.8255039  55.3917542  85.0062941
  76.9696635  55.0024393  84.8268579  78.2381990  55.4709503  84.1462726
  79.3554185  52.9263886  89.4054500  78.8518981  52.8894021  88.5922306
  79.6484792  53.8356628  89.4651157  75.5997071  53.0102615  88.4120682
  76.4650068  52.8145424  88.0526571  75.6674580  52.7812967  89.3390039
  85.2142202  63.3000196  81.8830876  84.4371645  62.9611356  81.4386038
  85.8933683  63.3052819  81.2085841  80.0294231  58.4194934  81.7737483
  79.7244366  58.7341083  82.6247626  80.9824673  58.4976353  81.8164816
  78.4740663  64.5785157  83.4230437  77.9462024  63.8437916  83.1103675
  77.9728165  65.3559833  83.1770406  83.4533509  62.7734177  88.5397484
  82.7957183  63.4633439  88.6277612  84.2573908  63.1630609  88.8831470
  73.2059390  55.2404823  85.7837049  73.7803142  55.0180005  85.0510242
  73.7930373  55.3093518  86.5365650  82.2638968  61.1278550  86.5901425
  82.7770849  61.7608542  87.0923135  82.9140191  60.5279746  86.2244785
  73.5328977  57.2709284  79.8032934  72.6966290  57.6083971  80.1242209
  73.3933747  57.1358264  78.8660071  75.5082058  52.1146072  84.5112118
  74.8546470  51.7995089  83.8868733  75.4662532  51.4921813  85.2371941
  79.5261342  71.1062874  79.3462096  78.8523041  71.4094571  79.9547054
  79.9127164  71.9091955  78.9967554  78.7419798  58.6028006  88.8359766
  77.8242360  58.8242953  88.6781454  79.1579942  58.6774316  87.9771473
  79.5254846  60.0019421  83.9662446  80.2726665  60.5140819  83.6569568
  79.7946436  59.6803474  84.8266840  83.0300764  66.1084552  84.7180568
  82.5763091  65.2675461  84.7745758  82.3994730  66.7445950  85.0555348
  81.9733683  57.0376538  85.9481235  81.2356440  56.5253924  86.2791478
  82.2260457  56.5976919  85.1364512  81.4733703  67.9461048  85.6530386
  81.7656677  68.5066105  84.9342752  81.9832324  68.2389609  86.4083545
  82.0745311  49.8152790  86.5423005  82.3804187  48.9550153  86.2548920
  82.7997915  50.4070410  86.3421999  68.3669667  60.2183476  84.9304603
  68.1694067  59.6252837  84.2055669  67.8116331  59.9135686  85.6480541
  76.3466390  60.1106583  87.0499196  76.4015000  59.1580419  86.9741672
  75.5357592  60.2666022  87.5340494  74.2858750  58.7283642  84.8089575
  73.4726616  59.0277813  85.2154767  74.7817744  58.3339331  85.5264057
  79.8832962  59.1925467  93.6404469  80.2382350  59.4196940  94.4998934
  80.5305093  59.5243844  93.0181724  85.6130699  62.3143903  84.3453798
  85.4748597  62.5045499  83.4174987  85.2566918  63.0763286  84.8021849
  73.7772825  56.3001998  90.4250810  74.4172204  56.1590757  89.7273773
  72.9450356  56.0136511  90.0489412  85.6400078  64.3820430  89.3565069
  86.0736585  64.2895719  90.2048123  86.3531659  64.3577930  88.7185085
  70.8615892  59.7447510  82.6145555  69.9313480  59.6831966  82.8315517
  70.9573364  59.2223463  81.8182196  70.7801441  56.2702323  85.2023796
  71.0408259  57.1847656  85.0932957  71.6018614  55.8026765  85.3520409
  72.2526367  57.6840080  92.3722621  72.9249420  57.4757442  91.7235270
  71.4256153  57.4862166  91.9327853  86.5015628  64.4244130  91.8897954
  86.6951518  65.3289941  92.1357229  86.4016246  63.9651549  92.7236539
  78.1551939  54.3102021  94.3888282  77.5079854  55.0091971  94.2952758
  78.9252954  54.7438165  94.7564530  81.5630737  64.5750873  97.4638835
  81.4116243  64.3461425  96.5468919  81.5535416  65.5321475  97.4770180
  78.3316073  62.1482786  92.4485102  79.2608133  62.2993945  92.2754069
  77.9107103  62.2366807  91.5933748  77.7252557  71.2742547  81.5609176
  77.9004313  70.8030590  82.3754798  77.0385345  71.9008313  81.7890436
  78.6809620  65.5515053  87.6072477  78.3459453  65.5115823  88.5030127
  78.1813566  64.8859769  87.1342887  72.6553864  60.9582683  93.1325058
  72.5173662  60.2262922  93.7336597  73.5658787  60.8691583  92.8509246
  81.6168812  62.8971087  77.8809537  80.9997982  62.1717915  77.7842589
  81.1485300  63.6580448  77.5376611  75.2836165  60.6702642  92.6208738
  75.9935783  60.0295835  92.5795356  75.2405473  60.9215537  93.5434919
  83.2722943  67.6069996  95.5415317  83.2135490  66.9229216  94.8745900
  83.6742462  68.3488986  95.0895943  73.9965099  57.6567860  94.4404377
  73.4602456  57.2058599  95.0925974  73.4081807  57.7913769  93.6974842
  73.4067358  57.1156512  77.0030841  72.5296824  56.9945312  76.6393088
  73.8825111  56.3242590  76.7509730  83.2740351  65.5709580  93.7729297
  82.3867129  65.2335501  93.8955695  83.8438902  64.8392611  94.0098062
  69.7304220  56.7923868  91.5257372  69.6462409  56.1849537  90.7907782
  68.9086926  57.2832886  91.5266868  79.9027934  55.2777431  86.8927567
  80.3996633  54.5247394  86.5728637  79.1314915  55.3141748  86.3270776
  87.7557691  60.9817797  88.5345858  87.7447567  61.8642512  88.1639791
  86.8875071  60.6289348  88.3400395  79.2640188  70.1297866  92.8948698
  79.9768160  70.7645331  92.8224600  78.7730216  70.2261732  92.0788700
  80.9857714  64.0349119  84.4665990  80.0513993  64.1550581  84.2970694
  81.1634383  63.1321585  84.2026000  76.4862903  57.4194814  86.6199251
  76.1160690  56.8665855  87.3080157  76.9821995  56.8152948  86.0674251
  84.3730266  59.8766438  85.0016024  84.8390718  60.7094430  84.9276327
  84.8237766  59.4111420  85.7061283  82.4406497  66.2210259  82.0002176
  82.7166341  66.1066854  82.9096050  81.5710996  65.8227744  81.9614349
  82.3446929  52.2447025  89.0406926  81.4310008  52.4751252  89.2089133
  82.7740030  52.3285469  89.8920958  82.1153387  60.4336917  91.5406820
  81.4624837  60.6812824  90.8859272  82.4933767  59.6201055  91.2069297
  79.4102726  69.3964795  82.9050038  79.9390493  68.8857250  82.2920201
  79.6730946  69.0807325  83.7695571  78.1640960  61.1756728  98.0272857
  77.4881597  61.0750857  98.6975232  78.9868594  61.0195942  98.4908854
  64.5037474  59.9834265  89.3689815  64.5421573  59.4497855  90.1626933
  63.9977767  59.4569470  88.7500792  76.9063743  72.4823655  92.2630473
  77.4582051  72.6455277  93.0279558  77.2469936  73.0728093  91.5910498
  71.8828236  54.8298805  92.8652357  71.9469563  55.6913636  92.4529755
  71.8195356  54.2172807  92.1324716  71.3580509  56.9021938  96.5125392
  71.9852548  56.5199015  97.1262916  70.5008428  56.6836140  96.8781084
  81.7574617  67.3084913  98.1179127  82.3014521  67.9214871  97.6234082
  81.1761462  67.8664491  98.6346140  68.1346051  58.7098367  82.4443747
  68.4299493  57.8009045  82.3910800  67.2334087  58.6886106  82.1224749
  71.6640298  56.7854363  88.4271295  70.9426884  57.3990331  88.2878768
  72.4533554  57.3212128  88.3487941  82.1067039  68.2314651  90.8773705
  81.1597374  68.1120002  90.8052032  82.4549812  67.3437149  90.9599966
  74.4666612  54.1208790  94.7011947  74.9901014  54.3671086  95.4638256
  74.2478945  54.9528825  94.2815084  69.8633893  56.3912465  82.5683072
  69.5346599  55.5109843  82.3858178  70.2173264  56.3360133  83.4559461
  72.9775716  56.6785434  82.9358549  73.3171789  57.2071356  82.2137158
  73.4247837  57.0165840  83.7117116  82.7147594  68.8495926  88.1642930
  83.6394141  68.6438787  88.0267381  82.5462897  68.6012327  89.0732271
  75.6719157  55.0622485  92.3861617  75.3315977  54.2630298  92.7882297
  74.9658163  55.3624196  91.8138451  76.3235629  52.1471797  90.8388940
  77.1461698  51.6732276  90.7167831  76.5673692  52.9262281  91.3387627
  74.9643863  55.1760056  81.1351842  75.6852226  55.5541309  80.6315559
  74.3409167  55.8948933  81.2386820  79.1074986  55.8805205  82.0710174
  79.3238601  56.7629843  81.7699003  78.6269053  55.4891418  81.3415816
  73.8474208  58.8390918  88.6480919  73.7018788  59.1531221  89.5405201
  73.3699411  59.4575818  88.0951818  75.7070591  55.8293466  88.6961809
  75.6932159  54.9334559  88.3594107  76.4243019  55.8364130  89.3300095
  77.5596721  56.2630806  90.7414936  77.3014499  57.1847877  90.7399266
  77.0281762  55.8661241  91.4315400  82.5042910  69.3681593  83.5205021
  82.6779788  68.8028016  82.7678874  82.9971801  70.1682488  83.3384511
  75.1107486  54.7107846  83.9649379  75.2323398  53.7824493  84.1640266
  74.8209529  54.7246532  83.0527694  77.9798677  52.3962757  87.1016099
  78.0020374  52.4602090  86.1468078  78.3966736  51.5567265  87.2956605
  88.3582301  62.1318016  85.1395321  88.8013447  61.3825342  84.7414444
  87.4808811  62.1228153  84.7569053  83.4918082  68.6848358  80.6201920
  84.1868987  69.3055051  80.8389234  83.8341233  67.8343709  80.8954298
  69.1085892  60.5066159  94.4798737  68.3667628  60.6548794  95.0663367
  68.7878636  60.7674424  93.6165486  85.3909506  66.1348063  82.1489250
  85.9160830  66.4735336  81.4238570  85.3031858  65.1995079  81.9652385
  77.0529554  70.0482137  94.2779127  77.3616681  69.8031284  95.1501827
  77.8505036  70.2528775  93.7897997  74.5948566  56.2239844  98.1739311
  74.6436721  57.1001967  97.7917081  75.1371080  55.6817237  97.6010955
  85.0803412  66.7680967  97.4540448  84.2898955  66.7505106  96.9144948
  84.8436766  67.3069261  98.2089485  85.2001287  63.6173433  94.7673177
  85.2499292  63.4523441  95.7088700  85.0915210  62.7500692  94.3771058
  82.4905049  59.6004361  96.0832484  83.3914912  59.4610826  95.7916481
  82.5653024  59.7658816  97.0230661  76.8247854  56.9771216  94.9285670
  75.9551164  57.2704782  94.6568259  77.0607335  57.5611661  95.6492934
  86.7019484  66.0370375  95.0115198  86.4104292  66.4000355  95.8478659
  86.0891615  65.3237383  94.8328531  87.9015166  63.6023255  87.5317769
  88.7362057  64.0413059  87.6955329  88.0374295  63.1261908  86.7126014
  84.9506672  61.1602990  93.4795256  85.4260793  61.3530636  92.6714108
  84.0272237  61.2162175  93.2338640  71.8390178  62.3227157  83.0626335
  71.5936220  61.4189487  83.2606545  72.0086093  62.3244307  82.1205813
  79.5286888  53.1950833  92.4451090  80.0468832  53.9311860  92.1197579
  79.1742021  53.5014826  93.2797849  71.1085826  58.0555514  80.5612496
  70.4155071  58.1299869  79.9052532  70.8637578  57.2915858  81.0834013
  79.7799482  49.6151116  87.9651987  80.0601236  48.9474305  88.5912413
  80.5650089  49.8080211  87.4526651  77.5832951  68.7910110  79.5277013
  77.0106918  69.4100297  79.0747485  78.1565745  69.3409471  80.0616935
  83.6508341  58.0368750  91.7123562  84.6025764  58.1366847  91.7335786
  83.4811791  57.2447018  92.2221646  81.6722720  55.1224333  91.8982963
  81.0772652  55.4029346  91.2029452  81.3872417  55.6118234  92.6699704
  80.8030211  69.0747260  80.6585596  81.7360884  69.0092821  80.8618471
  80.7153424  69.9103526  80.2000128  83.4318227  68.3913130  77.6189543
  83.3531859  68.0572994  78.5125301  84.2527894  68.8834898  77.6181015
  86.1296419  61.2574869  90.8265862  86.0972739  60.3190870  91.0125546
  86.7397042  61.3358906  90.0931687  77.9679749  60.1270922  76.8693066
  78.9138854  59.9977130  76.9381484  77.5893994  59.3885584  77.3462494
  86.2790907  58.0485913  90.8724145  85.7629956  57.2644369  90.6854074
  87.1630856  57.7204629  91.0370664  83.9401634  51.7926928  86.8319958
  83.7426455  51.4842016  87.7163290  84.5501340  52.5188567  86.9617887
  91.9472968  62.3190876  89.9671899  92.6776357  62.0576164  90.5279602
  91.3379914  61.5819598  90.0073966  90.0288266  60.4598739  90.5646350
  89.3021429  60.3254704  89.9562841  89.6135552  60.7675567  91.3703068
  77.8518442  64.1788668  98.3293723  78.7721451  64.3567267  98.5233769
  77.8168025  63.2344714  98.1773422  76.1522667  58.0520899  76.8047951
  75.2454122  57.7554011  76.8810665  76.4298648  57.7550717  75.9382237
  67.0700607  59.3727262  87.2546997  66.7503391  58.5192570  86.9621371
  66.5234035  59.5875840  88.0104965  77.7684732  52.5957788  82.9592192
  76.9585461  52.2504873  83.3347438  78.4569149  52.2865332  83.5479804
  79.6975281  51.6735835  84.5816489  80.2506319  52.0931289  85.2406512
  79.9345367  50.7471583  84.6239445  75.7208380  57.6622909 100.3619253
  75.6205107  58.6117266 100.2931344  75.5029922  57.3341148  99.4895323
  74.9221451  54.9107834  76.9459930  75.7840615  55.2362732  77.2055748
  75.1071795  54.1239330  76.4332996  83.0754088  53.7836360  84.0895153
  82.4952757  54.4421164  83.7073206  82.8090020  52.9613705  83.6782571
  81.5257654  53.1841418  86.2916474  82.0257432  53.2957953  85.4830792
  82.1693262  52.8802471  86.9317282  75.5839650  61.0920048  99.1784314
  75.1006732  61.8920408  99.3848204  75.6700589  61.1027993  98.2251758
  72.1012369  63.5525698  93.7823546  72.9205258  64.0469777  93.8058383
  72.3749177  62.6357667  93.7541113  81.8578966  55.9436451  83.1451501
  80.9704821  56.2286101  82.9271696  82.2732955  55.7830214  82.2978778
  85.2093502  55.9682972  86.8605841  85.9853892  56.4579424  87.1330458
  84.4841636  56.3941026  87.3177710  87.6466060  56.6810591  87.9179781
  88.2410551  56.4406327  87.2073090  87.7192644  55.9617721  88.5453318
  81.0022179  65.7081125  77.2399521  81.7058029  65.9131128  77.8557177
  80.2784828  66.2757887  77.5048605  81.8319989  61.4590987  83.3601792
  81.7755191  61.9159538  82.5209424  82.3848332  60.6981671  83.1824634
  85.6424795  57.2480719  84.1851911  85.3861730  56.8477354  85.0160119
  85.0177663  57.9624512  84.0602050  89.9537133  59.9876792  86.6923203
  89.3936691  60.0569981  87.4654765  89.3480637  59.8117776  85.9722699
  82.9108877  66.1463655  79.2897981  83.7454480  65.7144853  79.1075456
  82.7493219  65.9745668  80.2174876  82.5654769  62.6495768  80.6554321
  82.5103573  62.4840039  79.7142765  81.9400824  63.3571801  80.8116511
  67.3547284  57.8863832  94.4815743  68.0006147  57.3762786  94.9702968
  67.1464435  58.6232514  95.0559168  79.8800676  64.9544680  99.9807884
  80.7491836  65.1285332  99.6194518  79.4007427  65.7739097  99.8583613
  75.8750894  52.1503877  80.2339639  75.8629564  53.0945717  80.3907910
  76.7674316  51.9674022  79.9399100  79.6903014  48.7446654  84.4885576
  78.9235409  48.1905140  84.6342258  80.1013719  48.8168522  85.3499728
  71.6944775  55.0331449  98.5790757  72.5576236  54.6768254  98.7894082
  71.1210185  54.6945344  99.2666162  91.5393152  76.6633306  89.3853158
  92.1771562  76.5440053  88.6816498  91.4213995  77.6114150  89.4441110
  88.3482858  76.6160734  89.3214683  88.0101369  76.5001799  88.4335218
  89.2172626  76.2151899  89.3015689  84.2069674  78.4696210  85.3111574
  83.6434539  78.3786147  84.5427862  84.0922069  77.6496115  85.7914066
  88.8302641  77.7695586  95.2800888  88.8191282  77.3748384  94.4081392
  88.9923280  77.0361658  95.8734660  81.7534106  79.9647402  88.1495794
  82.5455397  79.6238226  87.7342094  81.9930756  80.0742377  89.0697948
  89.7869232  82.1367178  80.6226039  89.1357212  82.7221258  80.2360053
  90.5813595  82.6673373  80.6821076  83.7124859  79.2256315  81.0213173
  84.4855735  78.6785302  80.8826049  84.0650258  80.0900564  81.2327635
  85.5509902  80.5532697  94.2280072  85.2599768  81.4578328  94.1126739
  86.1866886  80.5949225  94.9424142  86.4766109  77.9309546  90.8181432
  87.0729681  77.7065568  90.1038395  86.5341080  77.1894291  91.4206880
  86.0491137  75.3848981  78.6531623  86.3016658  74.8630502  77.8915086
  85.1115696  75.2215127  78.7558307  91.0934420  74.3884760  86.4606366
  91.8797509  73.9704183  86.1096783  91.3573124  75.2930852  86.6288015
  91.2644497  79.8257610  81.1595023  90.6290330  79.8992236  81.8715928
  90.9341904  80.4151209  80.4814102  96.4942847  74.3259993  87.3639345
  97.2268019  73.7559210  87.5977174  95.7382203  73.9381593  87.8045850
  85.7687426  77.2877087  80.8555998  85.6523684  76.6121991  81.5237082
  85.8789686  76.8009461  80.0388151  88.1118967  76.7487234  84.5602687
  87.7477174  76.2217855  85.2715609  88.9686083  76.3585703  84.3869173
  94.0168268  68.0381567  91.8233953  93.6851592  68.9076978  91.5995168
  93.4213881  67.7217851  92.5027984  87.7524454  71.7777134  79.5564036
  87.9198856  72.6457370  79.9234507  87.5621623  71.9404416  78.6325325
  90.5099787  80.2394113  91.2229866  90.2100510  81.1419152  91.1145673
  90.1650847  79.9726296  92.0751019  83.9612269  76.6907910  87.2566571
  83.0362765  76.5584124  87.4644262  84.2096682  77.4702129  87.7536513
  93.9096931  72.7576653  88.9027303  93.0013808  72.6892061  88.6086064
  93.8584527  73.2348598  89.7309129  87.7313675  74.2334791  80.5410703
  87.6113300  74.6791842  81.3796183  87.0366263  74.5820109  79.9824241
  81.3221080  76.3341183  88.0910360  81.4513461  76.5875662  89.0049771
  80.6418531  76.9268891  87.7715015  85.4920567  87.0038433  84.1900834
  85.4144597  87.9546258  84.2689314  84.8882211  86.6584306  84.8475760
  87.9837797  74.1766299  96.8462201  87.2071131  74.7360219  96.8365065
  88.6228360  74.6623082  97.3677071  95.7758577  70.9593091  90.6805177
  95.1332958  71.2525625  90.0344972  95.2713506  70.8446012  91.4858374
  93.4298741  74.7056265  81.3691037  94.3416597  74.9383651  81.1938734
  92.9208388  75.2893309  80.8066115  86.2384169  76.9851752  96.4080168
  86.9798853  77.5236796  96.1314991  85.5321154  77.6118041  96.5651720
  91.7139509  79.1280892  95.0052329  92.1222865  78.6863303  94.2606962
  90.9916770  78.5533520  95.2586522  88.0670579  74.0653499  92.3785886
  88.9131774  74.4892913  92.5220535  88.0069216  73.4087124  93.0724449
  92.0368323  79.6882083  88.7604618  91.4077186  79.8527797  88.0580686
  91.6493985  80.1023693  89.5315582  95.9157555  80.6236521  86.1148982
  95.2308593  81.0035422  85.5646015  96.0001405  81.2331848  86.8480930
  91.2170024  71.7257868  94.0367060  90.9730956  72.4799928  93.5001335
  91.4929955  72.1043215  94.8714307  93.1708487  78.2696480  92.7144325
  93.3825382  78.9128240  92.0378706  93.1238235  77.4358797  92.2466255
  90.7734716  70.8814301  89.6180898  89.9119195  71.1795554  89.9097635
  90.7997150  71.0984699  88.6861930  87.5896285  79.4256491  86.0254703
  88.0534631  79.7044194  85.2359326  87.3253083  78.5239936  85.8427794
  84.4820366  78.9727973  88.9634466  85.0521723  79.4015241  88.3251951
  85.0728478  78.6910557  89.6618652  86.5265171  75.5479644  82.8344268
  87.2289215  76.0000687  83.3018195  86.1945800  74.9063462  83.4624161
  84.9745533  74.1391400  97.2095478  84.3444193  74.8207681  97.4430875
  84.8681621  74.0274482  96.2648616  80.2690505  73.8063196  88.1361402
  79.4789559  74.0620725  87.6601513  80.7601753  74.6211534  88.2413442
  94.2854315  81.1468435  90.8866683  95.1071758  80.7448623  90.6049364
  94.2816718  81.0436670  91.8382799  82.2205251  74.1707775  85.0944879
  81.4236414  74.2826470  85.6128374  81.9930843  74.5094428  84.2285769
  88.0510918  80.6952479  93.0427393  88.1155351  81.1572886  93.8785565
  87.3421842  80.0649844  93.1709703  78.5528208  74.0593687  90.5676393
  78.8036247  74.9440697  90.8333969  79.0887757  73.8798288  89.7951485
 102.3760308  77.4907184  87.2351654 101.6224016  76.9214582  87.0795659
 102.5107849  77.4569848  88.1822289  87.7658936  82.3620586  82.9106374
  87.6304611  83.2072122  83.3391221  88.3068748  82.5639864  82.1472307
  84.2526276  68.4412166  99.5720729  83.8593221  67.8878365 100.2468373
  85.0692416  68.7522744  99.9627246  81.2188333  79.8796024  83.4834299
  81.7312854  80.6739274  83.6339863  81.8711046  79.1822315  83.4167900
  83.0283218  82.9961780  85.5657052  83.2049846  83.9179745  85.3778036
  83.8240051  82.6820200  85.9951432  87.1694236  69.8570045  97.1640985
  87.9103950  70.4577198  97.0845448  87.4012159  69.1147683  96.6059028
  82.3135575  75.0426412  95.4419215  82.1989090  74.1411670  95.7426314
  81.4580092  75.2890109  95.0904032  89.3927412  82.9844153  97.0406716
  88.9491266  82.1980531  96.7227620  90.0544626  83.1723303  96.3750606
  84.1514533  84.5139954  91.5667394  84.7021959  84.3857018  90.7944388
  83.3126009  84.8134843  91.2162287  91.4908650  83.2646953  95.0688117
  91.4727126  84.0855834  94.5768386  92.4128570  83.1401028  95.2938258
  87.9481704  80.7791082  95.9111625  88.4810041  80.0179370  95.6810933
  87.4195786  80.4864734  96.6535780  91.1151399  65.8851148  91.4405267
  90.7715669  66.7752790  91.3644378  91.4830362  65.6952806  90.5774852
  79.1837250  78.2084678  84.2593869  80.0212472  78.6181687  84.0427577
  79.3615518  77.2684121  84.2294063  91.0801682  75.8759759  79.9477702
  90.5648306  76.6464364  80.1866090  90.8078991  75.2024895  80.5710764
  88.6648793  70.7209460  85.0062941  87.8090390  70.3316310  84.8268579
  89.0775745  70.8001421  84.1462726  90.1947940  68.2555803  89.4054500
  89.6912735  68.2185938  88.5922306  90.4878547  69.1648546  89.4651157
  86.4390826  68.3394533  88.4120682  87.3043822  68.1437342  88.0526571
  86.5068335  68.1104885  89.3390039  96.0535956  78.6292114  81.8830876
  95.2765399  78.2903273  81.4386038  96.7327437  78.6344737  81.2085841
  90.8687985  73.7486851  81.7737483  90.5638121  74.0633000  82.6247626
  91.8218427  73.8268271  81.8164816  89.3134417  79.9077075  83.4230437
  88.7855779  79.1729834  83.1103675  88.8121920  80.6851751  83.1770406
  94.2927263  78.1026095  88.5397484  93.6350938  78.7925356  88.6277612
  95.0967662  78.4922527  88.8831470  84.0453145  70.5696741  85.7837049
  84.6196897  70.3471922  85.0510242  84.6324127  70.6385435  86.5365650
  93.1032722  76.4570468  86.5901425  93.6164604  77.0900460  87.0923135
  93.7533946  75.8571663  86.2244785  84.3722732  72.6001202  79.8032934
  83.5360044  72.9375888  80.1242209  84.2327502  72.4650182  78.8660071
  86.3475812  67.4437990  84.5112118  85.6940225  67.1287007  83.8868733
  86.3056287  66.8213730  85.2371941  87.4587017  77.7257285  76.4265410
  86.5514079  77.4946538  76.6256559  87.9558049  76.9294904  76.6139392
  90.3655096  86.4354792  79.3462096  89.6916795  86.7386489  79.9547054
  90.7520918  87.2383872  78.9967554  89.5813553  73.9319923  88.8359766
  88.6636114  74.1534870  88.6781454  89.9973696  74.0066234  87.9771473
  90.3648601  75.3311339  83.9662446  91.1120420  75.8432736  83.6569568
  90.6340190  75.0095392  84.8266840  88.6375251  77.8269880  80.9489400
  87.7286470  77.5428913  81.0461870  88.6670335  78.2468958  80.0892707
  93.8694518  81.4376469  84.7180568  93.4156845  80.5967379  84.7745758
  93.2388485  82.0737868  85.0555348  92.8127438  72.3668455  85.9481235
  92.0750195  71.8545841  86.2791478  93.0654211  71.9268837  85.1364512
  92.3127457  83.2752966  85.6530386  92.6050432  83.8358023  84.9342752
  92.8226078  83.5681527  86.4083545  92.9139065  65.1444707  86.5423005
  93.2197942  64.2842071  86.2548920  93.6391670  65.7362327  86.3421999
  79.2063421  75.5475394  84.9304603  79.0087821  74.9544755  84.2055669
  78.6510085  75.2427604  85.6480541  87.1860145  75.4398500  87.0499196
  87.2408755  74.4872337  86.9741672  86.3751347  75.5957939  87.5340494
  88.3351339  79.3678623  78.2877479  87.8970769  78.6514482  77.8283116
  89.0761779  79.5954738  77.7262570  85.1252505  74.0575560  84.8089575
  84.3120370  74.3569731  85.2154767  85.6211499  73.6631249  85.5264057
  87.2761083  84.0533317  86.7423839  87.2337261  84.2794163  85.8132371
  88.1923782  83.8196692  86.8909640  90.7226716  74.5217385  93.6404469
  91.0776104  74.7488858  94.4998934  91.3698848  74.8535761  93.0181724
  96.4524453  77.6435820  84.3453798  96.3142352  77.8337416  83.4174987
  96.0960672  78.4055203  84.8021849  84.6166580  71.6293916  90.4250810
  85.2565959  71.4882675  89.7273773  83.7844110  71.3428429  90.0489412
  96.4793833  79.7112347  89.3565069  96.9130340  79.6187636  90.2048123
  97.1925414  79.6869848  88.7185085  85.3926883  80.9296346  86.5385802
  86.1867482  80.4346666  86.3368377  84.6818576  80.4014209  86.1753508
  90.2121728  83.3114442  90.8898170  90.2658750  83.8805378  91.6575886
  89.3436509  83.4816327  90.5252207  81.7009647  75.0739428  82.6145555
  80.7707235  75.0123883  82.8315517  81.7967119  74.5515380  81.8182196
  81.6195196  71.5994241  85.2023796  81.8802013  72.5139574  85.0932957
  82.4412368  71.1318683  85.3520409  83.0920121  73.0131998  92.3722621
  83.7643175  72.8049360  91.7235270  82.2649908  72.8154084  91.9327853
  97.3409383  79.7536048  91.8897954  97.5345273  80.6581859  92.1357229
  97.2410001  79.2943467  92.7236539  88.9945693  69.6393939  94.3888282
  88.3473608  70.3383888  94.2952758  89.7646709  70.0730083  94.7564530
  92.4024491  79.9042791  97.4638835  92.2509998  79.6753342  96.5468919
  92.3929171  80.8613392  97.4770180  89.1709828  77.4774704  92.4485102
  90.1001888  77.6285863  92.2754069  88.7500858  77.5658724  91.5933748
  87.9698159  81.5025368  90.2183639  87.8309245  81.1344152  91.0909577
  87.1812756  82.0173007  90.0467597  88.5646311  86.6034464  81.5609176
  88.7398067  86.1322508  82.3754798  87.8779099  87.2300231  81.7890436
  89.5203375  80.8806971  87.6072477  89.1853207  80.8407741  88.5030127
  89.0207320  80.2151687  87.1342887  83.4947619  76.2874601  93.1325058
  83.3567416  75.5554840  93.7336597  84.4052542  76.1983501  92.8509246
  92.4562566  78.2263005  77.8809537  91.8391737  77.5009833  77.7842589
  91.9879055  78.9872365  77.5376611  86.1229919  75.9994560  92.6208738
  86.8329538  75.3587752  92.5795356  86.0799227  76.2507455  93.5434919
  94.1116698  82.9361913  95.5415317  94.0529244  82.2521133  94.8745900
  94.5136216  83.6780903  95.0895943  84.8358853  72.9859778  94.4404377
  84.2996210  72.5350516  95.0925974  84.2475562  73.1205687  93.6974842
  83.1307397  89.7523827  88.3349036  83.3703995  90.3842351  89.0128054
  82.2876593  89.4011867  88.6214395  84.2461112  72.4448429  77.0030841
  83.3690578  72.3237230  76.6393088  84.7218865  71.6534508  76.7509730
  94.1134105  80.9001497  93.7729297  93.2260884  80.5627419  93.8955695
  94.6832656  80.1684529  94.0098062  80.5697974  72.1215786  91.5257372
  80.4856163  71.5141455  90.7907782  79.7480681  72.6124804  91.5266868
  87.6435259  85.5602950  90.7390540  87.5705430  86.3657921  91.2509844
  87.2012652  85.7594915  89.9138561  87.4325038  84.7974720  84.2493361
  86.6492560  85.3396400  84.3431586  88.1317783  85.3148699  84.6487603
  90.7421688  70.6069349  86.8927567  91.2390388  69.8539311  86.5728637
  89.9708670  70.6433666  86.3270776  98.5951446  76.3109715  88.5345858
  98.5841322  77.1934430  88.1639791  97.7268825  75.9581265  88.3400395
  90.1033942  85.4589784  92.8948698  90.8161914  86.0937248  92.8224600
  89.6123971  85.5553650  92.0788700  91.8251469  79.3641036  84.4665990
  90.8907748  79.4842499  84.2970694  92.0028137  78.4613503  84.2026000
  87.3256657  72.7486732  86.6199251  86.9554445  72.1957772  87.3080157
  87.8215749  72.1444866  86.0674251  95.2124020  75.2058356  85.0016024
  95.6784473  76.0386347  84.9276327  95.6631521  74.7403337  85.7061283
  85.1545856  83.2084227  93.7154269  85.8555315  83.8420710  93.8683664
  84.6840971  83.5498959  92.9549909  93.2800251  81.5502177  82.0002176
  93.5560095  81.4358771  82.9096050  92.4104750  81.1519662  81.9614349
  93.1840683  67.5738943  89.0406926  92.2703763  67.8043169  89.2089133
  93.6133785  67.6577387  89.8920958  92.9547142  75.7628835  91.5406820
  92.3018592  76.0104742  90.8859272  93.3327521  74.9492973  91.2069297
  89.9154315  85.7988528  85.6434990  90.0976710  84.9810184  86.1062742
  90.7387301  86.0156220  85.2059880  90.2496481  84.7256713  82.9050038
  90.7784247  84.2149167  82.2920201  90.5124701  84.4099243  83.7695571
  89.0034715  76.5048646  98.0272857  88.3275352  76.4042775  98.6975232
  89.8262348  76.3487859  98.4908854  80.7513574  82.7420582  90.6485372
  81.3367010  81.9964270  90.7813276  80.5538412  83.0524539  91.5322036
  83.6052229  85.7771830  85.6647814  82.9362604  86.2617957  85.1811854
  83.4665099  86.0241050  86.5791193  87.7457497  87.8115573  92.2630473
  88.2975805  87.9747195  93.0279558  88.0863691  88.4020011  91.5910498
  82.7221991  70.1590723  92.8652357  82.7863317  71.0205554  92.4529755
  82.6589111  69.5464725  92.1324716  82.1974263  72.2313855  96.5125392
  82.8246302  71.8490933  97.1262916  81.3402182  72.0128057  96.8781084
  92.5968372  82.6376831  98.1179127  93.1408276  83.2506789  97.6234082
  92.0155217  83.1956409  98.6346140  78.9739806  74.0390285  82.4443747
  79.2693247  73.1300963  82.3910800  78.0727842  74.0178024  82.1224749
  90.8825885  85.7597549  89.2494155  90.7577024  84.9587288  88.7405100
  91.5404976  86.2543742  88.7608125  82.5034053  72.1146281  88.4271295
  81.7820639  72.7282249  88.2878768  83.2927309  72.6504046  88.3487941
  92.9460793  83.5606569  90.8773705  91.9991129  83.4411920  90.8052032
  93.2943566  82.6729067  90.9599966  85.3060366  69.4500708  94.7011947
  85.8294768  69.6963004  95.4638256  85.0872700  70.2820742  94.2815084
  80.7027648  71.7204382  82.5683072  80.3740354  70.8401761  82.3858178
  81.0567018  71.6652051  83.4559461  89.9507226  83.3559285  87.0778057
  89.8032189  82.4275992  87.2585627  90.7760720  83.3779376  86.5935132
  83.8169471  72.0077352  82.9358549  84.1565543  72.5363273  82.2137158
  84.2641591  72.3457758  83.7117116  93.5541348  84.1787844  88.1642930
  94.4787896  83.9730705  88.0267381  93.3856652  83.9304245  89.0732271
  86.5112912  70.3914403  92.3861617  86.1709732  69.5922216  92.7882297
  85.8051918  70.6916114  91.8138451  87.1629383  67.4763715  90.8388940
  87.9855453  67.0024193  90.7167831  87.4067447  68.2554199  91.3387627
  85.8037618  70.5051974  81.1351842  86.5245980  70.8833226  80.6315559
  85.1802922  71.2240850  81.2386820  89.9468741  71.2097123  82.0710174
  90.1632355  72.0921760  81.7699003  89.4662808  70.8183336  81.3415816
  84.6867962  74.1682836  88.6480919  84.5412543  74.4823139  89.5405201
  84.2093166  74.7867736  88.0951818  86.5464345  71.1585384  88.6961809
  86.5325914  70.2626477  88.3594107  87.2636773  71.1656048  89.3300095
  88.3990476  71.5922724  90.7414936  88.1408254  72.5139795  90.7399266
  87.8675516  71.1953159  91.4315400  93.3436664  84.6973511  83.5205021
  93.5173542  84.1319934  82.7678874  93.8365556  85.4974406  83.3384511
  79.1613624  76.7088180  91.5868580  78.6167092  77.4847988  91.7188855
  80.0392974  77.0558985  91.4287702  85.9501241  70.0399764  83.9649379
  86.0717152  69.1116410  84.1640266  85.6603283  70.0538450  83.0527694
  88.8192431  67.7254674  87.1016099  88.8414128  67.7894008  86.1468078
  89.2360490  66.8859183  87.2956605  99.1976056  77.4609934  85.1395321
  99.6407202  76.7117259  84.7414444  98.3202566  77.4520070  84.7569053
  94.3311837  84.0140276  80.6201920  95.0262742  84.6346968  80.8389234
  94.6734987  83.1635627  80.8954298  79.9479646  75.8358076  94.4798737
  79.2061382  75.9840712  95.0663367  79.6272390  76.0966342  93.6165486
  96.2303260  81.4639981  82.1489250  96.7554584  81.8027254  81.4238570
  96.1425613  80.5286996  81.9652385  87.8923309  85.3774055  94.2779127
  88.2010435  85.1323201  95.1501827  88.6898791  85.5820693  93.7897997
  87.9143921  87.5311964  86.5084504  87.4748911  87.0388343  87.2017360
  88.6652038  86.9884932  86.2676579  80.3936260  83.7223505  86.5109132
  81.2194280  83.4227277  86.1307775  80.0430312  82.9531128  86.9598920
  85.3617793  83.0749973  88.5806805  84.7397802  82.4120678  88.2809033
  86.0322660  83.1011105  87.8980453  78.5944865  81.6409832  87.4698065
  77.7576773  81.2132006  87.2882067  78.5668510  81.8342275  88.4068856
  85.4342320  71.5531761  98.1739311  85.4830476  72.4293884  97.7917081
  85.9764835  71.0109154  97.6010955  95.9197166  82.0972885  97.4540448
  95.1292710  82.0797024  96.9144948  95.6830521  82.6361178  98.2089485
  96.0395041  78.9465351  94.7673177  96.0893046  78.7815358  95.7088700
  95.9308965  78.0792610  94.3771058  84.9231300  81.6253897  82.0565266
  85.0719420  82.3089361  81.4031939  85.7297743  81.6058987  82.5714722
  93.3298804  74.9296279  96.0832484  94.2308666  74.7902744  95.7916481
  93.4046778  75.0950734  97.0230661  87.6641609  72.3063134  94.9285670
  86.7944918  72.5996700  94.6568259  87.9001089  72.8903579  95.6492934
  97.5413238  81.3662293  95.0115198  97.2498046  81.7292273  95.8478659
  96.9285369  80.6529301  94.8328531  98.7408920  78.9315172  87.5317769
  99.5755812  79.3704976  87.6955329  98.8768049  78.4553826  86.7126014
  95.7900426  76.4894907  93.4795256  96.2654548  76.6822554  92.6714108
  94.8665992  76.5454093  93.2338640  82.6783933  77.6519074  83.0626335
  82.4329975  76.7481404  83.2606545  82.8479847  77.6536225  82.1205813
  90.3680643  68.5242751  92.4451090  90.8862587  69.2603778  92.1197579
  90.0135776  68.8306744  93.2797849  81.9479580  73.3847432  80.5612496
  81.2548825  73.4591787  79.9052532  81.7031332  72.6207776  81.0834013
  90.6193237  64.9443033  87.9651987  90.8994991  64.2766222  88.5912413
  91.4043844  65.1372129  87.4526651  88.4226705  84.1202027  79.5277013
  87.8500672  84.7392214  79.0747485  88.9959499  84.6701389  80.0616935
  94.4902095  73.3660667  91.7123562  95.4419518  73.4658765  91.7335786
  94.3205546  72.5738936  92.2221646  92.5116475  70.4516250  91.8982963
  91.9166407  70.7321263  91.2029452  92.2266171  70.9410151  92.6699704
  91.6423965  84.4039177  80.6585596  92.5754638  84.3384739  80.8618471
  91.5547178  85.2395444  80.2000128  94.2711982  83.7205048  77.6189543
  94.1925613  83.3864911  78.5125301  95.0921649  84.2126816  77.6181015
  96.9690173  76.5866787  90.8265862  96.9366493  75.6482788  91.0125546
  97.5790797  76.6650824  90.0931687  88.8073504  75.4562840  76.8693066
  89.7532609  75.3269048  76.9381484  88.4287749  74.7177502  77.3462494
  97.1184662  73.3777830  90.8724145  96.6023710  72.5936287  90.6854074
  98.0024610  73.0496547  91.0370664  94.7795388  67.1218846  86.8319958
  94.5820210  66.8133934  87.7163290  95.3895094  67.8480485  86.9617887
 102.7866723  77.6482794  89.9671899 103.5170111  77.3868082  90.5279602
 102.1773668  76.9111516  90.0073966 100.8682020  75.7890656  90.5646350
 100.1415184  75.6546621  89.9562841 100.4529307  76.0967485  91.3703068
  88.6912196  79.5080586  98.3293723  89.6115206  79.6859185  98.5233769
  88.6561779  78.5636631  98.1773422  86.9916421  73.3812816  76.8047951
  86.0847876  73.0845929  76.8810665  87.2692402  73.0842634  75.9382237
  81.6874269  77.4181621  90.9716504  81.9060279  78.3498729  90.9904538
  82.1000043  77.0589595  91.7571308  88.6078487  67.9249706  82.9592192
  87.7979215  67.5796791  83.3347438  89.2962904  67.6157250  83.5479804
  90.5369035  67.0027753  84.5816489  91.0900074  67.4223206  85.2406512
  90.7739121  66.0763501  84.6239445  86.5602134  72.9914826 100.3619253
  86.4598861  73.9409183 100.2931344  86.3423676  72.6633065  99.4895323
  85.7615206  70.2399752  76.9459930  86.6234370  70.5654650  77.2055748
  85.9465550  69.4531247  76.4332996  77.7782621  78.3222091  89.2240119
  77.0846093  77.9076044  88.7110073  78.5255612  78.3642628  88.6273538
  93.9147842  69.1128278  84.0895153  93.3346511  69.7713082  83.7073206
  93.6483775  68.2905623  83.6782571  92.3651409  68.5133336  86.2916474
  92.8651187  68.6249870  85.4830792  93.0087016  68.2094389  86.9317282
  86.4233404  76.4211965  99.1784314  85.9400486  77.2212325  99.3848204
  86.5094343  76.4319910  98.2251758  79.6919364  78.2540345  87.1006134
  79.6690052  78.3528032  86.1488017  80.0020000  79.1005496  87.4223300
  82.3506742  80.3116500  91.2152748  83.3049995  80.2800442  91.1482680
  82.1519265  79.8507124  92.0302974  82.9406124  78.8817616  93.7823546
  83.7599013  79.3761695  93.8058383  83.2142932  77.9649584  93.7541113
  92.6972720  71.2728368  83.1451501  91.8098575  71.5578019  82.9271696
  93.1126709  71.1122132  82.2978778  96.0487256  71.2974889  86.8605841
  96.8247646  71.7871342  87.1330458  95.3235390  71.7232944  87.3177710
  98.4859815  72.0102509  87.9179781  99.0804306  71.7698245  87.2073090
  98.5586399  71.2909639  88.5453318  80.7056971  85.8536120  88.2322946
  80.5711439  85.0936520  87.6660944  80.2889033  86.5777019  87.7651735
  91.8415934  81.0373043  77.2399521  92.5451784  81.2423046  77.8557177
  91.1178582  81.6049805  77.5048605  92.6713744  76.7882904  83.3601792
  92.6148945  77.2451456  82.5209424  93.2242086  76.0273589  83.1824634
  96.4818550  72.5772636  84.1851911  96.2255484  72.1769272  85.0160119
  95.8571418  73.2916430  84.0602050 100.7930888  75.3168709  86.6923203
 100.2330446  75.3861899  87.4654765 100.1874391  75.1409694  85.9722699
  83.8626097  86.7505437  88.4441389  83.7458481  87.6950869  88.3420079
  83.0418543  86.4478998  88.8327188  93.7502631  81.4755572  79.2897981
  94.5848235  81.0436771  79.1075456  93.5886974  81.3037586  80.2174876
  93.4048523  77.9787686  80.6554321  93.3497327  77.8131957  79.7142765
  92.7794579  78.6863718  80.8116511  78.1941038  73.2155750  94.4815743
  78.8399902  72.7054704  94.9702968  77.9858189  73.9524432  95.0559168
  90.7194430  80.2836597  99.9807884  91.5885590  80.4577250  99.6194518
  90.2401182  81.1031014  99.8583613  86.7144649  67.4795795  80.2339639
  86.7023319  68.4237634  80.3907910  87.6068071  67.2965940  79.9399100
  84.8880611  87.4033698  91.6597317  85.7907857  87.4357309  91.9763812
  84.6617981  86.4734149  91.6743653  86.6434213  86.1564685  88.3207396
  85.6929844  86.1566547  88.2071768  86.9466699  85.4097420  87.8043430
  90.5296768  64.0738571  84.4885576  89.7629164  63.5197058  84.6342258
  90.9407473  64.1460440  85.3499728  82.5338529  70.3623367  98.5790757
  83.3969991  70.0060172  98.7894082  81.9603940  70.0237262  99.2666162
 102.3786906  91.9925223  89.3853158 103.0165316  91.8731971  88.6816498
 102.2607749  92.9406067  89.4441110  99.1876612  91.9452651  89.3214683
  98.8495124  91.8293716  88.4335218 100.0566381  91.5443817  89.3015689
  95.0463428  93.7988128  85.3111574  94.4828293  93.7078065  84.5427862
  94.9315823  92.9788032  85.7914066  99.6696395  93.0987503  95.2800888
  99.6585036  92.7040301  94.4081392  99.8317035  92.3653576  95.8734660
  92.5927860  95.2939319  88.1495794  93.3849152  94.9530144  87.7342094
  92.8324510  95.4034295  89.0697948 100.6262987  97.4659096  80.6226039
  99.9750967  98.0513176  80.2360053 101.4207350  97.9965291  80.6821076
  94.5518614  94.5548233  81.0213173  95.3249490  94.0077220  80.8826049
  94.9044013  95.4192482  81.2327635  96.3903657  95.8824615  94.2280072
  96.0993523  96.7870246  94.1126739  97.0260641  95.9241143  94.9424142
  97.3159863  93.2601464  90.8181432  97.9123436  93.0357486  90.1038395
  97.3734835  92.5186209  91.4206880  96.8884892  90.7140899  78.6531623
  97.1410412  90.1922420  77.8915086  95.9509451  90.5507044  78.7558307
 101.9328175  89.7176677  86.4606366 102.7191264  89.2996100  86.1096783
 102.1966879  90.6222769  86.6288015 102.1038252  95.1549528  81.1595023
 101.4684085  95.2284154  81.8715928 101.7735658  95.7443126  80.4814102
 107.3336602  89.6551910  87.3639345 108.0661774  89.0851127  87.5977174
 106.5775957  89.2673511  87.8045850  96.6081181  92.6169005  80.8555998
  96.4917439  91.9413908  81.5237082  96.7183440  92.1301379  80.0388151
  98.9512721  92.0779152  84.5602687  98.5870929  91.5509773  85.2715609
  99.8079837  91.6877621  84.3869173 104.8562022  83.3673485  91.8233953
 104.5245347  84.2368895  91.5995168 104.2607635  83.0509769  92.5027984
  98.5918208  87.1069052  79.5564036  98.7592611  87.9749288  79.9234507
  98.4015378  87.2696333  78.6325325 101.3493542  95.5686031  91.2229866
 101.0494265  96.4711069  91.1145673 101.0044601  95.3018214  92.0751019
  94.8006023  92.0199827  87.2566571  93.8756520  91.8876041  87.4644262
  95.0490436  92.7994047  87.7536513 104.7490685  88.0868571  88.9027303
 103.8407563  88.0183979  88.6086064 104.6978281  88.5640516  89.7309129
  98.5707429  89.5626709  80.5410703  98.4507055  90.0083760  81.3796183
  97.8760018  89.9112027  79.9824241  92.1614834  91.6633101  88.0910360
  92.2907215  91.9167580  89.0049771  91.4812285  92.2560809  87.7715015
  96.3314321 102.3330351  84.1900834  96.2538351 103.2838176  84.2689314
  95.7275965 101.9876223  84.8475760  98.8231551  89.5058216  96.8462201
  98.0464885  90.0652136  96.8365065  99.4622114  89.9914999  97.3677071
 106.6152332  86.2885009  90.6805177 105.9726712  86.5817542  90.0344972
 106.1107260  86.1737929  91.4858374 104.2692495  90.0348182  81.3691037
 105.1810352  90.2675569  81.1938734 103.7602143  90.6185227  80.8066115
  97.0777924  92.3143670  96.4080168  97.8192608  92.8528714  96.1314991
  96.3714909  92.9409958  96.5651720 102.5533263  94.4572810  95.0052329
 102.9616619  94.0155221  94.2606962 101.8310525  93.8825438  95.2586522
  98.9064333  89.3945417  92.3785886  99.7525528  89.8184830  92.5220535
  98.8462971  88.7379041  93.0724449 102.8762078  95.0174001  88.7604618
 102.2470940  95.1819715  88.0580686 102.4887740  95.4315610  89.5315582
 106.7551310  95.9528439  86.1148982 106.0702348  96.3327340  85.5646015
 106.8395159  96.5623765  86.8480930 102.0563779  87.0549785  94.0367060
 101.8124710  87.8091846  93.5001335 102.3323709  87.4335133  94.8714307
 104.0102241  93.5988398  92.7144325 104.2219137  94.2420158  92.0378706
 103.9631990  92.7650714  92.2466255 101.6128470  86.2106218  89.6180898
 100.7512949  86.5087472  89.9097635 101.6390905  86.4276617  88.6861930
  98.4290040  94.7548409  86.0254703  98.8928385  95.0336112  85.2359326
  98.1646838  93.8531853  85.8427794  95.3214121  94.3019890  88.9634466
  95.8915478  94.7307159  88.3251951  95.9122233  94.0202475  89.6618652
  97.3658926  90.8771561  82.8344268  98.0682969  91.3292605  83.3018195
  97.0339554  90.2355380  83.4624161  95.8139287  89.4683318  97.2095478
  95.1837948  90.1499599  97.4430875  95.7075375  89.3566399  96.2648616
  91.1084260  89.1355114  88.1361402  90.3183314  89.3912642  87.6601513
  91.5995507  89.9503452  88.2413442 105.1248069  96.4760353  90.8866683
 105.9465513  96.0740540  90.6049364 105.1210472  96.3728587  91.8382799
  93.0599005  89.4999693  85.0944879  92.2630168  89.6118387  85.6128374
  92.8324597  89.8386345  84.2285769  98.8904673  96.0244396  93.0427393
  98.9549105  96.4864804  93.8785565  98.1815597  95.3941761  93.1709703
  89.3921963  89.3885604  90.5676393  89.6430001  90.2732614  90.8333969
  89.9281511  89.2090206  89.7951485 113.2154062  92.8199102  87.2351654
 112.4617771  92.2506500  87.0795659 113.3501604  92.7861766  88.1822289
  98.6052690  97.6912504  82.9106374  98.4698365  98.5364040  83.3391221
  99.1462503  97.8931781  82.1472307  95.0920030  83.7704084  99.5720729
  94.6986976  83.2170282 100.2468373  95.9086170  84.0814662  99.9627246
  92.0582088  95.2087942  83.4834299  92.5706608  96.0031192  83.6339863
  92.7104801  94.5114232  83.4167900  93.8676972  98.3253698  85.5657052
  94.0443601  99.2471663  85.3778036  94.6633806  98.0112117  85.9951432
  98.0087991  85.1861963  97.1640985  98.7497704  85.7869116  97.0845448
  98.2405914  84.4439601  96.6059028  93.1529329  90.3718330  95.4419215
  93.0382844  89.4703587  95.7426314  92.2973847  90.6182027  95.0904032
 100.2321167  98.3136070  97.0406716  99.7885021  97.5272449  96.7227620
 100.8938380  98.5015221  96.3750606  94.9908288  99.8431872  91.5667394
  95.5415713  99.7148935  90.7944388  94.1519764 100.1426761  91.2162287
 102.3302405  98.5938870  95.0688117 102.3120880  99.4147751  94.5768386
 103.2522325  98.4692945  95.2938258  98.7875459  96.1083000  95.9111625
  99.3203796  95.3471288  95.6810933  98.2589540  95.8156652  96.6535780
 101.9545154  81.2143066  91.4405267 101.6109423  82.1044707  91.3644378
 102.3224117  81.0244723  90.5774852  90.0231005  93.5376596  84.2593869
  90.8606227  93.9473605  84.0427577  90.2009272  92.5976038  84.2294063
 101.9195437  91.2051677  79.9477702 101.4042060  91.9756281  80.1866090
 101.6472745  90.5316813  80.5710764  99.5042548  86.0501378  85.0062941
  98.6484144  85.6608228  84.8268579  99.9169499  86.1293338  84.1462726
 101.0341694  83.5847721  89.4054500 100.5306490  83.5477856  88.5922306
 101.3272301  84.4940464  89.4651157  97.2784580  83.6686451  88.4120682
  98.1437577  83.4729259  88.0526571  97.3462089  83.4396802  89.3390039
 106.8929711  93.9584031  81.8830876 106.1159154  93.6195191  81.4386038
 107.5721192  93.9636655  81.2085841 101.7081740  89.0778769  81.7737483
 101.4031875  89.3924918  82.6247626 102.6612182  89.1560189  81.8164816
 100.1528172  95.2368992  83.4230437  99.6249533  94.5021752  83.1103675
  99.6515674  96.0143669  83.1770406 105.1321018  93.4318013  88.5397484
 104.4744692  94.1217274  88.6277612 105.9361417  93.8214445  88.8831470
  94.8846899  85.8988659  85.7837049  95.4590651  85.6763840  85.0510242
  95.4717882  85.9677353  86.5365650 103.9426476  91.7862385  86.5901425
 104.4558358  92.4192377  87.0923135 104.5927700  91.1863581  86.2244785
  95.2116486  87.9293120  79.8032934  94.3753799  88.2667806  80.1242209
  95.0721256  87.7942099  78.8660071  97.1869567  82.7729907  84.5112118
  96.5333979  82.4578925  83.8868733  97.1450041  82.1505648  85.2371941
  98.2980772  93.0549202  76.4265410  97.3907834  92.8238456  76.6256559
  98.7951804  92.2586822  76.6139392 101.2048851 101.7646710  79.3462096
 100.5310549 102.0678406  79.9547054 101.5914673 102.5675790  78.9967554
 100.4207307  89.2611841  88.8359766  99.5029869  89.4826788  88.6781454
 100.8367451  89.3358151  87.9771473 101.2042355  90.6603257  83.9662446
 101.9514174  91.1724654  83.6569568 101.4733945  90.3387309  84.8266840
  99.4769005  93.1561797  80.9489400  98.5680225  92.8720830  81.0461870
  99.5064089  93.5760876  80.0892707 104.7088273  96.7668387  84.7180568
 104.2550600  95.9259297  84.7745758 104.0782239  97.4029785  85.0555348
 103.6521192  87.6960373  85.9481235 102.9143949  87.1837759  86.2791478
 103.9047966  87.2560754  85.1364512 103.1521212  98.6044884  85.6530386
 103.4444186  99.1649941  84.9342752 103.6619833  98.8973445  86.4083545
 103.7532820  80.4736625  86.5423005 104.0591696  79.6133988  86.2548920
 104.4785424  81.0654245  86.3421999  90.0457176  90.8767311  84.9304603
  89.8481575  90.2836672  84.2055669  89.4903840  90.5719522  85.6480541
  98.0253899  90.7690418  87.0499196  98.0802509  89.8164254  86.9741672
  97.2145101  90.9249857  87.5340494  99.1745093  94.6970541  78.2877479
  98.7364523  93.9806400  77.8283116  99.9155534  94.9246656  77.7262570
  95.9646259  89.3867478  84.8089575  95.1514125  89.6861648  85.2154767
  96.4605253  88.9923166  85.5264057  98.1154837  99.3825235  86.7423839
  98.0731016  99.6086081  85.8132371  99.0317536  99.1488609  86.8909640
 101.5620471  89.8509302  93.6404469 101.9169859  90.0780775  94.4998934
 102.2092602  90.1827679  93.0181724 107.2918208  92.9727738  84.3453798
 107.1536106  93.1629334  83.4174987 106.9354427  93.7347121  84.8021849
  95.4560334  86.9585833  90.4250810  96.0959713  86.8174592  89.7273773
  94.6237865  86.6720347  90.0489412 107.3187587  95.0404265  89.3565069
 107.7524094  94.9479554  90.2048123 108.0319168  95.0161766  88.7185085
  96.2320638  96.2588264  86.5385802  97.0261236  95.7638584  86.3368377
  95.5212330  95.7306127  86.1753508 101.0515482  98.6406359  90.8898170
 101.1052505  99.2097295  91.6575886 100.1830264  98.8108244  90.5252207
  92.5403401  90.4031345  82.6145555  91.6100989  90.3415801  82.8315517
  92.6360873  89.8807298  81.8182196  92.4588950  86.9286158  85.2023796
  92.7195768  87.8431491  85.0932957  93.2806123  86.4610601  85.3520409
  93.9313876  88.3423915  92.3722621  94.6036929  88.1341278  91.7235270
  93.1043662  88.1446001  91.9327853 108.1803137  95.0827966  91.8897954
 108.3739027  95.9873776  92.1357229 108.0803755  94.6235385  92.7236539
  99.8339448  84.9685856  94.3888282  99.1867363  85.6675806  94.2952758
 100.6040463  85.4022000  94.7564530 103.2418246  95.2334708  97.4638835
 103.0903752  95.0045260  96.5468919 103.2322925  96.1905310  97.4770180
 100.0103582  92.8066621  92.4485102 100.9395642  92.9577781  92.2754069
  99.5894612  92.8950642  91.5933748  98.8091914  96.8317286  90.2183639
  98.6703000  96.4636070  91.0909577  98.0206510  97.3464925  90.0467597
  99.4040066 101.9326382  81.5609176  99.5791822 101.4614425  82.3754798
  98.7172854 102.5592148  81.7890436 100.3597129  96.2098888  87.6072477
 100.0246962  96.1699658  88.5030127  99.8601075  95.5443604  87.1342887
  94.3341373  91.6166518  93.1325058  94.1961171  90.8846757  93.7336597
  95.2446296  91.5275418  92.8509246 103.2956321  93.5554923  77.8809537
 102.6785491  92.8301751  77.7842589 102.8272809  94.3164283  77.5376611
  96.9623674  91.3286478  92.6208738  97.6723292  90.6879670  92.5795356
  96.9192982  91.5799373  93.5434919 104.9510452  98.2653831  95.5415317
 104.8922999  97.5813051  94.8745900 105.3529971  99.0072821  95.0895943
  95.6752608  88.3151696  94.4404377  95.1389965  87.8642434  95.0925974
  95.0869316  88.4497604  93.6974842  93.9701151 105.0815745  88.3349036
  94.2097749 105.7134269  89.0128054  93.1270348 104.7303785  88.6214395
  95.0854867  87.7740347  77.0030841  94.2084333  87.6529148  76.6393088
  95.5612620  86.9826425  76.7509730 104.9527860  96.2293415  93.7729297
 104.0654638  95.8919337  93.8955695 105.5226411  95.4976446  94.0098062
  86.6057007  92.5617507  87.0972348  87.2928047  92.2479237  86.5093363
  86.4505135  93.4658871  86.8239599  91.4091729  87.4507703  91.5257372
  91.3249918  86.8433373  90.7907782  90.5874435  87.9416722  91.5266868
  98.4829013 100.8894867  90.7390540  98.4099185 101.6949839  91.2509844
  98.0406406 101.0886833  89.9138561  98.2718793 100.1266637  84.2493361
  97.4886315 100.6688318  84.3431586  98.9711538 100.6440617  84.6487603
 101.5815443  85.9361267  86.8927567 102.0784142  85.1831229  86.5728637
 100.8102424  85.9725583  86.3270776 109.4345200  91.6401632  88.5345858
 109.4235076  92.5226348  88.1639791 108.5662580  91.2873183  88.3400395
 100.9427697 100.7881701  92.8948698 101.6555669 101.4229166  92.8224600
 100.4517725 100.8845567  92.0788700 102.6645223  94.6932954  84.4665990
 101.7301502  94.8134416  84.2970694 102.8421892  93.7905421  84.2026000
  98.1650412  88.0778650  86.6199251  97.7948199  87.5249690  87.3080157
  98.6609504  87.4736783  86.0674251 106.0517775  90.5350273  85.0016024
 106.5178227  91.3678265  84.9276327 106.5025275  90.0695255  85.7061283
  95.9939610  98.5376145  93.7154269  96.6949070  99.1712628  93.8683664
  95.5234725  98.8790876  92.9549909 104.1194006  96.8794095  82.0002176
 104.3953850  96.7650689  82.9096050 103.2498505  96.4811579  81.9614349
 104.0234438  82.9030860  89.0406926 103.1097517  83.1335087  89.2089133
 104.4527539  82.9869304  89.8920958 103.7940896  91.0920752  91.5406820
 103.1412346  91.3396660  90.8859272 104.1721276  90.2784890  91.2069297
 100.7548070 101.1280445  85.6434990 100.9370464 100.3102101  86.1062742
 101.5781056 101.3448138  85.2059880 101.0890235 100.0548631  82.9050038
 101.6178002  99.5441085  82.2920201 101.3518455  99.7391161  83.7695571
  99.8428469  91.8340563  98.0272857  99.1669106  91.7334693  98.6975232
 100.6656103  91.6779777  98.4908854  91.5907328  98.0712500  90.6485372
  92.1760765  97.3256188  90.7813276  91.3932167  98.3816457  91.5322036
  94.4445983 101.1063747  85.6647814  93.7756359 101.5909875  85.1811854
  94.3058853 101.3532968  86.5791193  86.1824983  90.6418100  89.3689815
  86.2209082  90.1081691  90.1626933  85.6765276  90.1153306  88.7500792
  98.5851252 103.1407491  92.2630473  99.1369560 103.3039112  93.0279558
  98.9257445 103.7311929  91.5910498  93.5615745  85.4882641  92.8652357
  93.6257072  86.3497471  92.4529755  93.4982865  84.8756642  92.1324716
  93.0368018  87.5605773  96.5125392  93.6640057  87.1782850  97.1262916
  92.1795937  87.3419975  96.8781084  89.8133560  89.3682202  82.4443747
  90.1087002  88.4592881  82.3910800  88.9121596  89.3469942  82.1224749
 101.7219639 101.0889466  89.2494155 101.5970779 100.2879206  88.7405100
 102.3798730 101.5835660  88.7608125  93.3427807  87.4438199  88.4271295
  92.6214393  88.0574167  88.2878768  94.1321063  87.9795964  88.3487941
 103.7854548  98.8898486  90.8773705 102.8384883  98.7703838  90.8052032
 104.1337321  98.0020984  90.9599966  96.1454121  84.7792625  94.7011947
  96.6688523  85.0254922  95.4638256  95.9266454  85.6112660  94.2815084
  91.5421402  87.0496300  82.5683072  91.2134108  86.1693679  82.3858178
  91.8960773  86.9943969  83.4559461 100.7900981  98.6851203  87.0778057
 100.6425943  97.7567910  87.2585627 101.6154474  98.7071293  86.5935132
  94.6563225  87.3369270  82.9358549  94.9959298  87.8655191  82.2137158
  95.1035346  87.6749676  83.7117116 104.3935103  99.5079761  88.1642930
 105.3181650  99.3022623  88.0267381 104.2250406  99.2596162  89.0732271
  97.3506666  85.7206320  92.3861617  97.0103486  84.9214133  92.7882297
  96.6445672  86.0208031  91.8138451  98.0023138  82.8055633  90.8388940
  98.8249207  82.3316111  90.7167831  98.2461201  83.5846117  91.3387627
  96.6431372  85.8343891  81.1351842  97.3639735  86.2125144  80.6315559
  96.0196676  86.5532768  81.2386820 100.7862495  86.5389040  82.0710174
 101.0026110  87.4213678  81.7699003 100.3056562  86.1475254  81.3415816
  95.5261717  89.4974753  88.6480919  95.3806297  89.8115057  89.5405201
  95.0486920  90.1159654  88.0951818  97.3858099  86.4877301  88.6961809
  97.3719668  85.5918395  88.3594107  98.1030528  86.4947965  89.3300095
  99.2384230  86.9214642  90.7414936  98.9802008  87.8431712  90.7399266
  98.7069271  86.5245076  91.4315400 104.1830419 100.0265429  83.5205021
 104.3567296  99.4611851  82.7678874 104.6759310 100.8266324  83.3384511
  90.0007379  92.0380098  91.5868580  89.4560847  92.8139906  91.7188855
  90.8786729  92.3850902  91.4287702  96.7894995  85.3691682  83.9649379
  96.9110907  84.4408328  84.1640266  96.4997038  85.3830368  83.0527694
  99.6586186  83.0546592  87.1016099  99.6807883  83.1185925  86.1468078
 100.0754245  82.2151101  87.2956605 110.0369810  92.7901852  85.1395321
 110.4800956  92.0409177  84.7414444 109.1596320  92.7811988  84.7569053
 105.1705591  99.3432193  80.6201920 105.8656496  99.9638886  80.8389234
 105.5128742  98.4927544  80.8954298  90.7873401  91.1649994  94.4798737
  90.0455137  91.3132629  95.0663367  90.4666145  91.4258260  93.6165486
 107.0697015  96.7931899  82.1489250 107.5948339  97.1319171  81.4238570
 106.9819367  95.8578914  81.9652385  98.7317063 100.7065972  94.2779127
  99.0404190 100.4615119  95.1501827  99.5292545 100.9112611  93.7897997
  98.7537675 102.8603882  86.5084504  98.3142666 102.3680261  87.2017360
  99.5045792 102.3176850  86.2676579  91.2330014  99.0515423  86.5109132
  92.0588034  98.7519195  86.1307775  90.8824066  98.2823045  86.9598920
  96.2011547  98.4041891  88.5806805  95.5791557  97.7412596  88.2809033
  96.8716414  98.4303023  87.8980453  89.4338619  96.9701749  87.4698065
  88.5970528  96.5423924  87.2882067  89.4062265  97.1634193  88.4068856
  96.2736075  86.8823679  98.1739311  96.3224230  87.7585802  97.7917081
  96.8158589  86.3401072  97.6010955 106.8788796  94.2757269  94.7673177
 106.9286801  94.1107276  95.7088700 106.7702719  93.4084528  94.3771058
  95.7625054  96.9545814  82.0565266  95.9113175  97.6381279  81.4031939
  96.5691498  96.9350904  82.5714722 104.1692558  90.2588197  96.0832484
 105.0702421  90.1194662  95.7916481 104.2440533  90.4242652  97.0230661
  98.5035363  87.6355052  94.9285670  97.6338673  87.9288618  94.6568259
  98.7394844  88.2195497  95.6492934 108.3806993  96.6954210  95.0115198
 108.0891801  97.0584191  95.8478659 107.7679124  95.9821219  94.8328531
 109.5802675  94.2607090  87.5317769 110.4149566  94.6996894  87.6955329
 109.7161804  93.7845743  86.7126014 106.6294181  91.8186825  93.4795256
 107.1048302  92.0114471  92.6714108 105.7059746  91.8746011  93.2338640
  93.5177687  92.9810992  83.0626335  93.2723729  92.0773322  83.2606545
  93.6873602  92.9828143  82.1205813 101.2074397  83.8534668  92.4451090
 101.7256341  84.5895695  92.1197579 100.8529530  84.1598662  93.2797849
  92.7873335  88.7139350  80.5612496  92.0942580  88.7883705  79.9052532
  92.5425087  87.9499693  81.0834013 101.4586991  80.2734951  87.9651987
 101.7388745  79.6058140  88.5912413 102.2437598  80.4664047  87.4526651
  99.2620460  99.4493945  79.5277013  98.6894427 100.0684132  79.0747485
  99.8353254  99.9993307  80.0616935 105.3295850  88.6952585  91.7123562
 106.2813273  88.7950683  91.7335786 105.1599300  87.9030854  92.2221646
 103.3510229  85.7808168  91.8982963 102.7560161  86.0613181  91.2029452
 103.0659926  86.2702069  92.6699704 102.4817720  99.7331095  80.6585596
 103.4148393  99.6676657  80.8618471 102.3940933 100.5687362  80.2000128
 105.1105736  99.0496965  77.6189543 105.0319368  98.7156829  78.5125301
 105.9315403  99.5418733  77.6181015 107.8083928  91.9158705  90.8265862
 107.7760248  90.9774705  91.0125546 108.4184551  91.9942741  90.0931687
  99.6467258  90.7854758  76.8693066 100.5926363  90.6560966  76.9381484
  99.2681503  90.0469420  77.3462494 107.9578416  88.7069748  90.8724145
 107.4417465  87.9228205  90.6854074 108.8418365  88.3788465  91.0370664
 105.6189143  82.4510764  86.8319958 105.4213964  82.1425852  87.7163290
 106.2288849  83.1772403  86.9617887 113.6260477  92.9774711  89.9671899
 114.3563866  92.7160000  90.5279602 113.0167423  92.2403433  90.0073966
 111.7075775  91.1182574  90.5646350 110.9808938  90.9838539  89.9562841
 111.2923061  91.4259403  91.3703068  99.5305951  94.8372504  98.3293723
 100.4508960  95.0151103  98.5233769  99.4955534  93.8928549  98.1773422
  97.8310176  88.7104734  76.8047951  96.9241631  88.4137847  76.8810665
  98.1086157  88.4134552  75.9382237  88.7488116  90.0311097  87.2546997
  88.4290900  89.1776406  86.9621371  88.2021544  90.2459676  88.0104965
  92.5268023  92.7473538  90.9716504  92.7454033  93.6790646  90.9904538
  92.9393797  92.3881513  91.7571308  99.4472241  83.2541624  82.9592192
  98.6372970  82.9088709  83.3347438 100.1356658  82.9449167  83.5479804
 101.3762790  82.3319671  84.5816489 101.9293828  82.7515124  85.2406512
 101.6132876  81.4055419  84.6239445  97.3995889  88.3206744 100.3619253
  97.2992616  89.2701101 100.2931344  97.1817431  87.9924983  99.4895323
  96.6008960  85.5691669  76.9459930  97.4628124  85.8946568  77.2055748
  96.7859304  84.7823165  76.4332996  88.6176376  93.6514009  89.2240119
  87.9239847  93.2367962  88.7110073  89.3649367  93.6934545  88.6273538
 104.7541597  84.4420196  84.0895153 104.1740266  85.1005000  83.7073206
 104.4877529  83.6197540  83.6782571 103.2045163  83.8425253  86.2916474
 103.7044941  83.9541788  85.4830792 103.8480771  83.5386306  86.9317282
  97.2627159  91.7503883  99.1784314  96.7794241  92.5504243  99.3848204
  97.3488098  91.7611828  98.2251758  90.5313118  93.5832263  87.1006134
  90.5083807  93.6819950  86.1488017  90.8413755  94.4297413  87.4223300
  93.1900496  95.6408418  91.2152748  94.1443750  95.6092360  91.1482680
  92.9913020  95.1799041  92.0302974  93.7799878  94.2109534  93.7823546
  94.5992767  94.7053612  93.8058383  94.0536686  93.2941502  93.7541113
 103.5366475  86.6020286  83.1451501 102.6492330  86.8869937  82.9271696
 103.9520464  86.4414049  82.2978778 106.8881011  86.6266807  86.8605841
 107.6641401  87.1163259  87.1330458 106.1629145  87.0524861  87.3177710
 109.3253569  87.3394426  87.9179781 109.9198060  87.0990162  87.2073090
 109.3980153  86.6201557  88.5453318  91.5450725 101.1828037  88.2322946
  91.4105193 100.4228438  87.6660944  91.1282787 101.9068937  87.7651735
 102.6809688  96.3664961  77.2399521 103.3845538  96.5714963  77.8557177
 101.9572337  96.9341723  77.5048605 103.5107498  92.1174822  83.3601792
 103.4542700  92.5743373  82.5209424 104.0635841  91.3565507  83.1824634
 107.3212304  87.9064554  84.1851911 107.0649239  87.5061190  85.0160119
 106.6965172  88.6208348  84.0602050 111.6324642  90.6460627  86.6923203
 111.0724200  90.7153816  87.4654765 111.0268146  90.4701612  85.9722699
  94.7019851 102.0797354  88.4441389  94.5852235 103.0242787  88.3420079
  93.8812297 101.7770916  88.8327188 104.5896386  96.8047490  79.2897981
 105.4241989  96.3728688  79.1075456 104.4280728  96.6329504  80.2174876
 104.2442278  93.3079603  80.6554321 104.1891082  93.1423875  79.7142765
 103.6188333  94.0155636  80.8116511  89.0334793  88.5447668  94.4815743
  89.6793656  88.0346622  94.9702968  88.8251944  89.2816349  95.0559168
  97.5538403  82.8087712  80.2339639  97.5417073  83.7529552  80.3907910
  98.4461825  82.6257858  79.9399100  95.7274365 102.7325616  91.6597317
  96.6301612 102.7649226  91.9763812  95.5011735 101.8026067  91.6743653
  97.4827967 101.4856603  88.3207396  96.5323598 101.4858464  88.2071768
  97.7860453 100.7389337  87.8043430 101.3690523  79.4030489  84.4885576
 100.6022918  78.8488976  84.6342258 101.7801228  79.4752358  85.3499728
  93.3732284  85.6915285  98.5790757  94.2363745  85.3352090  98.7894082
  92.7997694  85.3529180  99.2666162 110.0270367 107.2744569  89.3214683
 109.6888878 107.1585634  88.4335218 110.8960135 106.8735734  89.3015689
 105.8857183 109.1280046  85.3111574 105.3222048 109.0369983  84.5427862
 105.7709578 108.3079950  85.7914066 103.4321615 110.6231237  88.1495794
 104.2242906 110.2822062  87.7342094 103.6718265 110.7326212  89.0697948
 105.3912368 109.8840150  81.0213173 106.1643244 109.3369138  80.8826049
 105.7437767 110.7484400  81.2327635 107.7278646 106.0432817  78.6531623
 107.9804167 105.5214338  77.8915086 106.7903205 105.8798962  78.7558307
 112.7721929 105.0468595  86.4606366 113.5585018 104.6288018  86.1096783
 113.0360633 105.9514687  86.6288015 112.9432006 110.4841445  81.1595023
 112.3077839 110.5576072  81.8715928 112.6129413 111.0735044  80.4814102
 118.1730356 104.9843828  87.3639345 118.9055528 104.4143045  87.5977174
 117.4169712 104.5965429  87.8045850 107.4474935 107.9460922  80.8555998
 107.3311193 107.2705826  81.5237082 107.5577195 107.4593296  80.0388151
 109.7906476 107.4071070  84.5602687 109.4264683 106.8801691  85.2715609
 110.6473592 107.0169539  84.3869173 115.6955777  98.6965402  91.8233953
 115.3639101  99.5660813  91.5995168 115.1001390  98.3801686  92.5027984
 109.4311963 102.4360969  79.5564036 109.5986365 103.3041206  79.9234507
 109.2409132 102.5988251  78.6325325 105.6399778 107.3491745  87.2566571
 104.7150274 107.2167959  87.4644262 105.8884191 108.1285964  87.7536513
 109.4101184 104.8918627  80.5410703 109.2900809 105.3375678  81.3796183
 108.7153772 105.2403944  79.9824241 103.0008589 106.9925019  88.0910360
 103.1300970 107.2459498  89.0049771 102.3206040 107.5852727  87.7715015
 115.1086250 105.3640100  81.3691037 116.0204106 105.5967487  81.1938734
 114.5995897 105.9477144  80.8066115 112.4522225 101.5398136  89.6180898
 111.5906704 101.8379390  89.9097635 112.4784659 101.7568535  88.6861930
 109.2683794 110.0840327  86.0254703 109.7322140 110.3628030  85.2359326
 109.0040592 109.1823771  85.8427794 106.1607875 109.6311808  88.9634466
 106.7309232 110.0599076  88.3251951 106.7515987 109.3494393  89.6618652
 108.2052680 106.2063479  82.8344268 108.9076724 106.6584523  83.3018195
 107.8733309 105.5647298  83.4624161 101.9478014 104.4647032  88.1361402
 101.1577068 104.7204560  87.6601513 102.4389262 105.2795369  88.2413442
 103.8992760 104.8291611  85.0944879 103.1023923 104.9410305  85.6128374
 103.6718352 105.1678263  84.2285769 100.2315717 104.7177522  90.5676393
 100.4823756 105.6024532  90.8333969 100.7675266 104.5382124  89.7951485
 109.4446445 113.0204422  82.9106374 109.3092120 113.8655957  83.3391221
 109.9856257 113.2223699  82.1472307 102.8975842 110.5379860  83.4834299
 103.4100363 111.3323110  83.6339863 103.5498555 109.8406150  83.4167900
 104.7070727 113.6545616  85.5657052 104.8837355 114.5763581  85.3778036
 105.5027560 113.3404035  85.9951432 112.7938908  96.5434983  91.4405267
 112.4503178  97.4336625  91.3644378 113.1617871  96.3536641  90.5774852
 100.8624759 108.8668514  84.2593869 101.6999981 109.2765522  84.0427577
 101.0403027 107.9267956  84.2294063 112.7589191 106.5343594  79.9477702
 112.2435815 107.3048199  80.1866090 112.4866500 105.8608731  80.5710764
 110.3436302 101.3793295  85.0062941 109.4877899 100.9900146  84.8268579
 110.7563254 101.4585256  84.1462726 111.8735449  98.9139639  89.4054500
 111.3700244  98.8769774  88.5922306 112.1666056  99.8232381  89.4651157
 108.1178335  98.9978368  88.4120682 108.9831331  98.8021177  88.0526571
 108.1855844  98.7688720  89.3390039 112.5475494 104.4070687  81.7737483
 112.2425630 104.7216836  82.6247626 113.5005936 104.4852106  81.8164816
 110.9921926 110.5660910  83.4230437 110.4643288 109.8313669  83.1103675
 110.4909429 111.3435586  83.1770406 105.7240654 101.2280576  85.7837049
 106.2984406 101.0055758  85.0510242 106.3111636 101.2969271  86.5365650
 114.7820231 107.1154303  86.5901425 115.2952113 107.7484295  87.0923135
 115.4321455 106.5155499  86.2244785 106.0510241 103.2585037  79.8032934
 105.2147553 103.5959724  80.1242209 105.9115011 103.1234017  78.8660071
 108.0263321  98.1021825  84.5112118 107.3727734  97.7870842  83.8868733
 107.9843796  97.4797566  85.2371941 109.1374526 108.3841120  76.4265410
 108.2301588 108.1530374  76.6256559 109.6345558 107.5878739  76.6139392
 111.2601062 104.5903759  88.8359766 110.3423623 104.8118706  88.6781454
 111.6761205 104.6650069  87.9771473 112.0436110 105.9895174  83.9662446
 112.7907929 106.5016572  83.6569568 112.3127699 105.6679227  84.8266840
 110.3162760 108.4853715  80.9489400 109.4073979 108.2012748  81.0461870
 110.3457844 108.9052794  80.0892707 114.4914947 103.0252291  85.9481235
 113.7537704 102.5129677  86.2791478 114.7441720 102.5852672  85.1364512
 114.5926574  95.8028543  86.5423005 114.8985451  94.9425906  86.2548920
 115.3179179  96.3946163  86.3421999 100.8850930 106.2059229  84.9304603
 100.6875330 105.6128590  84.2055669 100.3297594 105.9011439  85.6480541
 108.8647654 106.0982336  87.0499196 108.9196264 105.1456172  86.9741672
 108.0538856 106.2541775  87.5340494 110.0138848 110.0262459  78.2877479
 109.5758278 109.3098318  77.8283116 110.7549288 110.2538574  77.7262570
 106.8040014 104.7159395  84.8089575 105.9907879 105.0153566  85.2154767
 107.2999008 104.3215084  85.5264057 106.2954088 102.2877751  90.4250810
 106.9353468 102.1466510  89.7273773 105.4631619 102.0012264  90.0489412
 107.0714392 111.5880181  86.5385802 107.8654991 111.0930501  86.3368377
 106.3606085 111.0598044  86.1753508 103.3797156 105.7323263  82.6145555
 102.4494744 105.6707719  82.8315517 103.4754628 105.2099216  81.8182196
 103.2982705 102.2578076  85.2023796 103.5589522 103.1723409  85.0932957
 104.1199877 101.7902518  85.3520409 104.7707630 103.6715833  92.3722621
 105.4430684 103.4633195  91.7235270 103.9437417 103.4737919  91.9327853
 114.1350075 108.8846840  77.8809537 113.5179246 108.1593669  77.7842589
 113.6666564 109.6456201  77.5376611 105.9248621 103.1032265  77.0030841
 105.0478087 102.9821065  76.6393088 106.4006374 102.3118343  76.7509730
  97.4450761 107.8909424  87.0972348  98.1321801 107.5771154  86.5093363
  97.2898890 108.7950789  86.8239599 102.2485483 102.7799621  91.5257372
 102.1643672 102.1725291  90.7907782 101.4268190 103.2708639  91.5266868
 112.4209197 101.2653184  86.8927567 112.9177897 100.5123147  86.5728637
 111.6496179 101.3017501  86.3270776 113.5038978 110.0224872  84.4665990
 112.5695257 110.1426334  84.2970694 113.6815646 109.1197338  84.2026000
 109.0044166 103.4070567  86.6199251 108.6341954 102.8541608  87.3080157
 109.5003258 102.8028701  86.0674251 116.8911529 105.8642191  85.0016024
 117.3571981 106.6970183  84.9276327 117.3419030 105.3987173  85.7061283
 114.8628192  98.2322778  89.0406926 113.9491272  98.4627005  89.2089133
 115.2921293  98.3161222  89.8920958  97.0218737 105.9710018  89.3689815
  97.0602837 105.4373608  90.1626933  96.5159030 105.4445223  88.7500792
 104.4009500 100.8174558  92.8652357 104.4650826 101.6789389  92.4529755
 104.3376620 100.2048560  92.1324716 100.6527315 104.6974120  82.4443747
 100.9480756 103.7884798  82.3910800  99.7515351 104.6761859  82.1224749
 104.1821562 102.7730116  88.4271295 103.4608148 103.3866084  88.2878768
 104.9714818 103.3087881  88.3487941 102.3815157 102.3788218  82.5683072
 102.0527863 101.4985596  82.3858178 102.7354527 102.3235886  83.4559461
 105.4956980 102.6661187  82.9358549 105.8353052 103.1947109  82.2137158
 105.9429100 103.0041593  83.7117116 108.1900421 101.0498238  92.3861617
 107.8497241 100.2506051  92.7882297 107.4839427 101.3499949  91.8138451
 108.8416892  98.1347550  90.8388940 109.6642962  97.6608029  90.7167831
 109.0854956  98.9138034  91.3387627 107.4825127 101.1635809  81.1351842
 108.2033489 101.5417062  80.6315559 106.8590431 101.8824686  81.2386820
 111.6256250 101.8680958  82.0710174 111.8419864 102.7505596  81.7699003
 111.1450317 101.4767171  81.3415816 106.3655471 104.8266671  88.6480919
 106.2200052 105.1406974  89.5405201 105.8880675 105.4451571  88.0951818
 108.2251854 101.8169219  88.6961809 108.2113423 100.9210312  88.3594107
 108.9424282 101.8239883  89.3300095 110.0777985 102.2506559  90.7414936
 109.8195763 103.1723630  90.7399266 109.5463025 101.8536994  91.4315400
 100.8401133 107.3672016  91.5868580 100.2954601 108.1431823  91.7188855
 101.7180483 107.7142820  91.4287702 107.6288750 100.6983599  83.9649379
 107.7504661  99.7700246  84.1640266 107.3390792 100.7122285  83.0527694
 110.4979940  98.3838510  87.1016099 110.5201637  98.4477843  86.1468078
 110.9147999  97.5443018  87.2956605 102.0723769 114.3807341  86.5109132
 102.8981789 114.0811112  86.1307775 101.7217821 113.6114963  86.9598920
 100.2732374 112.2993667  87.4698065  99.4364282 111.8715841  87.2882067
 100.2456019 112.4926110  88.4068856 106.6018809 112.2837732  82.0565266
 106.7506929 112.9673196  81.4031939 107.4085252 112.2642822  82.5714722
 104.3571442 108.3102910  83.0626335 104.1117484 107.4065240  83.2606545
 104.5267356 108.3120060  82.1205813 112.0468152  99.1826586  92.4451090
 112.5650096  99.9187613  92.1197579 111.6923285  99.4890579  93.2797849
 103.6267089 104.0431267  80.5612496 102.9336334 104.1175622  79.9052532
 103.3818841 103.2791611  81.0834013 112.2980746  95.6026869  87.9651987
 112.5782500  94.9350058  88.5912413 113.0831353  95.7955964  87.4526651
 110.4861013 106.1146675  76.8693066 111.4320118 105.9852883  76.9381484
 110.1075258 105.3761337  77.3462494 116.4582897  97.7802681  86.8319958
 116.2607719  97.4717770  87.7163290 117.0682603  98.5064320  86.9617887
 108.6703930 104.0396652  76.8047951 107.7635385 103.7429764  76.8810665
 108.9479911 103.7426470  75.9382237  99.5881870 105.3603015  87.2546997
  99.2684655 104.5068323  86.9621371  99.0415299 105.5751593  88.0104965
 103.3661778 108.0765456  90.9716504 103.5847788 109.0082564  90.9904538
 103.7787552 107.7173430  91.7571308 110.2865996  98.5833541  82.9592192
 109.4766724  98.2380626  83.3347438 110.9750413  98.2741085  83.5479804
 112.2156544  97.6611588  84.5816489 112.7687583  98.0807042  85.2406512
 112.4526630  96.7347336  84.6239445 107.4402715 100.8983587  76.9459930
 108.3021879 101.2238485  77.2055748 107.6253059 100.1115083  76.4332996
  99.4570130 108.9805927  89.2240119  98.7633602 108.5659879  88.7110073
 100.2043121 109.0226463  88.6273538 115.5935351  99.7712113  84.0895153
 115.0134020 100.4296917  83.7073206 115.3271284  98.9489458  83.6782571
 114.0438918  99.1717171  86.2916474 114.5438696  99.2833706  85.4830792
 114.6874525  98.8678224  86.9317282 101.3706873 108.9124180  87.1006134
 101.3477561 109.0111868  86.1488017 101.6807509 109.7589331  87.4223300
 114.3760229 101.9312204  83.1451501 113.4886084 102.2161854  82.9271696
 114.7914218 101.7705967  82.2978778 117.7274765 101.9558725  86.8605841
 118.5035155 102.4455177  87.1330458 117.0022899 102.3816779  87.3177710
 120.1647324 102.6686344  87.9179781 120.7591815 102.4282080  87.2073090
 120.2373908 101.9493475  88.5453318 114.3501253 107.4466740  83.3601792
 114.2936454 107.9035291  82.5209424 114.9029595 106.6857424  83.1824634
 118.1606059 103.2356472  84.1851911 117.9042993 102.8353107  85.0160119
 117.5358927 103.9500265  84.0602050 115.0836032 108.6371521  80.6554321
 115.0284836 108.4715792  79.7142765 114.4582087 109.3447554  80.8116511
  99.8728547 103.8739585  94.4815743 100.5187411 103.3638539  94.9702968
  99.6645698 104.6108267  95.0559168 108.3932158  98.1379630  80.2339639
 108.3810828  99.0821470  80.3907910 109.2855580  97.9549775  79.9399100
 112.2084277  94.7322407  84.4885576 111.4416673  94.1780893  84.6342258
 112.6194982  94.8044275  85.3499728  44.9907841  -7.6944814  76.0459990
  44.6526353  -7.8103750  75.1580524  45.8597609  -8.0953649  76.0260996
  40.8494657  -5.8409338  72.0356881  40.2859522  -5.9319401  71.2673168
  40.7347052  -6.6609433  72.5159373  45.4727624  -6.5409963  82.0046195
  45.4616265  -6.9357164  81.1326699  45.6348264  -7.2743890  82.5979967
  38.3959089  -4.3458146  74.8741101  39.1880381  -4.6867322  74.4587400
  38.6355739  -4.2363171  75.7943254  46.4294216  -2.1738370  67.3471345
  45.7782195  -1.5884290  66.9605359  47.2238578  -1.6432175  67.4066383
  40.3549843  -5.0849233  67.7458480  41.1280719  -5.6320246  67.6071356
  40.7075242  -4.2204984  67.9572941  42.1934885  -3.7572851  80.9525379
  41.9024751  -2.8527220  80.8372045  42.8291870  -3.7156323  81.6669449
  43.1191092  -6.3796002  77.5426739  43.7154664  -6.6039980  76.8283702
  43.1766064  -7.1211257  78.1452187  42.6916121  -8.9256567  65.3776930
  42.9441641  -9.4475046  64.6160393  41.7540680  -9.0890421  65.4803613
  47.9069481  -4.4847938  67.8840330  47.2715314  -4.4113312  68.5961234
  47.5766887  -3.8954339  67.2059409  42.4112409  -7.0228461  67.5801305
  42.2948667  -7.6983558  68.2482389  42.5214669  -7.5096087  66.7633458
  44.7543950  -7.5618314  71.2847994  44.3902158  -8.0887693  71.9960915
  45.6111066  -7.9519845  71.1114479  47.1524770  -4.0711435  77.9475173
  46.8525494  -3.1686396  77.8390980  46.8075830  -4.3379252  78.7996326
  40.6037252  -7.6197638  73.9811877  39.6787748  -7.7521424  74.1889569
  40.8521665  -6.8403419  74.4781820  37.9646063  -7.9764365  74.8155666
  38.0938444  -7.7229886  75.7295078  37.2843514  -7.3836657  74.4960321
  42.1345550   2.6932885  70.9146140  42.0569580   3.6440710  70.9934621
  41.5307194   2.3478758  71.5721067  42.8809152  -7.3253796  83.1325474
  43.6223837  -6.7868752  82.8560298  42.1746138  -6.6987507  83.2897026
  48.3564492  -5.1824656  81.7297636  48.7647848  -5.6242245  80.9852268
  47.6341753  -5.7572028  81.9831829  48.6793307  -4.6223465  75.4849925
  48.0502169  -4.4577751  74.7825993  48.2918969  -4.2081855  76.2560889
  52.5582539  -3.6869027  72.8394288  51.8733577  -3.3070126  72.2891322
  52.6426388  -3.0773701  73.5726236  49.8133470  -6.0409068  79.4389632
  50.0250365  -5.3977308  78.7624013  49.7663218  -6.8746752  78.9711562
  44.2321268  -4.8849057  72.7500010  44.6959614  -4.6061354  71.9604632
  43.9678067  -5.7865612  72.5673101  41.1245350  -5.3377575  75.6879773
  41.6946707  -4.9090307  75.0497258  41.7153461  -5.6194991  76.3863959
  43.1690155  -8.7625905  69.5589575  43.8714198  -8.3104861  70.0263501
  42.8370783  -9.4042086  70.1869468  41.6170516 -10.1714148  83.9340784
  40.9869177  -9.4897867  84.1676181  41.5106604 -10.2831066  82.9893923
  50.9279298  -3.1637113  77.6111989  51.7496742  -3.5656925  77.3294671
  50.9241701  -3.2668879  78.5628105  44.6935902  -3.6153069  79.7672700
  44.7580334  -3.1532662  80.6030872  43.9846825  -4.2455705  79.8955010
  44.4083919  -1.9484962  69.6351680  44.2729594  -1.1033426  70.0636528
  44.9493732  -1.7465684  68.8717614  37.8613317  -4.4309524  70.2079605
  38.3737837  -3.6366274  70.3585170  38.5136029  -5.1283233  70.1413207
  39.6708201  -1.3143768  72.2902358  39.8474830  -0.3925803  72.1023342
  40.4665035  -1.6285348  72.7196738  46.0352396  -1.3261395  83.7652022
  45.5916250  -2.1125017  83.4472927  46.6969609  -1.1382245  83.0995913
  40.7939517   0.2034406  78.2912701  41.3446942   0.0751470  77.5189695
  39.9550993   0.5029295  77.9407594  48.1333634  -1.0458596  81.7933424
  48.1152109  -0.2249714  81.3013693  49.0553554  -1.1704520  82.0183565
  44.5906688  -3.5314466  82.6356932  45.1235025  -4.2926178  82.4056240
  44.0620769  -3.8240814  83.3781086  52.6960940  -5.6813434  68.6076182
  51.9190382  -6.0202275  68.1631344  53.3752421  -5.6760811  67.9331147
  45.9559400  -4.4028474  70.1475744  45.4280762  -5.1375714  69.8348981
  45.4546903  -3.6253797  69.9015712  50.9352246  -6.2079453  75.2642790
  50.2775921  -5.5180192  75.3522919  51.7392646  -5.8183021  75.6076777
  44.1012001  -6.5848263  63.1510717  43.1939062  -6.8159010  63.3501866
  44.5983033  -7.3810644  63.3384699  47.0080080   2.1249244  66.0707403
  46.3341778   2.4280941  66.6792361  47.3945901   2.9278324  65.7212860
  45.2800234  -6.4835668  67.6734707  44.3711453  -6.7676636  67.7707177
  45.3095318  -6.0636590  66.8138014  50.5119502  -2.8729079  71.4425875
  50.0581829  -3.7138169  71.4991065  49.8813468  -2.2367681  71.7800655
  48.9552441  -1.0352582  72.3775693  49.2475415  -0.4747525  71.6588058
  49.4651061  -0.7424021  73.1328852  44.9776322  -4.9426925  65.0122786
  44.5395752  -5.6591066  64.5528423  45.7186763  -4.7150810  64.4507877
  43.9186066  -0.2572231  73.4669146  43.8762245  -0.0311385  72.5377678
  44.8348765  -0.4908857  73.6154947  53.1218816  -4.5993201  76.0810376
  53.5555323  -4.6917912  76.9293430  53.8350397  -4.6235700  75.4430392
  42.0351867  -3.3809202  73.2631109  42.8292465  -3.8758882  73.0613684
  41.3243559  -3.9091339  72.8998814  46.8546711  -0.9991107  77.6143476
  46.9083733  -0.4300170  78.3821192  45.9861493  -0.8289222  77.2497513
  53.9834366  -4.5569500  78.6143261  54.1770256  -3.6523690  78.8602536
  53.8834984  -5.0162081  79.4481846  49.0449475  -4.4062757  84.1884142
  48.8934981  -4.6352206  83.2714225  49.0354154  -3.4492156  84.2015487
  45.8134811  -6.8330845  79.1730408  46.7426871  -6.6819685  78.9999375
  45.3925841  -6.7446824  78.3179055  44.6123143  -2.8080180  76.9428946
  44.4734228  -3.1761396  77.8154884  43.8237739  -2.2932541  76.7712904
  45.2071295   2.2928916  68.2854482  45.3823050   1.8216960  69.1000105
  44.5204083   2.9194683  68.5135743  46.1628358  -3.4298577  74.3317784
  45.8278190  -3.4697807  75.2275433  45.6632304  -4.0953862  73.8588194
  40.1372602  -8.0230947  79.8570365  39.9992400  -8.7550709  80.4581904
  41.0477525  -8.1122047  79.5754552  49.0987550  -6.0842543  64.6054843
  48.4816720  -6.8095715  64.5087896  48.6304038  -5.3233183  64.2621917
  42.7654902  -8.3110988  79.3454044  43.4754521  -8.9517796  79.3040663
  42.7224211  -8.0598093  80.2680225  50.7541681  -1.3743635  82.2660624
  50.6954227  -2.0584415  81.5991207  51.1561200  -0.6324645  81.8141250
  39.7732380   5.4418279  75.0594342  40.0128978   6.0736803  75.7373361
  38.9301576   5.0906319  75.3459702  50.7559088  -3.4104051  80.4974603
  49.8685867  -3.7478129  80.6201002  51.3257639  -4.1421020  80.7343369
  44.2860242   1.2497402  77.4635846  44.2130413   2.0552373  77.9755151
  43.8437635   1.4489367  76.6383868  44.0750021   0.4869172  70.9738668
  43.2917543   1.0290852  71.0676893  44.7742767   1.0043151  71.3732909
  46.7458925   1.1484236  79.6194005  47.4586898   1.7831700  79.5469907
  46.2548954   1.2448102  78.8034007  48.4676452  -4.9464512  71.1911297
  47.5332731  -4.8263049  71.0216001  48.6453121  -5.8492045  70.9271307
  41.7970839  -1.1021321  80.4399576  42.4980298  -0.4684838  80.5928970
  41.3265954  -0.7606589  79.6795215  49.9225235  -2.7603371  68.7247483
  50.1985079  -2.8746777  69.6341357  49.0529733  -3.1585886  68.6859656
  46.5579299   1.4882980  72.3680297  46.7401693   0.6704636  72.8308049
  47.3812285   1.7050672  71.9305187  46.8921464   0.4151165  69.6295345
  47.4209231  -0.0956381  69.0165507  47.1549684   0.0993695  70.4940878
  45.6459698  -7.8056902  84.7518163  44.9700335  -7.9062773  85.4220539
  46.4687332  -7.9617689  85.2154161  37.3938557  -1.5684966  77.3730679
  37.9791994  -2.3141278  77.5058583  37.1963395  -1.2581009  78.2567343
  40.2477212   1.4666281  72.3893121  39.5787587   1.9512409  71.9057161
  40.1090082   1.7135502  73.3036500  44.3882481   3.5010025  78.9875779
  44.9400789   3.6641646  79.7524865  44.7288674   4.0914463  78.3155804
  49.2393355  -1.6728718  84.8424434  49.7833259  -1.0598759  84.3479389
  48.6580200  -1.1149139  85.3591447  47.5250868   1.4492001  75.9739462
  47.4002007   0.6481740  75.4650407  48.1829959   1.9438194  75.4853431
  49.5885776  -0.7498979  77.6019012  48.6416112  -0.8693628  77.5297338
  49.9368550  -1.6376481  77.6845273  46.5932210  -0.9546263  73.8023364
  46.4457172  -1.8829556  73.9830934  47.4185703  -0.9326172  73.3180439
  50.1966332  -0.1317704  74.8888237  51.1212879  -0.3374843  74.7512688
  50.0281635  -0.3801303  75.7977578  41.3292945 -10.1422712  75.3726226
  41.1837526  -9.8282409  76.2650507  40.8518149  -9.5237812  74.8197124
  49.9861648   0.3867963  70.2450328  50.1598525  -0.1785615  69.4924181
  50.4790539   1.1868858  70.0629818  50.9736820  -0.2965273  67.3447226
  51.6687725   0.3241420  67.5634541  51.3159970  -1.1469921  67.6199604
  52.8728243  -2.8465567  68.8734557  53.3979567  -2.5078294  68.1483877
  52.7850596  -3.7818552  68.6897692  44.5348292   1.0668507  81.0024434
  44.8435419   0.8217653  81.8747133  45.3323774   1.2715145  80.5143304
  44.5568904   3.2206416  73.2329810  44.1173894   2.7282795  73.9262667
  45.3077021   2.6779384  72.9921886  37.0361243  -0.5882043  73.2354438
  37.8619263  -0.8878271  72.8553082  36.6855295  -1.3574421  73.6844227
  42.0042776  -1.2355575  75.3052112  41.3822786  -1.8984870  75.0054340
  42.6747643  -1.2094443  74.6225760  35.2369848  -2.6695716  74.1943372
  34.4001756  -3.0973542  74.0127373  35.2093494  -2.4763273  75.1314163
  52.5622149  -2.2132663  84.1785755  51.7717693  -2.2308525  83.6390254
  52.3255504  -1.6744370  84.9334792  52.6820024  -5.3640197  81.4918484
  52.7318029  -5.5290190  82.4334006  52.5733948  -6.2312938  81.1016364
  41.5656283  -2.6851651  68.7810573  41.7144404  -2.0016187  68.1277245
  42.3722727  -2.7046561  69.2960028  54.1838221  -2.9443256  81.7360505
  53.8923030  -2.5813275  82.5723966  53.5710353  -3.6576247  81.5573837
  39.3208916  -6.6586474  69.7871641  39.0754958  -7.5624144  69.9851852
  39.4904831  -6.6569323  68.8451119  45.0651689  -0.1903521  66.2522320
  44.4925656   0.4286666  65.7992792  45.6384482   0.3595841  66.7862242
  48.2848948   0.0933629  67.3830902  49.2179622   0.0279191  67.5863778
  48.1972161   0.9289896  66.9245435  50.9136965  -0.5900500  64.3434850
  50.8350597  -0.9240637  65.2370608  51.7346632  -0.0978733  64.3426322
  45.3337180  -4.8024962  85.0539029  46.2540189  -4.6246363  85.2479076
  45.2986763  -5.7468917  84.9018729  38.3299252  -6.8923927  77.6961811
  38.5485262  -5.9606820  77.7149844  38.7425026  -7.2515953  78.4816614
  43.0658388  -7.8893583  85.9029621  42.5825469  -7.0893223  86.1093510
  43.1519327  -7.8785638  84.9497065  36.3344347  -6.0565203  73.8251441
  36.3115035  -5.9577516  72.8733324  36.6444984  -5.2100052  74.1468607
  38.9931725  -3.9989048  77.9398055  39.9474979  -4.0305106  77.8727986
  38.7944249  -4.4598424  78.7548281  39.5831107  -5.4287932  80.5068853
  40.4023996  -4.9343853  80.5303690  39.8567915  -6.3455964  80.4786420
  37.3481954   1.5430571  74.9568253  37.2136422   0.7830972  74.3906251
  36.9314016   2.2671471  74.4897042  48.4840917  -3.2732505  63.9644828
  49.1876767  -3.0682503  64.5802484  47.7603566  -2.7055743  64.2293912
  40.5051080   2.4399888  75.1686695  40.3883464   3.3845321  75.0665386
  39.6843526   2.1373450  75.5572495  50.3927614  -2.8349976  66.0143288
  51.2273218  -3.2668777  65.8320763  50.2311957  -3.0067962  66.9420183
  50.0473507  -6.3317863  67.3799627  49.9922310  -6.4973591  66.4388072
  49.4219562  -5.6241830  67.5361817  47.3619414  -4.0268951  86.7053190
  48.2310573  -3.8528298  86.3439825  46.8826165  -3.2074534  86.5828920
  41.5305594   3.0928150  78.3842624  42.4332841   3.1251761  78.7009119
  41.3042964   2.1628601  78.3988960  43.2859196   1.8459137  75.0452702
  42.3354827   1.8460998  74.9317075  43.5891682   1.0991871  74.5288737
  59.0211889   7.6819675  76.1098465  59.6590299   7.5626423  75.4061805
  58.9032732   8.6300519  76.1686417  55.8301596   7.6347103  76.0459990
  55.4920107   7.5188168  75.1580524  56.6991364   7.2338268  76.0260996
  51.6888411   9.4882580  72.0356881  51.1253277   9.3972517  71.2673168
  51.5740806   8.6682484  72.5159373  56.3121379   8.7881955  82.0046195
  56.3010019   8.3934753  81.1326699  56.4742018   8.0548028  82.5979967
  49.2352843  10.9833771  74.8741101  50.0274135  10.6424596  74.4587400
  49.4749494  11.0928746  75.7943254  57.2687970  13.1553547  67.3471345
  56.6175950  13.7407628  66.9605359  58.0632333  13.6859742  67.4066383
  51.1943597  10.2442685  67.7458480  51.9674473   9.6971672  67.6071356
  51.5468996  11.1086934  67.9572941  53.0328640  11.5719067  80.9525379
  52.7418506  12.4764698  80.8372045  53.6685624  11.6135595  81.6669449
  53.9584847   8.9495915  77.5426739  54.5548419   8.7251938  76.8283702
  54.0159818   8.2080661  78.1452187  53.5309875   6.4035351  65.3776930
  53.7835396   5.8816872  64.6160393  52.5934434   6.2401496  65.4803613
  58.5753158   5.4071129  73.1851673  59.3616247   4.9890552  72.8342090
  58.8391862   6.3117221  73.3533321  58.7463235  10.8443979  67.8840330
  58.1109068  10.9178606  68.5961234  58.4160642  11.4337578  67.2059409
  63.9761585   5.3446362  74.0884651  64.7086757   4.7745579  74.3222481
  63.2200941   4.9567963  74.5291157  53.2506164   8.3063457  67.5801305
  53.1342422   7.6308360  68.2482389  53.3608424   7.8195831  66.7633458
  55.5937705   7.7673604  71.2847994  55.2295912   7.2404225  71.9960915
  56.4504821   7.3772073  71.1114479  61.4987005  -0.9432064  78.5479260
  61.1670330  -0.0736653  78.3240475  60.9032619  -1.2595780  79.2273290
  55.2343192   2.7963504  66.2809342  55.4017594   3.6643740  66.6479813
  55.0440361   2.9590785  65.3570632  57.9918525  11.2580482  77.9475173
  57.6919248  12.1605521  77.8390980  57.6469584  10.9912666  78.7996326
  51.4431006   7.7094279  73.9811877  50.5181503   7.5770493  74.1889569
  51.6915420   8.4888498  74.4781820  61.3915669   3.7763023  75.6272610
  60.4832546   3.7078431  75.3331371  61.3403265   4.2534968  76.4554436
  55.2132413   5.2521161  67.2656009  55.0932038   5.6978212  68.1041490
  54.5185001   5.6006479  66.7069547  48.8039817   7.3527553  74.8155666
  48.9332199   7.6062032  75.7295078  48.1237269   7.9455261  74.4960321
  52.9739305  18.0224803  70.9146140  52.8963334  18.9732628  70.9934621
  52.3700948  17.6770675  71.5721067  55.4656535   5.1952668  83.5707507
  54.6889869   5.7546588  83.5610372  56.1047098   5.6809451  84.0922377
  63.2577315   1.9779461  77.4050484  62.6151695   2.2711994  76.7590279
  62.7532244   1.8632381  78.2103681  60.9117479   5.7242634  68.0936343
  61.8235335   5.9570021  67.9184041  60.4027126   6.3079678  67.5311422
  53.7202907   8.0038122  83.1325474  54.4617591   8.5423166  82.8560298
  53.0139892   8.6304410  83.2897026  59.1958246  10.1467262  81.7297636
  59.6041602   9.7049673  80.9852268  58.4735508   9.5719890  81.9831829
  55.5489317   5.0839869  79.1031193  56.3950512   5.5079282  79.2465842
  55.4887954   4.4273493  79.7969756  59.5187061  10.7068453  75.4849925
  58.8895924  10.8714167  74.7825993  59.1312723  11.1210062  76.2560889
  63.3976293  11.6422890  72.8394288  62.7127331  12.0221792  72.2891322
  63.4820142  12.2518217  73.5726236  58.6988762   2.7444237  80.7612366
  58.4549694   3.4986298  80.2246642  58.9748692   3.1229585  81.5959614
  60.6527225   9.2882850  79.4389632  60.8644120   9.9314609  78.7624013
  60.6056973   8.4545166  78.9711562  58.2553454   1.9000670  76.3426204
  57.3937933   2.1981924  76.6342942  58.2815888   2.1171069  75.4107237
  55.0715023  10.4442861  72.7500010  55.5353369  10.7230564  71.9604632
  54.8071821   9.5426305  72.5673101  51.9639104   9.9914342  75.6879773
  52.5340461  10.4201611  75.0497258  52.5547216   9.7096927  76.3863959
  54.0083909   6.5666013  69.5589575  54.7107952   7.0187057  70.0263501
  53.6764538   5.9249832  70.1869468  52.4564271   5.1577770  83.9340784
  51.8262931   5.8394051  84.1676181  52.3500358   5.0460851  82.9893923
  47.7509243   4.8249566  74.8606709  46.9608297   5.0807094  74.3846819
  48.2420490   5.6397904  74.9658749  61.7673053  12.1654805  77.6111989
  62.5890496  11.7634992  77.3294671  61.7635455  12.0623039  78.5628105
  49.7023988   5.1894145  71.8190185  48.9055152   5.3012839  72.3373681
  49.4749581   5.5280797  70.9531076  55.5329656  11.7138848  79.7672700
  55.5974089  12.1759255  80.6030872  54.8240580  11.0836213  79.8955010
  46.0346946   5.0780056  77.2921699  46.2854984   5.9627066  77.5579275
  46.5706494   4.8984658  76.5196791  69.8579046   8.5093553  73.9596961
  69.1042754   7.9400951  73.8040965  69.9926587   8.4756218  74.9067596
  55.2477674  13.3806956  69.6351680  55.1123348  14.2258491  70.0636528
  55.7887486  13.5826233  68.8717614  51.7345013  -0.5401464  86.2966035
  51.3411959  -1.0935266  86.9713680  52.5511154  -0.2290886  86.6872553
  48.7007071  10.8982394  70.2079605  49.2131592  11.6925644  70.3585170
  49.3529784  10.2008684  70.1413207  50.5101956  14.0148150  72.2902358
  50.6868584  14.9366115  72.1023342  51.3058789  13.7006569  72.7196738
  54.6512974   0.8756415  83.8886292  55.3922688   1.4763568  83.8090754
  54.8830897   0.1334052  83.3304335  49.7954312   6.0612782  82.1664522
  49.6807827   5.1598039  82.4671621  48.9398830   6.3076479  81.8149338
  56.8746150  14.0030522  83.7652022  56.4310004  13.2166901  83.4472927
  57.5363364  14.1909673  83.0995913  51.6333271  15.5326324  78.2912701
  52.1840696  15.4043387  77.5189695  50.7944747  15.8321213  77.9407594
  58.9727388  14.2833322  81.7933424  58.9545863  15.1042203  81.3013693
  59.8947308  14.1587397  82.0183565  55.4300442  11.7977452  82.6356932
  55.9628779  11.0365740  82.4056240  54.9014523  11.5051103  83.3781086
  58.5970137  -3.0962482  78.1650574  58.2534407  -2.2060841  78.0889684
  58.9649100  -3.2860825  77.3020159  46.6655988   9.2271048  70.9839176
  47.5031210   9.6368056  70.7672884  46.8434256   8.2870490  70.9539370
  58.5620420   6.8946129  66.6723009  58.0467043   7.6650733  66.9111396
  58.2897728   6.2211265  67.2956070  56.1467531   1.7395829  71.7308247
  55.2909127   1.3502680  71.5513886  56.5594483   1.8187790  70.8708033
  57.6766678  -0.7257827  76.1299807  57.1731473  -0.7627692  75.3167612
  57.9697284   0.1834915  76.1896464  53.9209563  -0.6419098  75.1365989
  54.7862560  -0.8376289  74.7771878  53.9887072  -0.8708746  76.0635345
  63.5354694   9.6478483  68.6076182  62.7584137   9.3089643  68.1631344
  64.2146175   9.6531107  67.9331147  58.3506723   4.7673221  68.4982790
  58.0456859   5.0819370  69.3492933  59.3037165   4.8454641  68.5410123
  56.7953155  10.9263444  70.1475744  56.2674517  10.1916204  69.8348981
  56.2940658  11.7038120  69.9015712  61.7746001   9.1212465  75.2642790
  61.1169675   9.8111726  75.3522919  62.5786400   9.5108897  75.6076777
  51.5271883   1.5883110  72.5082355  52.1015634   1.3658292  71.7755548
  52.1142865   1.6571805  73.2610957  60.5851460   7.4756837  73.3146732
  61.0983342   8.1086829  73.8168442  61.2352684   6.8758033  72.9490092
  51.8541470   3.6187571  66.5278241  51.0178782   3.9562258  66.8487515
  51.7146239   3.4836551  65.5905378  53.8294550  -1.5375641  71.2357425
  53.1758963  -1.8526624  70.6114040  53.7875024  -2.1599900  71.9617248
  54.9405755   8.7443654  63.1510717  54.0332817   8.5132908  63.3501866
  55.4376787   7.9481274  63.3384699  57.8473834  17.4541162  66.0707403
  57.1735533  17.7572858  66.6792361  58.2339656  18.2570242  65.7212860
  57.0632291   4.9506293  75.5605073  56.1454852   5.1721240  75.4026761
  57.4792434   5.0252603  74.7016780  57.8467338   6.3497709  70.6907753
  58.5939157   6.8619106  70.3814875  58.1158928   6.0281761  71.5512146
  56.1193989   8.8456249  67.6734707  55.2105208   8.5615282  67.7707177
  56.1489072   9.2655328  66.8138014  61.3513256  12.4562839  71.4425875
  60.8975583  11.6153749  71.4991065  60.7207223  13.0924237  71.7800655
  60.2946176   3.3854825  72.6726542  59.5568932   2.8732211  73.0036785
  60.5472949   2.9455206  71.8609819  59.7946195  14.2939335  72.3775693
  60.0869170  14.8544393  71.6588058  60.3044816  14.5867896  73.1328852
  46.6882159   6.5661763  71.6549909  46.4906559   5.9731124  70.9300976
  46.1328823   6.2613974  72.3725848  54.6678883   6.4584870  73.7744502
  54.7227492   5.5058706  73.6986979  53.8570085   6.6144309  74.2585801
  55.8170076  10.3864993  65.0122786  55.3789506   9.6700852  64.5528423
  56.5580517  10.6141108  64.4507877  52.6071243   5.0761930  71.5334881
  51.7939108   5.3756100  71.9400073  53.1030237   4.6817618  72.2509364
  54.7579820  15.0719687  73.4669146  54.7155999  15.2980533  72.5377678
  55.6742519  14.8383061  73.6154947  58.2045454   5.5403754  80.3649775
  58.5594842   5.7675227  81.2244241  58.8517585   5.8722131  79.7427030
  63.9343191   8.6622190  71.0699104  63.7961090   8.8523786  70.1420293
  63.5779410   9.4241573  71.5267155  52.0985317   2.6480285  77.1496116
  52.7384697   2.5069044  76.4519080  51.2662848   2.3614799  76.7734718
  63.9612571  10.7298717  76.0810376  64.3949077  10.6374006  76.9293430
  64.6744151  10.7056217  75.4430392  52.8745621  11.9482716  73.2631109
  53.6686220  11.4533036  73.0613684  52.1637314  11.4200579  72.8998814
  57.6940466  14.3300811  77.6143476  57.7477488  14.8991747  78.3821192
  56.8255247  14.5002696  77.2497513  49.1828385   6.0925797  69.3390861
  48.2525973   6.0310253  69.5560824  49.2785857   5.5701750  68.5427503
  49.1013934   2.6180610  71.9269103  49.3620751   3.5325943  71.8178263
  49.9231106   2.1505053  72.0765716  50.5738859   4.0318367  79.0967928
  51.2461912   3.8235729  78.4480576  49.7468646   3.8340453  78.6573160
  64.8228120  10.7722418  78.6143261  65.0164010  11.6768228  78.8602536
  64.7228738  10.3129837  79.4481846  56.4764431   0.6580308  81.1133588
  55.8292346   1.3570258  81.0198065  57.2465446   1.0916452  81.4809837
  59.8843229  10.9229160  84.1884142  59.7328735  10.6939712  83.2714225
  59.8747908  11.8799762  84.2015487  56.6528565   8.4961073  79.1730408
  57.5820625   8.6472233  78.9999375  56.2319595   8.5845094  78.3179055
  55.4516897  12.5211738  76.9428946  55.3127983  12.1530522  77.8154884
  54.6631493  13.0359377  76.7712904  56.0465049  17.6220834  68.2854482
  56.2216805  17.1508877  69.1000105  55.3597837  18.2486600  68.5135743
  57.0022112  11.8993340  74.3317784  56.6671945  11.8594110  75.2275433
  56.5026058  11.2338056  73.8588194  50.9766356   7.3060970  79.8570365
  50.8386154   6.5741209  80.4581904  51.8871280   7.2169870  79.5754552
  59.9381304   9.2449375  64.6054843  59.3210475   8.5196203  64.5087896
  59.4697792  10.0058735  64.2621917  53.6048657   7.0180930  79.3454044
  54.3148275   6.3774122  79.3040663  53.5617965   7.2693824  80.2680225
  61.5935436  13.9548283  82.2660624  61.5347982  13.2707503  81.5991207
  61.9954954  14.6967273  81.8141250  52.3177591   4.0046147  81.1649684
  51.7814948   3.5536886  81.8171280  51.7294299   4.1392056  80.4220148
  50.6126134  20.7710197  75.0594342  50.8522733  21.4028721  75.7373361
  49.7695331  20.4198237  75.3459702  51.7279850   3.4634799  63.7276147
  50.8509316   3.3423600  63.3638394  52.2037603   2.6720877  63.4755036
  61.5952843  11.9187867  80.4974603  60.7079622  11.5813789  80.6201002
  62.1651394  11.1870898  80.7343369  43.2481990   8.2511959  73.8217655
  43.9353030   7.9373689  73.2338670  43.0930119   9.1553323  73.5484906
  48.0516712   3.1402155  78.2502678  47.9674901   2.5327825  77.5153088
  47.2299419   3.6311173  78.2512175  55.1253996  16.5789319  77.4635846
  55.0524168  17.3844291  77.9755151  54.6831389  16.7781285  76.6383868
  54.9143776  15.8161089  70.9738668  54.1311298  16.3582769  71.0676893
  55.6136521  16.3335069  71.3732909  58.2240426   1.6255719  73.6172873
  58.7209126   0.8725681  73.2973944  57.4527408   1.6620035  73.0516083
  66.0770183   7.3296084  75.2591165  66.0660060   8.2120800  74.8885098
  65.2087563   6.9767635  75.0645702  57.5852680  16.4776153  79.6194005
  58.2980652  17.1123618  79.5469907  57.0942708  16.5740019  78.8034007
  59.3070207  10.3827406  71.1911297  58.3726485  10.5028868  71.0216001
  59.4846875   9.4799873  70.9271307  54.8075395   3.7673102  73.3444558
  54.4373182   3.2144142  74.0325464  55.3034487   3.1631235  72.7919558
  62.6942758   6.2244725  71.7261331  63.1603210   7.0572717  71.6521634
  63.1450259   5.7589707  72.4306589  52.6364593  14.2270597  80.4399576
  53.3374053  14.8607080  80.5928970  52.1659708  14.5685328  79.6795215
  60.7618989  12.5688546  68.7247483  61.0378833  12.4545141  69.6341357
  59.8923488  12.1706031  68.6859656  60.6659421  -1.4074688  75.7652232
  59.7522501  -1.1770461  75.9334439  61.0952522  -1.3236244  76.6166265
  60.4365879   6.7815204  78.2652126  59.7837330   7.0291112  77.6104579
  60.8146259   5.9679342  77.9314604  57.3973053  16.8174897  72.3680297
  57.5795448  15.9996553  72.8308049  58.2206039  17.0342590  71.9305187
  57.7315219  15.7443082  69.6295345  58.2602985  15.2335537  69.0165507
  57.9943438  15.4285613  70.4940878  56.4853452   7.5235015  84.7518163
  55.8094089   7.4229145  85.4220539  57.3081086   7.3674229  85.2154161
  48.2332311  13.7606952  77.3730679  48.8185748  13.0150640  77.5058583
  48.0357150  14.0710908  78.2567343  51.0870967  16.7958199  72.3893121
  50.4181342  17.2804327  71.9057161  50.9483836  17.0427420  73.3036500
  42.8249966   6.3312552  76.0935122  42.8634066   5.7976143  76.8872240
  42.3190259   5.8047757  75.4746099  55.2276235  18.8301943  78.9875779
  55.7794543  18.9933564  79.7524865  55.5682429  19.4206380  78.3155804
  50.2040728   1.1777092  79.5897664  50.2682055   2.0391923  79.1775062
  50.1407849   0.5651094  78.8570023  49.6793001   3.2500225  83.2370698
  50.3065040   2.8677302  83.8508223  48.8220920   3.0314427  83.6026391
  60.0787110  13.6563200  84.8424434  60.6227014  14.2693158  84.3479389
  59.4973954  14.2142779  85.3591447  46.4558544   5.0576654  69.1689053
  46.7511985   4.1487333  69.1156107  45.5546580   5.0364394  68.8470056
  58.3644623  16.7783918  75.9739462  58.2395762  15.9773658  75.4650407
  59.0223714  17.2730112  75.4853431  49.9852791   3.1332651  75.1516602
  49.2639377   3.7468618  75.0124075  50.7746047   3.6690416  75.0733248
  60.4279531  14.5792938  77.6019012  59.4809866  14.4598289  77.5297338
  60.7762304  13.6915436  77.6845273  52.7879104   0.4687077  81.4257254
  53.3113506   0.7149374  82.1883563  52.5691438   1.3007112  81.0060391
  48.1846385   2.7390752  69.2928378  47.8559091   1.8588131  69.1103484
  48.5385756   2.6838420  70.1804768  57.4325964  14.3745654  73.8023364
  57.2850927  13.4462362  73.9830934  58.2579458  14.3965745  73.3180439
  51.2988208   3.0263722  69.6603856  51.6384281   3.5549643  68.9382464
  51.7460329   3.3644128  70.4362423  61.0360086  15.1974213  74.8888237
  61.9606634  14.9917075  74.7512688  60.8675389  14.9490614  75.7977578
  53.9931649   1.4100772  79.1106924  53.6528470   0.6108585  79.5127604
  53.2870656   1.7102483  78.5383757  54.6448121  -1.5049915  77.5634247
  55.4674190  -1.9789437  77.4413137  54.8886185  -0.7259432  78.0632933
  53.2856356   1.5238343  67.8597149  54.0064718   1.9019596  67.3560866
  52.6621660   2.2427220  67.9632127  57.4287479   2.2283492  68.7955481
  57.6451093   3.1108130  68.4944309  56.9481546   1.8369706  68.0661123
  52.1686700   5.1869205  75.3726226  52.0231281   5.5009508  76.2650507
  51.6911904   5.8054106  74.8197124  54.0283083   2.1771753  75.4207115
  54.0144652   1.2812847  75.0839413  54.7455511   2.1842417  76.0545401
  55.8809213   2.6109094  77.4660243  55.6226991   3.5326164  77.4644573
  55.3494254   2.2139528  78.1560707  60.8255402  15.7159881  70.2450328
  60.9992280  15.1506303  69.4924181  61.3184293  16.5160776  70.0629818
  46.6432362   7.7274550  78.3113887  46.0985830   8.5034358  78.4434161
  47.5211712   8.0745354  78.1533008  53.4319979   1.0586134  70.6894685
  53.5535890   0.1302780  70.8885573  53.1422021   1.0724820  69.7773001
  56.3011169  -1.2558956  73.8261405  56.3232866  -1.1919623  72.8713385
  56.7179228  -2.0954447  74.0201911  66.6794793   8.4796304  71.8640628
  67.1225939   7.7303629  71.4659751  65.8021304   8.4706440  71.4814360
  61.8130575  15.0326645  67.3447226  62.5081479  15.6533338  67.5634541
  62.1553725  14.1821996  67.6199604  47.4298384   6.8544446  81.2044044
  46.6880120   7.0027081  81.7908674  47.1091128   7.1152712  80.3410793
  63.7121998  12.4826351  68.8734557  64.2373322  12.8213623  68.1483877
  63.6244350  11.5473366  68.6897692  55.3742047  16.3960424  81.0024434
  55.6829173  16.1509571  81.8747133  56.1717529  16.6007063  80.5143304
  55.3962659  18.5498334  73.2329810  54.9567649  18.0574713  73.9262667
  56.1470776  18.0071302  72.9921886  47.8754998  14.7409875  73.2354438
  48.7013018  14.4413647  72.8553082  47.5249050  13.9717497  73.6844227
  52.8436531  14.0936343  75.3052112  52.2216540  13.4307048  75.0054340
  53.5141398  14.1197475  74.6225760  46.0763603  12.6596201  74.1943372
  45.2395511  12.2318376  74.0127373  46.0487248  12.8528645  75.1314163
  52.9161058   2.5718131  84.8984618  52.9649214   3.4480254  84.5162388
  53.4583572   2.0295524  84.3256261  63.4015904  13.1159254  84.1785755
  62.6111448  13.0983393  83.6390254  63.1649258  13.6547548  84.9334792
  63.5213779   9.9651721  81.4918484  63.5711784   9.8001728  82.4334006
  63.4127702   9.0978980  81.1016364  52.4050038  12.6440266  68.7810573
  52.5538158  13.3275731  68.1277245  53.2116481  12.6245356  69.2960028
  60.8117541   5.9482649  82.8077790  61.7127404   5.8089113  82.5161788
  60.8865516   6.1137103  83.7475968  55.1460347   3.3249503  81.6530977
  54.2763656   3.6183069  81.3813565  55.3819827   3.9089948  82.3738240
  65.0231976  12.3848662  81.7360505  64.7316784  12.7478643  82.5723966
  64.4104107  11.6715670  81.5573837  66.2227658   9.9501542  74.2563075
  67.0574550  10.3891346  74.4200636  66.3586787   9.4740195  73.4371321
  63.2719164   7.5081277  80.2040563  63.7473286   7.7008923  79.3959415
  62.3484729   7.5640463  79.9583947  50.1602671   8.6705444  69.7871641
  49.9148713   7.7667774  69.9851852  50.3298585   8.6722594  68.8451119
  57.8499381  -0.4570880  79.1696397  58.3681324   0.2790147  78.8442886
  57.4954513  -0.1506886  80.0043156  49.4298318   4.4033802  67.2857803
  48.7367563   4.4778157  66.6297839  49.1850070   3.6394145  67.8079320
  55.9045443  15.1388397  66.2522320  55.3319410  15.7578584  65.7992792
  56.4778237  15.6887758  66.7862242  61.9720833   4.3847037  78.4368869
  62.9238256   4.4845135  78.4581093  61.8024283   3.5925305  78.9466953
  59.9935213   1.4702620  78.6228270  59.3985145   1.7507633  77.9274758
  59.7084909   1.9596521  79.3945011  59.1242703  15.4225547  67.3830902
  60.0573376  15.3571109  67.5863778  59.0365916  16.2581814  66.9245435
  61.7530720  14.7391417  64.3434850  61.6744351  14.4051281  65.2370608
  62.5740386  15.2313185  64.3426322  64.4508911   7.6053157  77.5511168
  64.4185231   6.6669157  77.7370852  65.0609534   7.6837193  76.8176993
  56.2892242   6.4749210  63.5938372  57.2351346   6.3455418  63.6626790
  55.9106487   5.7363871  64.0707801  64.6003399   4.3964200  77.5969452
  64.0842448   3.6122657  77.4099380  65.4843348   4.0682917  77.7615971
  62.2614126  -1.8594784  73.5565264  62.0638947  -2.1679696  74.4408596
  62.8713832  -1.1333146  73.6863194  70.2685461   8.6669163  76.6917205
  70.9988849   8.4054452  77.2524909  69.6592406   7.9297885  76.7319273
  68.3500758   6.8077026  77.2891656  67.6233921   6.6732991  76.6808148
  67.9348045   7.1153855  78.0948374  56.1730934  10.5266956  85.0539029
  57.0933944  10.7045555  85.2479076  56.1380517   9.5823001  84.9018729
  54.4735159   4.3999186  63.5293258  53.5666614   4.1032299  63.6055971
  54.7511140   4.1029004  62.6627544  45.3913099   5.7205549  73.9792304
  45.0715884   4.8670858  73.6866678  44.8446527   5.9354127  74.7350271
  49.1693007   8.4367990  77.6961811  49.3879017   9.3685098  77.7149844
  49.5818781   8.0775965  78.4816614  56.0897225  -1.0563924  69.6837499
  55.2797953  -1.4016839  70.0592745  56.7781642  -1.3656381  70.2725111
  58.0187773  -1.9785878  71.3061796  58.5718811  -1.5590424  71.9651819
  58.2557859  -2.9050129  71.3484752  54.0420872   4.0101196  87.0864559
  53.9417599   4.9595553  87.0176651  53.8242414   3.6819435  86.2140630
  53.2433943   1.2586121  63.6705237  54.1053107   1.5841019  63.9301054
  53.4284288   0.4717617  63.1578303  45.2601359   9.3408461  75.9485426
  44.5664831   8.9262414  75.4355380  46.0074350   9.3828997  75.3518845
  61.3966580   0.1314648  70.8140460  60.8165249   0.7899452  70.4318512
  61.1302513  -0.6908008  70.4027877  59.8470146  -0.4680295  73.0161780
  60.3469925  -0.3563760  72.2076099  60.4905754  -0.7719242  73.6562589
  53.9052142   7.4398335  85.9029621  53.4219224   8.2398695  86.1093510
  53.9913081   7.4506280  84.9497065  47.1738102   9.2726715  73.8251441
  47.1508790   9.3714402  72.8733324  47.4838738  10.1191865  74.1468607
  49.8325480  11.3302870  77.9398055  50.7868733  11.2986812  77.8727986
  49.6338003  10.8693493  78.7548281  50.4224862   9.9003986  80.5068853
  51.2417751  10.3948064  80.5303690  50.6961669   8.9835954  80.4786420
  60.1791458   2.2914738  69.8696808  59.2917313   2.5764389  69.6517003
  60.5945447   2.1308501  69.0224085  63.5305994   2.3161259  73.5851147
  64.3066384   2.8057711  73.8575764  62.8054128   2.7419313  74.0423017
  65.9678553   3.0288878  74.6425088  66.5623044   2.7884614  73.9318396
  66.0405136   2.3096009  75.2698624  48.1875708  16.8722489  74.9568253
  48.0530176  16.1122890  74.3906251  47.7707771  17.5963389  74.4897042
  59.3234671  12.0559413  63.9644828  60.0270522  12.2609415  64.5802484
  58.5997320  12.6236175  64.2293912  60.1532482   7.8069274  70.0847098
  60.0967683   8.2637825  69.2454731  60.7060824   7.0459958  69.9069941
  63.9637288   3.5959006  70.9097218  63.7074222   3.1955641  71.7405425
  63.3390156   4.3102800  70.7847357  68.2749625   6.3355079  73.4168509
  67.7149183   6.4048268  74.1900071  67.6693129   6.1596064  72.6968005
  51.3444834  17.7691806  75.1686695  51.2277218  18.7137239  75.0665386
  50.5237281  17.4665368  75.5572495  61.2321369  12.4941942  66.0143288
  62.0666973  12.0623140  65.8320763  61.0705712  12.3223956  66.9420183
  60.8867261   8.9974055  67.3799627  60.8316065   8.8318327  66.4388072
  60.2613316   9.7050088  67.5361817  45.6759776   4.2342120  81.2061050
  46.3218640   3.7241073  81.6948275  45.4676927   4.9710801  81.7804475
  58.2013168  11.3022967  86.7053190  59.0704328  11.4763619  86.3439825
  57.7219920  12.1217384  86.5828920  54.1963386  -1.5017836  66.9584946
  54.1842056  -0.5575996  67.1153217  55.0886808  -1.6847690  66.6644407
  52.3699348  18.4220068  78.3842624  53.2726595  18.4543678  78.7009119
  52.1436718  17.4920519  78.3988960  54.1252950  17.1751055  75.0452702
  53.1748581  17.1752916  74.9317075  54.4285437  16.4283789  74.5288737
  50.0157267   1.3809737  85.3036064  50.8788729   1.0246541  85.5139388
  49.4422678   1.0423631  85.9911468  69.8605644  23.0111593  76.1098465
  70.4984054  22.8918340  75.4061805  69.7426487  23.9592437  76.1686417
  66.6695350  22.9639021  76.0459990  66.3313862  22.8480086  75.1580524
  67.5385118  22.5630186  76.0260996  62.5282166  24.8174497  72.0356881
  61.9647031  24.7264434  71.2673168  62.4134561  23.9974402  72.5159373
  67.1515133  24.1173873  82.0046195  67.1403774  23.7226671  81.1326699
  67.3135773  23.3839945  82.5979967  60.0746598  26.3125689  74.8741101
  60.8667890  25.9716514  74.4587400  60.3143248  26.4220664  75.7943254
  62.0337352  25.5734602  67.7458480  62.8068228  25.0263589  67.6071356
  62.3862751  26.4378852  67.9572941  63.8722394  26.9010985  80.9525379
  63.5812260  27.8056615  80.8372045  64.5079379  26.9427512  81.6669449
  64.7978601  24.2787833  77.5426739  65.3942173  24.0543855  76.8283702
  64.8553573  23.5372579  78.1452187  64.3703630  21.7327268  65.3776930
  64.6229150  21.2108790  64.6160393  63.4328189  21.5693414  65.4803613
  69.4146912  20.7363047  73.1851673  70.2010002  20.3182470  72.8342090
  69.6785617  21.6409139  73.3533321  69.5856990  26.1735897  67.8840330
  68.9502823  26.2470524  68.5961234  69.2554396  26.7629496  67.2059409
  74.8155340  20.6738280  74.0884651  75.5480511  20.1037497  74.3222481
  74.0594695  20.2859880  74.5291157  64.0899918  23.6355374  67.5801305
  63.9736176  22.9600278  68.2482389  64.2002178  23.1487748  66.7633458
  66.4331459  23.0965521  71.2847994  66.0689666  22.5696142  71.9960915
  67.2898575  22.7063991  71.1114479  72.3380760  14.3859854  78.5479260
  72.0064085  15.2555265  78.3240475  71.7426373  14.0696138  79.2273290
  66.0736946  18.1255421  66.2809342  66.2411349  18.9935658  66.6479813
  65.8834115  18.2882703  65.3570632  68.8312279  26.5872400  77.9475173
  68.5313003  27.4897439  77.8390980  68.4863339  26.3204583  78.7996326
  62.2824761  23.0386197  73.9811877  61.3575257  22.9062411  74.1889569
  62.5309174  23.8180416  74.4781820  72.2309423  19.1054940  75.6272610
  71.3226301  19.0370349  75.3331371  72.1797019  19.5826885  76.4554436
  66.0526167  20.5813079  67.2656009  65.9325792  21.0270129  68.1041490
  65.3578756  20.9298396  66.7069547  59.6433572  22.6819470  74.8155666
  59.7725953  22.9353949  75.7295078  58.9631023  23.2747178  74.4960321
  66.3050289  20.5244586  83.5707507  65.5283623  21.0838506  83.5610372
  66.9440852  21.0101369  84.0922377  74.0971070  17.3071379  77.4050484
  73.4545450  17.6003912  76.7590279  73.5925998  17.1924299  78.2103681
  71.7511233  21.0534552  68.0936343  72.6629089  21.2861939  67.9184041
  71.2420880  21.6371596  67.5311422  64.5596661  23.3330039  83.1325474
  65.3011346  23.8715083  82.8560298  63.8533647  23.9596328  83.2897026
  70.0352001  25.4759180  81.7297636  70.4435357  25.0341590  80.9852268
  69.3129262  24.9011807  81.9831829  66.3883071  20.4131786  79.1031193
  67.2344266  20.8371200  79.2465842  66.3281709  19.7565411  79.7969756
  70.3580816  26.0360370  75.4849925  69.7289678  26.2006084  74.7825993
  69.9706478  26.4501980  76.2560889  74.2370047  26.9714808  72.8394288
  73.5521086  27.3513710  72.2891322  74.3213897  27.5810135  73.5726236
  69.5382516  18.0736155  80.7612366  69.2943448  18.8278215  80.2246642
  69.8142447  18.4521502  81.5959614  71.4920979  24.6174767  79.4389632
  71.7037874  25.2606527  78.7624013  71.4450727  23.7837084  78.9711562
  69.0947208  17.2292588  76.3426204  68.2331687  17.5273841  76.6342942
  69.1209643  17.4462987  75.4107237  65.9108777  25.7734778  72.7500010
  66.3747123  26.0522481  71.9604632  65.6465576  24.8718223  72.5673101
  62.8032859  25.3206260  75.6879773  63.3734216  25.7493528  75.0497258
  63.3940970  25.0388845  76.3863959  64.8477664  21.8957931  69.5589575
  65.5501707  22.3478974  70.0263501  64.5158292  21.2541750  70.1869468
  63.2958025  20.4869687  83.9340784  62.6656686  21.1685968  84.1676181
  63.1894113  20.3752769  82.9893923  58.5902997  20.1541483  74.8606709
  57.8002051  20.4099012  74.3846819  59.0814245  20.9689821  74.9658749
  72.6066807  27.4946723  77.6111989  73.4284251  27.0926910  77.3294671
  72.6029210  27.3914957  78.5628105  60.5417743  20.5186063  71.8190185
  59.7448906  20.6304757  72.3373681  60.3143335  20.8572715  70.9531076
  66.3723410  27.0430766  79.7672700  66.4367843  27.5051173  80.6030872
  65.6634334  26.4128131  79.8955010  56.8740700  20.4071974  77.2921699
  57.1248739  21.2918984  77.5579275  57.4100249  20.2276575  76.5196791
  80.6972800  23.8385471  73.9596961  79.9436508  23.2692869  73.8040965
  80.8320341  23.8048136  74.9067596  62.5738768  14.7890453  86.2966035
  62.1805713  14.2356652  86.9713680  63.3904908  15.1001032  86.6872553
  59.5400826  26.2274311  70.2079605  60.0525346  27.0217562  70.3585170
  60.1923538  25.5300602  70.1413207  61.3495710  29.3440068  72.2902358
  61.5262339  30.2658032  72.1023342  62.1452544  29.0298487  72.7196738
  65.4906729  16.2048332  83.8886292  66.2316442  16.8055485  83.8090754
  65.7224652  15.4625970  83.3304335  60.6348067  21.3904700  82.1664522
  60.5201582  20.4889957  82.4671621  59.7792585  21.6368396  81.8149338
  67.7139905  29.3322440  83.7652022  67.2703759  28.5458818  83.4472927
  68.3757118  29.5201590  83.0995913  62.4727026  30.8618241  78.2912701
  63.0234451  30.7335305  77.5189695  61.6338502  31.1613131  77.9407594
  69.8121143  29.6125240  81.7933424  69.7939618  30.4334121  81.3013693
  70.7341063  29.4879315  82.0183565  66.2694197  27.1269369  82.6356932
  66.8022534  26.3657657  82.4056240  65.7408278  26.8343021  83.3781086
  69.4363892  12.2329435  78.1650574  69.0928161  13.1231077  78.0889684
  69.8042854  12.0431093  77.3020159  57.5049742  24.5562966  70.9839176
  58.3424964  24.9659974  70.7672884  57.6828010  23.6162408  70.9539370
  69.4014174  22.2238046  66.6723009  68.8860798  22.9942651  66.9111396
  69.1291483  21.5503183  67.2956070  66.9861285  17.0687747  71.7308247
  66.1302882  16.6794598  71.5513886  67.3988237  17.1479708  70.8708033
  68.5160432  14.6034090  76.1299807  68.0125228  14.5664226  75.3167612
  68.8091039  15.5126833  76.1896464  64.7603318  14.6872820  75.1365989
  65.6256315  14.4915629  74.7771878  64.8280827  14.4583172  76.0635345
  74.3748449  24.9770401  68.6076182  73.5977891  24.6381561  68.1631344
  75.0539930  24.9823024  67.9331147  69.1900478  20.0965138  68.4982790
  68.8850613  20.4111288  69.3492933  70.1430920  20.1746558  68.5410123
  67.6346909  26.2555362  70.1475744  67.1068271  25.5208121  69.8348981
  67.1334412  27.0330038  69.9015712  72.6139755  24.4504382  75.2642790
  71.9563430  25.1403644  75.3522919  73.4180155  24.8400814  75.6076777
  62.3665637  16.9175028  72.5082355  62.9409389  16.6950210  71.7755548
  62.9536619  16.9863723  73.2610957  71.4245214  22.8048755  73.3146732
  71.9377096  23.4378747  73.8168442  72.0746438  22.2049950  72.9490092
  62.6935224  18.9479489  66.5278241  61.8572536  19.2854176  66.8487515
  62.5539994  18.8128469  65.5905378  64.6688305  13.7916277  71.2357425
  64.0152717  13.4765294  70.6114040  64.6268779  13.1692017  71.9617248
  65.7799510  24.0735572  63.1510717  64.8726571  23.8424826  63.3501866
  66.2770542  23.2773191  63.3384699  67.9026045  20.2798211  75.5605073
  66.9848607  20.5013158  75.4026761  68.3186189  20.3544521  74.7016780
  68.6861093  21.6789626  70.6907753  69.4332912  22.1911023  70.3814875
  68.9552682  21.3573679  71.5512146  66.9587743  24.1748167  67.6734707
  66.0498962  23.8907200  67.7707177  66.9882827  24.5947245  66.8138014
  72.1907010  27.7854756  71.4425875  71.7369338  26.9445666  71.4991065
  71.5600977  28.4216155  71.7800655  71.1339930  18.7146742  72.6726542
  70.3962687  18.2024129  73.0036785  71.3866704  18.2747124  71.8609819
  70.6339950  29.6231253  72.3775693  70.9262924  30.1836310  71.6588058
  71.1438570  29.9159814  73.1328852  71.2351557  11.4922994  73.2668311
  71.5410434  10.6320358  72.9794226  71.9604162  12.0840615  73.0667305
  57.5275913  21.8953681  71.6549909  57.3300313  21.3023042  70.9300976
  56.9722577  21.5905891  72.3725848  65.5072637  21.7876788  73.7744502
  65.5621247  20.8350624  73.6986979  64.6963839  21.9436227  74.2585801
  66.6563831  25.7156911  65.0122786  66.2183261  24.9992770  64.5528423
  67.3974272  25.9433025  64.4507877  63.4464997  20.4053847  71.5334881
  62.6332863  20.7048018  71.9400073  63.9423991  20.0109536  72.2509364
  65.5973575  30.4011604  73.4669146  65.5549754  30.6272451  72.5377678
  66.5136274  30.1674979  73.6154947  69.0439209  20.8695672  80.3649775
  69.3988596  21.0967145  81.2244241  69.6911340  21.2014049  79.7427030
  74.7736946  23.9914108  71.0699104  74.6354844  24.1815704  70.1420293
  74.4173164  24.7533490  71.5267155  62.9379072  17.9772203  77.1496116
  63.5778451  17.8360962  76.4519080  62.1056602  17.6906716  76.7734718
  74.8006325  26.0590635  76.0810376  75.2342832  25.9665924  76.9293430
  75.5137906  26.0348135  75.4430392  63.7139376  27.2774633  73.2631109
  64.5079974  26.7824953  73.0613684  63.0031068  26.7492496  72.8998814
  68.5334220  29.6592729  77.6143476  68.5871242  30.2283665  78.3821192
  67.6649002  29.8294614  77.2497513  60.0222139  21.4217715  69.3390861
  59.0919727  21.3602170  69.5560824  60.1179611  20.8993668  68.5427503
  59.9407688  17.9472528  71.9269103  60.2014506  18.8617861  71.8178263
  60.7624861  17.4796970  72.0765716  61.4132614  19.3610285  79.0967928
  62.0855667  19.1527647  78.4480576  60.5862400  19.1632371  78.6573160
  75.6621875  26.1014335  78.6143261  75.8557765  27.0060146  78.8602536
  75.5622493  25.6421754  79.4481846  67.3158186  15.9872226  81.1133588
  66.6686101  16.6862176  81.0198065  68.0859201  16.4208370  81.4809837
  70.7236983  26.2521078  84.1884142  70.5722490  26.0231630  83.2714225
  70.7141663  27.2091679  84.2015487  67.4922320  23.8252991  79.1730408
  68.4214380  23.9764150  78.9999375  67.0713350  23.9137012  78.3179055
  66.2910652  27.8503655  76.9428946  66.1521737  27.4822440  77.8154884
  65.5025248  28.3651295  76.7712904  67.8415867  27.2285258  74.3317784
  67.5065699  27.1886028  75.2275433  67.3419813  26.5629974  73.8588194
  61.8160111  22.6352888  79.8570365  61.6779909  21.9033127  80.4581904
  62.7265034  22.5461788  79.5754552  70.7775058  24.5741292  64.6054843
  70.1604229  23.8488120  64.5087896  70.3091547  25.3350653  64.2621917
  64.4442411  22.3472847  79.3454044  65.1542030  21.7066039  79.3040663
  64.4011720  22.5985742  80.2680225  72.4329190  29.2840201  82.2660624
  72.3741736  28.5999421  81.5991207  72.8348709  30.0259191  81.8141250
  63.1571345  19.3338065  81.1649684  62.6208702  18.8828804  81.8171280
  62.5688054  19.4683974  80.4220148  61.4519889  36.1002114  75.0594342
  61.6916487  36.7320639  75.7373361  60.6089085  35.7490154  75.3459702
  62.5673604  18.7926717  63.7276147  61.6903071  18.6715517  63.3638394
  63.0431357  18.0012795  63.4755036  72.4346597  27.2479785  80.4974603
  71.5473376  26.9105706  80.6201002  73.0045148  26.5162816  80.7343369
  54.0875745  23.5803876  73.8217655  54.7746784  23.2665606  73.2338670
  53.9323873  24.4845241  73.5484906  58.8910467  18.4694073  78.2502678
  58.8068655  17.8619742  77.5153088  58.0693173  18.9603091  78.2512175
  65.9647751  31.9081237  77.4635846  65.8917922  32.7136208  77.9755151
  65.5225144  32.1073203  76.6383868  65.7537530  31.1453007  70.9738668
  64.9705052  31.6874687  71.0676893  66.4530276  31.6626987  71.3732909
  69.0634181  16.9547636  73.6172873  69.5602880  16.2017599  73.2973944
  68.2921162  16.9911953  73.0516083  76.9163938  22.6588002  75.2591165
  76.9053814  23.5412717  74.8885098  76.0481317  22.3059553  75.0645702
  68.4246434  31.8068071  79.6194005  69.1374407  32.4415536  79.5469907
  67.9336463  31.9031937  78.8034007  70.1463961  25.7119324  71.1911297
  69.2120240  25.8320786  71.0216001  70.3240630  24.8091790  70.9271307
  65.6469149  19.0965019  73.3444558  65.2766937  18.5436060  74.0325464
  66.1428242  18.4923153  72.7919558  73.5336513  21.5536643  71.7261331
  73.9996965  22.3864634  71.6521634  73.9844013  21.0881624  72.4306589
  63.4758348  29.5562514  80.4399576  64.1767807  30.1898997  80.5928970
  63.0053463  29.8977246  79.6795215  71.5053175  13.9217230  75.7652232
  70.5916255  14.1521457  75.9334439  71.9346277  14.0055674  76.6166265
  71.2759634  22.1107122  78.2652126  70.6231084  22.3583029  77.6104579
  71.6540014  21.2971260  77.9314604  67.3247207  22.8526933  84.7518163
  66.6487844  22.7521062  85.4220539  68.1474841  22.6966147  85.2154161
  59.0726066  29.0898869  77.3730679  59.6579503  28.3442557  77.5058583
  58.8750904  29.4002826  78.2567343  61.9264721  32.1250117  72.3893121
  61.2575096  32.6096244  71.9057161  61.7877591  32.3719337  73.3036500
  53.6643721  21.6604470  76.0935122  53.7027820  21.1268060  76.8872240
  53.1584013  21.1339675  75.4746099  66.0669990  34.1593860  78.9875779
  66.6188298  34.3225482  79.7524865  66.4076183  34.7498298  78.3155804
  61.0434483  16.5069010  79.5897664  61.1075809  17.3683841  79.1775062
  60.9801603  15.8943012  78.8570023  60.5186755  18.5792143  83.2370698
  61.1458794  18.1969220  83.8508223  59.6614674  18.3606345  83.6026391
  70.9180864  28.9855118  84.8424434  71.4620768  29.5985076  84.3479389
  70.3367709  29.5434696  85.3591447  57.2952298  20.3868572  69.1689053
  57.5905739  19.4779250  69.1156107  56.3940334  20.3656311  68.8470056
  69.2038377  32.1075836  75.9739462  69.0789516  31.3065576  75.4650407
  69.8617468  32.6022029  75.4853431  60.8246545  18.4624568  75.1516602
  60.1033131  19.0760536  75.0124075  61.6139801  18.9982333  75.0733248
  71.2673285  29.9084856  77.6019012  70.3203621  29.7890207  77.5297338
  71.6156059  29.0207354  77.6845273  63.6272859  15.7978995  81.4257254
  64.1507261  16.0441291  82.1883563  63.4085192  16.6299030  81.0060391
  59.0240140  18.0682669  69.2928378  58.6952846  17.1880048  69.1103484
  59.3779511  18.0130338  70.1804768  68.2719719  29.7037572  73.8023364
  68.1244681  28.7754280  73.9830934  69.0973212  29.7257663  73.3180439
  62.1381963  18.3555639  69.6603856  62.4778035  18.8841560  68.9382464
  62.5854083  18.6936045  70.4362423  71.8753841  30.5266131  74.8888237
  72.8000388  30.3208992  74.7512688  71.7069144  30.2782532  75.7977578
  64.8325404  16.7392690  79.1106924  64.4922224  15.9400503  79.5127604
  64.1264410  17.0394401  78.5383757  65.4841876  13.8242002  77.5634247
  66.3067945  13.3502481  77.4413137  65.7279939  14.6032486  78.0632933
  64.1250110  16.8530261  67.8597149  64.8458473  17.2311514  67.3560866
  63.5015414  17.5719138  67.9632127  68.2681233  17.5575410  68.7955481
  68.4844847  18.4400048  68.4944309  67.7875300  17.1661623  68.0661123
  63.0080454  20.5161123  75.3726226  62.8625035  20.8301426  76.2650507
  62.5305658  21.1346023  74.8197124  64.8676837  17.5063671  75.4207115
  64.8538406  16.6104764  75.0839413  65.5849265  17.5134335  76.0545401
  66.7202968  17.9401011  77.4660243  66.4620746  18.8618082  77.4644573
  66.1888008  17.5431446  78.1560707  57.4826117  23.0566467  78.3113887
  56.9379585  23.8326275  78.4434161  58.3605466  23.4037272  78.1533008
  64.2713733  16.3878051  70.6894685  64.3929644  15.4594697  70.8885573
  63.9815776  16.4016737  69.7773001  67.1404924  14.0732962  73.8261405
  67.1626620  14.1372295  72.8713385  67.5572983  13.2337470  74.0201911
  77.5188548  23.8088221  71.8640628  77.9619694  23.0595546  71.4659751
  76.6415058  23.7998358  71.4814360  58.2692138  22.1836364  81.2044044
  57.5273874  22.3318999  81.7908674  57.9484883  22.4444629  80.3410793
  74.5515752  27.8118268  68.8734557  75.0767076  28.1505541  68.1483877
  74.4638105  26.8765284  68.6897692  66.2135801  31.7252342  81.0024434
  66.5222927  31.4801489  81.8747133  67.0111283  31.9298980  80.5143304
  58.7148752  30.0701792  73.2354438  59.5406772  29.7705564  72.8553082
  58.3642804  29.3009415  73.6844227  63.6830285  29.4228261  75.3052112
  63.0610295  28.7598966  75.0054340  64.3535152  29.4489393  74.6225760
  56.9157357  27.9888119  74.1943372  56.0789265  27.5610293  74.0127373
  56.8881003  28.1820562  75.1314163  63.7554813  17.9010049  84.8984618
  63.8042968  18.7772171  84.5162388  64.2977327  17.3587442  84.3256261
  74.2409658  28.4451172  84.1785755  73.4505202  28.4275311  83.6390254
  74.0043013  28.9839466  84.9334792  74.3607533  25.2943638  81.4918484
  74.4105538  25.1293646  82.4334006  74.2521457  24.4270897  81.1016364
  63.2443792  27.9732184  68.7810573  63.3931913  28.6567648  68.1277245
  64.0510236  27.9537274  69.2960028  71.6511296  21.2774566  82.8077790
  72.5521159  21.1381031  82.5161788  71.7259270  21.4429021  83.7475968
  65.9854101  18.6541421  81.6530977  65.1157411  18.9474987  81.3813565
  66.2213582  19.2381866  82.3738240  75.8625730  27.7140580  81.7360505
  75.5710539  28.0770560  82.5723966  75.2497862  27.0007588  81.5573837
  77.0621413  25.2793460  74.2563075  77.8968304  25.7183264  74.4200636
  77.1980541  24.8032113  73.4371321  74.1112919  22.8373194  80.2040563
  74.5867040  23.0300841  79.3959415  73.1878484  22.8932380  79.9583947
  60.9996425  23.9997362  69.7871641  60.7542467  23.0959692  69.9851852
  61.1692340  24.0014512  68.8451119  68.6893135  14.8721038  79.1696397
  69.2075079  15.6082065  78.8442886  68.3348268  15.1785031  80.0043156
  60.2692073  19.7325719  67.2857803  59.5761318  19.8070074  66.6297839
  60.0243825  18.9686063  67.8079320  68.9405729  11.2921321  74.6897294
  69.2207483  10.6244510  75.3157720  69.7256336  11.4850416  74.1771957
  72.8114588  19.7138955  78.4368869  73.7632010  19.8137052  78.4581093
  72.6418038  18.9217223  78.9466953  70.8328967  16.7994538  78.6228270
  70.2378899  17.0799550  77.9274758  70.5478664  17.2888439  79.3945011
  75.2902665  22.9345074  77.5511168  75.2578985  21.9961075  77.7370852
  75.9003289  23.0129111  76.8176993  67.1285996  21.8041127  63.5938372
  68.0745101  21.6747335  63.6626790  66.7500241  21.0655789  64.0707801
  75.4397154  19.7256118  77.5969452  74.9236202  18.9414574  77.4099380
  76.3237102  19.3974834  77.7615971  73.1007881  13.4697133  73.5565264
  72.9032702  13.1612221  74.4408596  73.7107586  14.1958772  73.6863194
  81.1079215  23.9961081  76.6917205  81.8382604  23.7346369  77.2524909
  80.4986161  23.2589803  76.7319273  79.1894512  22.1368944  77.2891656
  78.4627676  22.0024909  76.6808148  78.7741799  22.4445772  78.0948374
  67.0124689  25.8558873  85.0539029  67.9327698  26.0337472  85.2479076
  66.9774272  24.9114919  84.9018729  65.3128913  19.7291104  63.5293258
  64.4060369  19.4324216  63.6055971  65.5904894  19.4320922  62.6627544
  56.2306854  21.0497467  73.9792304  55.9109638  20.1962775  73.6866678
  55.6840282  21.2646045  74.7350271  60.0086761  23.7659908  77.6961811
  60.2272771  24.6977016  77.7149844  60.4212535  23.4067882  78.4816614
  66.9290979  14.2727993  69.6837499  66.1191707  13.9275078  70.0592745
  67.6175396  13.9635537  70.2725111  68.8581527  13.3506040  71.3061796
  69.4112566  13.7701494  71.9651819  69.0951614  12.4241788  71.3484752
  64.8814627  19.3393114  87.0864559  64.7811353  20.2887471  87.0176651
  64.6636169  19.0111353  86.2140630  64.0827698  16.5878039  63.6705237
  64.9446862  16.9132937  63.9301054  64.2678042  15.8009535  63.1578303
  56.0995114  24.6700378  75.9485426  55.4058585  24.2554331  75.4355380
  56.8468105  24.7120915  75.3518845  72.2360334  15.4606565  70.8140460
  71.6559003  16.1191369  70.4318512  71.9696267  14.6383910  70.4027877
  70.6863901  14.8611623  73.0161780  71.1863679  14.9728157  72.2076099
  71.3299509  14.5572676  73.6562589  64.7445897  22.7690253  85.9029621
  64.2612978  23.5690613  86.1093510  64.8306836  22.7798197  84.9497065
  58.0131856  24.6018632  73.8251441  57.9902544  24.7006320  72.8733324
  58.3232493  25.4483783  74.1468607  60.6719234  26.6594787  77.9398055
  61.6262488  26.6278730  77.8727986  60.4731758  26.1985411  78.7548281
  61.2618616  25.2295903  80.5068853  62.0811505  25.7239982  80.5303690
  61.5355424  24.3127871  80.4786420  71.0185212  17.6206656  69.8696808
  70.1311067  17.9056306  69.6517003  71.4339202  17.4600419  69.0224085
  74.3699749  17.6453177  73.5851147  75.1460139  18.1349629  73.8575764
  73.6447883  18.0711231  74.0423017  76.8072307  18.3580796  74.6425088
  77.4016798  18.1176532  73.9318396  76.8798891  17.6387926  75.2698624
  59.0269463  32.2014407  74.9568253  58.8923931  31.4414808  74.3906251
  58.6101525  32.9255307  74.4897042  70.9926236  23.1361192  70.0847098
  70.9361438  23.5929743  69.2454731  71.5454579  22.3751876  69.9069941
  74.8031042  18.9250923  70.9097218  74.5467976  18.5247559  71.7405425
  74.1783910  19.6394717  70.7847357  79.1143380  21.6646997  73.4168509
  78.5542938  21.7340186  74.1900071  78.5086883  21.4887981  72.6968005
  62.1838589  33.0983724  75.1686695  62.0670973  34.0429156  75.0665386
  61.3631035  32.7957285  75.5572495  71.7261016  24.3265973  67.3799627
  71.6709819  24.1610244  66.4388072  71.1007071  25.0342006  67.5361817
  56.5153530  19.5634037  81.2061050  57.1612394  19.0532991  81.6948275
  56.3070682  20.3002719  81.7804475  69.0406923  26.6314885  86.7053190
  69.9098082  26.8055537  86.3439825  68.5613674  27.4509302  86.5828920
  65.0357141  13.8274082  66.9584946  65.0235811  14.7715922  67.1153217
  65.9280563  13.6444227  66.6644407  63.2093103  33.7511986  78.3842624
  64.1120350  33.7835596  78.7009119  62.9830473  32.8212437  78.3988960
  64.9646705  32.5042972  75.0452702  64.0142336  32.5044834  74.9317075
  65.2679191  31.7575707  74.5288737  68.8509260  10.4216858  71.2130883
  68.0841656   9.8675345  71.3587565  69.2619965  10.4938727  72.0745034
  60.8551021  16.7101654  85.3036064  61.7182483  16.3538459  85.5139388
  60.2816432  16.3715549  85.9911468  80.6999398  38.3403511  76.1098465
  81.3377808  38.2210258  75.4061805  80.5820241  39.2884355  76.1686417
  77.5089105  38.2930939  76.0459990  77.1707616  38.1772003  75.1580524
  78.3778873  37.8922104  76.0260996  73.3675920  40.1466415  72.0356881
  72.8040786  40.0556352  71.2673168  73.2528315  39.3266320  72.5159373
  77.9908888  39.4465790  82.0046195  77.9797528  39.0518589  81.1326699
  78.1529527  38.7131863  82.5979967  70.9140352  41.6417607  74.8741101
  71.7061644  41.3008431  74.4587400  71.1537002  41.7512582  75.7943254
  78.9475479  43.8137383  67.3471345  78.2963459  44.3991463  66.9605359
  79.7419842  44.3443578  67.4066383  74.7116149  42.2302902  80.9525379
  74.4206015  43.1348533  80.8372045  75.3473133  42.2719430  81.6669449
  75.6372356  39.6079751  77.5426739  76.2335928  39.3835773  76.8283702
  75.6947327  38.8664496  78.1452187  80.2540667  36.0654964  73.1851673
  81.0403756  35.6474388  72.8342090  80.5179371  36.9701057  73.3533321
  80.4250744  41.5027815  67.8840330  79.7896577  41.5762441  68.5961234
  80.0948151  42.0921414  67.2059409  85.6549094  36.0030198  74.0884651
  86.3874266  35.4329414  74.3222481  84.8988450  35.6151798  74.5291157
  77.2725214  38.4257439  71.2847994  76.9083421  37.8988060  71.9960915
  78.1292330  38.0355908  71.1114479  83.1774514  29.7151772  78.5479260
  82.8457839  30.5847183  78.3240475  82.5820128  29.3988056  79.2273290
  79.6706034  41.9164318  77.9475173  79.3706757  42.8189357  77.8390980
  79.3257093  41.6496501  78.7996326  73.1218515  38.3678115  73.9811877
  72.1969012  38.2354329  74.1889569  73.3702929  39.1472334  74.4781820
  83.0703178  34.4346858  75.6272610  82.1620055  34.3662266  75.3331371
  83.0190773  34.9118803  76.4554436  70.4827326  38.0111388  74.8155666
  70.6119708  38.2645867  75.7295078  69.8024778  38.6039096  74.4960321
  77.1444043  35.8536504  83.5707507  76.3677378  36.4130424  83.5610372
  77.7834607  36.3393287  84.0922377  84.9364824  32.6363296  77.4050484
  84.2939204  32.9295830  76.7590279  84.4319753  32.5216217  78.2103681
  75.3990416  38.6621957  83.1325474  76.1405100  39.2007001  82.8560298
  74.6927401  39.2888246  83.2897026  80.8745755  40.8051097  81.7297636
  81.2829111  40.3633508  80.9852268  80.1523017  40.2303725  81.9831829
  77.2276825  35.7423704  79.1031193  78.0738021  36.1663118  79.2465842
  77.1675463  35.0857328  79.7969756  81.1974570  41.3652288  75.4849925
  80.5683433  41.5298002  74.7825993  80.8100232  41.7793898  76.2560889
  85.0763802  42.3006726  72.8394288  84.3914840  42.6805627  72.2891322
  85.1607651  42.9102052  73.5726236  80.3776271  33.4028072  80.7612366
  80.1337203  34.1570133  80.2246642  80.6536201  33.7813420  81.5959614
  82.3314734  39.9466685  79.4389632  82.5431629  40.5898445  78.7624013
  82.2844482  39.1129001  78.9711562  79.9340963  32.5584506  76.3426204
  79.0725442  32.8565759  76.6342942  79.9603397  32.7754904  75.4107237
  76.7502532  41.1026696  72.7500010  77.2140877  41.3814399  71.9604632
  76.4859330  40.2010141  72.5673101  73.6426613  40.6498178  75.6879773
  74.2127970  41.0785446  75.0497258  74.2334725  40.3680762  76.3863959
  75.6871418  37.2249848  69.5589575  76.3895461  37.6770892  70.0263501
  75.3552047  36.5833667  70.1869468  74.1351780  35.8161605  83.9340784
  73.5050440  36.4977886  84.1676181  74.0287867  35.7044687  82.9893923
  69.4296752  35.4833401  74.8606709  68.6395806  35.7390930  74.3846819
  69.9207999  36.2981739  74.9658749  83.4460562  42.8238640  77.6111989
  84.2678005  42.4218828  77.3294671  83.4422964  42.7206874  78.5628105
  77.2117165  42.3722684  79.7672700  77.2761597  42.8343091  80.6030872
  76.5028089  41.7420049  79.8955010  67.7134455  35.7363892  77.2921699
  67.9642493  36.6210901  77.5579275  68.2494003  35.5568493  76.5196791
  91.5366555  39.1677389  73.9596961  90.7830263  38.5984787  73.8040965
  91.6714096  39.1340053  74.9067596  76.9265183  44.0390791  69.6351680
  76.7910857  44.8842327  70.0636528  77.4674995  44.2410069  68.8717614
  73.4132522  30.1182371  86.2966035  73.0199468  29.5648569  86.9713680
  74.2298663  30.4292949  86.6872553  72.1889465  44.6731985  72.2902358
  72.3656093  45.5949950  72.1023342  72.9846298  44.3590405  72.7196738
  76.3300483  31.5340250  83.8886292  77.0710197  32.1347403  83.8090754
  76.5618406  30.7917888  83.3304335  71.4741821  36.7196617  82.1664522
  71.3595336  35.8181875  82.4671621  70.6186339  36.9660314  81.8149338
  78.5533659  44.6614358  83.7652022  78.1097513  43.8750736  83.4472927
  79.2150873  44.8493508  83.0995913  73.3120780  46.1910159  78.2912701
  73.8628205  46.0627223  77.5189695  72.4732256  46.4905048  77.9407594
  80.6514897  44.9417158  81.7933424  80.6333372  45.7626039  81.3013693
  81.5734817  44.8171233  82.0183565  77.1087951  42.4561287  82.6356932
  77.6416288  41.6949575  82.4056240  76.5802032  42.1634939  83.3781086
  80.2757646  27.5621353  78.1650574  79.9321916  28.4522995  78.0889684
  80.6436609  27.3723011  77.3020159  77.8255040  32.3979665  71.7308247
  76.9696636  32.0086515  71.5513886  78.2381992  32.4771626  70.8708033
  79.3554187  29.9326008  76.1299807  78.8518982  29.8956143  75.3167612
  79.6484793  30.8418751  76.1896464  75.5997072  30.0164738  75.1365989
  76.4650069  29.8207547  74.7771878  75.6674581  29.7875090  76.0635345
  85.2142203  40.3062319  68.6076182  84.4371646  39.9673478  68.1631344
  85.8933684  40.3114942  67.9331147  78.4740664  41.5847279  70.1475744
  77.9462026  40.8500039  69.8348981  77.9728167  42.3621956  69.9015712
  83.4533510  39.7796300  75.2642790  82.7957184  40.4695561  75.3522919
  84.2573909  40.1692732  75.6076777  73.2059392  32.2466946  72.5082355
  73.7803143  32.0242127  71.7755548  73.7930374  32.3155640  73.2610957
  82.2638969  38.1340673  73.3146732  82.7770851  38.7670664  73.8168442
  82.9140193  37.5341868  72.9490092  75.5082059  29.1208195  71.2357425
  74.8546472  28.8057212  70.6114040  75.4662533  28.4983935  71.9617248
  78.7419800  35.6090128  75.5605073  77.8242361  35.8305075  75.4026761
  79.1579943  35.6836439  74.7016780  79.5254847  37.0081544  70.6907753
  80.2726666  37.5202941  70.3814875  79.7946437  36.6865597  71.5512146
  83.0300765  43.1146674  71.4425875  82.5763092  42.2737584  71.4991065
  82.3994732  43.7508072  71.7800655  81.9733685  34.0438660  72.6726542
  81.2356441  33.5316046  73.0036785  82.2260458  33.6039042  71.8609819
  81.4733704  44.9523171  72.3775693  81.7656679  45.5128228  71.6588058
  81.9832325  45.2451732  73.1328852  82.0745312  26.8214912  73.2668311
  82.3804189  25.9612276  72.9794226  82.7997917  27.4132532  73.0667305
  76.3466392  37.1168705  73.7744502  76.4015001  36.1642542  73.6986979
  75.5357594  37.2728144  74.2585801  74.2858752  35.7345765  71.5334881
  73.4726617  36.0339936  71.9400073  74.7817746  35.3401454  72.2509364
  76.4367329  45.7303522  73.4669146  76.3943508  45.9564368  72.5377678
  77.3530028  45.4966896  73.6154947  79.8832963  36.1987589  80.3649775
  80.2382351  36.4259063  81.2244241  80.5305094  36.5305966  79.7427030
  85.6130700  39.3206025  71.0699104  85.4748599  39.5107621  70.1420293
  85.2566919  40.0825408  71.5267155  73.7772826  33.3064120  77.1496116
  74.4172206  33.1652880  76.4519080  72.9450357  33.0198634  76.7734718
  85.6400080  41.3882552  76.0810376  86.0736586  41.2957841  76.9293430
  86.3531660  41.3640053  75.4430392  74.5533130  42.6066551  73.2631109
  75.3473729  42.1116871  73.0613684  73.8424823  42.0784414  72.8998814
  79.3727975  44.9884646  77.6143476  79.4264997  45.5575583  78.3821192
  78.5042756  45.1586531  77.2497513  72.2526368  34.6902203  79.0967928
  72.9249421  34.4819565  78.4480576  71.4256155  34.4924289  78.6573160
  86.5015629  41.4306253  78.6143261  86.6951519  42.3352063  78.8602536
  86.4016247  40.9713672  79.4481846  78.1551940  31.3164144  81.1133588
  77.5079855  32.0154093  81.0198065  78.9252955  31.7500287  81.4809837
  81.5630738  41.5812996  84.1884142  81.4116244  41.3523547  83.2714225
  81.5535417  42.5383597  84.2015487  78.3316074  39.1544908  79.1730408
  79.2608134  39.3056068  78.9999375  77.9107104  39.2428929  78.3179055
  77.1304406  43.1795573  76.9428946  76.9915492  42.8114357  77.8154884
  76.3419002  43.6943212  76.7712904  78.6809621  42.5577176  74.3317784
  78.3459454  42.5177946  75.2275433  78.1813567  41.8921891  73.8588194
  72.6553865  37.9644806  79.8570365  72.5173663  37.2325044  80.4581904
  73.5658789  37.8753706  79.5754552  75.2836166  37.6764765  79.3454044
  75.9935784  37.0357957  79.3040663  75.2405474  37.9277660  80.2680225
  83.2722945  44.6132118  82.2660624  83.2135491  43.9291338  81.5991207
  83.6742463  45.3551108  81.8141250  73.9965100  34.6629983  81.1649684
  73.4602457  34.2120721  81.8171280  73.4081808  34.7975892  80.4220148
  72.2913643  51.4294032  75.0594342  72.5310242  52.0612556  75.7373361
  71.4482840  51.0782072  75.3459702  83.2740352  42.5771702  80.4974603
  82.3867131  42.2397624  80.6201002  83.8438903  41.8454733  80.7343369
  69.7304221  33.7985991  78.2502678  69.6462410  33.1911660  77.5153088
  68.9086928  34.2895009  78.2512175  76.8041505  47.2373155  77.4635846
  76.7311677  48.0428126  77.9755151  76.3618898  47.4365120  76.6383868
  79.9027935  32.2839554  73.6172873  80.3996635  31.5309516  73.2973944
  79.1314917  32.3203871  73.0516083  87.7557692  37.9879920  75.2591165
  87.7447569  38.8704635  74.8885098  86.8875072  37.6351470  75.0645702
  79.2640189  47.1359989  79.6194005  79.9768161  47.7707453  79.5469907
  78.7730217  47.2323855  78.8034007  80.9857716  41.0411241  71.1911297
  80.0513994  41.1612704  71.0216001  81.1634384  40.1383708  70.9271307
  76.4862904  34.4256937  73.3444558  76.1160691  33.8727977  74.0325464
  76.9821996  33.8215071  72.7919558  84.3730267  36.8828561  71.7261331
  84.8390719  37.7156552  71.6521634  84.8237768  36.4173542  72.4306589
  74.3152102  44.8854432  80.4399576  75.0161562  45.5190915  80.5928970
  73.8447217  45.2269164  79.6795215  82.4406498  43.2272382  68.7247483
  82.7166342  43.1128976  69.6341357  81.5710997  42.8289867  68.6859656
  82.3446930  29.2509148  75.7652232  81.4310010  29.4813374  75.9334439
  82.7740031  29.3347592  76.6166265  82.1153388  37.4399040  78.2652126
  81.4624839  37.6874947  77.6104579  82.4933768  36.6263178  77.9314604
  79.0760562  47.4758733  72.3680297  79.2582957  46.6580389  72.8308049
  79.8993548  47.6926425  71.9305187  79.4102728  46.4026918  69.6295345
  79.9390494  45.8919372  69.0165507  79.6730947  46.0869448  70.4940878
  78.1640961  38.1818851  84.7518163  77.4881598  38.0812980  85.4220539
  78.9868595  38.0258064  85.2154161  69.9119820  44.4190787  77.3730679
  70.4973257  43.6734475  77.5058583  69.7144659  44.7294744  78.2567343
  64.5037475  36.9896387  76.0935122  64.5421575  36.4559978  76.8872240
  63.9977768  36.4631593  75.4746099  76.9063744  49.4885778  78.9875779
  77.4582052  49.6517400  79.7524865  77.2469938  50.0790216  78.3155804
  71.8828237  31.8360928  79.5897664  71.9469564  32.6975759  79.1775062
  71.8195358  31.2234929  78.8570023  71.3580510  33.9084060  83.2370698
  71.9852549  33.5261138  83.8508223  70.5008429  33.6898262  83.6026391
  81.7574619  44.3147036  84.8424434  82.3014523  44.9276994  84.3479389
  81.1761463  44.8726614  85.3591447  80.0432131  47.4367754  75.9739462
  79.9183271  46.6357493  75.4650407  80.7011223  47.9313947  75.4853431
  71.6640300  33.7916486  75.1516602  70.9426885  34.4052454  75.0124075
  72.4533555  34.3274251  75.0733248  82.1067040  45.2376774  77.6019012
  81.1597375  45.1182125  77.5297338  82.4549813  44.3499272  77.6845273
  74.4666613  31.1270913  81.4257254  74.9901015  31.3733209  82.1883563
  74.2478947  31.9590947  81.0060391  79.1113473  45.0329490  73.8023364
  78.9638436  44.1046197  73.9830934  79.9366967  45.0549581  73.3180439
  82.7147595  45.8558049  74.8888237  83.6394142  45.6500910  74.7512688
  82.5462898  45.6074450  75.7977578  75.6719158  32.0684608  79.1106924
  75.3315979  31.2692421  79.5127604  74.9658165  32.3686318  78.5383757
  76.3235630  29.1533920  77.5634247  77.1461699  28.6794398  77.4413137
  76.5673694  29.9324404  78.0632933  79.1074987  32.8867327  68.7955481
  79.3238602  33.7691965  68.4944309  78.6269055  32.4953541  68.0661123
  73.8474209  35.8453041  75.3726226  73.7018790  36.1593344  76.2650507
  73.3699413  36.4637941  74.8197124  75.7070592  32.8355589  75.4207115
  75.6932161  31.9396682  75.0839413  76.4243020  32.8426252  76.0545401
  77.5596722  33.2692929  77.4660243  77.3014500  34.1910000  77.4644573
  77.0281763  32.8723363  78.1560707  82.5042911  46.3743716  70.2450328
  82.6779789  45.8090139  69.4924181  82.9971802  47.1744611  70.0629818
  68.3219871  38.3858385  78.3113887  67.7773339  39.1618193  78.4434161
  69.1999221  38.7329190  78.1533008  75.1107488  31.7169969  70.6894685
  75.2323399  30.7886615  70.8885573  74.8209530  31.7308655  69.7773001
  77.9798678  29.4024879  73.8261405  78.0020375  29.4664213  72.8713385
  78.3966737  28.5629388  74.0201911  88.3582302  39.1380139  71.8640628
  88.8013448  38.3887464  71.4659751  87.4808813  39.1290275  71.4814360
  83.4918084  45.6910480  67.3447226  84.1868988  46.3117173  67.5634541
  83.8341234  44.8405832  67.6199604  69.1085893  37.5128281  81.2044044
  68.3667629  37.6610917  81.7908674  68.7878637  37.7736547  80.3410793
  85.3909507  43.1410186  68.8734557  85.9160831  43.4797459  68.1483877
  85.3031859  42.2057201  68.6897692  77.0529556  47.0544260  81.0024434
  77.3616682  46.8093406  81.8747133  77.8505038  47.2590898  80.5143304
  69.5542507  45.3993710  73.2354438  70.3800526  45.0997482  72.8553082
  69.2036559  44.6301333  73.6844227  74.5224040  44.7520178  75.3052112
  73.9004049  44.0890883  75.0054340  75.1928907  44.7781310  74.6225760
  67.7551112  43.3180037  74.1943372  66.9183020  42.8902211  74.0127373
  67.7274757  43.5112480  75.1314163  74.5948567  33.2301966  84.8984618
  74.6436723  34.1064089  84.5162388  75.1371081  32.6879359  84.3256261
  85.0803413  43.7743090  84.1785755  84.2898957  43.7567228  83.6390254
  84.8436767  44.3131383  84.9334792  85.2001288  40.6235556  81.4918484
  85.2499293  40.4585563  82.4334006  85.0915211  39.7562815  81.1016364
  74.0837547  43.3024102  68.7810573  74.2325667  43.9859566  68.1277245
  74.8903990  43.2829192  69.2960028  82.4905050  36.6066484  82.8077790
  83.3914913  36.4672949  82.5161788  82.5653025  36.7720939  83.7475968
  76.8247856  33.9833339  81.6530977  75.9551165  34.2766905  81.3813565
  77.0607336  34.5673784  82.3738240  86.7019485  43.0432497  81.7360505
  86.4104293  43.4062478  82.5723966  86.0891616  42.3299506  81.5573837
  87.9015167  40.6085377  74.2563075  88.7362058  41.0475181  74.4200636
  88.0374296  40.1324030  73.4371321  84.9506673  38.1665112  80.2040563
  85.4260795  38.3592758  79.3959415  84.0272238  38.2224298  79.9583947
  79.5286890  30.2012956  79.1696397  80.0468833  30.9373983  78.8442886
  79.1742022  30.5076949  80.0043156  79.7799484  26.6213238  74.6897294
  80.0601237  25.9536427  75.3157720  80.5650091  26.8142334  74.1771957
  83.6508342  35.0430872  78.4368869  84.6025765  35.1428970  78.4581093
  83.4811792  34.2509141  78.9466953  81.6722721  32.1286455  78.6228270
  81.0772654  32.4091468  77.9274758  81.3872418  32.6180356  79.3945011
  86.1296420  38.2636992  77.5511168  86.0972740  37.3252993  77.7370852
  86.7397043  38.3421029  76.8176993  86.2790908  35.0548035  77.5969452
  85.7629957  34.2706492  77.4099380  87.1630857  34.7266752  77.7615971
  83.9401635  28.7989051  73.5565264  83.7426456  28.4904139  74.4408596
  84.5501341  29.5250690  73.6863194  91.9472970  39.3252999  76.6917205
  92.6776358  39.0638287  77.2524909  91.3379915  38.5881721  76.7319273
  90.0288267  37.4660861  77.2891656  89.3021430  37.3316826  76.6808148
  89.6135554  37.7737690  78.0948374  77.8518443  41.1850791  85.0539029
  78.7721453  41.3629390  85.2479076  77.8168026  40.2406836  84.9018729
  70.8480516  39.0951826  77.6961811  71.0666526  40.0268933  77.7149844
  71.2606290  38.7359800  78.4816614  77.7684734  29.6019911  69.6837499
  76.9585462  29.2566996  70.0592745  78.4569150  29.2927455  70.2725111
  79.6975282  28.6797958  71.3061796  80.2506320  29.0993411  71.9651819
  79.9345368  27.7533706  71.3484752  75.7208381  34.6685031  87.0864559
  75.6205108  35.6179388  87.0176651  75.5029923  34.3403270  86.2140630
  66.9388868  39.9992296  75.9485426  66.2452340  39.5846249  75.4355380
  67.6861859  40.0412833  75.3518845  83.0754089  30.7898483  70.8140460
  82.4952758  31.4483287  70.4318512  82.8090022  29.9675828  70.4027877
  81.5257655  30.1903541  73.0161780  82.0257434  30.3020075  72.2076099
  82.1693263  29.8864593  73.6562589  75.5839651  38.0982170  85.9029621
  75.1006733  38.8982530  86.1093510  75.6700590  38.1090115  84.9497065
  71.5112989  41.9886705  77.9398055  72.4656242  41.9570647  77.8727986
  71.3125512  41.5277329  78.7548281  72.1012371  40.5587821  80.5068853
  72.9205260  41.0531900  80.5303690  72.3749178  39.6419789  80.4786420
  81.8578967  32.9498573  69.8696808  80.9704822  33.2348224  69.6517003
  82.2732956  32.7892337  69.0224085  85.2093503  32.9745094  73.5851147
  85.9853893  33.4641547  73.8575764  84.4841637  33.4003148  74.0423017
  87.6466062  33.6872714  74.6425088  88.2410553  33.4468449  73.9318396
  87.7192645  32.9679844  75.2698624  69.8663217  47.5306324  74.9568253
  69.7317685  46.7706725  74.3906251  69.4495280  48.2547224  74.4897042
  81.8319991  38.4653109  70.0847098  81.7755192  38.9221661  69.2454731
  82.3848333  37.7043794  69.9069941  85.6424797  34.2542841  70.9097218
  85.3861731  33.8539477  71.7405425  85.0177665  34.9686635  70.7847357
  89.9537134  36.9938914  73.4168509  89.3936692  37.0632104  74.1900071
  89.3480638  36.8179899  72.6968005  73.0232343  48.4275641  75.1686695
  72.9064727  49.3721074  75.0665386  72.2024790  48.1249203  75.5572495
  82.5654770  39.6557890  67.3799627  82.5103574  39.4902162  66.4388072
  81.9400825  40.3633923  67.5361817  67.3547285  34.8925955  81.2061050
  68.0006149  34.3824909  81.6948275  67.1464436  35.6294637  81.7804475
  79.8800677  41.9606802  86.7053190  80.7491837  42.1347455  86.3439825
  79.4007429  42.7801219  86.5828920  74.0486857  49.0803903  78.3842624
  74.9514104  49.1127514  78.7009119  73.8224227  48.1504354  78.3988960
  75.8040459  47.8334890  75.0452702  74.8536090  47.8336752  74.9317075
  76.1072946  47.0867624  74.5288737  79.6903015  25.7508776  71.2130883
  78.9235411  25.1967263  71.3587565  80.1013720  25.8230645  72.0745034
  71.6944776  32.0393572  85.3036064  72.5576238  31.6830377  85.5139388
  71.1210187  31.7007467  85.9911468  91.5393153  53.6695428  76.1098465
  92.1771563  53.5502176  75.4061805  91.4213996  54.6176272  76.1686417
  88.3482859  53.6222856  76.0459990  88.0101371  53.5063921  75.1580524
  89.2172627  53.2214021  76.0260996  88.8302642  54.7757708  82.0046195
  88.8191283  54.3810506  81.1326699  88.9923282  54.0423781  82.5979967
  81.7534107  56.9709524  74.8741101  82.5455399  56.6300349  74.4587400
  81.9930757  57.0804499  75.7943254  85.5509903  57.5594820  80.9525379
  85.2599769  58.4640451  80.8372045  86.1866888  57.6011348  81.6669449
  86.4766110  54.9371668  77.5426739  87.0729682  54.7127691  76.8283702
  86.5341082  54.1956414  78.1452187  91.0934421  51.3946882  73.1851673
  91.8797511  50.9766305  72.8342090  91.3573126  52.2992974  73.3533321
  96.4942849  51.3322115  74.0884651  97.2268020  50.7621332  74.3222481
  95.7382204  50.9443716  74.5291157  88.1118968  53.7549357  71.2847994
  87.7477175  53.2279978  71.9960915  88.9686084  53.3647826  71.1114479
  94.0168269  45.0443689  78.5479260  93.6851594  45.9139100  78.3240475
  93.4213882  44.7279973  79.2273290  83.9612270  53.6970032  73.9811877
  83.0362766  53.5646246  74.1889569  84.2096683  54.4764252  74.4781820
  93.9096932  49.7638776  75.6272610  93.0013810  49.6954184  75.3331371
  93.8584528  50.2410721  76.4554436  81.3221081  53.3403306  74.8155666
  81.4513462  53.5937785  75.7295078  80.6418532  53.9331014  74.4960321
  87.9837798  51.1828421  83.5707507  87.2071132  51.7422341  83.5610372
  88.6228361  51.6685204  84.0922377  95.7758579  47.9655214  77.4050484
  95.1332959  48.2587747  76.7590279  95.2713507  47.8508134  78.2103681
  93.4298742  51.7118387  68.0936343  94.3416598  51.9445774  67.9184041
  92.9208389  52.2955431  67.5311422  86.2384170  53.9913875  83.1325474
  86.9798855  54.5298919  82.8560298  85.5321156  54.6180163  83.2897026
  91.7139510  56.1343015  81.7297636  92.1222866  55.6925426  80.9852268
  90.9916771  55.5595643  81.9831829  88.0670580  51.0715622  79.1031193
  88.9131775  51.4955035  79.2465842  88.0069218  50.4149246  79.7969756
  95.9157556  57.6298644  72.8394288  95.2308595  58.0097545  72.2891322
  96.0001406  58.2393970  73.5726236  91.2170025  48.7319990  80.7612366
  90.9730957  49.4862051  80.2246642  91.4929956  49.1105338  81.5959614
  93.1708488  55.2758603  79.4389632  93.3825383  55.9190362  78.7624013
  93.1238236  54.4420919  78.9711562  90.7734717  47.8876423  76.3426204
  89.9119196  48.1857677  76.6342942  90.7997152  48.1046822  75.4107237
  84.4820368  55.9790095  75.6879773  85.0521725  56.4077364  75.0497258
  85.0728479  55.6972680  76.3863959  86.5265173  52.5541766  69.5589575
  87.2289216  53.0062810  70.0263501  86.1945801  51.9125585  70.1869468
  84.9745534  51.1453523  83.9340784  84.3444195  51.8269804  84.1676181
  84.8681622  51.0336604  82.9893923  80.2690506  50.8125319  74.8606709
  79.4789560  51.0682847  74.3846819  80.7601754  51.6273657  74.9658749
  94.2854316  58.1530558  77.6111989  95.1071760  57.7510745  77.3294671
  94.2816719  58.0498792  78.5628105  88.0510919  57.7014601  79.7672700
  88.1155352  58.1635008  80.6030872  87.3421843  57.0711966  79.8955010
  78.5528209  51.0655809  77.2921699  78.8036248  51.9502819  77.5579275
  79.0887758  50.8860411  76.5196791 102.3760309  54.4969306  73.9596961
 101.6224017  53.9276705  73.8040965 102.5107850  54.4631971  74.9067596
  84.2526277  45.4474289  86.2966035  83.8593222  44.8940487  86.9713680
  85.0692417  45.7584867  86.6872553  87.1694238  46.8632168  83.8886292
  87.9103951  47.4639321  83.8090754  87.4012161  46.1209805  83.3304335
  82.3135576  52.0488535  82.1664522  82.1989091  51.1473792  82.4671621
  81.4580094  52.2952232  81.8149338  89.3927414  59.9906275  83.7652022
  88.9491268  59.2042654  83.4472927  90.0544627  60.1785426  83.0995913
  84.1514535  61.5202077  78.2912701  84.7021960  61.3919140  77.5189695
  83.3126011  61.8196966  77.9407594  91.4908652  60.2709075  81.7933424
  91.4727127  61.0917956  81.3013693  92.4128572  60.1463150  82.0183565
  87.9481706  57.7853205  82.6356932  88.4810043  57.0241493  82.4056240
  87.4195787  57.4926856  83.3781086  91.1151401  42.8913271  78.1650574
  90.7715670  43.7814912  78.0889684  91.4830363  42.7014928  77.3020159
  88.6648794  47.7271583  71.7308247  87.8090391  47.3378433  71.5513886
  89.0775746  47.8063543  70.8708033  90.1947941  45.2617926  76.1299807
  89.6912737  45.2248061  75.3167612  90.4878548  46.1710669  76.1896464
  86.4390827  45.3456656  75.1365989  87.3043824  45.1499464  74.7771878
  86.5068336  45.1167007  76.0635345  96.0535958  55.6354236  68.6076182
  95.2765400  55.2965396  68.1631344  96.7327439  55.6406860  67.9331147
  90.8687987  50.7548974  68.4982790  90.5638122  51.0695123  69.3492933
  91.8218429  50.8330394  68.5410123  94.2927264  55.1088218  75.2642790
  93.6350939  55.7987479  75.3522919  95.0967664  55.4984650  75.6076777
  84.0453146  47.5758863  72.5082355  84.6196898  47.3534045  71.7755548
  84.6324128  47.6447558  73.2610957  93.1032723  53.4632590  73.3146732
  93.6164605  54.0962582  73.8168442  93.7533947  52.8633786  72.9490092
  86.3475814  44.4500112  71.2357425  85.6940226  44.1349130  70.6114040
  86.3056288  43.8275853  71.9617248  89.5813554  50.9382046  75.5605073
  88.6636115  51.1596993  75.4026761  89.9973698  51.0128356  74.7016780
  90.3648602  52.3373462  70.6907753  91.1120421  52.8494859  70.3814875
  90.6340191  52.0157514  71.5512146  92.8127439  49.3730578  72.6726542
  92.0750196  48.8607964  73.0036785  93.0654213  48.9330959  71.8609819
  92.9139066  42.1506830  73.2668311  93.2197943  41.2904193  72.9794226
  93.6391671  42.7424450  73.0667305  87.1860146  52.4460623  73.7744502
  87.2408756  51.4934459  73.6986979  86.3751348  52.6020062  74.2585801
  85.1252506  51.0637683  71.5334881  84.3120372  51.3631853  71.9400073
  85.6211500  50.6693371  72.2509364  90.7226718  51.5279507  80.3649775
  91.0776105  51.7550980  81.2244241  91.3698849  51.8597884  79.7427030
  96.4524455  54.6497943  71.0699104  96.3142353  54.8399539  70.1420293
  96.0960673  55.4117326  71.5267155  84.6166581  48.6356038  77.1496116
  85.2565960  48.4944797  76.4519080  83.7844111  48.3490552  76.7734718
  96.4793834  56.7174470  76.0810376  96.9130341  56.6249759  76.9293430
  97.1925415  56.6931970  75.4430392  81.6195197  48.6056363  71.9269103
  81.8802014  49.5201696  71.8178263  82.4412370  48.1380806  72.0765716
  83.0920123  50.0194120  79.0967928  83.7643176  49.8111482  78.4480576
  82.2649909  49.8216206  78.6573160  97.3409384  56.7598171  78.6143261
  97.5345274  57.6643981  78.8602536  97.2410002  56.3005590  79.4481846
  88.9945695  46.6456061  81.1133588  88.3473610  47.3446011  81.0198065
  89.7646710  47.0792205  81.4809837  92.4024492  56.9104913  84.1884142
  92.2509999  56.6815465  83.2714225  92.3929172  57.8675515  84.2015487
  89.1709829  54.4836826  79.1730408  90.1001889  54.6347986  78.9999375
  88.7500859  54.5720847  78.3179055  83.4947620  53.2936723  79.8570365
  83.3567418  52.5616962  80.4581904  84.4052543  53.2045623  79.5754552
  86.1229920  53.0056683  79.3454044  86.8329539  52.3649875  79.3040663
  86.0799229  53.2569577  80.2680225  94.1116699  59.9424036  82.2660624
  94.0529245  59.2583256  81.5991207  94.5136218  60.6843026  81.8141250
  84.8358854  49.9921900  81.1649684  84.2996211  49.5412639  81.8171280
  84.2475563  50.1267809  80.4220148  83.1307398  66.7585950  75.0594342
  83.3703996  67.3904474  75.7373361  82.2876594  66.4073990  75.3459702
  94.1134106  57.9063620  80.4974603  93.2260885  57.5689542  80.6201002
  94.6832657  57.1746651  80.7343369  80.5697976  49.1277908  78.2502678
  80.4856164  48.5203578  77.5153088  79.7480682  49.6186927  78.2512175
  87.6435260  62.5665072  77.4635846  87.5705431  63.3720044  77.9755151
  87.2012653  62.7657038  76.6383868  90.7421690  47.6131472  73.6172873
  91.2390389  46.8601434  73.2973944  89.9708671  47.6495788  73.0516083
  98.5951447  53.3171837  75.2591165  98.5841323  54.1996553  74.8885098
  97.7268826  52.9643388  75.0645702  90.1033943  62.4651906  79.6194005
  90.8161916  63.0999371  79.5469907  89.6123972  62.5615772  78.8034007
  87.3256658  49.7548855  73.3444558  86.9554446  49.2019895  74.0325464
  87.8215751  49.1506988  72.7919558  95.2124022  52.2120478  71.7261331
  95.6784474  53.0448470  71.6521634  95.6631522  51.7465460  72.4306589
  85.1545857  60.2146350  80.4399576  85.8555316  60.8482833  80.5928970
  84.6840972  60.5561081  79.6795215  93.1840684  44.5801065  75.7652232
  92.2703764  44.8105292  75.9334439  93.6133786  44.6639509  76.6166265
  92.9547143  52.7690957  78.2652126  92.3018593  53.0166865  77.6104579
  93.3327523  51.9555095  77.9314604  89.0034716  53.5110768  84.7518163
  88.3275353  53.4104898  85.4220539  89.8262350  53.3549982  85.2154161
  80.7513575  59.7482705  77.3730679  81.3367012  59.0026393  77.5058583
  80.5538413  60.0586661  78.2567343  75.3431230  52.3188305  76.0935122
  75.3815329  51.7851896  76.8872240  74.8371522  51.7923510  75.4746099
  87.7457499  64.8177696  78.9875779  88.2975807  64.9809317  79.7524865
  88.0863692  65.4082134  78.3155804  82.7221992  47.1652845  79.5897664
  82.7863318  48.0267676  79.1775062  82.6589112  46.5526847  78.8570023
  82.1974264  49.2375978  83.2370698  82.8246303  48.8553055  83.8508223
  81.3402183  49.0190180  83.6026391  92.5968373  59.6438953  84.8424434
  93.1408277  60.2568911  84.3479389  92.0155218  60.2018532  85.3591447
  82.5034054  49.1208404  75.1516602  81.7820640  49.7344371  75.0124075
  83.2927310  49.6566169  75.0733248  92.9460794  60.5668691  77.6019012
  91.9991130  60.4474042  77.5297338  93.2943567  59.6791189  77.6845273
  85.3060368  46.4562830  81.4257254  85.8294770  46.7025127  82.1883563
  85.0872701  47.2882865  81.0060391  83.8169472  49.0139475  69.6603856
  84.1565544  49.5425396  68.9382464  84.2641592  49.3519881  70.4362423
  86.5112913  47.3976525  79.1106924  86.1709733  46.5984338  79.5127604
  85.8051919  47.6978236  78.5383757  87.1629385  44.4825838  77.5634247
  87.9855454  44.0086316  77.4413137  87.4067448  45.2616322  78.0632933
  89.9468742  48.2159245  68.7955481  90.1632356  49.0983883  68.4944309
  89.4662809  47.8245459  68.0661123  84.6867963  51.1744958  75.3726226
  84.5412544  51.4885261  76.2650507  84.2093167  51.7929859  74.8197124
  86.5464346  48.1647506  75.4207115  86.5325915  47.2688600  75.0839413
  87.2636774  48.1718170  76.0545401  88.3990477  48.5984847  77.4660243
  88.1408255  49.5201917  77.4644573  87.8675517  48.2015281  78.1560707
  79.1613626  53.7150303  78.3113887  78.6167094  54.4910111  78.4434161
  80.0392975  54.0621107  78.1533008  85.9501242  47.0461887  70.6894685
  86.0717153  46.1178533  70.8885573  85.6603285  47.0600573  69.7773001
  88.8192433  44.7316797  73.8261405  88.8414129  44.7956130  72.8713385
  89.2360492  43.8921306  74.0201911  99.1976057  54.4672057  71.8640628
  99.6407203  53.7179382  71.4659751  98.3202567  54.4582193  71.4814360
  79.9479647  52.8420199  81.2044044  79.2061383  52.9902834  81.7908674
  79.6272392  53.1028465  80.3410793  96.2303261  58.4702104  68.8734557
  96.7554585  58.8089376  68.1483877  96.1425614  57.5349119  68.6897692
  87.8923310  62.3836177  81.0024434  88.2010436  62.1385324  81.8747133
  88.6898792  62.5882816  80.5143304  85.4342322  48.5593884  84.8984618
  85.4830477  49.4356007  84.5162388  85.9764836  48.0171277  84.3256261
  95.9197167  59.1035007  84.1785755  95.1292711  59.0859146  83.6390254
  95.6830522  59.6423301  84.9334792  96.0395042  55.9527474  81.4918484
  96.0893047  55.7877481  82.4334006  95.9308966  55.0854733  81.1016364
  93.3298805  51.9358402  82.8077790  94.2308668  51.7964867  82.5161788
  93.4046779  52.1012857  83.7475968  87.6641610  49.3125256  81.6530977
  86.7944920  49.6058822  81.3813565  87.9001091  49.8965701  82.3738240
  97.5413239  58.3724415  81.7360505  97.2498048  58.7354396  82.5723966
  96.9285371  57.6591423  81.5573837  98.7408922  55.9377295  74.2563075
  99.5755813  56.3767099  74.4200636  98.8768050  55.4615948  73.4371321
  95.7900428  53.4957030  80.2040563  96.2654549  53.6884676  79.3959415
  94.8665993  53.5516216  79.9583947  90.3680644  45.5304873  79.1696397
  90.8862588  46.2665900  78.8442886  90.0135777  45.8368867  80.0043156
  90.6193238  41.9505156  74.6897294  90.8994992  41.2828345  75.3157720
  91.4043845  42.1434251  74.1771957  94.4902097  50.3722790  78.4368869
  95.4419519  50.4720888  78.4581093  94.3205547  49.5801058  78.9466953
  92.5116476  47.4578373  78.6228270  91.9166408  47.7383386  77.9274758
  92.2266173  47.9472274  79.3945011  94.2711983  60.7267170  64.3434850
  94.1925615  60.3927034  65.2370608  95.0921650  61.2188938  64.3426322
  96.9690174  53.5928910  77.5511168  96.9366494  52.6544910  77.7370852
  97.5790798  53.6712946  76.8176993  97.1184663  50.3839953  77.5969452
  96.6023711  49.5998410  77.4099380  98.0024611  50.0558670  77.7615971
  94.7795390  44.1280969  73.5565264  94.5820211  43.8196057  74.4408596
  95.3895095  44.8542607  73.6863194 102.7866724  54.6544916  76.6917205
 103.5170113  54.3930205  77.2524909 102.1773670  53.9173638  76.7319273
 100.8682021  52.7952779  77.2891656 100.1415185  52.6608744  76.6808148
 100.4529308  53.1029608  78.0948374  88.6912198  56.5142709  85.0539029
  89.6115207  56.6921308  85.2479076  88.6561781  55.5698754  84.9018729
  77.9094363  51.7081302  73.9792304  77.5897147  50.8546611  73.6866678
  77.3627791  51.9229880  74.7350271  81.6874270  54.4243743  77.6961811
  81.9060280  55.3560851  77.7149844  82.1000044  54.0651718  78.4816614
  88.6078488  44.9311829  69.6837499  87.7979216  44.5858914  70.0592745
  89.2962905  44.6219372  70.2725111  90.5369036  44.0089875  71.3061796
  91.0900075  44.4285329  71.9651819  90.7739123  43.0825624  71.3484752
  86.5602136  49.9976949  87.0864559  86.4598862  50.9471306  87.0176651
  86.3423678  49.6695188  86.2140630  77.7782623  55.3284214  75.9485426
  77.0846094  54.9138167  75.4355380  78.5255614  55.3704750  75.3518845
  93.9147843  46.1190401  70.8140460  93.3346512  46.7775205  70.4318512
  93.6483776  45.2967745  70.4027877  92.3651410  45.5195458  73.0161780
  92.8651188  45.6311993  72.2076099  93.0087018  45.2156511  73.6562589
  86.4233406  53.4274088  85.9029621  85.9400487  54.2274448  86.1093510
  86.5094345  53.4382033  84.9497065  82.3506743  57.3178623  77.9398055
  83.3049997  57.2862565  77.8727986  82.1519267  56.8569246  78.7548281
  82.9406125  55.8879739  80.5068853  83.7599014  56.3823817  80.5303690
  83.2142933  54.9711707  80.4786420  92.6972721  48.2790491  69.8696808
  91.8098576  48.5640142  69.6517003  93.1126711  48.1184254  69.0224085
  96.0487258  48.3037012  73.5851147  96.8247648  48.7933464  73.8575764
  95.3235392  48.7295066  74.0423017  98.4859816  49.0164631  74.6425088
  99.0804307  48.7760367  73.9318396  98.5586400  48.2971762  75.2698624
  80.7056972  62.8598242  74.9568253  80.5711440  62.0998643  74.3906251
  80.2889034  63.5839142  74.4897042  92.6713745  53.7945027  70.0847098
  92.6148947  54.2513578  69.2454731  93.2242088  53.0335712  69.9069941
  96.4818551  49.5834759  70.9097218  96.2255485  49.1831394  71.7405425
  95.8571419  50.2978553  70.7847357 100.7930889  52.3230832  73.4168509
 100.2330447  52.3924021  74.1900071 100.1874392  52.1471817  72.6968005
  83.8626098  63.7567559  75.1686695  83.7458482  64.7012992  75.0665386
  83.0418544  63.4541121  75.5572495  93.4048524  54.9849808  67.3799627
  93.3497328  54.8194080  66.4388072  92.7794580  55.6925841  67.5361817
  78.1941039  50.2217873  81.2061050  78.8399903  49.7116827  81.6948275
  77.9858191  50.9586554  81.7804475  90.7194432  57.2898720  86.7053190
  91.5885591  57.4639372  86.3439825  90.2401183  58.1093137  86.5828920
  86.7144650  44.4857917  66.9584946  86.7023320  45.4299757  67.1153217
  87.6068072  44.3028063  66.6644407  84.8880612  64.4095821  78.3842624
  85.7907859  64.4419431  78.7009119  84.6617982  63.4796272  78.3988960
  90.5296769  41.0800694  71.2130883  89.7629165  40.5259181  71.3587565
  90.9407474  41.1522563  72.0745034  82.5338530  47.3685490  85.3036064
  83.3969992  47.0122294  85.5139388  81.9603941  47.0299384  85.9911468
 102.3786907  68.9987346  76.1098465 103.0165317  68.8794093  75.4061805
 102.2607750  69.9468190  76.1686417  99.1876614  68.9514774  76.0459990
  98.8495125  68.8355839  75.1580524 100.0566382  68.5505939  76.0260996
  95.0463429  70.8050250  72.0356881  94.4828295  70.7140187  71.2673168
  94.9315824  69.9850155  72.5159373  99.6696397  70.1049626  82.0046195
  99.6585037  69.7102424  81.1326699  99.8317036  69.3715698  82.5979967
  92.5927861  72.3001442  74.8741101  93.3849153  71.9592267  74.4587400
  92.8324511  72.4096417  75.7943254 100.6262988  74.4721218  67.3471345
  99.9750968  75.0575299  66.9605359 101.4207351  75.0027413  67.4066383
  94.5518615  71.5610355  67.7458480  95.3249491  71.0139342  67.6071356
  94.9044014  72.4254605  67.9572941  96.3903658  72.8886738  80.9525379
  96.0993524  73.7932368  80.8372045  97.0260642  72.9303265  81.6669449
  97.3159865  70.2663586  77.5426739  97.9123437  70.0419609  76.8283702
  97.3734836  69.5248332  78.1452187  96.8884893  67.7203021  65.3776930
  97.1410414  67.1984543  64.6160393  95.9509452  67.5569167  65.4803613
 101.9328176  66.7238800  73.1851673 102.7191265  66.3058223  72.8342090
 102.1966880  67.6284892  73.3533321 102.1038253  72.1611650  67.8840330
 101.4684086  72.2346277  68.5961234 101.7735660  72.7505249  67.2059409
 107.3336603  66.6614033  74.0884651 108.0661775  66.0913250  74.3222481
 106.5775959  66.2735633  74.5291157  96.6081182  69.6231127  67.5801305
  96.4917440  68.9476031  68.2482389  96.7183442  69.1363501  66.7633458
  98.9512723  69.0841275  71.2847994  98.5870930  68.5571895  71.9960915
  99.8079839  68.6939744  71.1114479 104.8562023  60.3735607  78.5479260
 104.5245348  61.2431018  78.3240475 104.2607637  60.0571891  79.2273290
  98.5918210  64.1131174  66.2809342  98.7592612  64.9811411  66.6479813
  98.4015379  64.2758456  65.3570632 101.3493543  72.5748153  77.9475173
 101.0494266  73.4773192  77.8390980 101.0044602  72.3080336  78.7996326
 104.7490687  65.0930693  75.6272610 103.8407564  65.0246102  75.3331371
 104.6978282  65.5702638  76.4554436  98.5707431  66.5688832  67.2656009
  98.4507056  67.0145882  68.1041490  97.8760019  66.9174149  66.7069547
  96.3314323  79.3392473  70.9146140  96.2538352  80.2900299  70.9934621
  95.7275966  78.9938346  71.5721067  98.8231552  66.5120339  83.5707507
  98.0464887  67.0714259  83.5610372  99.4622116  66.9977122  84.0922377
 106.6152333  63.2947132  77.4050484 105.9726713  63.5879665  76.7590279
 106.1107262  63.1800052  78.2103681 104.2692497  67.0410305  68.0936343
 105.1810353  67.2737692  67.9184041 103.7602144  67.6247349  67.5311422
  97.0777925  69.3205792  83.1325474  97.8192609  69.8590836  82.8560298
  96.3714910  69.9472081  83.2897026 102.5533264  71.4634933  81.7297636
 102.9616620  71.0217343  80.9852268 101.8310526  70.8887560  81.9831829
  98.9064334  66.4007539  79.1031193  99.7525530  66.8246953  79.2465842
  98.8462972  65.7441164  79.7969756 102.8762079  72.0236123  75.4849925
 102.2470942  72.1881837  74.7825993 102.4887741  72.4377733  76.2560889
 106.7551311  72.9590561  72.8394288 106.0702349  73.3389463  72.2891322
 106.8395160  73.5685888  73.5726236 102.0563780  64.0611908  80.7612366
 101.8124712  64.8153968  80.2246642 102.3323710  64.4397255  81.5959614
 104.0102243  70.6050520  79.4389632 104.2219138  71.2482280  78.7624013
 103.9631991  69.7712837  78.9711562 101.6128472  63.2168341  76.3426204
 100.7512951  63.5149594  76.6342942 101.6390906  63.4338740  75.4107237
  98.4290041  71.7610531  72.7500010  98.8928386  72.0398234  71.9604632
  98.1646839  70.8593976  72.5673101  95.3214122  71.3082013  75.6879773
  95.8915479  71.7369281  75.0497258  95.9122234  71.0264598  76.3863959
  97.3658927  67.8833684  69.5589575  98.0682970  68.3354727  70.0263501
  97.0339555  67.2417503  70.1869468  95.8139289  66.4745440  83.9340784
  95.1837949  67.1561721  84.1676181  95.7075376  66.3628522  82.9893923
 105.1248071  73.4822476  77.6111989 105.9465514  73.0802663  77.3294671
 105.1210473  73.3790710  78.5628105  98.8904674  73.0306519  79.7672700
  98.9549106  73.4926926  80.6030872  98.1815598  72.4003884  79.8955010
 113.2154064  69.8261224  73.9596961 112.4617772  69.2568622  73.8040965
 113.3501605  69.7923889  74.9067596  98.6052692  74.6974626  69.6351680
  98.4698366  75.5426162  70.0636528  99.1462504  74.8993904  68.8717614
  95.0920031  60.7766206  86.2966035  94.6986977  60.2232405  86.9713680
  95.9086172  61.0876785  86.6872553  92.0582089  72.2150064  70.2079605
  92.5706610  73.0093315  70.3585170  92.7104802  71.5176355  70.1413207
  93.8676974  75.3315821  72.2902358  94.0443602  76.2533785  72.1023342
  94.6633807  75.0174240  72.7196738  98.0087992  62.1924085  83.8886292
  98.7497706  62.7931239  83.8090754  98.2405915  61.4501723  83.3304335
  93.1529330  67.3780453  82.1664522  93.0382845  66.4765710  82.4671621
  92.2973848  67.6244149  81.8149338 100.2321168  75.3198193  83.7652022
  99.7885022  74.5334571  83.4472927 100.8938382  75.5077343  83.0995913
  94.9908289  76.8493995  78.2912701  95.5415714  76.7211058  77.5189695
  94.1519765  77.1488884  77.9407594 102.3302406  75.6000993  81.7933424
 102.3120881  76.4209874  81.3013693 103.2522326  75.4755068  82.0183565
  98.7875460  73.1145122  82.6356932  99.3203797  72.3533411  82.4056240
  98.2589541  72.8218774  83.3781086 101.9545155  58.2205188  78.1650574
 101.6109425  59.1106830  78.0889684 102.3224118  58.0306846  77.3020159
  90.0231006  70.5438719  70.9839176  90.8606228  70.9535727  70.7672884
  90.2009273  69.6038161  70.9539370 101.9195438  68.2113799  66.6723009
 101.4042061  68.9818404  66.9111396 101.6472746  67.5378936  67.2956070
  99.5042549  63.0563500  71.7308247  98.6484145  62.6670351  71.5513886
  99.9169501  63.1355461  70.8708033 101.0341696  60.5909843  76.1299807
 100.5306491  60.5539979  75.3167612 101.3272302  61.5002586  76.1896464
  97.2784581  60.6748573  75.1365989  98.1437578  60.4791382  74.7771878
  97.3462090  60.4458925  76.0635345 106.8929712  70.9646154  68.6076182
 106.1159155  70.6257314  68.1631344 107.5721193  70.9698777  67.9331147
 101.7081741  66.0840892  68.4982790 101.4031877  66.3987041  69.3492933
 102.6612183  66.1622311  68.5410123 100.1528173  72.2431115  70.1475744
  99.6249534  71.5083874  69.8348981  99.6515676  73.0205791  69.9015712
 105.1321019  70.4380135  75.2642790 104.4744693  71.1279397  75.3522919
 105.9361418  70.8276567  75.6076777 103.9426478  68.7924508  73.3146732
 104.4558359  69.4254500  73.8168442 104.5927702  68.1925704  72.9490092
  98.2980773  70.0611325  63.1510717  97.3907835  69.8300579  63.3501866
  98.7951805  69.2648944  63.3384699 101.2048852  78.7708832  66.0707403
 100.5310551  79.0740529  66.6792361 101.5914674  79.5737913  65.7212860
 100.4207309  66.2673964  75.5605073  99.5029870  66.4888911  75.4026761
 100.8367452  66.3420274  74.7016780 101.2042356  67.6665379  70.6907753
 101.9514175  68.1786776  70.3814875 101.4733946  67.3449432  71.5512146
  99.4769007  70.1623920  67.6734707  98.5680226  69.8782953  67.7707177
  99.5064090  70.5822999  66.8138014 104.7088274  73.7730509  71.4425875
 104.2550601  72.9321419  71.4991065 104.0782241  74.4091908  71.7800655
 103.6521194  64.7022495  72.6726542 102.9143950  64.1899882  73.0036785
 103.9047967  64.2622877  71.8609819 103.1521213  75.6107006  72.3775693
 103.4444188  76.1712063  71.6588058 103.6619834  75.9035567  73.1328852
 103.7532821  57.4798747  73.2668311 104.0591698  56.6196111  72.9794226
 104.4785426  58.0716368  73.0667305  98.0253901  67.7752541  73.7744502
  98.0802510  66.8226377  73.6986979  97.2145103  67.9311980  74.2585801
  99.1745094  71.7032664  65.0122786  98.7364524  70.9868523  64.5528423
  99.9155535  71.9308778  64.4507877  98.1154838  76.3887357  73.4669146
  98.0731017  76.6148204  72.5377678  99.0317537  76.1550732  73.6154947
 101.5620472  66.8571425  80.3649775 101.9169860  67.0842898  81.2244241
 102.2092603  67.1889802  79.7427030 107.2918209  69.9789861  71.0699104
 107.1536108  70.1691457  70.1420293 106.9354428  70.7409243  71.5267155
 107.3187589  72.0466388  76.0810376 107.7524095  71.9541677  76.9293430
 108.0319169  72.0223888  75.4430392  96.2320639  73.2650386  73.2631109
  97.0261238  72.7700706  73.0613684  95.5212332  72.7368249  72.8998814
 101.0515484  75.6468482  77.6143476 101.1052506  76.2159418  78.3821192
 100.1830265  75.8170367  77.2497513 108.1803138  72.0890088  78.6143261
 108.3739028  72.9935899  78.8602536 108.0803756  71.6297507  79.4481846
  99.8339449  61.9747979  81.1133588  99.1867364  62.6737929  81.0198065
 100.6040464  62.4084123  81.4809837 103.2418247  72.2396831  84.1884142
 103.0903753  72.0107383  83.2714225 103.2322926  73.1967432  84.2015487
 100.0103583  69.8128744  79.1730408 100.9395643  69.9639903  78.9999375
  99.5894613  69.9012765  78.3179055  98.8091915  73.8379408  76.9428946
  98.6703001  73.4698193  77.8154884  98.0206511  74.3527048  76.7712904
  99.4040067  78.9388505  68.2854482  99.5791823  78.4676548  69.1000105
  98.7172855  79.5654271  68.5135743 100.3597130  73.2161011  74.3317784
 100.0246963  73.1761781  75.2275433  99.8601076  72.5505727  73.8588194
 103.2956322  70.5617045  64.6054843 102.6785493  69.8363873  64.5087896
 102.8272810  71.3226406  64.2621917  96.9623675  68.3348600  79.3454044
  97.6723293  67.6941792  79.3040663  96.9192983  68.5861495  80.2680225
 104.9510454  75.2715954  82.2660624 104.8923000  74.5875174  81.5991207
 105.3529972  76.0134944  81.8141250  95.6752609  65.3213818  81.1649684
  95.1389966  64.8704557  81.8171280  95.0869317  65.4559727  80.4220148
  93.9701152  82.0877867  75.0594342  94.2097751  82.7196392  75.7373361
  93.1270349  81.7365907  75.3459702 104.9527861  73.2355538  80.4974603
 104.0654640  72.8981459  80.6201002 105.5226412  72.5038569  80.7343369
  86.6057008  69.5679629  73.8217655  87.2928048  69.2541359  73.2338670
  86.4505137  70.4720994  73.5484906  98.4829014  77.8956990  77.4635846
  98.4099186  78.7011961  77.9755151  98.0406407  78.0948956  76.6383868
  98.2718794  77.1328760  70.9738668  97.4886316  77.6750440  71.0676893
  98.9711539  77.6502740  71.3732909 101.5815444  62.9423389  73.6172873
 102.0784144  62.1893352  73.2973944 100.8102426  62.9787706  73.0516083
 109.4345201  68.6463755  75.2591165 109.4235078  69.5288470  74.8885098
 108.5662581  68.2935306  75.0645702 100.9427698  77.7943824  79.6194005
 101.6555670  78.4291289  79.5469907 100.4517726  77.8907690  78.8034007
 102.6645225  71.6995077  71.1911297 101.7301503  71.8196539  71.0216001
 102.8421893  70.7967543  70.9271307  98.1650413  65.0840772  73.3444558
  97.7948200  64.5311813  74.0325464  98.6609505  64.4798906  72.7919558
 106.0517776  67.5412396  71.7261331 106.5178228  68.3740387  71.6521634
 106.5025277  67.0757377  72.4306589  95.9939611  75.5438267  80.4399576
  96.6949071  76.1774750  80.5928970  95.5234726  75.8852999  79.6795215
 104.1194007  73.8856217  68.7247483 104.3953851  73.7712812  69.6341357
 103.2498506  73.4873702  68.6859656 104.0234439  59.9092983  75.7652232
 103.1097519  60.1397210  75.9334439 104.4527540  59.9931427  76.6166265
 103.7940897  68.0982875  78.2652126 103.1412348  68.3458782  77.6104579
 104.1721277  67.2847013  77.9314604 100.7548071  78.1342568  72.3680297
 100.9370466  77.3164224  72.8308049 101.5781057  78.3510260  71.9305187
 101.0890237  77.0610753  69.6295345 101.6178003  76.5503208  69.0165507
 101.3518456  76.7453283  70.4940878  99.8428470  68.8402686  84.7518163
  99.1669107  68.7396815  85.4220539 100.6656104  68.6841900  85.2154161
  91.5907329  75.0774622  77.3730679  92.1760766  74.3318310  77.5058583
  91.3932168  75.3878579  78.2567343  94.4445985  78.1125870  72.3893121
  93.7756360  78.5971997  71.9057161  94.3058854  78.3595090  73.3036500
  86.1824984  67.6480223  76.0935122  86.2209084  67.1143813  76.8872240
  85.6765277  67.1215428  75.4746099  98.5851253  80.1469613  78.9875779
  99.1369561  80.3101235  79.7524865  98.9257447  80.7374051  78.3155804
  93.5615746  62.4944763  79.5897664  93.6257073  63.3559594  79.1775062
  93.4982867  61.8818765  78.8570023  93.0368019  64.5667896  83.2370698
  93.6640058  64.1844973  83.8508223  92.1795938  64.3482098  83.6026391
 103.4362128  74.9730871  84.8424434 103.9802032  75.5860829  84.3479389
 102.8548972  75.5310449  85.3591447 101.7219640  78.0951589  75.9739462
 101.5970780  77.2941329  75.4650407 102.3798732  78.5897782  75.4853431
 103.7854549  75.8960609  77.6019012 102.8384884  75.7765960  77.5297338
 104.1337322  75.0083107  77.6845273  96.1454122  61.7854748  81.4257254
  96.6688524  62.0317044  82.1883563  95.9266456  62.6174783  81.0060391
 100.7900982  75.6913325  73.8023364 100.6425945  74.7630033  73.9830934
 101.6154476  75.7133416  73.3180439 104.3935104  76.5141884  74.8888237
 105.3181651  76.3084745  74.7512688 104.2250407  76.2658285  75.7977578
  97.3506667  62.7268443  79.1106924  97.0103488  61.9276256  79.5127604
  96.6445674  63.0270154  78.5383757  98.0023139  59.8117755  77.5634247
  98.8249208  59.3378234  77.4413137  98.2461203  60.5908239  78.0632933
 100.7862496  63.5451163  68.7955481 101.0026111  64.4275801  68.4944309
 100.3056564  63.1537376  68.0661123  97.3858101  63.4939424  75.4207115
  97.3719669  62.5980517  75.0839413  98.1030529  63.5010088  76.0545401
  99.2384231  63.9276764  77.4660243  98.9802009  64.8493835  77.4644573
  98.7069272  63.5307199  78.1560707 104.1830420  77.0327551  70.2450328
 104.3567298  76.4673974  69.4924181 104.6759311  77.8328446  70.0629818
  90.0007380  69.0442220  78.3113887  89.4560848  69.8202028  78.4434161
  90.8786730  69.3913025  78.1533008  99.6586187  60.0608715  73.8261405
  99.6807884  60.1248048  72.8713385 100.0754246  59.2213223  74.0201911
 110.0369811  69.7963974  71.8640628 110.4800957  69.0471300  71.4659751
 109.1596322  69.7874111  71.4814360 105.1705593  76.3494316  67.3447226
 105.8656497  76.9701008  67.5634541 105.5128743  75.4989667  67.6199604
  90.7873402  68.1712117  81.2044044  90.0455138  68.3194752  81.7908674
  90.4666146  68.4320382  80.3410793 107.0697016  73.7994021  68.8734557
 107.5948340  74.1381294  68.1483877 106.9819368  72.8641037  68.6897692
  98.7317065  77.7128095  81.0024434  99.0404191  77.4677242  81.8747133
  99.5292547  77.9174733  80.5143304  98.7537677  79.8666005  73.2329810
  98.3142667  79.3742383  73.9262667  99.5045794  79.3238972  72.9921886
  91.2330016  76.0577545  73.2354438  92.0588035  75.7581317  72.8553082
  90.8824068  75.2885168  73.6844227  96.2011549  75.4104014  75.3052112
  95.5791558  74.7474719  75.0054340  96.8716416  75.4365146  74.6225760
  89.4338621  73.9763872  74.1943372  88.5970529  73.5486046  74.0127373
  89.4062266  74.1696315  75.1314163  96.2736076  63.8885802  84.8984618
  96.3224232  64.7647925  84.5162388  96.8158590  63.3463195  84.3256261
 106.7590922  74.4326925  84.1785755 105.9686466  74.4151064  83.6390254
 106.5224276  74.9715219  84.9334792 106.8788797  71.2819391  81.4918484
 106.9286802  71.1169399  82.4334006 106.7702720  70.4146650  81.1016364
  95.7625056  73.9607937  68.7810573  95.9113176  74.6443401  68.1277245
  96.5691499  73.9413027  69.2960028 104.1692559  67.2650319  82.8077790
 105.0702422  67.1256784  82.5161788 104.2440534  67.4304774  83.7475968
  98.5035365  64.6417174  81.6530977  97.6338674  64.9350740  81.3813565
  98.7394845  65.2257619  82.3738240 108.3806994  73.7016333  81.7360505
 108.0891802  74.0646313  82.5723966 107.7679125  72.9883341  81.5573837
 109.5802676  71.2669213  74.2563075 110.4149567  71.7059017  74.4200636
 109.7161805  70.7907866  73.4371321 106.6294182  68.8248947  80.2040563
 107.1048304  69.0176594  79.3959415 105.7059747  68.8808133  79.9583947
  93.5177689  69.9873115  69.7871641  93.2723731  69.0835445  69.9851852
  93.6873603  69.9890265  68.8451119 101.2074398  60.8596791  79.1696397
 101.7256342  61.5957818  78.8442886 100.8529531  61.1660784  80.0043156
 101.4586993  57.2797074  74.6897294 101.7388746  56.6120263  75.3157720
 102.2437600  57.4726169  74.1771957  99.2620461  76.4556067  66.2522320
  98.6894428  77.0746255  65.7992792  99.8353255  77.0055429  66.7862242
 105.3295851  65.7014708  78.4368869 106.2813274  65.8012805  78.4581093
 105.1599301  64.9092976  78.9466953 103.3510230  62.7870291  78.6228270
 102.7560163  63.0675303  77.9274758 103.0659927  63.2764192  79.3945011
 102.4817721  76.7393218  67.3830902 103.4148394  76.6738779  67.5863778
 102.3940934  77.5749484  66.9245435 105.1105738  76.0559088  64.3434850
 105.0319369  75.7218952  65.2370608 105.9315404  76.5480856  64.3426322
 107.8083929  68.9220827  77.5511168 107.7760249  67.9836828  77.7370852
 108.4184552  69.0004864  76.8176993  99.6467260  67.7916880  63.5938372
 100.5926364  67.6623088  63.6626790  99.2681505  67.0531542  64.0707801
 107.9578417  65.7131871  77.5969452 107.4417466  64.9290327  77.4099380
 108.8418366  65.3850587  77.7615971 105.6189144  59.4572886  73.5565264
 105.4213965  59.1487974  74.4408596 106.2288850  60.1834525  73.6863194
 113.6260479  69.9836834  76.6917205 114.3563867  69.7222122  77.2524909
 113.0167424  69.2465556  76.7319273 111.7075776  68.1244697  77.2891656
 110.9808939  67.9900662  76.6808148 111.2923063  68.4321525  78.0948374
  99.5305952  71.8434626  85.0539029 100.4508962  72.0213225  85.2479076
  99.4955535  70.8990672  84.9018729  97.8310177  65.7166857  63.5293258
  96.9241632  65.4199969  63.6055971  98.1086158  65.4196675  62.6627544
  99.4472243  60.2603746  69.6837499  98.6372971  59.9150831  70.0592745
 100.1356659  59.9511290  70.2725111 101.3762791  59.3381793  71.3061796
 101.9293829  59.7577247  71.9651819 101.6132877  58.4117541  71.3484752
  97.3995890  65.3268867  87.0864559  97.2992617  66.2763224  87.0176651
  97.1817432  64.9987106  86.2140630  96.6008961  62.5753792  63.6705237
  97.4628125  62.9008690  63.9301054  96.7859306  61.7885288  63.1578303
  88.6176377  70.6576131  75.9485426  87.9239849  70.2430084  75.4355380
  89.3649368  70.6996668  75.3518845 104.7541598  61.4482318  70.8140460
 104.1740267  62.1067122  70.4318512 104.4877531  60.6259663  70.4027877
 103.2045164  60.8487376  73.0161780 103.7044943  60.9603911  72.2076099
 103.8480772  60.5448429  73.6562589  97.2627160  68.7566006  85.9029621
  96.7794242  69.5566366  86.1093510  97.3488099  68.7673950  84.9497065
  90.5313120  70.5894385  73.8251441  90.5083808  70.6882073  72.8733324
  90.8413756  71.4359536  74.1468607  93.1900498  72.6470540  77.9398055
  94.1443751  72.6154483  77.8727986  92.9913021  72.1861164  78.7548281
  93.7799880  71.2171656  80.5068853  94.5992769  71.7115735  80.5303690
  94.0536687  70.3003624  80.4786420 103.5366476  63.6082409  69.8696808
 102.6492331  63.8932059  69.6517003 103.9520465  63.4476172  69.0224085
 106.8881012  63.6328930  73.5851147 107.6641402  64.1225382  73.8575764
 106.1629146  64.0586984  74.0423017 109.3253571  64.3456549  74.6425088
 109.9198061  64.1052285  73.9318396 109.3980154  63.6263679  75.2698624
  91.5450726  78.1890160  74.9568253  91.4105194  77.4290561  74.3906251
  91.1282789  78.9131060  74.4897042 102.6809689  73.3727083  63.9644828
 103.3845540  73.5777086  64.5802484 101.9572338  73.9403845  64.2293912
 103.5107500  69.1236945  70.0847098 103.4542701  69.5805496  69.2454731
 104.0635842  68.3627629  69.9069941 107.3212306  64.9126676  70.9097218
 107.0649240  64.5123312  71.7405425 106.6965174  65.6270470  70.7847357
 111.6324643  67.6522750  73.4168509 111.0724201  67.7215939  74.1900071
 111.0268147  67.4763734  72.6968005  94.7019852  79.0859477  75.1686695
  94.5852236  80.0304909  75.0665386  93.8812299  78.7833038  75.5572495
 104.5896387  73.8109613  66.0143288 105.4241991  73.3790811  65.8320763
 104.4280730  73.6391626  66.9420183 104.2442279  70.3141726  67.3799627
 104.1891083  70.1485997  66.4388072 103.6188334  71.0217759  67.5361817
  89.0334794  65.5509790  81.2061050  89.6793658  65.0408744  81.6948275
  88.8251945  66.2878472  81.7804475 101.5588186  72.6190638  86.7053190
 102.4279346  72.7931290  86.3439825 101.0794938  73.4385055  86.5828920
  97.5538404  59.8149835  66.9584946  97.5417074  60.7591675  67.1153217
  98.4461826  59.6319980  66.6644407  95.7274366  79.7387739  78.3842624
  96.6301613  79.7711349  78.7009119  95.5011736  78.8088190  78.3988960
  97.4827968  78.4918725  75.0452702  96.5323599  78.4920587  74.9317075
  97.7860455  77.7451460  74.5288737 101.3690524  56.4092611  71.2130883
 100.6022920  55.8551098  71.3587565 101.7801229  56.4814480  72.0745034
  93.3732285  62.6977407  85.3036064  94.2363747  62.3414212  85.5139388
  92.7997696  62.3591302  85.9911468 113.2180662  84.3279264  76.1098465
 113.8559072  84.2086011  75.4061805 113.1001505  85.2760108  76.1686417
 110.0270368  84.2806692  76.0459990 109.6888880  84.1647756  75.1580524
 110.8960136  83.8797857  76.0260996 105.8857184  86.1342168  72.0356881
 105.3222049  86.0432105  71.2673168 105.7709579  85.3142073  72.5159373
 110.5090151  85.4341543  82.0046195 110.4978792  85.0394342  81.1326699
 110.6710791  84.7007616  82.5979967 103.4321616  87.6293360  74.8741101
 104.2242908  87.2884184  74.4587400 103.6718266  87.7388335  75.7943254
 111.4656743  89.8013136  67.3471345 110.8144722  90.3867216  66.9605359
 112.2601105  90.3319331  67.4066383 105.3912370  86.8902273  67.7458480
 106.1643246  86.3431260  67.6071356 105.7437769  87.7546522  67.9572941
 107.2297412  88.2178655  80.9525379 106.9387278  89.1224286  80.8372045
 107.8654397  88.2595183  81.6669449 108.1553619  85.5955504  77.5426739
 108.7517191  85.3711526  76.8283702 108.2128591  84.8540249  78.1452187
 107.7278648  83.0494939  65.3776930 107.9804168  82.5276460  64.6160393
 106.7903207  82.8861085  65.4803613 112.7721930  82.0530717  73.1851673
 113.5585020  81.6350141  72.8342090 113.0360635  82.9576810  73.3533321
 112.9432008  87.4903568  67.8840330 112.3077841  87.5638194  68.5961234
 112.6129414  88.0797167  67.2059409 118.1730358  81.9905951  74.0884651
 118.9055529  81.4205168  74.3222481 117.4169713  81.6027551  74.5291157
 107.4474936  84.9523045  67.5801305 107.3311194  84.2767948  68.2482389
 107.5577196  84.4655419  66.7633458 109.7906477  84.4133192  71.2847994
 109.4264684  83.8863813  71.9960915 110.6473593  84.0231661  71.1114479
 115.6955778  75.7027525  78.5479260 115.3639103  76.5722936  78.3240475
 115.1001391  75.3863809  79.2273290 109.4311964  79.4423092  66.2809342
 109.5986367  80.3103328  66.6479813 109.2409133  79.6050374  65.3570632
 112.1887297  87.9040071  77.9475173 111.8888020  88.8065110  77.8390980
 111.8438357  87.6372254  78.7996326 105.6399779  84.3553868  73.9811877
 104.7150275  84.2230082  74.1889569 105.8884192  85.1348087  74.4781820
 115.5884441  80.4222611  75.6272610 114.6801319  80.3538019  75.3331371
 115.5372037  80.8994556  76.4554436 109.4101185  81.8980749  67.2656009
 109.2900810  82.3437800  68.1041490 108.7153773  82.2466067  66.7069547
 103.0008590  83.9987141  74.8155666 103.1300971  84.2521620  75.7295078
 102.3206041  84.5914849  74.4960321 107.1708077  94.6684391  70.9146140
 107.0932107  95.6192216  70.9934621 106.5669721  94.3230264  71.5721067
 109.6625307  81.8412257  83.5707507 108.8858641  82.4006177  83.5610372
 110.3015870  82.3269040  84.0922377 117.4546088  78.6239049  77.4050484
 116.8120468  78.9171583  76.7590279 116.9501016  78.5091970  78.2103681
 115.1086251  82.3702223  68.0936343 116.0204107  82.6029609  67.9184041
 114.5995898  82.9539267  67.5311422 107.9171679  84.6497710  83.1325474
 108.6586364  85.1882754  82.8560298 107.2108665  85.2763999  83.2897026
 113.3927019  86.7926850  81.7297636 113.8010375  86.3509261  80.9852268
 112.6704280  86.2179478  81.9831829 109.7458089  81.7299457  79.1031193
 110.5919284  82.1538871  79.2465842 109.6856727  81.0733081  79.7969756
 113.7155834  87.3528041  75.4849925 113.0864696  87.5173755  74.7825993
 113.3281496  87.7669651  76.2560889 117.5945065  88.2882479  72.8394288
 116.9096104  88.6681380  72.2891322 117.6788915  88.8977806  73.5726236
 112.8957534  79.3903826  80.7612366 112.6518466  80.1445886  80.2246642
 113.1717465  79.7689173  81.5959614 114.8495997  85.9342438  79.4389632
 115.0612892  86.5774198  78.7624013 114.8025745  85.1004754  78.9711562
 112.4522226  78.5460259  76.3426204 111.5906705  78.8441512  76.6342942
 112.4784661  78.7630657  75.4107237 109.2683795  87.0902449  72.7500010
 109.7322141  87.3690152  71.9604632 109.0040594  86.1885894  72.5673101
 106.1607876  86.6373931  75.6879773 106.7309234  87.0661199  75.0497258
 106.7515988  86.3556515  76.3863959 108.2052681  83.2125601  69.5589575
 108.9076725  83.6646645  70.0263501 107.8733310  82.5709420  70.1869468
 106.6533043  81.8037358  83.9340784 106.0231704  82.4853639  84.1676181
 106.5469131  81.6920440  82.9893923 101.9478015  81.4709154  74.8606709
 101.1577069  81.7266683  74.3846819 102.4389263  82.2857492  74.9658749
 115.9641825  88.8114393  77.6111989 116.7859269  88.4094581  77.3294671
 115.9604228  88.7082627  78.5628105 103.8992761  81.8353733  71.8190185
 103.1023924  81.9472428  72.3373681 103.6718353  82.1740386  70.9531076
 109.7298428  88.3598437  79.7672700 109.7942861  88.8218844  80.6030872
 109.0209352  87.7295802  79.8955010 100.2315718  81.7239645  77.2921699
 100.4823757  82.6086655  77.5579275 100.7675267  81.5444246  76.5196791
 109.4446446  90.0266544  69.6351680 109.3092121  90.8718080  70.0636528
 109.9856259  90.2285822  68.8717614 105.9313786  76.1058124  86.2966035
 105.5380731  75.5524323  86.9713680 106.7479926  76.4168702  86.6872553
 102.8975843  87.5441982  70.2079605 103.4100364  88.3385232  70.3585170
 103.5498556  86.8468273  70.1413207 104.7070728  90.6607738  72.2902358
 104.8837357  91.5825703  72.1023342 105.5027562  90.3466158  72.7196738
 108.8481747  77.5216003  83.8886292 109.5891460  78.1223156  83.8090754
 109.0799670  76.7793641  83.3304335 103.9923085  82.7072370  82.1664522
 103.8776600  81.8057628  82.4671621 103.1367602  82.9536067  81.8149338
 111.0714922  90.6490111  83.7652022 110.6278777  89.8626489  83.4472927
 111.7332136  90.8369261  83.0995913 105.8302044  92.1785912  78.2912701
 106.3809469  92.0502976  77.5189695 104.9913520  92.4780801  77.9407594
 113.1696161  90.9292911  81.7933424 113.1514636  91.7501792  81.3013693
 114.0916081  90.8046986  82.0183565 109.6269215  88.4437040  82.6356932
 110.1597552  87.6825328  82.4056240 109.0983296  88.1510692  83.3781086
 112.7938910  73.5497106  78.1650574 112.4503179  74.4398748  78.0889684
 113.1617872  73.3598764  77.3020159 100.8624760  85.8730636  70.9839176
 101.6999982  86.2827645  70.7672884 101.0403028  84.9330079  70.9539370
 112.7589192  83.5405717  66.6723009 112.2435816  84.3110322  66.9111396
 112.4866501  82.8670853  67.2956070 110.3436303  78.3855418  71.7308247
 109.4877900  77.9962268  71.5513886 110.7563255  78.4647379  70.8708033
 111.8735450  75.9201761  76.1299807 111.3700246  75.8831896  75.3167612
 112.1666057  76.8294504  76.1896464 108.1178336  76.0040491  75.1365989
 108.9831333  75.8083300  74.7771878 108.1855845  75.7750843  76.0635345
 117.7323467  86.2938072  68.6076182 116.9552909  85.9549231  68.1631344
 118.4114948  86.2990695  67.9331147 112.5475496  81.4132809  68.4982790
 112.2425631  81.7278958  69.3492933 113.5005938  81.4914229  68.5410123
 110.9921927  87.5723033  70.1475744 110.4643289  86.8375792  69.8348981
 110.4909430  88.3497709  69.9015712 115.9714773  85.7672053  75.2642790
 115.3138448  86.4571314  75.3522919 116.7755173  86.1568485  75.6076777
 105.7240655  78.2342699  72.5082355 106.2984407  78.0117880  71.7755548
 106.3111637  78.3031393  73.2610957 114.7820232  84.1216426  73.3146732
 115.2952114  84.7546418  73.8168442 115.4321456  83.5217621  72.9490092
 106.0510242  80.2647160  66.5278241 105.2147554  80.6021846  66.8487515
 105.9115012  80.1296140  65.5905378 108.0263323  75.1083948  71.2357425
 107.3727735  74.7932965  70.6114040 107.9843797  74.4859688  71.9617248
 109.1374528  85.3903243  63.1510717 108.2301589  85.1592496  63.3501866
 109.6345560  84.5940862  63.3384699 112.0442606  94.1000750  66.0707403
 111.3704305  94.4032447  66.6792361 112.4308428  94.9029830  65.7212860
 111.2601063  81.5965881  75.5605073 110.3423624  81.8180828  75.4026761
 111.6761207  81.6712192  74.7016780 112.0436111  82.9957297  70.6907753
 112.7907930  83.5078694  70.3814875 112.3127700  82.6741350  71.5512146
 110.3162761  85.4915838  67.6734707 109.4073980  85.2074870  67.7707177
 110.3457845  85.9114916  66.8138014 115.5482028  89.1022427  71.4425875
 115.0944356  88.2613337  71.4991065 114.9175995  89.7383826  71.7800655
 114.4914948  80.0314413  72.6726542 113.7537705  79.5191799  73.0036785
 114.7441722  79.5914795  71.8609819 113.9914968  90.9398924  72.3775693
 114.2837942  91.5003981  71.6588058 114.5013588  91.2327485  73.1328852
 114.5926575  72.8090665  73.2668311 114.8985452  71.9488029  72.9794226
 115.3179180  73.4008285  73.0667305 100.8850931  83.2121352  71.6549909
 100.6875331  82.6190712  70.9300976 100.3297595  82.9073562  72.3725848
 108.8647655  83.1044458  73.7744502 108.9196265  82.1518295  73.6986979
 108.0538857  83.2603897  74.2585801 110.0138849  87.0324581  65.0122786
 109.5758279  86.3160440  64.5528423 110.7549290  87.2600696  64.4507877
 106.8040015  81.7221518  71.5334881 105.9907881  82.0215689  71.9400073
 107.2999009  81.3277207  72.2509364 108.9548593  91.7179275  73.4669146
 108.9124772  91.9440121  72.5377678 109.8711292  91.4842649  73.6154947
 112.4014227  82.1863342  80.3649775 112.7563614  82.4134816  81.2244241
 113.0486358  82.5181719  79.7427030 118.1311964  85.3081778  71.0699104
 117.9929862  85.4983374  70.1420293 117.7748182  86.0701161  71.5267155
 106.2954090  79.2939874  77.1496116 106.9353469  79.1528633  76.4519080
 105.4631620  79.0074387  76.7734718 118.1581343  87.3758305  76.0810376
 118.5917850  87.2833594  76.9293430 118.8712924  87.3515806  75.4430392
 107.0714394  88.5942304  73.2631109 107.8654992  88.0992624  73.0613684
 106.3606086  88.0660167  72.8998814 111.8909238  90.9760399  77.6143476
 111.9446260  91.5451336  78.3821192 111.0224019  91.1462284  77.2497513
 103.3797157  82.7385386  69.3390861 102.4494745  82.6769841  69.5560824
 103.4754629  82.2161338  68.5427503 103.2982706  79.2640198  71.9269103
 103.5589523  80.1785532  71.8178263 104.1199878  78.7964641  72.0765716
 104.7707632  80.6777956  79.0967928 105.4430685  80.4695318  78.4480576
 103.9437418  80.4800042  78.6573160 119.0196893  87.4182006  78.6143261
 119.2132783  88.3227817  78.8602536 118.9197511  86.9589425  79.4481846
 110.6733204  77.3039897  81.1133588 110.0261119  78.0029846  81.0198065
 111.4434219  77.7376041  81.4809837 114.0812001  87.5688749  84.1884142
 113.9297508  87.3399300  83.2714225 114.0716681  88.5259350  84.2015487
 110.8497338  85.1420661  79.1730408 111.7789398  85.2931821  78.9999375
 110.4288368  85.2304682  78.3179055 109.6485670  89.1671326  76.9428946
 109.5096755  88.7990110  77.8154884 108.8600266  89.6818965  76.7712904
 110.2433822  94.2680422  68.2854482 110.4185577  93.7968466  69.1000105
 109.5566610  94.8946189  68.5135743 111.1990885  88.5452929  74.3317784
 110.8640717  88.5053699  75.2275433 110.6994830  87.8797645  73.8588194
 105.1735129  83.9520559  79.8570365 105.0354927  83.2200797  80.4581904
 106.0840052  83.8629459  79.5754552 114.1350076  85.8908963  64.6054843
 113.5179247  85.1655791  64.5087896 113.6666565  86.6518323  64.2621917
 107.8017429  83.6640518  79.3454044 108.5117048  83.0233710  79.3040663
 107.7586738  83.9153413  80.2680225 115.7904208  90.6007871  82.2660624
 115.7316754  89.9167091  81.5991207 116.1923726  91.3426861  81.8141250
 106.5146363  80.6505736  81.1649684 105.9783720  80.1996474  81.8171280
 105.9263072  80.7851645  80.4220148 104.8094907  97.4169785  75.0594342
 105.0491505  98.0488309  75.7373361 103.9664103  97.0657825  75.3459702
 105.9248622  80.1094387  63.7276147 105.0478089  79.9883188  63.3638394
 106.4006375  79.3180466  63.4755036 115.7921615  88.5647455  80.4974603
 114.9048394  88.2273377  80.6201002 116.3620166  87.8330486  80.7343369
  97.4450762  84.8971547  73.8217655  98.1321802  84.5833277  73.2338670
  97.2898891  85.8012912  73.5484906 102.2485485  79.7861744  78.2502678
 102.1643673  79.1787413  77.5153088 101.4268191  80.2770762  78.2512175
 109.3222769  93.2248908  77.4635846 109.2492940  94.0303879  77.9755151
 108.8800162  93.4240873  76.6383868 109.1112548  92.4620678  70.9738668
 108.3280070  93.0042358  71.0676893 109.8105294  92.9794657  71.3732909
 112.4209199  78.2715307  73.6172873 112.9177898  77.5185269  73.2973944
 111.6496180  78.3079624  73.0516083 120.2738956  83.9755673  75.2591165
 120.2628832  84.8580388  74.8885098 119.4056335  83.6227223  75.0645702
 111.7821452  93.1235742  79.6194005 112.4949424  93.7583206  79.5469907
 111.2911481  93.2199608  78.8034007 113.5038979  87.0286994  71.1911297
 112.5695258  87.1488457  71.0216001 113.6815648  86.1259461  70.9271307
 109.0044167  80.4132690  73.3444558 108.6341955  79.8603730  74.0325464
 109.5003260  79.8090824  72.7919558 116.8911531  82.8704314  71.7261331
 117.3571983  83.7032305  71.6521634 117.3419031  82.4049295  72.4306589
 106.8333366  90.8730185  80.4399576 107.5342825  91.5066668  80.5928970
 106.3628481  91.2144917  79.6795215 114.9587762  89.2148135  68.7247483
 115.2347606  89.1004729  69.6341357 114.0892260  88.8165620  68.6859656
 114.8628193  75.2384901  75.7652232 113.9491273  75.4689127  75.9334439
 115.2921295  75.3223345  76.6166265 114.6334652  83.4274793  78.2652126
 113.9806102  83.6750700  77.6104579 115.0115032  82.6138931  77.9314604
 111.5941826  93.4634486  72.3680297 111.7764220  92.6456142  72.8308049
 112.4174812  93.6802178  71.9305187 111.9283991  92.3902671  69.6295345
 112.4571758  91.8795125  69.0165507 112.1912211  92.0745201  70.4940878
 110.6822225  84.1694604  84.7518163 110.0062862  84.0688733  85.4220539
 111.5049859  84.0133817  85.2154161 102.4301084  90.4066540  77.3730679
 103.0154521  89.6610228  77.5058583 102.2325922  90.7170497  78.2567343
 105.2839739  93.4417788  72.3893121 104.6150114  93.9263915  71.9057161
 105.1452609  93.6887008  73.3036500  97.0218739  82.9772140  76.0935122
  97.0602838  82.4435731  76.8872240  96.5159031  82.4507346  75.4746099
 109.4245008  95.4761531  78.9875779 109.9763316  95.6393153  79.7524865
 109.7651201  96.0665969  78.3155804 104.4009501  77.8236681  79.5897664
 104.4650827  78.6851512  79.1775062 104.3376621  77.2110682  78.8570023
 103.8761773  79.8959813  83.2370698 104.5033812  79.5136891  83.8508223
 103.0189692  79.6774015  83.6026391 114.2755882  90.3022789  84.8424434
 114.8195786  90.9152747  84.3479389 113.6942727  90.8602367  85.3591447
 100.6527316  81.7036242  69.1689053 100.9480757  80.7946921  69.1156107
  99.7515352  81.6823982  68.8470056 112.5613395  93.4243507  75.9739462
 112.4364534  92.6233246  75.4650407 113.2192486  93.9189700  75.4853431
 104.1821563  79.7792239  75.1516602 103.4608149  80.3928207  75.0124075
 104.9714819  80.3150004  75.0733248 114.6248303  91.2252527  77.6019012
 113.6778639  91.1057878  77.5297338 114.9731076  90.3375025  77.6845273
 106.9847877  77.1146666  81.4257254 107.5082279  77.3608962  82.1883563
 106.7660210  77.9466700  81.0060391 102.3815158  79.3850340  69.2928378
 102.0527864  78.5047719  69.1103484 102.7354528  79.3298009  70.1804768
 111.6294737  91.0205243  73.8023364 111.4819699  90.0921950  73.9830934
 112.4548230  91.0425334  73.3180439 105.4956981  79.6723310  69.6603856
 105.8353053  80.2009231  68.9382464 105.9429101  80.0103716  70.4362423
 115.2328858  91.8433802  74.8888237 116.1575406  91.6376663  74.7512688
 115.0644162  91.5950203  75.7977578 108.1900422  78.0560361  79.1106924
 107.8497242  77.2568174  79.5127604 107.4839428  78.3562072  78.5383757
 108.8416894  75.1409673  77.5634247 109.6642963  74.6670151  77.4413137
 109.0854957  75.9200157  78.0632933 107.4825128  78.1697932  67.8597149
 108.2033491  78.5479184  67.3560866 106.8590432  78.8886808  67.9632127
 111.6256251  78.8743081  68.7955481 111.8419865  79.7567718  68.4944309
 111.1450318  78.4829294  68.0661123 106.3655472  81.8328794  75.3726226
 106.2200053  82.1469097  76.2650507 105.8880676  82.4513694  74.8197124
 108.2251855  78.8231342  75.4207115 108.2113424  77.9272435  75.0839413
 108.9424283  78.8302005  76.0545401 110.0777986  79.2568682  77.4660243
 109.8195764  80.1785753  77.4644573 109.5463026  78.8599116  78.1560707
 115.0224175  92.3619469  70.2450328 115.1961052  91.7965892  69.4924181
 115.5153066  93.1620364  70.0629818 100.8401135  84.3734138  78.3113887
 100.2954603  85.1493946  78.4434161 101.7180484  84.7204943  78.1533008
 107.6288751  77.7045722  70.6894685 107.7504662  76.7762368  70.8885573
 107.3390794  77.7184408  69.7773001 110.4979942  75.3900632  73.8261405
 110.5201638  75.4539966  72.8713385 110.9148001  74.5505141  74.0201911
 120.8763566  85.1255892  71.8640628 121.3194712  84.3763217  71.4659751
 119.9990076  85.1166028  71.4814360 116.0099347  91.6786233  67.3447226
 116.7050252  92.2992926  67.5634541 116.3522497  90.8281585  67.6199604
 101.6267156  83.5004034  81.2044044 100.8848892  83.6486670  81.7908674
 101.3059901  83.7612300  80.3410793 117.9090770  89.1285939  68.8734557
 118.4342094  89.4673212  68.1483877 117.8213123  88.1932954  68.6897692
 109.5710819  93.0420013  81.0024434 109.8797945  92.7969159  81.8747133
 110.3686301  93.2466651  80.5143304 109.5931431  95.1957922  73.2329810
 109.1536421  94.7034301  73.9262667 110.3439548  94.6530890  72.9921886
 102.0723770  91.3869463  73.2354438 102.8981790  91.0873235  72.8553082
 101.7217822  90.6177086  73.6844227 107.0405303  90.7395931  75.3052112
 106.4185312  90.0766636  75.0054340 107.7110170  90.7657063  74.6225760
 100.2732375  89.3055790  74.1943372  99.4364283  88.8777964  74.0127373
 100.2456021  89.4988233  75.1314163 107.1129831  79.2177719  84.8984618
 107.1617986  80.0939842  84.5162388 107.6552345  78.6755112  84.3256261
 117.5984676  89.7618843  84.1785755 116.8080220  89.7442981  83.6390254
 117.3618031  90.3007136  84.9334792 117.7182551  86.6111309  81.4918484
 117.7680556  86.4461316  82.4334006 117.6096475  85.7438568  81.1016364
 106.6018810  89.2899855  68.7810573 106.7506930  89.9735319  68.1277245
 107.4085254  89.2704945  69.2960028 115.0086314  82.5942237  82.8077790
 115.9096177  82.4548702  82.5161788 115.0834288  82.7596692  83.7475968
 109.3429119  79.9709092  81.6530977 108.4732429  80.2642658  81.3813565
 109.5788600  80.5549537  82.3738240 119.2200748  89.0308251  81.7360505
 118.9285557  89.3938231  82.5723966 118.6072880  88.3175259  81.5573837
 120.4196431  86.5961130  74.2563075 121.2543322  87.0350934  74.4200636
 120.5555559  86.1199784  73.4371321 117.4687937  84.1540865  80.2040563
 117.9442058  84.3468511  79.3959415 116.5453502  84.2100051  79.9583947
 104.3571443  85.3165032  69.7871641 104.1117485  84.4127362  69.9851852
 104.5267358  85.3182183  68.8451119 112.0468153  76.1888709  79.1696397
 112.5650097  76.9249736  78.8442886 111.6923286  76.4952702  80.0043156
 103.6267091  81.0493390  67.2857803 102.9336336  81.1237745  66.6297839
 103.3818843  80.2853734  67.8079320 112.2980747  72.6088991  74.6897294
 112.5782501  71.9412180  75.3157720 113.0831354  72.8018087  74.1771957
 110.1014216  91.7847985  66.2522320 109.5288183  92.4038172  65.7992792
 110.6747009  92.3347347  66.7862242 116.1689605  81.0306625  78.4368869
 117.1207028  81.1304723  78.4581093 115.9993056  80.2384894  78.9466953
 114.1903985  78.1162208  78.6228270 113.5953917  78.3967221  77.9274758
 113.9053682  78.6056109  79.3945011 113.3211475  92.0685135  67.3830902
 114.2542149  92.0030697  67.5863778 113.2334688  92.9041402  66.9245435
 115.9499492  91.3851006  64.3434850 115.8713124  91.0510869  65.2370608
 116.7709159  91.8772774  64.3426322 118.6477683  84.2512745  77.5511168
 118.6154003  83.3128746  77.7370852 119.2578307  84.3296782  76.8176993
 110.4861014  83.1208798  63.5938372 111.4320119  82.9915006  63.6626790
 110.1075259  82.3823460  64.0707801 118.7972172  81.0423788  77.5969452
 118.2811220  80.2582245  77.4099380 119.6812120  80.7142505  77.7615971
 116.4582899  74.7864804  73.5565264 116.2607720  74.4779892  74.4408596
 117.0682604  75.5126443  73.6863194 110.3699707  87.1726544  85.0539029
 111.2902716  87.3505143  85.2479076 110.3349290  86.2282589  84.9018729
 108.6703931  81.0458774  63.5293258 107.7635387  80.7491887  63.6055971
 108.9479912  80.7488592  62.6627544  99.5881872  82.3665138  73.9792304
  99.2684656  81.5130446  73.6866678  99.0415300  82.5813716  74.7350271
 103.3661779  85.0827579  77.6961811 103.5847789  86.0144686  77.7149844
 103.7787553  84.7235553  78.4816614 110.2865997  75.5895664  69.6837499
 109.4766725  75.2442749  70.0592745 110.9750414  75.2803208  70.2725111
 112.2156545  74.6673711  71.3061796 112.7687584  75.0869164  71.9651819
 112.4526632  73.7409459  71.3484752 108.2389645  80.6560784  87.0864559
 108.1386371  81.6055141  87.0176651 108.0211187  80.3279023  86.2140630
 107.4402716  77.9045709  63.6705237 108.3021880  78.2300608  63.9301054
 107.6253060  77.1177205  63.1578303  99.4570132  85.9868049  75.9485426
  98.7633603  85.5722002  75.4355380 100.2043123  86.0288586  75.3518845
 115.5935352  76.7774236  70.8140460 115.0134021  77.4359040  70.4318512
 115.3271285  75.9551581  70.4027877 114.0438919  76.1779294  73.0161780
 114.5438697  76.2895828  72.2076099 114.6874527  75.8740347  73.6562589
 108.1020915  84.0857923  85.9029621 107.6187996  84.8858283  86.1093510
 108.1881854  84.0965868  84.9497065 101.3706874  85.9186303  73.8251441
 101.3477562  86.0173990  72.8733324 101.6807511  86.7651454  74.1468607
 104.0294252  87.9762458  77.9398055 104.9837506  87.9446400  77.8727986
 103.8306776  87.5153082  78.7548281 104.6193634  86.5463574  80.5068853
 105.4386523  87.0407653  80.5303690 104.8930442  85.6295542  80.4786420
 114.3760230  78.9374326  69.8696808 113.4886085  79.2223977  69.6517003
 114.7914219  78.7768090  69.0224085 117.7274767  78.9620847  73.5851147
 118.5035157  79.4517300  73.8575764 117.0022901  79.3878902  74.0423017
 120.1647325  79.6748467  74.6425088 120.7591816  79.4344202  73.9318396
 120.2373909  78.9555597  75.2698624 102.3844481  93.5182077  74.9568253
 102.2498949  92.7582478  74.3906251 101.9676543  94.2422977  74.4897042
 113.5203444  88.7019001  63.9644828 114.2239294  88.9069004  64.5802484
 112.7966093  89.2695763  64.2293912 114.3501254  84.4528862  70.0847098
 114.2936456  84.9097414  69.2454731 114.9029597  83.6919547  69.9069941
 118.1606060  80.2418594  70.9097218 117.9042994  79.8415230  71.7405425
 117.5358928  80.9562388  70.7847357 122.4718398  82.9814667  73.4168509
 121.9117956  83.0507857  74.1900071 121.8661901  82.8055652  72.6968005
 105.5413607  94.4151395  75.1686695 105.4245991  95.3596827  75.0665386
 104.7206053  94.1124956  75.5572495 115.4290141  89.1401530  66.0143288
 116.2635745  88.7082729  65.8320763 115.2674484  88.9683544  66.9420183
 115.0836033  85.6433644  67.3799627 115.0284837  85.4777915  66.4388072
 114.4582089  86.3509676  67.5361817  99.8728548  80.8801708  81.2061050
 100.5187412  80.3700662  81.6948275  99.6645700  81.6170390  81.7804475
 112.3981941  87.9482555  86.7053190 113.2673100  88.1223208  86.3439825
 111.9188692  88.7676972  86.5828920 108.3932159  75.1441753  66.9584946
 108.3810829  76.0883592  67.1153217 109.2855581  74.9611898  66.6644407
 106.5668121  95.0679656  78.3842624 107.4695368  95.1003267  78.7009119
 106.3405491  94.1380107  78.3988960 108.3221723  93.8210643  75.0452702
 107.3717354  93.8212505  74.9317075 108.6254209  93.0743378  74.5288737
 112.2084278  71.7384529  71.2130883 111.4416674  71.1843016  71.3587565
 112.6194983  71.8106398  72.0745034 104.2126039  78.0269325  85.3036064
 105.0757501  77.6706130  85.5139388 103.6391450  77.6883220  85.9911468
 120.8664123  99.6098609  76.0459990 120.5282634  99.4939674  75.1580524
 121.7353891  99.2089775  76.0260996 116.7250938 101.4634086  72.0356881
 116.1615803 101.3724023  71.2673168 116.6103333 100.6433990  72.5159373
 121.3483906 100.7633461  82.0046195 121.3372546 100.3686259  81.1326699
 121.5104545 100.0299534  82.5979967 114.2715370 102.9585277  74.8741101
 115.0636662 102.6176102  74.4587400 114.5112020 103.0680252  75.7943254
 116.2306124 102.2194191  67.7458480 117.0037000 101.6723178  67.6071356
 116.5831523 103.0838440  67.9572941 118.0691167 103.5470573  80.9525379
 117.7781033 104.4516204  80.8372045 118.7048151 103.5887101  81.6669449
 118.9947374 100.9247421  77.5426739 119.5910946 100.7003444  76.8283702
 119.0522345 100.1832167  78.1452187 118.5672402  98.3786857  65.3776930
 118.8197923  97.8568378  64.6160393 117.6296961  98.2153002  65.4803613
 118.2868691 100.2814963  67.5801305 118.1704949  99.6059866  68.2482389
 118.3970951  99.7947337  66.7633458 120.6300232  99.7425110  71.2847994
 120.2658439  99.2155731  71.9960915 121.4867348  99.3523579  71.1114479
 120.2705719  94.7715010  66.2809342 120.4380121  95.6395246  66.6479813
 120.0802888  94.9342291  65.3570632 116.4793533  99.6845785  73.9811877
 115.5544030  99.5521999  74.1889569 116.7277947 100.4640005  74.4781820
 120.2494940  97.2272667  67.2656009 120.1294565  97.6729718  68.1041490
 119.5547528  97.5757985  66.7069547 113.8402344  99.3279059  74.8155666
 113.9694726  99.5813538  75.7295078 113.1599796  99.9206767  74.4960321
 120.5019061  97.1704174  83.5707507 119.7252396  97.7298094  83.5610372
 121.1409625  97.6560957  84.0922377 118.7565434  99.9789628  83.1325474
 119.4980118 100.5174672  82.8560298 118.0502419 100.6055916  83.2897026
 120.5851843  97.0591375  79.1031193 121.4313039  97.4830788  79.2465842
 120.5250481  96.4024999  79.7969756 120.1077550 102.4194367  72.7500010
 120.5715895 102.6982070  71.9604632 119.8434348 101.5177811  72.5673101
 117.0001631 101.9665848  75.6879773 117.5702988 102.3953117  75.0497258
 117.5909743 101.6848433  76.3863959 119.0446436  98.5417519  69.5589575
 119.7470479  98.9938563  70.0263501 118.7127064  97.9001338  70.1869468
 117.4926798  97.1329276  83.9340784 116.8625458  97.8145557  84.1676181
 117.3862885  97.0212357  82.9893923 112.7871770  96.8001072  74.8606709
 111.9970824  97.0558600  74.3846819 113.2783017  97.6149410  74.9658749
 114.7386515  97.1645651  71.8190185 113.9417679  97.2764345  72.3373681
 114.5112108  97.5032303  70.9531076 120.5692183 103.6890354  79.7672700
 120.6336615 104.1510762  80.6030872 119.8603107 103.0587719  79.8955010
 111.0709473  97.0531562  77.2921699 111.3217511  97.9378572  77.5579275
 111.6069021  96.8736164  76.5196791 120.2840201 105.3558462  69.6351680
 120.1485875 106.2009998  70.0636528 120.8250013 105.5577739  68.8717614
 116.7707540  91.4350042  86.2966035 116.3774486  90.8816240  86.9713680
 117.5873681  91.7460620  86.6872553 113.7369598 102.8733900  70.2079605
 114.2494119 103.6677150  70.3585170 114.3892311 102.1760190  70.1413207
 115.5464483 105.9899656  72.2902358 115.7231111 106.9117621  72.1023342
 116.3421316 105.6758075  72.7196738 119.6875501  92.8507921  83.8886292
 120.4285215  93.4515074  83.8090754 119.9193424  92.1085559  83.3304335
 114.8316839  98.0364288  82.1664522 114.7170354  97.1349545  82.4671621
 113.9761357  98.2827985  81.8149338 116.6695798 107.5077830  78.2912701
 117.2203223 107.3794893  77.5189695 115.8307274 107.8072719  77.9407594
 120.4662969 103.7728958  82.6356932 120.9991306 103.0117246  82.4056240
 119.9377050 103.4802610  83.3781086 111.7018515 101.2022554  70.9839176
 112.5393737 101.6119562  70.7672884 111.8796782 100.2621996  70.9539370
 121.1830058  93.7147336  71.7308247 120.3271654  93.3254186  71.5513886
 121.5957010  93.7939296  70.8708033 118.9572090  91.3332409  75.1365989
 119.8225087  91.1375217  74.7771878 119.0249599  91.1042760  76.0635345
 121.8315682 102.9014950  70.1475744 121.3037043 102.1667710  69.8348981
 121.3303185 103.6789627  69.9015712 116.5634410  93.5634616  72.5082355
 117.1378161  93.3409798  71.7755548 117.1505392  93.6323311  73.2610957
 116.8903997  95.5939077  66.5278241 116.0541309  95.9313764  66.8487515
 116.7508766  95.4588057  65.5905378 118.8657077  90.4375865  71.2357425
 118.2121490  90.1224883  70.6114040 118.8237551  89.8151606  71.9617248
 119.9768282 100.7195160  63.1510717 119.0695344 100.4884414  63.3501866
 120.4739314  99.9232780  63.3384699 121.1556516 100.8207755  67.6734707
 120.2467735 100.5366788  67.7707177 121.1851599 101.2406834  66.8138014
 111.7244686  98.5413269  71.6549909 111.5269086  97.9482630  70.9300976
 111.1691350  98.2365480  72.3725848 119.7041410  98.4336376  73.7744502
 119.7590019  97.4810212  73.6986979 118.8932612  98.5895815  74.2585801
 120.8532603 102.3616499  65.0122786 120.4152033 101.6452358  64.5528423
 121.5943044 102.5892614  64.4507877 117.6433769  97.0513436  71.5334881
 116.8301635  97.3507606  71.9400073 118.1392764  96.6569124  72.2509364
 117.1347844  94.6231791  77.1496116 117.7747224  94.4820550  76.4519080
 116.3025375  94.3366305  76.7734718 117.9108148 103.9234222  73.2631109
 118.7048747 103.4284542  73.0613684 117.1999841 103.3952085  72.8998814
 114.2190912  98.0677303  69.3390861 113.2888500  98.0061759  69.5560824
 114.3148384  97.5453256  68.5427503 114.1376461  94.5932116  71.9269103
 114.3983278  95.5077449  71.8178263 114.9593633  94.1256559  72.0765716
 115.6101386  96.0069873  79.0967928 116.2824439  95.7987235  78.4480576
 114.7831173  95.8091959  78.6573160 121.5126958  92.6331814  81.1133588
 120.8654873  93.3321764  81.0198065 122.2827973  93.0667958  81.4809837
 120.4879424 104.4963244  76.9428946 120.3490510 104.1282028  77.8154884
 119.6994020 105.0110883  76.7712904 122.0384639 103.8744846  74.3317784
 121.7034472 103.8345616  75.2275433 121.5388585 103.2089562  73.8588194
 116.0128883  99.2812476  79.8570365 115.8748681  98.5492715  80.4581904
 116.9233807  99.1921376  79.5754552 118.6411184  98.9932436  79.3454044
 119.3510802  98.3525628  79.3040663 118.5980492  99.2445330  80.2680225
 117.3540118  95.9797654  81.1649684 116.8177475  95.5288392  81.8171280
 116.7656826  96.1143562  80.4220148 116.7642377  95.4386305  63.7276147
 115.8871843  95.3175106  63.3638394 117.2400130  94.6472383  63.4755036
 108.2844517 100.2263465  73.8217655 108.9715557  99.9125195  73.2338670
 108.1292646 101.1304829  73.5484906 113.0879239  95.1153661  78.2502678
 113.0037428  94.5079331  77.5153088 112.2661946  95.6062680  78.2512175
 119.8437922  95.7424608  73.3444558 119.4735709  95.1895648  74.0325464
 120.3397014  95.1382741  72.7919558 117.6727120 106.2022103  80.4399576
 118.3736580 106.8358586  80.5928970 117.2022235 106.5436834  79.6795215
 121.5215979  99.4986521  84.7518163 120.8456616  99.3980651  85.4220539
 122.3443613  99.3425735  85.2154161 113.2694838 105.7358458  77.3730679
 113.8548275 104.9902146  77.5058583 113.0719677 106.0462415  78.2567343
 116.1233494 108.7709705  72.3893121 115.4543869 109.2555833  71.9057161
 115.9846363 109.0178926  73.3036500 107.8612493  98.3064058  76.0935122
 107.8996593  97.7727649  76.8872240 107.3552786  97.7799264  75.4746099
 115.2403255  93.1528599  79.5897664 115.3044582  94.0143429  79.1775062
 115.1770376  92.5402600  78.8570023 114.7155528  95.2251731  83.2370698
 115.3427567  94.8428808  83.8508223 113.8583447  95.0065933  83.6026391
 111.4921071  97.0328160  69.1689053 111.7874512  96.1238839  69.1156107
 110.5909106  97.0115900  68.8470056 115.0215318  95.1084157  75.1516602
 114.3001903  95.7220124  75.0124075 115.8108573  95.6441922  75.0733248
 117.8241631  92.4438583  81.4257254 118.3476033  92.6900880  82.1883563
 117.6053964  93.2758618  81.0060391 113.2208912  94.7142258  69.2928378
 112.8921618  93.8339637  69.1103484 113.5748283  94.6589927  70.1804768
 116.3350735  95.0015228  69.6603856 116.6746808  95.5301149  68.9382464
 116.7822856  95.3395634  70.4362423 119.0294176  93.3852278  79.1106924
 118.6890997  92.5860091  79.5127604 118.3233183  93.6853989  78.5383757
 119.6810648  90.4701591  77.5634247 120.5036717  89.9962069  77.4413137
 119.9248712  91.2492075  78.0632933 118.3218883  93.4989849  67.8597149
 119.0427245  93.8771102  67.3560866 117.6984187  94.2178726  67.9632127
 117.2049227  97.1620711  75.3726226 117.0593808  97.4761014  76.2650507
 116.7274430  97.7805612  74.8197124 119.0645610  94.1523259  75.4207115
 119.0507178  93.2564353  75.0839413 119.7818038  94.1593923  76.0545401
 120.9171740  94.5860600  77.4660243 120.6589518  95.5077670  77.4644573
 120.3856781  94.1891034  78.1560707 111.6794889  99.7026056  78.3113887
 111.1348357 100.4785864  78.4434161 112.5574239 100.0496860  78.1533008
 118.4682506  93.0337640  70.6894685 118.5898417  92.1054286  70.8885573
 118.1784548  93.0476326  69.7773001 121.3373696  90.7192550  73.8261405
 121.3595393  90.7831883  72.8713385 121.7541755  89.8797059  74.0201911
 112.4660911  98.8295952  81.2044044 111.7242647  98.9778587  81.7908674
 112.1453655  99.0904218  80.3410793 112.9117525 106.7161381  73.2354438
 113.7375544 106.4165153  72.8553082 112.5611577 105.9469003  73.6844227
 117.8799058 106.0687849  75.3052112 117.2579067 105.4058554  75.0054340
 118.5503925 106.0948981  74.6225760 111.1126130 104.6347707  74.1943372
 110.2758038 104.2069882  74.0127373 111.0849775 104.8280151  75.1314163
 117.9523585  94.5469637  84.8984618 118.0011741  95.4231760  84.5162388
 118.4946099  94.0047030  84.3256261 117.4412565 104.6191772  68.7810573
 117.5900685 105.3027237  68.1277245 118.2479008 104.5996862  69.2960028
 120.1822874  95.3001009  81.6530977 119.3126183  95.5934576  81.3813565
 120.4182354  95.8841454  82.3738240 115.1965198 100.6456950  69.7871641
 114.9511240  99.7419280  69.9851852 115.3661112 100.6474100  68.8451119
 114.4660845  96.3785308  67.2857803 113.7730090  96.4529663  66.6297839
 114.2212597  95.6145651  67.8079320 121.3254769  98.4500716  63.5938372
 122.2713873  98.3206924  63.6626790 120.9469014  97.7115377  64.0707801
 121.2093461 102.5018462  85.0539029 122.1296471 102.6797061  85.2479076
 121.1743044 101.5574507  84.9018729 119.5097686  96.3750692  63.5293258
 118.6029141  96.0783805  63.6055971 119.7873667  96.0780510  62.6627544
 110.4275626  97.6957055  73.9792304 110.1078411  96.8422364  73.6866678
 109.8809054  97.9105634  74.7350271 114.2055534 100.4119496  77.6961811
 114.4241543 101.3436604  77.7149844 114.6181308 100.0527471  78.4816614
 121.1259752  90.9187582  69.6837499 120.3160480  90.5734667  70.0592745
 121.8144168  90.6095125  70.2725111 119.0783399  95.9852702  87.0864559
 118.9780126  96.9347059  87.0176651 118.8604941  95.6570941  86.2140630
 118.2796470  93.2337627  63.6705237 119.1415634  93.5592525  63.9301054
 118.4646815  92.4469123  63.1578303 110.2963886 101.3159967  75.9485426
 109.6027358 100.9013920  75.4355380 111.0436877 101.3580503  75.3518845
 118.9414669  99.4149841  85.9029621 118.4581751 100.2150201  86.1093510
 119.0275608  99.4257786  84.9497065 112.2100629 101.2478221  73.8251441
 112.1871317 101.3465908  72.8733324 112.5201265 102.0943371  74.1468607
 114.8688007 103.3054376  77.9398055 115.8231260 103.2738318  77.8727986
 114.6700530 102.8444999  78.7548281 115.4587389 101.8755492  80.5068853
 116.2780278 102.3699570  80.5303690 115.7324196 100.9587460  80.4786420
 113.2238235 108.8473995  74.9568253 113.0892703 108.0874396  74.3906251
 112.8070298 109.5714895  74.4897042 110.7122303  96.2093626  81.2061050
 111.3581167  95.6992580  81.6948275 110.5039454  96.9462307  81.7804475
 119.2325913  90.4733670  66.9584946 119.2204583  91.4175510  67.1153217
 120.1249335  90.2903816  66.6644407 115.0519794  93.3561243  85.3036064
 115.9151256  92.9998048  85.5139388 114.4785205  93.0175137  85.9911468
  52.9739306  -4.9713075  57.6391447  52.8963336  -4.0205250  57.7179928
  52.3700950  -5.3167202  58.2966373  50.6126136  -2.2227681  61.7839649
  50.8522734  -1.5909156  62.4618668  49.7695332  -2.5739641  62.0705008
  51.0870968  -6.1979678  59.1138428  50.4181343  -5.7133551  58.6302468
  50.9483838  -5.9510458  60.0281806  55.2276237  -4.1635935  65.7121086
  55.7794545  -4.0004313  66.4770171  55.5682430  -3.5731497  65.0401111
  55.3962660  -4.4439544  59.9575117  54.9567650  -4.9363165  60.6507974
  56.1470777  -4.9866576  59.7167192  48.1875710  -6.1215388  61.6813559
  48.0530178  -6.8814987  61.1151557  47.7707772  -5.3974488  61.2142348
  51.3444836  -5.2246071  61.8932002  51.2277220  -4.2800639  61.7910692
  50.5237282  -5.5272510  62.2817801  52.3699350  -4.5717809  65.1087930
  53.2726596  -4.5394199  65.4254425  52.1436720  -5.5017358  65.1234266
  66.6695351  -0.0298856  62.7705296  66.3313863  -0.1457792  61.8825831
  67.5385120  -0.4307691  62.7506302  62.5282167   1.8236620  58.7602187
  61.9647032   1.7326557  57.9918475  62.4134562   1.0036525  59.2404680
  67.1515134   1.1235995  68.7291502  67.1403775   0.7288794  67.8572005
  67.3135774   0.3902068  69.3225273  60.0746599   3.3187812  61.5986408
  60.8667891   2.9778636  61.1832707  60.3143249   3.4282787  62.5188561
  68.1081726   5.4907588  54.0716652  67.4569706   6.0761668  53.6850666
  68.9026089   6.0213783  54.1311690  62.0337353   2.5796725  54.4703786
  62.8068229   2.0325712  54.3316662  62.3862752   3.4440974  54.6818248
  63.8722396   3.9073107  67.6770686  63.5812262   4.8118738  67.5617352
  64.5079380   3.9489635  68.3914755  64.7978602   1.2849956  64.2672045
  65.3942175   1.0605978  63.5529008  64.8553574   0.5434701  64.8697493
  64.3703631  -1.2610609  52.1022236  64.6229152  -1.7829088  51.3405699
  63.4328190  -1.4244464  52.2048920  69.5856991   3.1798020  54.6085636
  68.9502824   3.2532646  55.3206541  69.2554397   3.7691619  53.9304716
  64.0899920   0.6417497  54.3046611  63.9736178  -0.0337600  54.9727696
  64.2002179   0.1549871  53.4878764  66.4331461   0.1027644  58.0093301
  66.0689668  -0.4241735  58.7206222  67.2898576  -0.2873887  57.8359786
  68.8312281   3.5934523  64.6720479  68.5313004   4.4959561  64.5636287
  68.4863340   3.3266706  65.5241632  62.2824762   0.0448320  60.7057184
  61.3575259  -0.0875466  60.9134876  62.5309175   0.8242539  61.2027126
  59.6433573  -0.3118407  61.5400973  59.7725954  -0.0583928  62.4540385
  58.9631025   0.2809301  61.2205628  63.8133060  10.3578843  57.6391447
  63.7357090  11.3086668  57.7179928  63.2094704  10.0124716  58.2966373
  64.5596663   0.3392162  69.8570781  65.3011347   0.8777206  69.5805605
  63.8533648   0.9658451  70.0142333  70.0352002   2.4821302  68.4542942
  70.4435358   2.0403713  67.7097575  69.3129264   1.9073930  68.7077135
  70.3580817   3.0422493  62.2095231  69.7289679   3.2068207  61.5071299
  69.9706479   3.4564102  62.9806195  74.2370049   3.9776931  59.5639595
  73.5521087   4.3575832  59.0136628  74.3213898   4.5872257  60.2971543
  71.4920980   1.6236890  66.1634939  71.7037876   2.2668650  65.4869320
  71.4450729   0.7899206  65.6956869  65.9108779   2.7796901  59.4745316
  66.3747124   3.0584604  58.6849939  65.6465577   1.8780346  59.2918407
  62.8032860   2.3268383  62.4125080  63.3734217   2.7555651  61.7742564
  63.3940972   2.0450967  63.1109265  64.8477665  -1.0979947  56.2834882
  65.5501708  -0.6458903  56.7508808  64.5158293  -1.7396128  56.9114775
  63.2958026  -2.5068190  70.6586091  62.6656687  -1.8251909  70.8921488
  63.1894114  -2.6185108  69.7139229  58.5902999  -2.8396394  61.5852015
  57.8002053  -2.5838865  61.1092126  59.0814246  -2.0248056  61.6904056
  72.6066808   4.5008845  64.3357296  73.4284252   4.0989032  64.0539978
  72.6029211   4.3977079  65.2873412  60.5417744  -2.4751815  58.5435492
  59.7448907  -2.3633120  59.0618988  60.3143336  -2.1365163  57.6776382
  66.3723412   4.0492889  66.4918007  66.4367844   4.5113296  67.3276178
  65.6634336   3.4190253  66.6200316  56.8740702  -2.5865904  64.0167006
  57.1248740  -1.7018894  64.2824582  57.4100250  -2.7661302  63.2442098
  66.0871429   5.7160996  56.3596987  65.9517104   6.5612532  56.7881835
  66.6281242   5.9180274  55.5962921  59.5400827   3.2336434  56.9324912
  60.0525347   4.0279684  57.0830477  60.1923540   2.5362724  56.8658513
  61.3495711   6.3502190  59.0147665  61.5262340   7.2720155  58.8268649
  62.1452545   6.0360610  59.4442045  60.6348068  -1.6033178  68.8909828
  60.5201583  -2.5047921  69.1916927  59.7792586  -1.3569481  68.5394645
  67.7139906   6.3384563  70.4897329  67.2703760   5.5520941  70.1718233
  68.3757119   6.5263713  69.8241220  62.4727027   7.8680364  65.0158007
  63.0234452   7.7397427  64.2435001  61.6338503   8.1675253  64.6652900
  69.8121144   6.6187362  68.5178730  69.7939619   7.4396243  68.0258999
  70.7341064   6.4941438  68.7428871  66.2694198   4.1331492  69.3602239
  66.8022535   3.3719780  69.1301547  65.7408279   3.8405144  70.1026393
  57.5049744   1.5625088  57.7084482  58.3424966   1.9722097  57.4918190
  57.6828011   0.6224530  57.6784676  74.3748450   1.9832524  55.3321489
  73.5977893   1.6443683  54.8876651  75.0539931   1.9885147  54.6576454
  67.6346911   3.2617484  56.8721051  67.1068272   2.5270244  56.5594288
  67.1334413   4.0392161  56.6261019  72.6139757   1.4566505  61.9888097
  71.9563431   2.1465766  62.0768226  73.4180156   1.8462937  62.3322083
  65.7799511   1.0797695  49.8756024  64.8726573   0.8486948  50.0747173
  66.2770543   0.2835314  50.0630005  68.6867590   9.7895202  52.7952710
  68.0129289  10.0926899  53.4037668  69.0733412  10.5924282  52.4458167
  66.9587744   1.1810290  54.3980014  66.0498964   0.8969322  54.4952483
  66.9882828   1.6009368  53.5383321  72.1907012   4.7916879  58.1671181
  71.7369339   3.9507789  58.2236372  71.5600978   5.4278277  58.5045961
  70.6339951   6.6293376  59.1020999  70.9262925   7.1898433  58.3833365
  71.1438572   6.9221937  59.8574158  57.5275915  -1.0984196  58.3795216
  57.3300315  -1.6914836  57.6546282  56.9722579  -1.4031986  59.0971155
  66.6563832   2.7219033  51.7368092  66.2183262   2.0054892  51.2773730
  67.3974273   2.9495148  51.1753184  65.5973576   7.4073727  60.1914453
  65.5549755   7.6334573  59.2622985  66.5136275   7.1737101  60.3400254
  74.8006327   3.0652757  62.8055682  75.2342833   2.9728046  63.6538736
  75.5137907   3.0410258  62.1675698  63.7139377   4.2836756  59.9876415
  64.5079975   3.7887076  59.7858990  63.0031069   3.7554619  59.6244121
  68.5334221   6.6654851  64.3388783  68.5871244   7.2345788  65.1066499
  67.6649003   6.8356736  63.9742820  60.0222140  -1.5720162  56.0636168
  59.0919729  -1.6335707  56.2806130  60.1179612  -2.0944210  55.2672809
  75.6621876   3.1076458  65.3388568  75.8557766   4.0122268  65.5847843
  75.5622494   2.6483877  66.1727153  70.7236985   3.2583201  70.9129448
  70.5722491   3.0293752  69.9959532  70.7141664   4.2153802  70.9260793
  67.4922321   0.8315113  65.8975715  68.4214381   0.9826273  65.7244682
  67.0713351   0.9199134  65.0424361  66.2910653   4.8565778  63.6674252
  66.1521739   4.4884562  64.5400191  65.5025249   5.3713417  63.4958210
  66.8858805   9.9574874  55.0099789  67.0610561   9.4862917  55.8245412
  66.1991593  10.5840640  55.2381050  67.8415868   4.2347380  61.0563090
  67.5065701   4.1948150  61.9520740  67.3419814   3.5692096  60.5833500
  61.8160112  -0.3584989  66.5815671  61.6779910  -1.0904751  67.1827210
  62.7265036  -0.4476089  66.2999859  70.7775060   1.5803415  51.3300150
  70.1604230   0.8550243  51.2333203  70.3091548   2.3412775  50.9867224
  64.4442413  -0.6465030  66.0699351  65.1542031  -1.2871838  66.0285969
  64.4011721  -0.3952135  66.9925532  72.4329191   6.2902323  68.9905930
  72.3741738   5.6061543  68.3236513  72.8348710   7.0321313  68.5386556
  61.4519890  13.1064237  61.7839649  61.6916488  13.7382761  62.4618668
  60.6089087  12.7552277  62.0705008  72.4346599   4.2541907  67.2219910
  71.5473377   3.9167829  67.3446309  73.0045150   3.5224938  67.4588675
  54.0875746   0.5865999  60.5462961  54.7746786   0.2727729  59.9583977
  53.9323874   1.4907364  60.2730213  65.9647752   8.9143359  64.1881153
  65.8917924   9.7198331  64.7000458  65.5225145   9.1135325  63.3629174
  65.7537532   8.1515130  57.6983975  64.9705054   8.6936810  57.7922199
  66.4530277   8.6689109  58.0978216  68.4246436   8.8130194  66.3439312
  69.1374408   9.4477658  66.2715213  67.9336464   8.9094059  65.5279314
  70.1463962   2.7181446  57.9156603  69.2120241   2.8382909  57.7461308
  70.3240631   1.8153913  57.6516613  63.4758349   6.5624637  67.1644883
  64.1767809   7.1961120  67.3174277  63.0053464   6.9039369  66.4040522
  71.6012745   4.9042587  55.4492790  71.8772589   4.7899181  56.3586664
  70.7317244   4.5060072  55.4104963  68.2366809   9.1528938  59.0925603
  68.4189203   8.3350594  59.5553356  69.0599795   9.3696630  58.6550493
  68.5708974   8.0797123  56.3540652  69.0996741   7.5689577  55.7410814
  68.8337194   7.7639653  57.2186185  67.3247208  -0.1410945  71.4763470
  66.6487845  -0.2416815  72.1465845  68.1474842  -0.2971731  71.9399467
  59.0726067   6.0960992  64.0975985  59.6579504   5.3504680  64.2303889
  58.8750906   6.4064949  64.9812649  61.9264722   9.1312239  59.1138428
  61.2575098   9.6158367  58.6302468  61.7877592   9.3781460  60.0281806
  53.6643722  -1.3333408  62.8180428  53.7027821  -1.8669817  63.6117547
  53.1584015  -1.8598202  62.1991406  66.0669991  11.1655983  65.7121086
  66.6188299  11.3287604  66.4770171  66.4076184  11.7560421  65.0401111
  70.9180865   5.9917240  71.5669740  71.4620769   6.6047199  71.0724695
  70.3367710   6.5496819  72.0836753  57.2952300  -2.6069306  55.8934360
  57.5905741  -3.5158627  55.8401413  56.3940335  -2.6281566  55.5715362
  69.2038378   9.1137958  62.6984768  69.0789518   8.3127698  62.1895714
  69.8617469   9.6084152  62.2098738  71.2673287   6.9146979  64.3264318
  70.3203622   6.7952330  64.2542645  71.6156060   6.0269477  64.4090580
  68.2719720   6.7099695  60.5268670  68.1244682   5.7816402  60.7076241
  69.0973213   6.7319785  60.0425746  71.8753842   7.5328253  61.6133543
  72.8000389   7.3271115  61.4757994  71.7069145   7.2844655  62.5222885
  63.0080456  -2.4776754  62.0971532  62.8625036  -2.1636451  62.9895814
  62.5305659  -1.8591854  61.5442431  71.6649158   8.0513921  56.9695635
  71.8386036   7.4860343  56.2169487  72.1578049   8.8514816  56.7875125
  57.4826118   0.0628590  65.0359193  56.9379586   0.8388398  65.1679468
  58.3605468   0.4099394  64.8778315  72.6524330   7.3680685  54.0692533
  73.3475235   7.9887378  54.2879848  72.9947481   6.5176037  54.3444911
  58.2692140  -0.8101514  67.9289350  57.5273876  -0.6618878  68.5153981
  57.9484884  -0.5493248  67.0656100  74.5515754   4.8180391  55.5979864
  75.0767078   5.1567664  54.8729184  74.4638106   3.8827406  55.4142998
  66.2135802   8.7314465  67.7269740  66.5222929   8.4863611  68.5992440
  67.0111284   8.9361103  67.2388611  66.2356414  10.8852374  59.9575117
  65.7961405  10.3928753  60.6507974  66.9864531  10.3425342  59.7167192
  58.7148753   7.0763915  59.9599745  59.5406773   6.7767687  59.5798389
  58.3642805   6.3071537  60.4089534  63.6830287   6.4290383  62.0297419
  63.0610296   5.7661088  61.7299646  64.3535153   6.4551515  61.3471066
  56.9157358   4.9950241  60.9188679  56.0789267   4.5672416  60.7372680
  56.8881004   5.1882685  61.8559470  74.2409660   5.4513295  70.9031062
  73.4505203   5.4337433  70.3635561  74.0043014   5.9901588  71.6580098
  74.3607535   2.3005761  68.2163790  74.4105540   2.1355768  69.1579313
  74.2521458   1.4333020  67.8261671  63.2443793   4.9794307  55.5055879
  63.3931914   5.6629771  54.8522552  64.0510237   4.9599397  56.0205335
  75.8625732   4.7202702  68.4605812  75.5710540   5.0832683  69.2969273
  75.2497863   4.0069711  68.2819144  60.9996426   1.0059484  56.5116948
  60.7542468   0.1021814  56.7097158  61.1692341   1.0076635  55.5696426
  66.7439199   7.4742437  52.9767627  66.1713166   8.0932624  52.5238098
  67.3171993   8.0241799  53.5107548  69.9636459   7.7579587  54.1076209
  70.8967132   7.6925149  54.3109084  69.8759672   8.5935854  53.6490741
  72.5924475   7.0745458  51.0680156  72.5138107   6.7405321  51.9615914
  73.4134142   7.5667225  51.0671629  67.0124690   2.8620996  71.7784336
  67.9327699   3.0399595  71.9724383  66.9774273   1.9177041  71.6264035
  56.2306855  -1.9440410  60.7037611  55.9109639  -2.7975102  60.4111985
  55.6840283  -1.7291832  61.4595578  60.0086763   0.7722031  64.4207117
  60.2272772   1.7039138  64.4395151  60.4212536   0.4130005  65.2061921
  56.0995115   1.6762501  62.6730732  55.4058586   1.2616454  62.1600687
  56.8468106   1.7183038  62.0764151  64.7445898  -0.2247625  72.6274928
  64.2612980   0.5752735  72.8338817  64.8306837  -0.2139680  71.6742372
  58.0131858   1.6080755  60.5496747  57.9902546   1.7068442  59.5978630
  58.3232494   2.4545906  60.8713913  60.6719235   3.6656910  64.6643362
  61.6262489   3.6340852  64.5973293  60.4731759   3.2047534  65.4793587
  61.2618618   2.2358026  67.2314159  62.0811507   2.7302105  67.2548997
  61.5355425   1.3189994  67.2031727  59.0269464   9.2076529  61.6813559
  58.8923932   8.4476930  61.1151557  58.6101526   9.9317429  61.2142348
  70.1628427   4.3913453  50.6890135  70.8664277   4.5963455  51.3047790
  69.4391076   4.9590215  50.9539218  62.1838590  10.1045846  61.8932002
  62.0670974  11.0491279  61.7910692  61.3631036   9.8019408  62.2817801
  72.0715125   4.8295982  52.7388595  72.9060729   4.3977181  52.5566070
  71.9099468   4.6577996  53.6665489  71.7261017   1.3328095  54.1044934
  71.6709821   1.1672367  53.1633378  71.1007072   2.0404128  54.2607124
  56.5153532  -3.4303840  67.9306356  57.1612395  -3.9404886  68.4193581
  56.3070683  -2.6935159  68.5049782  69.0406924   3.6377007  73.4298497
  69.9098084   3.8117660  73.0685132  68.5613675   4.4571424  73.3074226
  63.2093104  10.7574108  65.1087930  64.1120351  10.7897719  65.4254425
  62.9830474   9.8274559  65.1234266  64.9646706   9.5105095  61.7698009
  64.0142337   9.5106956  61.6562381  65.2679192   8.7637829  61.2534044
  80.6999400  15.3465633  62.8343772  81.3377810  15.2272381  62.1307112
  80.5820243  16.2946477  62.8931724  77.5089106  15.2993061  62.7705296
  77.1707617  15.1834126  61.8825831  78.3778874  14.8984226  62.7506302
  73.3675922  17.1528538  58.7602187  72.8040787  17.0618475  57.9918475
  73.2528317  16.3328442  59.2404680  77.9908889  16.4527913  68.7291502
  77.9797530  16.0580711  67.8572005  78.1529528  15.7193986  69.3225273
  70.9140354  18.6479729  61.5986408  71.7061646  18.3070554  61.1832707
  71.1537004  18.7574704  62.5188561  78.9475480  20.8199505  54.0716652
  78.2963460  21.4053586  53.6850666  79.7419843  21.3505700  54.1311690
  72.8731108  17.9088643  54.4703786  73.6461984  17.3617630  54.3316662
  73.2256506  18.7732892  54.6818248  74.7116150  19.2365025  67.6770686
  74.4206016  20.1410656  67.5617352  75.3473134  19.2781552  68.3914755
  75.6372357  16.6141873  64.2672045  76.2335929  16.3897896  63.5529008
  75.6947328  15.8726619  64.8697493  75.2097385  14.0681309  52.1022236
  75.4622906  13.5462830  51.3405699  74.2721944  13.9047454  52.2048920
  80.2540668  13.0717087  59.9096980  81.0403757  12.6536510  59.5587397
  80.5179372  13.9763179  60.0778628  80.4250746  18.5089937  54.6085636
  79.7896578  18.5824564  55.3206541  80.0948152  19.0983536  53.9304716
  85.6549095  13.0092320  60.8129958  86.3874267  12.4391537  61.0467788
  84.8988451  12.6213921  61.2536464  74.9293674  15.9709415  54.3046611
  74.8129932  15.2954318  54.9727696  75.0395934  15.4841789  53.4878764
  77.2725215  15.4319562  58.0093301  76.9083422  14.9050183  58.7206222
  78.1292331  15.0418031  57.8359786  83.1774516   6.7213894  65.2724567
  82.8457840   7.5909305  65.0485782  82.5820129   6.4050178  65.9518597
  76.9130702  10.4609461  53.0054649  77.0805104  11.3289698  53.3725120
  76.7227871  10.6236743  52.0815938  79.6706035  18.9226440  64.6720479
  79.3706758  19.8251479  64.5636287  79.3257095  18.6558624  65.5241632
  73.1218517  15.3740237  60.7057184  72.1969013  15.2416451  60.9134876
  73.3702930  16.1534456  61.2027126  83.0703179  11.4408981  62.3517917
  82.1620056  11.3724389  62.0576678  83.0190775  11.9180925  63.1799742
  76.8919923  12.9167119  53.9901316  76.7719548  13.3624170  54.8286796
  76.1972511  13.2652437  53.4314854  70.4827328  15.0173511  61.5400973
  70.6119709  15.2707990  62.4540385  69.8024779  15.6101219  61.2205628
  77.1444045  12.8598626  70.2952814  76.3677379  13.4192546  70.2855679
  77.7834608  13.3455409  70.8167684  84.9364825   9.6425419  64.1295791
  84.2939206   9.9357952  63.4835585  84.4319754   9.5278339  64.9348987
  82.5904989  13.3888592  54.8181650  83.5022845  13.6215979  54.6429347
  82.0814636  13.9725636  54.2556729  75.3990417  15.6684080  69.8570781
  76.1405101  16.2069123  69.5805605  74.6927403  16.2950368  70.0142333
  80.8745757  17.8113220  68.4542942  81.2829113  17.3695630  67.7097575
  80.1523018  17.2365847  68.7077135  77.2276827  12.7485827  65.8276499
  78.0738022  13.1725240  65.9711148  77.1675464  12.0919451  66.5215063
  81.1974571  18.3714411  62.2095231  80.5683434  18.5360125  61.5071299
  80.8100233  18.7856020  62.9806195  85.0763803  19.3068848  59.5639595
  84.3914841  19.6867750  59.0136628  85.1607653  19.9164175  60.2971543
  80.3776272  10.4090195  67.4857673  80.1337204  11.1632256  66.9491949
  80.6536203  10.7875543  68.3204920  82.3314735  16.9528807  66.1634939
  82.5431630  17.5960567  65.4869320  82.2844483  16.1191124  65.6956869
  79.9340964   9.5646628  63.0671511  79.0725443   9.8627882  63.3588248
  79.9603398   9.7817027  62.1352543  76.7502533  18.1088819  59.4745316
  77.2140879  18.3876522  58.6849939  76.4859331  17.2072263  59.2918407
  73.6426614  17.6560300  62.4125080  74.2127971  18.0847569  61.7742564
  74.2334726  17.3742885  63.1109265  75.6871419  14.2311971  56.2834882
  76.3895463  14.6833015  56.7508808  75.3552048  13.5895790  56.9114775
  74.1351781  12.8223728  70.6586091  73.5050441  13.5040009  70.8921488
  74.0287869  12.7106809  69.7139229  69.4296753  12.4895524  61.5852015
  68.6395807  12.7453052  61.1092126  69.9208001  13.3043862  61.6904056
  83.4460563  19.8300763  64.3357296  84.2678007  19.4280950  64.0539978
  83.4422966  19.7268997  65.2873412  71.3811499  12.8540103  58.5435492
  70.5842662  12.9658797  59.0618988  71.1537091  13.1926755  57.6776382
  77.2117166  19.3784806  66.4918007  77.2761599  19.8405213  67.3276178
  76.5028090  18.7482171  66.6200316  67.7134456  12.7426014  64.0167006
  67.9642495  13.6273024  64.2824582  68.2494005  12.5630616  63.2442098
  91.5366556  16.1739511  60.6842267  90.7830264  15.6046909  60.5286272
  91.6714097  16.1402176  61.6312902  76.9265184  21.0452914  56.3596987
  76.7910859  21.8904449  56.7881835  77.4674996  21.2472191  55.5962921
  73.4132524   7.1244494  73.0211342  73.0199469   6.5710692  73.6958986
  74.2298664   7.4355072  73.4117860  70.3794581  18.5628352  56.9324912
  70.8919102  19.3571602  57.0830477  71.0317294  17.8654642  56.8658513
  72.1889466  21.6794108  59.0147665  72.3656094  22.6012073  58.8268649
  72.9846300  21.3652527  59.4442045  76.3300485   8.5402373  70.6131599
  77.0710198   9.1409526  70.5336061  76.5618407   7.7980010  70.0549641
  71.4741823  13.7258740  68.8909828  71.3595338  12.8243997  69.1916927
  70.6186340  13.9722437  68.5394645  78.5533660  21.6676480  70.4897329
  78.1097514  20.8812859  70.1718233  79.2150874  21.8555631  69.8241220
  73.3120781  23.1972282  65.0158007  73.8628207  23.0689345  64.2435001
  72.4732257  23.4967171  64.6652900  80.6514898  21.9479280  68.5178730
  80.6333374  22.7688161  68.0258999  81.5734818  21.8233355  68.7428871
  77.1087953  19.4623410  69.3602239  77.6416289  18.7011698  69.1301547
  76.5802034  19.1697061  70.1026393  80.2757647   4.5683476  64.8895880
  79.9321917   5.4585117  64.8134991  80.6436610   4.3785133  64.0265465
  68.3443498  16.8917006  57.7084482  69.1818720  17.3014014  57.4918190
  68.5221766  15.9516448  57.6784676  80.2407930  14.5592087  53.3968315
  79.7254554  15.3296691  53.6356703  79.9685239  13.8857223  54.0201377
  77.8255041   9.4041787  58.4553554  76.9696638   9.0148638  58.2759192
  78.2381993   9.4833748  57.5953339  79.3554188   6.9388131  62.8545114
  78.8518983   6.9018266  62.0412919  79.6484795   7.8480873  62.9141770
  75.5997074   7.0226860  61.8611295  76.4650071   6.8269669  61.5017185
  75.6674583   6.7937212  62.7880652  85.2142204  17.3124441  55.3321489
  84.4371647  16.9735601  54.8876651  85.8933685  17.3177064  54.6576454
  80.0294233  12.4319179  55.2228097  79.7244369  12.7465328  56.0738240
  80.9824675  12.5100599  55.2655430  78.4740665  18.5909402  56.8721051
  77.9462027  17.8562162  56.5594288  77.9728168  19.3684078  56.6261019
  83.4533511  16.7858423  61.9888097  82.7957186  17.4757684  62.0768226
  84.2573910  17.1754854  62.3322083  73.2059393   9.2529068  59.2327662
  73.7803145   9.0304250  58.5000855  73.7930375   9.3217763  59.9856263
  82.2638970  15.1402795  60.0392039  82.7770852  15.7732787  60.5413748
  82.9140194  14.5403991  59.6735399  73.5328980  11.2833529  53.2523547
  72.6966292  11.6208216  53.5732822  73.3933750  11.1482509  52.3150684
  75.5082061   6.1270317  57.9602732  74.8546473   5.8119334  57.3359346
  75.4662535   5.5046058  58.6862554  76.6193265  16.4089612  49.8756024
  75.7120327  16.1778866  50.0747173  77.1164297  15.6127232  50.0630005
  78.7419801  12.6152251  62.2850379  77.8242362  12.8367198  62.1272067
  79.1579945  12.6898561  61.4262086  79.5254849  14.0143666  57.4153059
  80.2726668  14.5265064  57.1060181  79.7946438  13.6927719  58.2757453
  77.7981499  16.5102207  54.3980014  76.8892718  16.2261240  54.4952483
  77.8276583  16.9301286  53.5383321  83.0300766  20.1208797  58.1671181
  82.5763093  19.2799707  58.2236372  82.3994733  20.7570195  58.5045961
  81.9733686  11.0500783  59.3971849  81.2356443  10.5378169  59.7282091
  82.2260459  10.6101164  58.5855126  81.4733705  21.9585293  59.1020999
  81.7656680  22.5190350  58.3833365  81.9832326  22.2513854  59.8574158
  68.3669669  14.2307721  58.3795216  68.1694069  13.6377082  57.6546282
  67.8116333  13.9259932  59.0971155  76.3466393  14.1230828  60.4989809
  76.4015003  13.1704664  60.4232286  75.5357595  14.2790267  60.9831107
  77.4957587  18.0510951  51.7368092  77.0577017  17.3346810  51.2773730
  78.2368027  18.2787066  51.1753184  74.2858753  12.7407888  58.2580188
  73.4726618  13.0402058  58.6645380  74.7817747  12.3463576  58.9754670
  76.4367331  22.7365644  60.1914453  76.3943509  22.9626491  59.2622985
  77.3530030  22.5029019  60.3400254  79.8832964  13.2049712  67.0895082
  80.2382352  13.4321185  67.9489548  80.5305096  13.5368089  66.4672337
  85.6130701  16.3268148  57.7944411  85.4748600  16.5169744  56.8665600
  85.2566920  17.0887531  58.2512462  73.7772828  10.3126243  63.8741423
  74.4172207  10.1715002  63.1764386  72.9450358  10.0260756  63.4980025
  85.6400081  18.3944675  62.8055682  86.0736588  18.3019964  63.6538736
  86.3531662  18.3702175  62.1675698  74.5533131  19.6128673  59.9876415
  75.3473730  19.1178994  59.7858990  73.8424824  19.0846537  59.6244121
  79.3727976  21.9946769  64.3388783  79.4264998  22.5637705  65.1066499
  78.5042757  22.1648654  63.9742820  70.8615895  13.7571755  56.0636168
  69.9313483  13.6956211  56.2806130  70.9573367  13.2347708  55.2672809
  70.7801444  10.2826568  58.6514410  71.0408261  11.1971901  58.5423570
  71.6018616   9.8151011  58.8011022  72.2526369  11.6964325  65.8213234
  72.9249423  11.4881687  65.1725883  71.4256156  11.4986411  65.3818466
  86.5015631  18.4368376  65.3388568  86.6951521  19.3414186  65.5847843
  86.4016249  17.9775795  66.1727153  78.1551941   8.3226266  67.8378895
  77.5079856   9.0216216  67.7443371  78.9252957   8.7562410  68.2055143
  81.5630739  18.5875118  70.9129448  81.4116246  18.3585670  69.9959532
  81.5535419  19.5445720  70.9260793  78.3316076  16.1607031  65.8975715
  79.2608136  16.3118191  65.7244682  77.9107106  16.2491052  65.0424361
  77.1304407  20.1857695  63.6674252  76.9915493  19.8176480  64.5400191
  76.3419004  20.7005335  63.4958210  78.6809623  19.5639298  61.0563090
  78.3459455  19.5240068  61.9520740  78.1813568  18.8984014  60.5833500
  72.6553867  14.9706928  66.5815671  72.5173664  14.2387167  67.1827210
  73.5658790  14.8815828  66.2999859  81.6168814  16.9095333  51.3300150
  80.9997985  16.1842161  51.2333203  81.1485303  17.6704693  50.9867224
  75.2836167  14.6826888  66.0699351  75.9935786  14.0420080  66.0285969
  75.2405475  14.9339782  66.9925532  83.2722946  21.6194241  68.9905930
  83.2135492  20.9353461  68.3236513  83.6742464  22.3613231  68.5386556
  73.9965101  11.6692105  67.8894990  73.4602458  11.2182844  68.5416587
  73.4081810  11.8038014  67.1465455  73.4067360  11.1280757  50.4521454
  72.5296826  11.0069558  50.0883701  73.8825113  10.3366835  50.2000343
  83.2740353  19.5833825  67.2219910  82.3867132  19.2459747  67.3446309
  83.8438904  18.8516856  67.4588675  64.9269500  15.9157917  60.5462961
  65.6140540  15.6019647  59.9583977  64.7717629  16.8199281  60.2730213
  69.7304222  10.8048113  64.9747985  69.6462411  10.1973783  64.2398395
  68.9086929  11.2957131  64.9757481  76.8041507  24.2435277  64.1881153
  76.7311678  25.0490249  64.7000458  76.3618900  24.4427243  63.3629174
  76.5931286  23.4807047  57.6983975  75.8098808  24.0228727  57.7922199
  77.2924031  23.9981027  58.0978216  79.9027936   9.2901677  60.3418180
  80.3996636   8.5371639  60.0219250  79.1314918   9.3265993  59.7761389
  87.7557694  14.9942042  61.9836472  87.7447570  15.8766758  61.6130405
  86.8875073  14.6413593  61.7891009  79.2640190  24.1422111  66.3439312
  79.9768162  24.7769576  66.2715213  78.7730219  24.2385977  65.5279314
  80.9857717  18.0473364  57.9156603  80.0513996  18.1674826  57.7461308
  81.1634385  17.1445831  57.6516613  76.4862905  11.4319060  60.0689865
  76.1160693  10.8790100  60.7570770  76.9821998  10.8277193  59.5164865
  84.3730268  13.8890683  58.4506638  84.8390721  14.7218675  58.3766940
  84.8237769  13.4235665  59.1551896  74.3152104  21.8916555  67.1644883
  75.0161563  22.5253038  67.3174277  73.8447219  22.2331286  66.4040522
  82.4406499  20.2334504  55.4492790  82.7166343  20.1191099  56.3586664
  81.5710998  19.8351989  55.4104963  82.3446931   6.2571270  62.4897539
  81.4310011   6.4875497  62.6579746  82.7740033   6.3409714  63.3411571
  82.1153390  14.4461162  64.9897433  81.4624840  14.6937070  64.3349886
  82.4933769  13.6325300  64.6559910  79.0760563  24.4820855  59.0925603
  79.2582958  23.6642511  59.5553356  79.8993549  24.6988548  58.6550493
  79.4102729  23.4089040  56.3540652  79.9390495  22.8981495  55.7410814
  79.6730949  23.0931571  57.2186185  78.1640963  15.1880973  71.4763470
  77.4881600  15.0875102  72.1465845  78.9868596  15.0320187  71.9399467
  69.9119822  21.4252910  64.0975985  70.4973258  20.6796598  64.2303889
  69.7144660  21.7356866  64.9812649  64.5037476  13.9958510  62.8180428
  64.5421576  13.4622101  63.6117547  63.9977769  13.4693715  62.1991406
  76.9063745  26.4947901  65.7121086  77.4582054  26.6579522  66.4770171
  77.2469939  27.0852338  65.0401111  71.8828239   8.8423050  66.3142971
  71.9469565   9.7037881  65.9020368  71.8195359   8.2297052  65.5815329
  71.3580511  10.9146183  69.9616005  71.9852550  10.5323260  70.5753529
  70.5008430  10.6960385  70.3271697  81.7574620  21.3209158  71.5669740
  82.3014524  21.9339116  71.0724695  81.1761465  21.8788737  72.0836753
  68.1346054  12.7222612  55.8934360  68.4299495  11.8133290  55.8401413
  67.2334090  12.7010352  55.5715362  80.0432133  24.4429876  62.6984768
  79.9183272  23.6419616  62.1895714  80.7011224  24.9376070  62.2098738
  71.6640301  10.7978609  61.8761908  70.9426887  11.4114576  61.7369382
  72.4533557  11.3336373  61.7978554  82.1067041  22.2438896  64.3264318
  81.1597377  22.1244247  64.2542645  82.4549814  21.3561394  64.4090580
  74.4666615   8.1333035  68.1502560  74.9901016   8.3795332  68.9128869
  74.2478948   8.9653070  67.7305697  69.8633896  10.4036710  56.0173685
  69.5346602   9.5234089  55.8348791  70.2173266  10.3484378  56.9050074
  79.1113474  22.0391612  60.5268670  78.9638437  21.1108320  60.7076241
  79.9366968  22.0611703  60.0425746  72.9775719  10.6909680  56.3849163
  73.3171791  11.2195601  55.6627771  73.4247839  11.0290086  57.1607729
  82.7147596  22.8620171  61.6133543  83.6394144  22.6563033  61.4757994
  82.5462900  22.6136572  62.5222885  75.6719160   9.0746730  65.8352231
  75.3315980   8.2754543  66.2372911  74.9658166   9.3748441  65.2629064
  76.3235631   6.1596043  64.2879554  77.1461701   5.6856521  64.1658444
  76.5673695   6.9386526  64.7878240  74.9643866   9.1884301  54.5842455
  75.6852228   9.5665554  54.0806172  74.3409170   9.9073178  54.6877433
  79.1074989   9.8929450  55.5200788  79.3238603  10.7754088  55.2189616
  78.6269056   9.5015663  54.7906430  73.8474210  12.8515163  62.0971532
  73.7018791  13.1655466  62.9895814  73.3699414  13.4700064  61.5442431
  75.7070593   9.8417711  62.1452422  75.6932162   8.9458805  61.8084720
  76.4243021   9.8488375  62.7790708  77.5596724  10.2755051  64.1905549
  77.3014502  11.1972122  64.1889880  77.0281764   9.8785486  64.8806013
  82.5042912  23.3805839  56.9695635  82.6779790  22.8152261  56.2169487
  82.9971804  24.1806734  56.7875125  68.3219872  15.3920508  65.0359193
  67.7773340  16.1680316  65.1679468  69.1999222  15.7391312  64.8778315
  75.1107489   8.7232092  57.4139992  75.2323400   7.7948738  57.6130880
  74.8209531   8.7370778  56.5018307  77.9798679   6.4087002  60.5506712
  78.0020376   6.4726335  59.5958691  78.3966738   5.5691511  60.7447218
  88.3582304  16.1442262  58.5885934  88.8013450  15.3949587  58.1905058
  87.4808814  16.1352398  58.2059666  69.1085894  14.5190404  67.9289350
  68.3667630  14.6673039  68.5153981  68.7878638  14.7798670  67.0656100
  85.3909508  20.1472309  55.5979864  85.9160832  20.4859581  54.8729184
  85.3031861  19.2119324  55.4142998  77.0529557  24.0606382  67.7269740
  77.3616683  23.8155529  68.5992440  77.8505039  24.2653021  67.2388611
  77.0750169  26.2144292  59.9575117  76.6355159  25.7220671  60.6507974
  77.8258286  25.6717259  59.7167192  69.5542508  22.4055833  59.9599745
  70.3800528  22.1059605  59.5798389  69.2036560  21.6363455  60.4089534
  74.5224041  21.7582301  62.0297419  73.9004050  21.0953006  61.7299646
  75.1928908  21.7843433  61.3471066  67.7551113  20.3242159  60.9188679
  66.9183021  19.8964334  60.7372680  67.7274758  20.5174602  61.8559470
  74.5948568  10.2364089  71.6229925  74.6436724  11.1126212  71.2407694
  75.1371083   9.6941482  71.0501568  85.0803414  20.7805212  70.9031062
  84.2898958  20.7629351  70.3635561  84.8436769  21.3193506  71.6580098
  85.2001289  17.6297679  68.2163790  85.2499294  17.4647686  69.1579313
  85.0915213  16.7624938  67.8261671  74.0837548  20.3086224  55.5055879
  74.2325668  20.9921689  54.8522552  74.8903991  20.2891314  56.0205335
  82.4905052  13.6128607  69.5323097  83.3914914  13.4735071  69.2407095
  82.5653026  13.7783061  70.4721274  76.8247857  10.9895461  68.3776283
  75.9551166  11.2829027  68.1058872  77.0607337  11.5735906  69.0983547
  86.7019486  20.0494620  68.4605812  86.4104294  20.4124601  69.2969273
  86.0891617  19.3361628  68.2819144  87.9015168  17.6147500  60.9808382
  88.7362060  18.0537304  61.1445942  88.0374297  17.1386153  60.1616628
  84.9506674  15.1727235  66.9285870  85.4260796  15.3654881  66.1204721
  84.0272240  15.2286421  66.6829253  71.8390181  16.3351402  56.5116948
  71.5936223  15.4313732  56.7097158  72.0086095  16.3368552  55.5696426
  79.5286891   7.2075078  65.8941704  80.0468835   7.9436105  65.5688192
  79.1742024   7.5139072  66.7288463  71.1085828  12.0679759  54.0103110
  70.4155073  12.1424114  53.3543145  70.8637580  11.3040103  54.5324626
  77.5832953  22.8034355  52.9767627  77.0106921  23.4224542  52.5238098
  78.1565747  23.3533716  53.5107548  83.6508343  12.0492995  65.1614175
  84.6025766  12.1491092  65.1826399  83.4811794  11.2571263  65.6712260
  81.6722723   9.1348578  65.3473576  81.0772655   9.4153591  64.6520065
  81.3872419   9.6242479  66.1190317  86.1296421  15.2699114  64.2756475
  86.0972741  14.3315115  64.4616159  86.7397045  15.3483151  63.5422300
  77.9679752  14.1395167  50.3183679  78.9138857  14.0101376  50.3872097
  77.5893997  13.4009829  50.7953107  86.2790910  12.0610158  64.3214758
  85.7629958  11.2768615  64.1344687  87.1630858  11.7328875  64.4861278
  83.9401636   5.8051173  60.2810571  83.7426458   5.4966262  61.1653903
  84.5501342   6.5312812  60.4108501  91.9472971  16.3315121  63.4162512
  92.6776359  16.0700409  63.9770215  91.3379916  15.5943843  63.4564580
  90.0288268  14.4722984  64.0136963  89.3021432  14.3378949  63.4053455
  89.6135555  14.7799813  64.8193681  77.8518444  18.1912914  71.7784336
  78.7721454  18.3691513  71.9724383  77.8168028  17.2468959  71.6264035
  76.1522669  12.0645144  50.2538564  75.2454124  11.7678257  50.3301278
  76.4298650  11.7674962  49.3872851  67.0700609  13.3851507  60.7037611
  66.7503394  12.5316815  60.4111985  66.5234038  13.6000085  61.4595578
  70.8480517  16.1013948  64.4207117  71.0666527  17.0331056  64.4395151
  71.2606291  15.7421923  65.2061921  77.7684735   6.6082034  56.4082806
  76.9585463   6.2629119  56.7838052  78.4569152   6.2989577  56.9970417
  79.6975283   5.6860080  58.0307102  80.2506322   6.1055534  58.6897125
  79.9345369   4.7595828  58.0730058  75.7208382  11.6747154  73.8109866
  75.6205109  12.6241511  73.7421957  75.5029924  11.3465393  72.9385936
  74.9221454   8.9232079  50.3950543  75.7840618   9.2486977  50.6546361
  75.1071798   8.1363575  49.8823609  66.9388869  17.0054419  62.6730732
  66.2452341  16.5908372  62.1600687  67.6861860  17.0474955  62.0764151
  83.0754090   7.7960606  57.5385766  82.4952759   8.4545410  57.1563819
  82.8090023   6.9737950  57.1273184  81.5257657   7.1965663  59.7407087
  82.0257435   7.3082198  58.9321406  82.1693264   6.8926716  60.3807895
  75.5839652  15.1044293  72.6274928  75.1006734  15.9044653  72.8338817
  75.6700591  15.1152238  71.6742372  68.8525612  16.9372673  60.5496747
  68.8296300  17.0360360  59.5978630  69.1626248  17.7837823  60.8713913
  71.5112990  18.9948828  64.6643362  72.4656243  18.9632770  64.5973293
  71.3125513  18.5339451  65.4793587  72.1012372  17.5649944  67.2314159
  72.9205261  18.0594022  67.2548997  72.3749180  16.6481912  67.2031727
  81.8578968   9.9560696  56.5942115  80.9704823  10.2410347  56.3762309
  82.2732957   9.7954459  55.7469392  85.2093504   9.9807217  60.3096454
  85.9853894  10.4703669  60.5821071  84.4841639  10.4065271  60.7668323
  87.6466063  10.6934836  61.3670395  88.2410554  10.4530572  60.6563703
  87.7192647   9.9741967  61.9943931  69.8663219  24.5368447  61.6813559
  69.7317687  23.7768848  61.1151557  69.4495281  25.2609347  61.2142348
  81.0022182  19.7205371  50.6890135  81.7058032  19.9255373  51.3047790
  80.2784830  20.2882132  50.9539218  81.8319992  15.4715232  56.8092405
  81.7755193  15.9283783  55.9700037  82.3848334  14.7105916  56.6315248
  85.6424798  11.2604964  57.6342524  85.3861732  10.8601599  58.4650732
  85.0177666  11.9748758  57.5092664  89.9537136  14.0001037  60.1413816
  89.3936694  14.0694226  60.9145378  89.3480639  13.8242022  59.4213312
  82.9108879  20.1587900  52.7388595  83.7454483  19.7269098  52.5566070
  82.7493222  19.9869913  53.6665489  82.5654771  16.6620013  54.1044934
  82.5103575  16.4964285  53.1633378  81.9400827  17.3696046  54.2607124
  67.3547286  11.8988077  67.9306356  68.0006150  11.3887031  68.4193581
  67.1464437  12.6356759  68.5049782  79.8800678  18.9668925  73.4298497
  80.7491838  19.1409577  73.0685132  79.4007430  19.7863342  73.3074226
  75.8750897   6.1628122  53.6830252  75.8629567   7.1069962  53.8398523
  76.7674319   5.9798268  53.3889714  71.6944777   9.0455695  72.0281371
  72.5576239   8.6892499  72.2384695  71.1210188   8.7069589  72.7156775
  91.5393154  30.6757551  62.8343772  92.1771564  30.5564298  62.1307112
  91.4213997  31.6238395  62.8931724  88.8302643  31.7819831  68.7291502
  88.8191284  31.3872629  67.8572005  88.9923283  31.0485903  69.3225273
  85.5509905  34.5656943  67.6770686  85.2599771  35.4702573  67.5617352
  86.1866889  34.6073470  68.3914755  91.0934423  28.4009005  59.9096980
  91.8797512  27.9828428  59.5587397  91.3573127  29.3055097  60.0778628
  96.4942850  28.3384238  60.8129958  97.2268022  27.7683455  61.0467788
  95.7382205  27.9505838  61.2536464  94.0168270  22.0505812  65.2724567
  93.6851595  22.9201223  65.0485782  93.4213884  21.7342096  65.9518597
  87.7524456  25.7901379  53.0054649  87.9198859  26.6581616  53.3725120
  87.5621626  25.9528661  52.0815938  90.5099790  34.2518358  64.6720479
  90.2100513  35.1543397  64.5636287  90.1650849  33.9850541  65.5241632
  93.9096933  26.7700898  62.3517917  93.0013811  26.7016307  62.0576678
  93.8584529  27.2472843  63.1799742  87.9837799  28.1890544  70.2952814
  87.2071133  28.7484464  70.2855679  88.6228362  28.6747327  70.8167684
  95.7758580  24.9717337  64.1295791  95.1332960  25.2649870  63.4835585
  95.2713508  24.8570257  64.9348987  93.4298744  28.7180510  54.8181650
  94.3416600  28.9507897  54.6429347  92.9208391  29.3017554  54.2556729
  86.2384172  30.9975997  69.8570781  86.9798856  31.5361041  69.5805605
  85.5321157  31.6242286  70.0142333  91.7139511  33.1405138  68.4542942
  92.1222867  32.6987548  67.7097575  90.9916773  32.5657765  68.7077135
  88.0670581  28.0777744  65.8276499  88.9131776  28.5017158  65.9711148
  88.0069219  27.4211369  66.5215063  92.0368326  33.7006328  62.2095231
  91.4077188  33.8652042  61.5071299  91.6493988  34.1147938  62.9806195
  95.9157558  34.6360766  59.5639595  95.2308596  35.0159667  59.0136628
  96.0001407  35.2456093  60.2971543  91.2170027  25.7382113  67.4857673
  90.9730958  26.4924173  66.9491949  91.4929957  26.1167460  68.3204920
  93.1708489  32.2820725  66.1634939  93.3825385  32.9252485  65.4869320
  93.1238238  31.4483042  65.6956869  90.7734718  24.8938546  63.0671511
  89.9119197  25.1919799  63.3588248  90.7997153  25.1108945  62.1352543
  84.9745535  28.1515645  70.6586091  84.3444196  28.8331926  70.8921488
  84.8681623  28.0398727  69.7139229  94.2854317  35.1592681  64.3357296
  95.1071761  34.7572868  64.0539978  94.2816720  35.0560915  65.2873412
  88.0510921  34.7076724  66.4918007  88.1155353  35.1697131  67.3276178
  87.3421845  34.0774089  66.6200316  78.5528211  28.0717932  64.0167006
  78.8036249  28.9564942  64.2824582  79.0887759  27.8922533  63.2442098
 102.3760310  31.5031429  60.6842267 101.6224019  30.9338827  60.5286272
 102.5107852  31.4694094  61.6312902  84.2526278  22.4536411  73.0211342
  83.8593224  21.9002610  73.6958986  85.0692418  22.7646990  73.4117860
  87.1694239  23.8694290  70.6131599  87.9103952  24.4701443  70.5336061
  87.4012162  23.1271928  70.0549641  82.3135577  29.0550658  68.8909828
  82.1989092  28.1535915  69.1916927  81.4580095  29.3014354  68.5394645
  89.3927415  36.9968398  70.4897329  88.9491269  36.2104776  70.1718233
  90.0544628  37.1847548  69.8241220  91.4908653  37.2771198  68.5178730
  91.4727128  38.0980079  68.0258999  92.4128573  37.1525273  68.7428871
  87.9481707  34.7915327  69.3602239  88.4810044  34.0303615  69.1301547
  87.4195788  34.4988979  70.1026393  91.1151402  19.8975393  64.8895880
  90.7715671  20.7877035  64.8134991  91.4830365  19.7077051  64.0265465
  91.0801685  29.8884004  53.3968315  90.5648308  30.6588609  53.6356703
  90.8078993  29.2149140  54.0201377  88.6648796  24.7333705  58.4553554
  87.8090392  24.3440556  58.2759192  89.0775747  24.8125666  57.5953339
  90.1947942  22.2680048  62.8545114  89.6912738  22.2310184  62.0412919
  90.4878549  23.1772791  62.9141770  86.4390828  22.3518778  61.8611295
  87.3043825  22.1561587  61.5017185  86.5068337  22.1229130  62.7880652
  96.0535959  32.6416359  55.3321489  95.2765402  32.3027518  54.8876651
  96.7327440  32.6468982  54.6576454  90.8687988  27.7611096  55.2228097
  90.5638123  28.0757246  56.0738240  91.8218430  27.8392516  55.2655430
  94.2927266  32.1150340  61.9888097  93.6350940  32.8049602  62.0768226
  95.0967665  32.5046772  62.3322083  84.0453147  24.5820986  59.2327662
  84.6196899  24.3596168  58.5000855  84.6324130  24.6509681  59.9856263
  93.1032725  30.4694713  60.0392039  93.6164606  31.1024705  60.5413748
  93.7533948  29.8695908  59.6735399  86.3475815  21.4562235  57.9602732
  85.6940227  21.1411252  57.3359346  86.3056289  20.8337975  58.6862554
  90.3648603  29.3435584  57.4153059  91.1120422  29.8556981  57.1060181
  90.6340193  29.0219637  58.2757453  93.8694521  35.4500714  58.1671181
  93.4156848  34.6091624  58.2236372  93.2388487  36.0862113  58.5045961
  92.8127440  26.3792700  59.3971849  92.0750197  25.8670087  59.7282091
  93.0654214  25.9393082  58.5855126  92.3127460  37.2877211  59.1020999
  92.6050434  37.8482268  58.3833365  92.8226081  37.5805772  59.8574158
  92.9139068  19.1568952  59.9913618  93.2197944  18.2966316  59.7039533
  93.6391672  19.7486573  59.7912612  90.7226719  28.5341630  67.0895082
  91.0776107  28.7613103  67.9489548  91.3698850  28.8660006  66.4672337
  96.4524456  31.6560066  57.7944411  96.3142354  31.8461662  56.8665600
  96.0960675  32.4179448  58.2512462  84.6166582  25.6418161  63.8741423
  85.2565961  25.5006920  63.1764386  83.7844113  25.3552674  63.4980025
  96.4793835  33.7236593  62.8055682  96.9130342  33.6311882  63.6538736
  97.1925416  33.6994093  62.1675698  81.6195198  25.6118486  58.6514410
  81.8802016  26.5263819  58.5423570  82.4412371  25.1442928  58.8011022
  83.0920124  27.0256243  65.8213234  83.7643177  26.8173605  65.1725883
  82.2649910  26.8278329  65.3818466  97.3409385  33.7660293  65.3388568
  97.5345275  34.6706104  65.5847843  97.2410003  33.3067712  66.1727153
  88.9945696  23.6518184  67.8378895  88.3473611  24.3508133  67.7443371
  89.7646711  24.0854328  68.2055143  92.4024494  33.9167036  70.9129448
  92.2510000  33.6877588  69.9959532  92.3929173  34.8737637  70.9260793
  89.1709830  31.4898949  65.8975715  90.1001890  31.6410108  65.7244682
  88.7500860  31.5782970  65.0424361  83.4947621  30.2998846  66.5815671
  83.3567419  29.5679085  67.1827210  84.4052545  30.2107746  66.2999859
  94.1116700  36.9486159  68.9905930  94.0529247  36.2645379  68.3236513
  94.5136219  37.6905149  68.5386556  84.8358856  26.9984023  67.8894990
  84.2996213  26.5474762  68.5416587  84.2475564  27.1329932  67.1465455
  94.1134108  34.9125742  67.2219910  93.2260886  34.5751664  67.3446309
  94.6832659  34.1808774  67.4588675  80.5697977  26.1340031  64.9747985
  80.4856166  25.5265700  64.2398395  79.7480683  26.6249049  64.9757481
  90.7421691  24.6193594  60.3418180  91.2390390  23.8663557  60.0219250
  89.9708672  24.6557911  59.7761389  98.5951448  30.3233960  61.9836472
  98.5841324  31.2058675  61.6130405  97.7268828  29.9705511  61.7891009
  91.8251471  33.3765282  57.9156603  90.8907750  33.4966744  57.7461308
  92.0028140  32.4737748  57.6516613  95.2124023  29.2182601  58.4506638
  95.6784475  30.0510592  58.3766940  95.6631523  28.7527582  59.1551896
  93.1840686  21.5863188  62.4897539  92.2703765  21.8167415  62.6579746
  93.6133787  21.6701632  63.3411571  92.9547144  29.7753080  64.9897433
  92.3018594  30.0228987  64.3349886  93.3327524  28.9617218  64.6559910
  89.9154318  39.8112773  59.0925603  90.0976712  38.9934429  59.5553356
  90.7387304  40.0280465  58.6550493  89.0034717  30.5172891  71.4763470
  88.3275354  30.4167020  72.1465845  89.8262351  30.3612105  71.9399467
  82.7221993  24.1714968  66.3142971  82.7863320  25.0329799  65.9020368
  82.6589113  23.5588970  65.5815329  82.1974266  26.2438101  69.9616005
  82.8246305  25.8615178  70.5753529  81.3402185  26.0252303  70.3271697
  92.5968374  36.6501076  71.5669740  93.1408278  37.2631034  71.0724695
  92.0155219  37.2080654  72.0836753  82.5034055  26.1270526  61.8761908
  81.7820641  26.7406494  61.7369382  83.2927311  26.6628291  61.7978554
  92.9460796  37.5730814  64.3264318  91.9991131  37.4536165  64.2542645
  93.2943569  36.6853312  64.4090580  85.3060369  23.4624953  68.1502560
  85.8294771  23.7087249  68.9128869  85.0872702  24.2944988  67.7305697
  80.7027650  25.7328627  56.0173685  80.3740356  24.8526006  55.8348791
  81.0567021  25.6776296  56.9050074  83.8169473  26.0201597  56.3849163
  84.1565546  26.5487518  55.6627771  84.2641594  26.3582003  57.1607729
  93.5541351  38.1912089  61.6133543  94.4787898  37.9854950  61.4757994
  93.3856654  37.9428490  62.5222885  86.5112914  24.4038648  65.8352231
  86.1709734  23.6046461  66.2372911  85.8051920  24.7040359  65.2629064
  87.1629386  21.4887960  64.2879554  87.9855455  21.0148439  64.1658444
  87.4067449  22.2678444  64.7878240  85.8037620  24.5176219  54.5842455
  86.5245983  24.8957472  54.0806172  85.1802924  25.2365096  54.6877433
  89.9468743  25.2221368  55.5200788  90.1632358  26.1046006  55.2189616
  89.4662810  24.8307581  54.7906430  86.5464348  25.1709629  62.1452422
  86.5325916  24.2750722  61.8084720  87.2636776  25.1780293  62.7790708
  88.3990478  25.6046969  64.1905549  88.1408256  26.5264040  64.1889880
  87.8675519  25.2077404  64.8806013  85.9501243  24.0524009  57.4139992
  86.0717155  23.1240655  57.6130880  85.6603286  24.0662695  56.5018307
  88.8192434  21.7378920  60.5506712  88.8414131  21.8018253  59.5958691
  89.2360493  20.8983428  60.7447218  99.1976058  31.4734179  58.5885934
  99.6407204  30.7241504  58.1905058  98.3202568  31.4644316  58.2059666
  79.9479649  29.8482322  67.9289350  79.2061385  29.9964957  68.5153981
  79.6272393  30.1090587  67.0656100  96.2303263  35.4764226  55.5979864
  96.7554587  35.8151499  54.8729184  96.1425615  34.5411242  55.4142998
  87.8923311  39.3898300  67.7269740  88.2010438  39.1447447  68.5992440
  88.6898793  39.5944938  67.2388611  85.4342323  25.5656007  71.6229925
  85.4830478  26.4418129  71.2407694  85.9764837  25.0233400  71.0501568
  95.9197169  36.1097130  70.9031062  95.1292712  36.0921269  70.3635561
  95.6830523  36.6485424  71.6580098  96.0395044  32.9589596  68.2163790
  96.0893049  32.7939604  69.1579313  95.9308967  32.0916855  67.8261671
  93.3298806  28.9420524  69.5323097  94.2308669  28.8026989  69.2407095
  93.4046781  29.1074979  70.4721274  87.6641611  26.3187379  68.3776283
  86.7944921  26.6120945  68.1058872  87.9001092  26.9027824  69.0983547
  97.5413241  35.3786538  68.4605812  97.2498049  35.7416518  69.2969273
  96.9285372  34.6653546  68.2819144  98.7408923  32.9439418  60.9808382
  99.5755814  33.3829222  61.1445942  98.8768052  32.4678071  60.1616628
  95.7900429  30.5019152  66.9285870  96.2654550  30.6946799  66.1204721
  94.8665994  30.5578338  66.6829253  90.3680645  22.5366996  65.8941704
  90.8862589  23.2728023  65.5688192  90.0135778  22.8430989  66.7288463
  90.6193239  18.9567278  61.4142600  90.8994993  18.2890468  62.0403027
  91.4043846  19.1496374  60.9017264  94.4902098  27.3784912  65.1614175
  95.4419521  27.4783010  65.1826399  94.3205548  26.5863181  65.6712260
  92.5116477  24.4640496  65.3473576  91.9166409  24.7445508  64.6520065
  92.2266174  24.9534397  66.1190317  96.9690176  30.5991032  64.2756475
  96.9366496  29.6607033  64.4616159  97.5790799  30.6775069  63.5422300
  97.1184664  27.3902076  64.3214758  96.6023713  26.6060532  64.1344687
  98.0024613  27.0620792  64.4861278  94.7795391  21.1343091  60.2810571
  94.5820212  20.8258179  61.1653903  95.3895097  21.8604730  60.4108501
 102.7866725  31.6607039  63.4162512 103.5170114  31.3992327  63.9770215
 102.1773671  30.9235761  63.4564580 100.8682023  29.8014902  64.0136963
 100.1415186  29.6670867  63.4053455 100.4529309  30.1091730  64.8193681
  88.6912199  33.5204831  71.7784336  89.6115208  33.6983430  71.9724383
  88.6561782  32.5760877  71.6264035  88.6078489  21.9373951  56.4082806
  87.7979218  21.5921036  56.7838052  89.2962906  21.6281495  56.9970417
  90.5369038  21.0151998  58.0307102  91.0900076  21.4347451  58.6897125
  90.7739124  20.0887746  58.0730058  86.5602137  27.0039072  73.8109866
  86.4598864  27.9533429  73.7421957  86.3423679  26.6757311  72.9385936
  93.9147845  23.1252523  57.5385766  93.3346514  23.7837327  57.1563819
  93.6483777  22.3029868  57.1273184  92.3651411  22.5257581  59.7407087
  92.8651189  22.6374115  58.9321406  93.0087019  22.2218634  60.3807895
  86.4233407  30.4336211  72.6274928  85.9400489  31.2336571  72.8338817
  86.5094346  30.4444155  71.6742372  92.6972723  25.2852614  56.5942115
  91.8098578  25.5702264  56.3762309  93.1126712  25.1246377  55.7469392
  96.0487259  25.3099135  60.3096454  96.8247649  25.7995587  60.5821071
  95.3235393  25.7357189  60.7668323  98.4859817  26.0226754  61.3670395
  99.0804308  25.7822490  60.6563703  98.5586401  25.3033884  61.9943931
  92.6713746  30.8007150  56.8092405  92.6148948  31.2575701  55.9700037
  93.2242089  30.0397834  56.6315248  96.4818552  26.5896881  57.6342524
  96.2255487  26.1893517  58.4650732  95.8571420  27.3040675  57.5092664
 100.7930890  29.3292955  60.1413816 100.2330448  29.3986144  60.9145378
 100.1874394  29.1533939  59.4213312  78.1941041  27.2279995  67.9306356
  78.8399904  26.7178949  68.4193581  77.9858192  27.9648677  68.5049782
  90.7194433  34.2960843  73.4298497  91.5885593  34.4701495  73.0685132
  90.2401184  35.1155259  73.3074226  86.7144651  21.4920040  53.6830252
  86.7023321  22.4361880  53.8398523  87.6068073  21.3090185  53.3889714
  90.5296771  18.0862816  57.9376189  89.7629166  17.5321303  58.0832872
  90.9407476  18.1584685  58.7990341  82.5338532  24.3747612  72.0281371
  83.3969993  24.0184417  72.2384695  81.9603942  24.0361507  72.7156775
 102.3786909  46.0049469  62.8343772 103.0165319  45.8856216  62.1307112
 102.2607752  46.9530313  62.8931724  99.1876615  45.9576897  62.7705296
  98.8495126  45.8417961  61.8825831 100.0566383  45.5568062  62.7506302
  99.6696398  47.1111748  68.7291502  99.6585039  46.7164547  67.8572005
  99.8317037  46.3777821  69.3225273 100.6262989  51.4783341  54.0716652
  99.9750969  52.0637421  53.6850666 101.4207352  52.0089536  54.1311690
  96.3903659  49.8948860  67.6770686  96.0993525  50.7994491  67.5617352
  97.0260643  49.9365388  68.3914755  97.3159866  47.2725709  64.2672045
  97.9123438  47.0481731  63.5529008  97.3734837  46.5310454  64.8697493
  96.8884894  44.7265144  52.1022236  97.1410415  44.2046665  51.3405699
  95.9509453  44.5631290  52.2048920 101.9328177  43.7300922  59.9096980
 102.7191266  43.3120346  59.5587397 102.1966881  44.6347015  60.0778628
 102.1038254  49.1673773  54.6085636 101.4684087  49.2408399  55.3206541
 101.7735661  49.7567372  53.9304716 107.3336604  43.6676156  60.8129958
 108.0661776  43.0975372  61.0467788 106.5775960  43.2797756  61.2536464
  96.6081183  46.6293250  54.3046611  96.4917441  45.9538153  54.9727696
  96.7183443  46.1425624  53.4878764  98.9512724  46.0903397  58.0093301
  98.5870931  45.5634018  58.7206222  99.8079840  45.7001866  57.8359786
 104.8562025  37.3797730  65.2724567 104.5245349  38.2493141  65.0485782
 104.2607638  37.0634014  65.9518597  98.5918211  41.1193297  53.0054649
  98.7592613  41.9873533  53.3725120  98.4015380  41.2820579  52.0815938
 101.3493544  49.5810276  64.6720479 101.0494267  50.4835315  64.5636287
 101.0044604  49.3142459  65.5241632  94.8006026  46.0324073  60.7057184
  93.8756522  45.9000287  60.9134876  95.0490439  46.8118292  61.2027126
 104.7490688  42.0992816  62.3517917 103.8407565  42.0308224  62.0576678
 104.6978284  42.5764761  63.1799742  98.5707432  43.5750954  53.9901316
  98.4507057  44.0208005  54.8286796  97.8760020  43.9236272  53.4314854
  92.1614837  45.6757346  61.5400973  92.2907218  45.9291825  62.4540385
  91.4812288  46.2685054  61.2205628  98.8231554  43.5182461  70.2952814
  98.0464888  44.0776382  70.2855679  99.4622117  44.0039244  70.8167684
 106.6152334  40.3009254  64.1295791 105.9726715  40.5941787  63.4835585
 106.1107263  40.1862175  64.9348987 104.2692498  44.0472427  54.8181650
 105.1810354  44.2799814  54.6429347 103.7602145  44.6309472  54.2556729
  97.0777926  46.3267915  69.8570781  97.8192610  46.8652959  69.5805605
  96.3714912  46.9534204  70.0142333 102.5533266  48.4697055  68.4542942
 102.9616622  48.0279466  67.7097575 101.8310527  47.8949683  68.7077135
  98.9064336  43.4069662  65.8276499  99.7525531  43.8309076  65.9711148
  98.8462973  42.7503286  66.5215063 102.8762080  49.0298246  62.2095231
 102.2470943  49.1943960  61.5071299 102.4887742  49.4439855  62.9806195
 106.7551312  49.9652684  59.5639595 106.0702350  50.3451585  59.0136628
 106.8395162  50.5748010  60.2971543 102.0563781  41.0674030  67.4857673
 101.8124713  41.8216091  66.9491949 102.3323712  41.4459378  68.3204920
 104.0102244  47.6112643  66.1634939 104.2219139  48.2544403  65.4869320
 103.9631992  46.7774959  65.6956869 101.6128473  40.2230463  63.0671511
 100.7512952  40.5211717  63.3588248 101.6390907  40.4400862  62.1352543
  98.4290042  48.7672654  59.4745316  98.8928388  49.0460357  58.6849939
  98.1646840  47.8656099  59.2918407  97.3658928  44.8895806  56.2834882
  98.0682972  45.3416850  56.7508808  97.0339557  44.2479625  56.9114775
  95.8139290  43.4807563  70.6586091  95.1837950  44.1623844  70.8921488
  95.7075378  43.3690645  69.7139229 105.1248072  50.4884598  64.3357296
 105.9465515  50.0864786  64.0539978 105.1210475  50.3852832  65.2873412
  93.0599008  43.5123938  58.5435492  92.2630171  43.6242633  59.0618988
  92.8324600  43.8510591  57.6776382  98.8904675  50.0368642  66.4918007
  98.9549108  50.4989049  67.3276178  98.1815599  49.4066006  66.6200316
 113.2154065  46.8323347  60.6842267 112.4617773  46.2630745  60.5286272
 113.3501606  46.7986011  61.6312902  98.6052693  51.7036749  56.3596987
  98.4698368  52.5488285  56.7881835  99.1462505  51.9056027  55.5962921
  95.0920033  37.7828329  73.0211342  94.6986978  37.2294527  73.6958986
  95.9086173  38.0938907  73.4117860  98.0087994  39.1986208  70.6131599
  98.7497707  39.7993361  70.5336061  98.2405916  38.4563846  70.0549641
  93.1529332  44.3842575  68.8909828  93.0382847  43.4827832  69.1916927
  92.2973849  44.6306272  68.5394645 100.2321169  52.3260316  70.4897329
  99.7885023  51.5396694  70.1718233 100.8938383  52.5139466  69.8241220
  94.9908290  53.8556117  65.0158007  95.5415716  53.7273180  64.2435001
  94.1519766  54.1551006  64.6652900 102.3302407  52.6063115  68.5178730
 102.3120883  53.4271997  68.0258999 103.2522327  52.4817191  68.7428871
  98.7875461  50.1207245  69.3602239  99.3203798  49.3595533  69.1301547
  98.2589543  49.8280897  70.1026393 101.9545156  35.2267311  64.8895880
 101.6109426  36.1168953  64.8134991 102.3224119  35.0368969  64.0265465
 101.9195439  45.2175922  53.3968315 101.4042063  45.9880527  53.6356703
 101.6472748  44.5441058  54.0201377  99.5042550  40.0625623  58.4553554
  98.6484147  39.6732473  58.2759192  99.9169502  40.1417584  57.5953339
 101.0341697  37.5971966  62.8545114 100.5306492  37.5602101  62.0412919
 101.3272304  38.5064709  62.9141770  97.2784583  37.6810696  61.8611295
  98.1437579  37.4853504  61.5017185  97.3462092  37.4521048  62.7880652
 106.8929713  47.9708277  55.3321489 106.1159156  47.6319436  54.8876651
 107.5721194  47.9760900  54.6576454 101.7081742  43.0903014  55.2228097
 101.4031878  43.4049163  56.0738240 102.6612184  43.1684434  55.2655430
 100.1528174  49.2493237  56.8721051  99.6249536  48.5145997  56.5594288
  99.6515677  50.0267914  56.6261019 105.1321020  47.4442258  61.9888097
 104.4744695  48.1341519  62.0768226 105.9361419  47.8338690  62.3322083
  94.8846902  39.9112904  59.2327662  95.4590654  39.6888085  58.5000855
  95.4717884  39.9801598  59.9856263 103.9426479  45.7986631  60.0392039
 104.4558361  46.4316622  60.5413748 104.5927703  45.1987826  59.6735399
  95.2116489  41.9417365  53.2523547  94.3753801  42.2792051  53.5732822
  95.0721259  41.8066345  52.3150684  97.1869570  36.7854153  57.9602732
  96.5333982  36.4703170  57.3359346  97.1450044  36.1629893  58.6862554
  98.2980774  47.0673448  49.8756024  97.3907836  46.8362701  50.0747173
  98.7951806  46.2711067  50.0630005 100.4207310  43.2736086  62.2850379
  99.5029871  43.4951033  62.1272067 100.8367453  43.3482397  61.4262086
 101.2042358  44.6727502  57.4153059 101.9514177  45.1848899  57.1060181
 101.4733947  44.3511555  58.2757453  99.4769008  47.1686043  54.3980014
  98.5680227  46.8845075  54.4952483  99.5064092  47.5885121  53.5383321
 104.7088275  50.7792632  58.1671181 104.2550602  49.9383542  58.2236372
 104.0782242  51.4154030  58.5045961 103.6521195  41.7084618  59.3971849
 102.9143952  41.1962004  59.7282091 103.9047968  41.2685000  58.5855126
 103.1521214  52.6169129  59.1020999 103.4444189  53.1774186  58.3833365
 103.6619835  52.9097690  59.8574158 103.7532822  34.4860870  59.9913618
 104.0591699  33.6258234  59.7039533 104.4785427  35.0778490  59.7912612
  98.0253902  44.7814663  60.4989809  98.0802512  43.8288500  60.4232286
  97.2145104  44.9374102  60.9831107  99.1745096  48.7094786  51.7368092
  98.7364526  47.9930645  51.2773730  99.9155536  48.9370901  51.1753184
  95.9646262  43.3991723  58.2580188  95.1514127  43.6985893  58.6645380
  96.4605256  43.0047412  58.9754670 101.5620473  43.8633547  67.0895082
 101.9169861  44.0905021  67.9489548 102.2092605  44.1951924  66.4672337
 107.2918210  46.9851983  57.7944411 107.1536109  47.1753579  56.8665600
 106.9354429  47.7471366  58.2512462  95.4560337  40.9710078  63.8741423
  96.0959716  40.8298838  63.1764386  94.6237867  40.6844592  63.4980025
 107.3187590  49.0528510  62.8055682 107.7524097  48.9603799  63.6538736
 108.0319171  49.0286011  62.1675698 101.0515485  52.6530604  64.3388783
 101.1052507  53.2221541  65.1066499 100.1830266  52.8232489  63.9742820
  92.5403404  44.4155591  56.0636168  91.6100992  44.3540046  56.2806130
  92.6360876  43.8931543  55.2672809  92.4588953  40.9410403  58.6514410
  92.7195770  41.8555737  58.5423570  93.2806125  40.4734846  58.8011022
  93.9313878  42.3548161  65.8213234  94.6036932  42.1465523  65.1725883
  93.1043665  42.1570247  65.3818466 108.1803140  49.0952211  65.3388568
 108.3739030  49.9998021  65.5847843 108.0803758  48.6359630  66.1727153
  99.8339450  38.9810102  67.8378895  99.1867365  39.6800051  67.7443371
 100.6040466  39.4146245  68.2055143 103.2418248  49.2458954  70.9129448
 103.0903755  49.0169505  69.9959532 103.2322928  50.2029555  70.9260793
 100.0103585  46.8190866  65.8975715 100.9395645  46.9702026  65.7244682
  99.5894615  46.9074887  65.0424361  98.8091916  50.8441531  63.6674252
  98.6703002  50.4760315  64.5400191  98.0206513  51.3589170  63.4958210
  99.4040068  55.9450627  55.0099789  99.5791824  55.4738670  55.8245412
  98.7172856  56.5716393  55.2381050 100.3597132  50.2223134  61.0563090
 100.0246964  50.1823903  61.9520740  99.8601077  49.5567849  60.5833500
  94.3341376  45.6290764  66.5815671  94.1961173  44.8971002  67.1827210
  95.2446299  45.5399664  66.2999859 103.2956323  47.5679168  51.3300150
 102.6785494  46.8425996  51.2333203 102.8272812  48.3288528  50.9867224
  96.9623676  45.3410723  66.0699351  97.6723295  44.7003915  66.0285969
  96.9192984  45.5923618  66.9925532 104.9510455  52.2778076  68.9905930
 104.8923001  51.5937296  68.3236513 105.3529973  53.0197066  68.5386556
  95.6752610  42.3275941  67.8894990  95.1389967  41.8766679  68.5416587
  95.0869319  42.4621850  67.1465455  95.0854869  41.7864592  50.4521454
  94.2084335  41.6653393  50.0883701  95.5612622  40.9950670  50.2000343
 104.9527862  50.2417660  67.2219910 104.0654641  49.9043582  67.3446309
 105.5226413  49.5100691  67.4588675  98.4829016  54.9019113  64.1881153
  98.4099187  55.7074084  64.7000458  98.0406409  55.1011078  63.3629174
 101.5815445  39.9485512  60.3418180 102.0784145  39.1955474  60.0219250
 100.8102427  39.9849829  59.7761389 109.4345203  45.6525878  61.9836472
 109.4235079  46.5350593  61.6130405 108.5662582  45.2997428  61.7891009
 100.9427699  54.8005947  66.3439312 101.6555671  55.4353411  66.2715213
 100.4517728  54.8969813  65.5279314 102.6645226  48.7057199  57.9156603
 101.7301505  48.8258662  57.7461308 102.8421894  47.8029666  57.6516613
  98.1650414  42.0902895  60.0689865  97.7948202  41.5373935  60.7570770
  98.6609506  41.4861028  59.5164865 106.0517777  44.5474518  58.4506638
 106.5178230  45.3802510  58.3766940 106.5025278  44.0819500  59.1551896
  95.9939613  52.5500390  67.1644883  96.6949072  53.1836873  67.3174277
  95.5234728  52.8915122  66.4040522 104.1194008  50.8918340  55.4492790
 104.3953852  50.7774934  56.3586664 103.2498507  50.4935825  55.4104963
 104.0234440  36.9155105  62.4897539 103.1097520  37.1459332  62.6579746
 104.4527542  36.9993550  63.3411571 103.7940899  45.1044997  64.9897433
 103.1412349  45.3520905  64.3349886 104.1721278  44.2909136  64.6559910
 100.7548072  55.1404691  59.0925603 100.9370467  54.3226347  59.5553356
 101.5781058  55.3572383  58.6550493 101.0890238  54.0672876  56.3540652
 101.6178004  53.5565330  55.7410814 101.3518458  53.7515406  57.2186185
  99.8428472  45.8464809  71.4763470  99.1669109  45.7458938  72.1465845
 100.6656105  45.6904022  71.9399467  98.5851254  57.1531736  65.7121086
  99.1369562  57.3163357  66.4770171  98.9257448  57.7436174  65.0401111
  93.5615748  39.5006886  66.3142971  93.6257074  40.3621717  65.9020368
  93.4982868  38.8880887  65.5815329  93.0368020  41.5730018  69.9616005
  93.6640059  41.1907096  70.5753529  92.1795939  41.3544220  70.3271697
 103.4362129  51.9792993  71.5669740 103.9802033  52.5922952  71.0724695
 102.8548974  52.5372572  72.0836753 101.7219642  55.1013711  62.6984768
 101.5970781  54.3003451  62.1895714 102.3798733  55.5959905  62.2098738
  93.3427810  41.4562444  61.8761908  92.6214396  42.0698412  61.7369382
  94.1321066  41.9920209  61.7978554 103.7854550  52.9022732  64.3264318
 102.8384886  52.7828083  64.2542645 104.1337323  52.0145230  64.4090580
  96.1454123  38.7916870  68.1502560  96.6688525  39.0379167  68.9128869
  95.9266457  39.6236905  67.7305697 100.7900983  52.6975448  60.5268670
 100.6425946  51.7692155  60.7076241 101.6154477  52.7195538  60.0425746
  94.6563228  41.3493515  56.3849163  94.9959300  41.8779436  55.6627771
  95.1035348  41.6873921  57.1607729 104.3935105  53.5204007  61.6133543
 105.3181653  53.3146868  61.4757994 104.2250409  53.2720408  62.5222885
  97.3506669  39.7330566  65.8352231  97.0103489  38.9338379  66.2372911
  96.6445675  40.0332276  65.2629064  98.0023140  36.8179878  64.2879554
  98.8249210  36.3440356  64.1658444  98.2461204  37.5970362  64.7878240
  96.6431375  39.8468136  54.5842455  97.3639737  40.2249389  54.0806172
  96.0196679  40.5657013  54.6877433 100.7862498  40.5513285  55.5200788
 101.0026112  41.4337923  55.2189616 100.3056565  40.1599499  54.7906430
  95.5261719  43.5098999  62.0971532  95.3806300  43.8239302  62.9895814
  95.0486923  44.1283899  61.5442431  97.3858102  40.5001547  62.1452422
  97.3719671  39.6042640  61.8084720  98.1030530  40.5072210  62.7790708
  99.2384233  40.9338887  64.1905549  98.9802011  41.8555957  64.1889880
  98.7069273  40.5369321  64.8806013 104.1830421  54.0389674  56.9695635
 104.3567299  53.4736096  56.2169487 104.6759313  54.8390569  56.7875125
  96.7894998  39.3815927  57.4139992  96.9110909  38.4532573  57.6130880
  96.4997040  39.3954613  56.5018307  99.6586188  37.0670837  60.5506712
  99.6807885  37.1310170  59.5958691 100.0754247  36.2275346  60.7447218
 110.0369813  46.8026097  58.5885934 110.4800959  46.0533422  58.1905058
 109.1596323  46.7936233  58.2059666 105.1705594  53.3556438  54.0692533
 105.8656499  53.9763131  54.2879848 105.5128744  52.5051790  54.3444911
  90.7873403  45.1774239  67.9289350  90.0455139  45.3256875  68.5153981
  90.4666147  45.4382505  67.0656100 107.0697017  50.8056144  55.5979864
 107.5948341  51.1443417  54.8729184 106.9819370  49.8703159  55.4142998
  98.7317066  54.7190218  67.7269740  99.0404192  54.4739364  68.5992440
  99.5292548  54.9236856  67.2388611  98.7537678  56.8728127  59.9575117
  98.3142668  56.3804506  60.6507974  99.5045795  56.3301095  59.7167192
  96.2736077  40.8947924  71.6229925  96.3224233  41.7710047  71.2407694
  96.8158592  40.3525317  71.0501568 106.7590923  51.4389048  70.9031062
 105.9686467  51.4213186  70.3635561 106.5224278  51.9777341  71.6580098
 106.8788798  48.2881514  68.2163790 106.9286803  48.1231521  69.1579313
 106.7702722  47.4208773  67.8261671 104.1692561  44.2712442  69.5323097
 105.0702423  44.1318907  69.2407095 104.2440535  44.4366897  70.4721274
  98.5035366  41.6479297  68.3776283  97.6338675  41.9412863  68.1058872
  98.7394846  42.2319742  69.0983547 108.3806995  50.7078455  68.4605812
 108.0891803  51.0708436  69.2969273 107.7679126  49.9945464  68.2819144
 109.5802677  48.2731335  60.9808382 110.4149569  48.7121139  61.1445942
 109.7161806  47.7969988  60.1616628 106.6294183  45.8311070  66.9285870
 107.1048305  46.0238716  66.1204721 105.7059749  45.8870256  66.6829253
 101.2074400  37.8658914  65.8941704 101.7256344  38.6019941  65.5688192
 100.8529533  38.1722907  66.7288463 101.4586994  34.2859196  61.4142600
 101.7388748  33.6182385  62.0403027 102.2437601  34.4788292  60.9017264
 105.3295852  42.7076830  65.1614175 106.2813275  42.8074928  65.1826399
 105.1599303  41.9155099  65.6712260 103.3510232  39.7932413  65.3473576
 102.7560164  40.0737426  64.6520065 103.0659928  40.2826314  66.1190317
 102.4817722  53.7455340  54.1076209 103.4148395  53.6800902  54.3109084
 102.3940935  54.5811607  53.6490741 105.1105739  53.0621211  51.0680156
 105.0319370  52.7281074  51.9615914 105.9315406  53.5542978  51.0671629
 107.8083930  45.9282950  64.2756475 107.7760250  44.9898951  64.4616159
 108.4184554  46.0066987  63.5422300  99.6467261  44.7979003  50.3183679
 100.5926366  44.6685211  50.3872097  99.2681506  44.0593665  50.7953107
 107.9578419  42.7193993  64.3214758 107.4417467  41.9352450  64.1344687
 108.8418367  42.3912710  64.4861278 105.6189145  36.4635009  60.2810571
 105.4213967  36.1550097  61.1653903 106.2288851  37.1896648  60.4108501
 113.6260480  46.9898957  63.4162512 114.3563868  46.7284245  63.9770215
 113.0167425  46.2527679  63.4564580 111.7075777  45.1306819  64.0136963
 110.9808941  44.9962784  63.4053455 111.2923064  45.4383648  64.8193681
  99.5305953  48.8496749  71.7784336 100.4508963  49.0275348  71.9724383
  99.4955536  47.9052794  71.6264035  97.8310178  42.7228979  50.2538564
  96.9241633  42.4262092  50.3301278  98.1086159  42.4258797  49.3872851
  92.5268026  46.7597784  64.4207117  92.7454036  47.6914891  64.4395151
  92.9393800  46.4005758  65.2061921  99.4472244  37.2665869  56.4082806
  98.6372972  36.9212954  56.7838052 100.1356661  36.9573413  56.9970417
 101.3762792  36.3443916  58.0307102 101.9293831  36.7639369  58.6897125
 101.6132878  35.4179664  58.0730058  97.3995891  42.3330989  73.8109866
  97.2992618  43.2825346  73.7421957  97.1817433  42.0049228  72.9385936
 104.7541599  38.4544441  57.5385766 104.1740268  39.1129245  57.1563819
 104.4877532  37.6321785  57.1273184 103.2045166  37.8549499  59.7407087
 103.7044944  37.9666033  58.9321406 103.8480773  37.5510551  60.3807895
  97.2627161  45.7628128  72.6274928  96.7794243  46.5628488  72.8338817
  97.3488100  45.7736073  71.6742372  93.7799881  48.2233779  67.2314159
  94.5992770  48.7177858  67.2548997  94.0536689  47.3065747  67.2031727
 103.5366477  40.6144531  56.5942115 102.6492332  40.8994182  56.3762309
 103.9520466  40.4538295  55.7469392 106.8881013  40.6391052  60.3096454
 107.6641403  41.1287505  60.5821071 106.1629147  41.0649106  60.7668323
 109.3253572  41.3518671  61.3670395 109.9198063  41.1114407  60.6563703
 109.3980156  40.6325802  61.9943931 102.6809691  50.3789206  50.6890135
 103.3845541  50.5839208  51.3047790 101.9572339  50.9465968  50.9539218
 103.5107501  46.1299067  56.8092405 103.4542702  46.5867619  55.9700037
 104.0635843  45.3689752  56.6315248 107.3212307  41.9188799  57.6342524
 107.0649241  41.5185435  58.4650732 106.6965175  42.6332593  57.5092664
 111.6324645  44.6584872  60.1413816 111.0724203  44.7278062  60.9145378
 111.0268148  44.4825857  59.4213312 104.5896388  50.8171735  52.7388595
 105.4241992  50.3852934  52.5566070 104.4280731  50.6453749  53.6665489
 104.2442280  47.3203848  54.1044934 104.1891084  47.1548120  53.1633378
 103.6188336  48.0279881  54.2607124  89.0334795  42.5571913  67.9306356
  89.6793659  42.0470867  68.4193581  88.8251946  43.2940594  68.5049782
 101.5588187  49.6252760  73.4298497 102.4279347  49.7993413  73.0685132
 101.0794939  50.4447177  73.3074226  95.7274368  56.7449861  65.1087930
  96.6301614  56.7773472  65.4254425  95.5011738  55.8150312  65.1234266
 101.3690525  33.4154734  57.9376189 100.6022921  32.8613221  58.0832872
 101.7801230  33.4876603  58.7990341  93.3732286  39.7039530  72.0281371
  94.2363748  39.3476335  72.2384695  92.7997697  39.3653425  72.7156775
 113.2180663  61.3341386  62.8343772 113.8559073  61.2148134  62.1307112
 113.1001506  62.2822230  62.8931724 110.0270369  61.2868814  62.7705296
 109.6888881  61.1709879  61.8825831 110.8960138  60.8859979  62.7506302
 105.8857185  63.1404291  58.7602187 105.3222050  63.0494228  57.9918475
 105.7709580  62.3204195  59.2404680 110.5090152  62.4403666  68.7291502
 110.4978793  62.0456464  67.8572005 110.6710792  61.7069739  69.3225273
 103.4321617  64.6355482  61.5986408 104.2242909  64.2946307  61.1832707
 103.6718267  64.7450457  62.5188561 111.4656744  66.8075258  54.0716652
 110.8144724  67.3929339  53.6850666 112.2601107  67.3381453  54.1311690
 105.3912371  63.8964396  54.4703786 106.1643247  63.3493383  54.3316662
 105.7437770  64.7608645  54.6818248 107.2297414  65.2240778  67.6770686
 106.9387280  66.1286409  67.5617352 107.8654398  65.2657305  68.3914755
 108.1553620  62.6017626  64.2672045 108.7517193  62.3773649  63.5529008
 108.2128592  61.8602372  64.8697493 107.7278649  60.0557062  52.1022236
 107.9804169  59.5338583  51.3405699 106.7903208  59.8923207  52.2048920
 112.7721932  59.0592840  59.9096980 113.5585021  58.6412263  59.5587397
 113.0360636  59.9638932  60.0778628 112.9432009  64.4965690  54.6085636
 112.3077842  64.5700317  55.3206541 112.6129415  65.0859289  53.9304716
 118.1730359  58.9968073  60.8129958 118.9055531  58.4267290  61.0467788
 117.4169714  58.6089674  61.2536464 107.4474938  61.9585168  54.3046611
 107.3311196  61.2830071  54.9727696 107.5577197  61.4717542  53.4878764
 109.7906478  61.4195315  58.0093301 109.4264686  60.8925936  58.7206222
 110.6473594  61.0293784  57.8359786 115.6955779  52.7089647  65.2724567
 115.3639104  53.5785058  65.0485782 115.1001393  52.3925931  65.9518597
 109.4311965  56.4485214  53.0054649 109.5986368  57.3165451  53.3725120
 109.2409135  56.6112496  52.0815938 112.1887299  64.9102193  64.6720479
 111.8888022  65.8127232  64.5636287 111.8438358  64.6434377  65.5241632
 105.6399780  61.3615990  60.7057184 104.7150277  61.2292204  60.9134876
 105.8884193  62.1410209  61.2027126 115.5884442  57.4284734  62.3517917
 114.6801320  57.3600142  62.0576678 115.5372038  57.9056679  63.1799742
 109.4101186  58.9042872  53.9901316 109.2900812  59.3499923  54.8286796
 108.7153775  59.2528190  53.4314854 103.0008591  61.0049264  61.5400973
 103.1300972  61.2583743  62.4540385 102.3206042  61.5976972  61.2205628
 107.1708078  71.6746514  57.6391447 107.0932108  72.6254339  57.7179928
 106.5669722  71.3292386  58.2966373 109.6625308  58.8474379  70.2952814
 108.8858642  59.4068299  70.2855679 110.3015871  59.3331162  70.8167684
 117.4546089  55.6301172  64.1295791 116.8120469  55.9233705  63.4835585
 116.9501017  55.5154092  64.9348987 115.1086253  59.3764345  54.8181650
 116.0204109  59.6091732  54.6429347 114.5995900  59.9601389  54.2556729
 107.9171681  61.6559833  69.8570781 108.6586365  62.1944876  69.5805605
 107.2108666  62.2826121  70.0142333 113.3927020  63.7988973  68.4542942
 113.8010376  63.3571384  67.7097575 112.6704282  63.2241601  68.7077135
 109.7458090  58.7361580  65.8276499 110.5919285  59.1600993  65.9711148
 109.6856728  58.0795204  66.5215063 113.7155835  64.3590164  62.2095231
 113.0864697  64.5235878  61.5071299 113.3281497  64.7731773  62.9806195
 117.5945067  65.2944601  59.5639595 116.9096105  65.6743503  59.0136628
 117.6788916  65.9039928  60.2971543 112.8957536  56.3965948  67.4857673
 112.6518467  57.1508009  66.9491949 113.1717466  56.7751296  68.3204920
 114.8495998  62.9404560  66.1634939 115.0612894  63.5836320  65.4869320
 114.8025747  62.1066877  65.6956869 112.4522227  55.5522381  63.0671511
 111.5906706  55.8503635  63.3588248 112.4784662  55.7692780  62.1352543
 109.2683797  64.0964572  59.4745316 109.7322142  64.3752275  58.6849939
 109.0040595  63.1948016  59.2918407 106.1607878  63.6436053  62.4125080
 106.7309235  64.0723322  61.7742564 106.7515990  63.3618638  63.1109265
 108.2052683  60.2187724  56.2834882 108.9076726  60.6708768  56.7508808
 107.8733311  59.5771543  56.9114775 106.6533044  58.8099481  70.6586091
 106.0231705  59.4915762  70.8921488 106.5469132  58.6982562  69.7139229
 101.9478017  58.4771277  61.5852015 101.1577071  58.7328805  61.1092126
 102.4389264  59.2919615  61.6904056 115.9641826  65.8176516  64.3357296
 116.7859270  65.4156703  64.0539978 115.9604229  65.7144750  65.2873412
 103.8992762  58.8415856  58.5435492 103.1023925  58.9534550  59.0618988
 103.6718354  59.1802508  57.6776382 109.7298430  65.3660559  66.4918007
 109.7942862  65.8280966  67.3276178 109.0209354  64.7357924  66.6200316
 100.2315720  58.7301767  64.0167006 100.4823758  59.6148777  64.2824582
 100.7675268  58.5506369  63.2442098 109.4446447  67.0328667  56.3596987
 109.3092122  67.8780202  56.7881835 109.9856260  67.2347944  55.5962921
 105.9313787  53.1120247  73.0211342 105.5380733  52.5586445  73.6958986
 106.7479927  53.4230825  73.4117860 102.8975845  64.5504105  56.9324912
 103.4100365  65.3447355  57.0830477 103.5498558  63.8530395  56.8658513
 104.7070729  67.6669861  59.0147665 104.8837358  68.5887826  58.8268649
 105.5027563  67.3528280  59.4442045 108.8481748  54.5278126  70.6131599
 109.5891461  55.1285279  70.5336061 109.0799671  53.7855763  70.0549641
 103.9923086  59.7134493  68.8909828 103.8776601  58.8119750  69.1916927
 103.1367604  59.9598190  68.5394645 111.0714924  67.6552233  70.4897329
 110.6278778  66.8688612  70.1718233 111.7332137  67.8431384  69.8241220
 105.8302045  69.1848035  65.0158007 106.3809470  69.0565098  64.2435001
 104.9913521  69.4842924  64.6652900 113.1696162  67.9355033  68.5178730
 113.1514637  68.7563914  68.0258999 114.0916082  67.8109108  68.7428871
 109.6269216  65.4499163  69.3602239 110.1597553  64.6887451  69.1301547
 109.0983297  65.1572814  70.1026393 112.7938911  50.5559229  64.8895880
 112.4503180  51.4460870  64.8134991 113.1617874  50.3660886  64.0265465
 100.8624762  62.8792759  57.7084482 101.6999984  63.2889767  57.4918190
 101.0403029  61.9392201  57.6784676 112.7589194  60.5467840  53.3968315
 112.2435817  61.3172444  53.6356703 112.4866502  59.8732976  54.0201377
 110.3436305  55.3917540  58.4553554 109.4877901  55.0024391  58.2759192
 110.7563256  55.4709501  57.5953339 111.8735451  52.9263884  62.8545114
 111.3700247  52.8894019  62.0412919 112.1666058  53.8356626  62.9141770
 108.1178337  53.0102613  61.8611295 108.9831334  52.8145422  61.5017185
 108.1855846  52.7812965  62.7880652 117.7323468  63.3000194  55.3321489
 116.9552911  62.9611354  54.8876651 118.4114949  63.3052817  54.6576454
 112.5475497  58.4194932  55.2228097 112.2425632  58.7341081  56.0738240
 113.5005939  58.4976352  55.2655430 110.9921929  64.5785155  56.8721051
 110.4643290  63.8437915  56.5594288 110.4909431  65.3559831  56.6261019
 115.9714775  62.7734176  61.9888097 115.3138449  63.4633437  62.0768226
 116.7755174  63.1630608  62.3322083 105.7240656  55.2404821  59.2327662
 106.2984408  55.0180003  58.5000855 106.3111639  55.3093516  59.9856263
 114.7820233  61.1278548  60.0392039 115.2952115  61.7608540  60.5413748
 115.4321457  60.5279744  59.6735399 106.0510243  57.2709282  53.2523547
 105.2147556  57.6083969  53.5732822 105.9115013  57.1358262  52.3150684
 108.0263324  52.1146070  57.9602732 107.3727736  51.7995087  57.3359346
 107.9843798  51.4921811  58.6862554 109.1374529  62.3965365  49.8756024
 108.2301591  62.1654619  50.0747173 109.6345561  61.6002985  50.0630005
 112.0442608  71.1062873  52.7952710 111.3704306  71.4094569  53.4037668
 112.4308430  71.9091953  52.4458167 111.2601064  58.6028004  62.2850379
 110.3423626  58.8242951  62.1272067 111.6761208  58.6774314  61.4262086
 112.0436112  60.0019420  57.4153059 112.7907931  60.5140817  57.1060181
 112.3127702  59.6803472  58.2757453 110.3162762  62.4977960  54.3980014
 109.4073982  62.2136993  54.4952483 110.3457846  62.9177039  53.5383321
 115.5482030  66.1084550  58.1671181 115.0944357  65.2675460  58.2236372
 114.9175996  66.7445948  58.5045961 114.4914949  57.0376536  59.3971849
 113.7537706  56.5253922  59.7282091 114.7441723  56.5976917  58.5855126
 113.9914969  67.9461046  59.1020999 114.2837943  68.5066104  58.3833365
 114.5013590  68.2389607  59.8574158 114.5926577  49.8152788  59.9913618
 114.8985453  48.9550151  59.7039533 115.3179181  50.4070408  59.7912612
 100.8850933  60.2183474  58.3795216 100.6875332  59.6252835  57.6546282
 100.3297597  59.9135685  59.0971155 108.8647656  60.1106581  60.4989809
 108.9196266  59.1580417  60.4232286 108.0538858  60.2666020  60.9831107
 110.0138850  64.0386704  51.7368092 109.5758280  63.3222563  51.2773730
 110.7549291  64.2662819  51.1753184 106.8040016  58.7283641  58.2580188
 105.9907882  59.0277811  58.6645380 107.2999010  58.3339329  58.9754670
 108.9548594  68.7241398  60.1914453 108.9124773  68.9502244  59.2622985
 109.8711293  68.4904772  60.3400254 112.4014228  59.1925465  67.0895082
 112.7563616  59.4196938  67.9489548 113.0486359  59.5243842  66.4672337
 118.1311965  62.3143901  57.7944411 117.9929863  62.5045497  56.8665600
 117.7748184  63.0763284  58.2512462 106.2954091  56.3001996  63.8741423
 106.9353470  56.1590755  63.1764386 105.4631622  56.0136509  63.4980025
 118.1581344  64.3820428  62.8055682 118.5917851  64.2895717  63.6538736
 118.8712925  64.3577928  62.1675698 107.0714395  65.6004427  59.9876415
 107.8654993  65.1054747  59.7858990 106.3606087  65.0722290  59.6244121
 111.8909239  67.9822522  64.3388783 111.9446262  68.5513458  65.1066499
 111.0224021  68.1524407  63.9742820 103.3797158  59.7447508  56.0636168
 102.4494746  59.6831964  56.2806130 103.4754630  59.2223461  55.2672809
 103.2982707  56.2702321  58.6514410 103.5589525  57.1847654  58.5423570
 104.1199880  55.8026764  58.8011022 104.7707633  57.6840078  65.8213234
 105.4430686  57.4757440  65.1725883 103.9437419  57.4862164  65.3818466
 119.0196894  64.4244129  65.3388568 119.2132784  65.3289939  65.5847843
 118.9197512  63.9651548  66.1727153 110.6733205  54.3102019  67.8378895
 110.0261120  55.0091969  67.7443371 111.4434220  54.7438163  68.2055143
 114.0812003  64.5750871  70.9129448 113.9297509  64.3461423  69.9959532
 114.0716682  65.5321473  70.9260793 110.8497339  62.1482784  65.8975715
 111.7789399  62.2993944  65.7244682 110.4288369  62.2366805  65.0424361
 109.6485671  66.1733449  63.6674252 109.5096757  65.8052233  64.5400191
 108.8600267  66.6881088  63.4958210 110.2433823  71.2742545  55.0099789
 110.4185579  70.8030588  55.8245412 109.5566611  71.9008311  55.2381050
 111.1990886  65.5515051  61.0563090 110.8640719  65.5115821  61.9520740
 110.6994832  64.8859767  60.5833500 105.1735130  60.9582681  66.5815671
 105.0354928  60.2262920  67.1827210 106.0840053  60.8691581  66.2999859
 114.1350078  62.8971086  51.3300150 113.5179248  62.1717914  51.2333203
 113.6666566  63.6580446  50.9867224 107.8017431  60.6702641  66.0699351
 108.5117049  60.0295833  66.0285969 107.7586739  60.9215535  66.9925532
 115.7904209  67.6069994  68.9905930 115.7316756  66.9229214  68.3236513
 116.1923728  68.3488984  68.5386556 106.5146365  57.6567858  67.8894990
 105.9783722  57.2058597  68.5416587 105.9263073  57.7913767  67.1465455
 104.8094908  74.4231908  61.7839649 105.0491506  75.0550432  62.4618668
 103.9664105  74.0719948  62.0705008 105.9248624  57.1156510  50.4521454
 105.0478090  56.9945311  50.0883701 106.4006377  56.3242588  50.2000343
 115.7921617  65.5709578  67.2219910 114.9048395  65.2335500  67.3446309
 116.3620168  64.8392609  67.4588675  97.4450764  61.9033670  60.5462961
  98.1321804  61.5895400  59.9583977  97.2898892  62.8075034  60.2730213
 102.2485486  56.7923866  64.9747985 102.1643675  56.1849536  64.2398395
 101.4268192  57.2832884  64.9757481 109.3222770  70.2311030  64.1881153
 109.2492942  71.0366002  64.7000458 108.8800163  70.4302996  63.3629174
 109.1112550  69.4682800  57.6983975 108.3280072  70.0104480  57.7922199
 109.8105295  69.9856780  58.0978216 112.4209200  55.2777430  60.3418180
 112.9177899  54.5247392  60.0219250 111.6496181  55.3141746  59.7761389
 120.2738957  60.9817795  61.9836472 120.2628833  61.8642511  61.6130405
 119.4056337  60.6289346  61.7891009 111.7821454  70.1297864  66.3439312
 112.4949426  70.7645329  66.2715213 111.2911482  70.2261730  65.5279314
 113.5038980  64.0349117  57.9156603 112.5695259  64.1550579  57.7461308
 113.6815649  63.1321584  57.6516613 109.0044169  57.4194813  60.0689865
 108.6341956  56.8665853  60.7570770 109.5003261  56.8152946  59.5164865
 116.8911532  59.8766436  58.4506638 117.3571984  60.7094428  58.3766940
 117.3419032  59.4111418  59.1551896 106.8333367  67.8792308  67.1644883
 107.5342827  68.5128791  67.3174277 106.3628482  68.2207039  66.4040522
 114.9587763  66.2210257  55.4492790 115.2347607  66.1066852  56.3586664
 114.0892262  65.8227742  55.4104963 114.8628195  52.2447023  62.4897539
 113.9491274  52.4751250  62.6579746 115.2921296  52.3285467  63.3411571
 114.6334653  60.4336915  64.9897433 113.9806103  60.6812823  64.3349886
 115.0115033  59.6201053  64.6559910 111.5941827  70.4696608  59.0925603
 111.7764221  69.6518264  59.5553356 112.4174813  70.6864301  58.6550493
 111.9283992  69.3964793  56.3540652 112.4571759  68.8857248  55.7410814
 112.1912212  69.0807324  57.2186185 110.6822226  61.1756726  71.4763470
 110.0062863  61.0750856  72.1465845 111.5049860  61.0195940  71.9399467
 102.4301085  67.4128663  64.0975985 103.0154522  66.6672351  64.2303889
 102.2325924  67.7232619  64.9812649 105.2839740  70.4479910  59.1138428
 104.6150116  70.9326038  58.6302468 105.1452610  70.6949131  60.0281806
  97.0218740  59.9834263  62.8180428  97.0602839  59.4497854  63.6117547
  96.5159033  59.4569468  62.1991406 109.4245009  72.4823654  65.7121086
 109.9763317  72.6455275  66.4770171 109.7651202  73.0728091  65.0401111
 104.4009502  54.8298803  66.3142971 104.4650829  55.6913634  65.9020368
 104.3376622  54.2172805  65.5815329 103.8761775  56.9021936  69.9616005
 104.5033814  56.5199013  70.5753529 103.0189694  56.6836138  70.3271697
 114.2755883  67.3084911  71.5669740 114.8195787  67.9214869  71.0724695
 113.6942728  67.8664490  72.0836753 100.6527317  58.7098365  55.8934360
 100.9480759  57.8009044  55.8401413  99.7515353  58.6886105  55.5715362
 112.5613396  70.4305629  62.6984768 112.4364536  69.6295369  62.1895714
 113.2192487  70.9251823  62.2098738 104.1821564  56.7854362  61.8761908
 103.4608150  57.3990329  61.7369382 104.9714820  57.3212126  61.7978554
 114.6248305  68.2314649  64.3264318 113.6778640  68.1120000  64.2542645
 114.9731078  67.3437147  64.4090580 106.9847878  54.1208788  68.1502560
 107.5082280  54.3671085  68.9128869 106.7660211  54.9528823  67.7305697
 102.3815159  56.3912463  56.0173685 102.0527865  55.5109842  55.8348791
 102.7354530  56.3360131  56.9050074 111.6294738  68.0267365  60.5268670
 111.4819700  67.0984073  60.7076241 112.4548231  68.0487456  60.0425746
 105.4956982  56.6785433  56.3849163 105.8353055  57.2071354  55.6627771
 105.9429103  57.0165839  57.1607729 115.2328860  68.8495924  61.6133543
 116.1575407  68.6438786  61.4757994 115.0644163  68.6012325  62.5222885
 108.1900423  55.0622483  65.8352231 107.8497243  54.2630296  66.2372911
 107.4839429  55.3624194  65.2629064 108.8416895  52.1471796  64.2879554
 109.6642964  51.6732274  64.1658444 109.0854958  52.9262279  64.7878240
 107.4825129  55.1760054  54.5842455 108.2033492  55.5541307  54.0806172
 106.8590433  55.8948931  54.6877433 111.6256252  55.8805203  55.5200788
 111.8419867  56.7629841  55.2189616 111.1450319  55.4891417  54.7906430
 106.3655474  58.8390916  62.0971532 106.2200054  59.1531219  62.9895814
 105.8880677  59.4575817  61.5442431 108.2251856  55.8293464  62.1452422
 108.2113425  54.9334558  61.8084720 108.9424285  55.8364128  62.7790708
 110.0777987  56.2630805  64.1905549 109.8195765  57.1847875  64.1889880
 109.5463028  55.8661239  64.8806013 115.0224176  69.3681592  56.9695635
 115.1961053  68.8028014  56.2169487 115.5153067  70.1682487  56.7875125
 100.8401136  61.3796261  65.0359193 100.2954604  62.1556069  65.1679468
 101.7180486  61.7267065  64.8778315 107.6288752  54.7107845  57.4139992
 107.7504664  53.7824491  57.6130880 107.3390795  54.7246531  56.5018307
 110.4979943  52.3962755  60.5506712 110.5201640  52.4602088  59.5958691
 110.9148002  51.5567264  60.7447218 120.8763567  62.1318015  58.5885934
 121.3194713  61.3825340  58.1905058 119.9990077  62.1228151  58.2059666
 116.0099348  68.6848356  54.0692533 116.7050253  69.3055049  54.2879848
 116.3522499  67.8343707  54.3444911 101.6267158  60.5066157  67.9289350
 100.8848894  60.6548792  68.5153981 101.3059902  60.7674423  67.0656100
 117.9090772  66.1348062  55.5979864 118.4342096  66.4735334  54.8729184
 117.8213124  65.1995077  55.4142998 109.5710820  70.0482135  67.7269740
 109.8797947  69.8031282  68.5992440 110.3686302  70.2528774  67.2388611
 109.5931432  72.2020045  59.9575117 109.1536423  71.7096424  60.6507974
 110.3439549  71.6593013  59.7167192 102.0723771  68.3931586  59.9599745
 102.8981791  68.0935358  59.5798389 101.7217823  67.6239208  60.4089534
 107.0405304  67.7458054  62.0297419 106.4185314  67.0828759  61.7299646
 107.7110171  67.7719186  61.3471066 100.2732376  66.3117912  60.9188679
  99.4364285  65.8840087  60.7372680 100.2456022  66.5050356  61.8559470
 107.1129832  56.2239842  71.6229925 107.1617987  57.1001965  71.2407694
 107.6552346  55.6817235  71.0501568 117.5984678  66.7680965  70.9031062
 116.8080221  66.7505104  70.3635561 117.3618032  67.3069259  71.6580098
 117.7182553  63.6173432  68.2163790 117.7680558  63.4523439  69.1579313
 117.6096476  62.7500691  67.8261671 106.6018811  66.2961977  55.5055879
 106.7506932  66.9797442  54.8522552 107.4085255  66.2767067  56.0205335
 115.0086315  59.6004360  69.5323097 115.9096178  59.4610824  69.2407095
 115.0834290  59.7658814  70.4721274 109.3429120  56.9771214  68.3776283
 108.4732430  57.2704780  68.1058872 109.5788601  57.5611659  69.0983547
 119.2200750  66.0370373  68.4605812 118.9285558  66.4000354  69.2969273
 118.6072881  65.3237381  68.2819144 120.4196432  63.6023253  60.9808382
 121.2543323  64.0413057  61.1445942 120.5555561  63.1261906  60.1616628
 117.4687938  61.1602988  66.9285870 117.9442059  61.3530634  66.1204721
 116.5453503  61.2162174  66.6829253 104.3571444  62.3227155  56.5116948
 104.1117486  61.4189485  56.7097158 104.5267359  62.3244305  55.5696426
 112.0468154  53.1950831  65.8941704 112.5650098  53.9311858  65.5688192
 111.6923287  53.5014825  66.7288463 103.6267092  58.0555513  54.0103110
 102.9336337  58.1299867  53.3543145 103.3818844  57.2915856  54.5324626
 112.2980748  49.6151114  61.4142600 112.5782502  48.9474303  62.0403027
 113.0831355  49.8080209  60.9017264 110.1014217  68.7910108  52.9767627
 109.5288184  69.4100295  52.5238098 110.6747011  69.3409469  53.5107548
 116.1689607  58.0368748  65.1614175 117.1207030  58.1366845  65.1826399
 115.9993057  57.2447016  65.6712260 114.1903986  55.1224331  65.3473576
 113.5953918  55.4029344  64.6520065 113.9053683  55.6118232  66.1190317
 113.3211477  69.0747258  54.1076209 114.2542150  69.0092820  54.3109084
 113.2334690  69.9103525  53.6490741 115.9499493  68.3913128  51.0680156
 115.8713125  68.0572992  51.9615914 116.7709160  68.8834896  51.0671629
 118.6477685  61.2574868  64.2756475 118.6154005  60.3190868  64.4616159
 119.2578308  61.3358904  63.5422300 110.4861015  60.1270920  50.3183679
 111.4320120  59.9977129  50.3872097 110.1075260  59.3885582  50.7953107
 118.7972173  58.0485911  64.3214758 118.2811222  57.2644368  64.1344687
 119.6812122  57.7204628  64.4861278 116.4582900  51.7926927  60.2810571
 116.2607721  51.4842015  61.1653903 117.0682606  52.5188565  60.4108501
 110.3699708  64.1788667  71.7784336 111.2902717  64.3567266  71.9724383
 110.3349291  63.2344712  71.6264035 108.6703933  58.0520897  50.2538564
 107.7635388  57.7554010  50.3301278 108.9479914  57.7550715  49.3872851
  99.5881873  59.3727260  60.7037611  99.2684657  58.5192568  60.4111985
  99.0415301  59.5875838  61.4595578 103.3661780  62.0889701  64.4207117
 103.5847790  63.0206809  64.4395151 103.7787554  61.7297676  65.2061921
 110.2865998  52.5957787  56.4082806 109.4766727  52.2504872  56.7838052
 110.9750415  52.2865330  56.9970417 112.2156547  51.6735833  58.0307102
 112.7687585  52.0931287  58.6897125 112.4526633  50.7471582  58.0730058
 108.2389646  57.6622907  73.8109866 108.1386373  58.6117264  73.7421957
 108.0211188  57.3341146  72.9385936 107.4402717  54.9107832  50.3950543
 108.3021881  55.2362730  50.6546361 107.6253061  54.1239328  49.8823609
  99.4570133  62.9930172  62.6730732  98.7633604  62.5784125  62.1600687
 100.2043124  63.0350708  62.0764151 115.5935354  53.7836359  57.5385766
 115.0134023  54.4421163  57.1563819 115.3271286  52.9613703  57.1273184
 114.0438920  53.1841416  59.7407087 114.5438698  53.2957951  58.9321406
 114.6874528  52.8802469  60.3807895 108.1020916  61.0920046  72.6274928
 107.6187998  61.8920406  72.8338817 108.1881855  61.1027991  71.6742372
 101.3706875  62.9248426  60.5496747 101.3477564  63.0236113  59.5978630
 101.6807512  63.7713576  60.8713913 104.0294253  64.9824581  64.6643362
 104.9837507  64.9508523  64.5973293 103.8306777  64.5215204  65.4793587
 104.6193635  63.5525697  67.2314159 105.4386524  64.0469775  67.2548997
 104.8930443  62.6357665  67.2031727 114.3760232  55.9436449  56.5942115
 113.4886087  56.2286100  56.3762309 114.7914221  55.7830212  55.7469392
 117.7274768  55.9682970  60.3096454 118.5035158  56.4579422  60.5821071
 117.0022902  56.3941024  60.7668323 120.1647326  56.6810589  61.3670395
 120.7591817  56.4406325  60.6563703 120.2373910  55.9617720  61.9943931
 102.3844482  70.5244200  61.6813559 102.2498950  69.7644601  61.1151557
 101.9676544  71.2485100  61.2142348 113.5203445  65.7081124  50.6890135
 114.2239295  65.9131126  51.3047790 112.7966094  66.2757886  50.9539218
 114.3501255  61.4590985  56.8092405 114.2936457  61.9159536  55.9700037
 114.9029598  60.6981669  56.6315248 118.1606061  57.2480717  57.6342524
 117.9042996  56.8477352  58.4650732 117.5358929  57.9624511  57.5092664
 122.4718399  59.9876790  60.1413816 121.9117957  60.0569979  60.9145378
 121.8661903  59.8117775  59.4213312 105.5413608  71.4213517  61.8932002
 105.4245992  72.3658950  61.7910692 104.7206054  71.1187079  62.2817801
 115.4290143  66.1463653  52.7388595 116.2635746  65.7144851  52.5566070
 115.2674485  65.9745666  53.6665489 115.0836035  62.6495766  54.1044934
 115.0284839  62.4840038  53.1633378 114.4582090  63.3571799  54.2607124
  99.8728550  57.8863830  67.9306356 100.5187413  57.3762784  68.4193581
  99.6645701  58.6232512  68.5049782 112.3981942  64.9544678  73.4298497
 113.2673102  65.1285330  73.0685132 111.9188693  65.7739095  73.3074226
 108.3932160  52.1503875  53.6830252 108.3810830  53.0945715  53.8398523
 109.2855582  51.9674021  53.3889714 106.5668122  72.0741779  65.1087930
 107.4695369  72.1065389  65.4254425 106.3405492  71.1442230  65.1234266
 108.3221724  70.8272766  61.7698009 107.3717355  70.8274627  61.6562381
 108.6254210  70.0805500  61.2534044 112.2084280  48.7446652  57.9376189
 111.4416675  48.1905138  58.0832872 112.6194985  48.8168521  58.7990341
 104.2126041  55.0331448  72.0281371 105.0757502  54.6768252  72.2384695
 103.6391451  54.6945342  72.7156775 120.8664124  76.6160732  62.7705296
 120.5282635  76.5001797  61.8825831 121.7353892  76.2151897  62.7506302
 116.7250940  78.4696208  58.7602187 116.1615805  78.3786145  57.9918475
 116.6103335  77.6496113  59.2404680 121.3483907  77.7695584  68.7291502
 121.3372548  77.3748382  67.8572005 121.5104546  77.0361656  69.3225273
 114.2715372  79.9647400  61.5986408 115.0636663  79.6238225  61.1832707
 114.5112022  80.0742375  62.5188561 116.2306125  79.2256313  54.4703786
 117.0037001  78.6785300  54.3316662 116.5831524  80.0900563  54.6818248
 118.0691168  80.5532696  67.6770686 117.7781034  81.4578326  67.5617352
 118.7048152  80.5949223  68.3914755 118.9947375  77.9309544  64.2672045
 119.5910947  77.7065566  63.5529008 119.0522346  77.1894290  64.8697493
 118.5672403  75.3848979  52.1022236 118.8197924  74.8630501  51.3405699
 117.6296962  75.2215125  52.2048920 118.2868692  77.2877085  54.3046611
 118.1704950  76.6121989  54.9727696 118.3970952  76.8009459  53.4878764
 120.6300233  76.7487232  58.0093301 120.2658440  76.2217853  58.7206222
 121.4867349  76.3585702  57.8359786 120.2705720  71.7777132  53.0054649
 120.4380122  72.6457369  53.3725120 120.0802889  71.9404414  52.0815938
 116.4793535  76.6907908  60.7057184 115.5544031  76.5584122  60.9134876
 116.7277948  77.4702127  61.2027126 120.2494941  74.2334790  53.9901316
 120.1294566  74.6791840  54.8286796 119.5547529  74.5820107  53.4314854
 113.8402346  76.3341181  61.5400973 113.9694727  76.5875660  62.4540385
 113.1599797  76.9268889  61.2205628 118.0101833  87.0038431  57.6391447
 117.9325863  87.9546257  57.7179928 117.4063477  86.6584304  58.2966373
 120.5019063  74.1766297  70.2952814 119.7252397  74.7360217  70.2855679
 121.1409626  74.6623080  70.8167684 118.7565435  76.9851750  69.8570781
 119.4980119  77.5236794  69.5805605 118.0502420  77.6118039  70.0142333
 120.5851845  74.0653497  65.8276499 121.4313040  74.4892911  65.9711148
 120.5250482  73.4087122  66.5215063 120.1077551  79.4256489  59.4745316
 120.5715897  79.7044192  58.6849939 119.8434349  78.5239934  59.2918407
 117.0001632  78.9727971  62.4125080 117.5702989  79.4015239  61.7742564
 117.5909744  78.6910556  63.1109265 119.0446437  75.5479642  56.2834882
 119.7470481  76.0000685  56.7508808 118.7127066  74.9063461  56.9114775
 117.4926799  74.1391398  70.6586091 116.8625459  74.8207679  70.8921488
 117.3862887  74.0274480  69.7139229 112.7871771  73.8063194  61.5852015
 111.9970825  74.0620723  61.1092126 113.2783019  74.6211532  61.6904056
 114.7386517  74.1707774  58.5435492 113.9417680  74.2826468  59.0618988
 114.5112109  74.5094426  57.6776382 120.5692184  80.6952477  66.4918007
 120.6336617  81.1572884  67.3276178 119.8603108  80.0649842  66.6200316
 111.0709474  74.0593685  64.0167006 111.3217513  74.9440695  64.2824582
 111.6069023  73.8798286  63.2442098 120.2840202  82.3620584  56.3596987
 120.1485877  83.2072120  56.7881835 120.8250014  82.5639862  55.5962921
 116.7707541  68.4412164  73.0211342 116.3774487  67.8878363  73.6958986
 117.5873682  68.7522743  73.4117860 113.7369599  79.8796022  56.9324912
 114.2494120  80.6739273  57.0830477 114.3892312  79.1822313  56.8658513
 115.5464484  82.9961779  59.0147665 115.7231112  83.9179743  58.8268649
 116.3421317  82.6820198  59.4442045 119.6875502  69.8570043  70.6131599
 120.4285216  70.4577196  70.5336061 119.9193425  69.1147681  70.0549641
 114.8316840  75.0426411  68.8909828 114.7170356  74.1411668  69.1916927
 113.9761358  75.2890107  68.5394645 116.6695799  84.5139952  65.0158007
 117.2203225  84.3857016  64.2435001 115.8307275  84.8134841  64.6652900
 120.4662970  80.7791080  69.3602239 120.9991307  80.0179368  69.1301547
 119.9377052  80.4864732  70.1026393 111.7018516  78.2084677  57.7084482
 112.5393738  78.6181685  57.4918190 111.8796784  77.2684119  57.6784676
 121.1830059  70.7209458  58.4553554 120.3271656  70.3316309  58.2759192
 121.5957011  70.8001419  57.5953339 118.9572092  68.3394531  61.8611295
 119.8225088  68.1437340  61.5017185 119.0249601  68.1104883  62.7880652
 121.8315683  79.9077073  56.8721051 121.3037045  79.1729832  56.5594288
 121.3303186  80.6851749  56.6261019 116.5634411  70.5696739  59.2327662
 117.1378163  70.3471921  58.5000855 117.1505393  70.6385434  59.9856263
 116.8903998  72.6001200  53.2523547 116.0541310  72.9375887  53.5732822
 116.7508768  72.4650180  52.3150684 118.8657078  67.4437988  57.9602732
 118.2121491  67.1287005  57.3359346 118.8237553  66.8213728  58.6862554
 119.9768283  77.7257283  49.8756024 119.0695345  77.4946536  50.0747173
 120.4739315  76.9294902  50.0630005 121.1556517  77.8269878  54.3980014
 120.2467736  77.5428911  54.4952483 121.1851601  78.2468956  53.5383321
 111.7244687  75.5475392  58.3795216 111.5269087  74.9544753  57.6546282
 111.1691351  75.2427602  59.0971155 119.7041411  75.4398499  60.4989809
 119.7590021  74.4872335  60.4232286 118.8932613  75.5957938  60.9831107
 120.8532605  79.3678622  51.7368092 120.4152035  78.6514481  51.2773730
 121.5943045  79.5954736  51.1753184 117.6433771  74.0575558  58.2580188
 116.8301636  74.3569729  58.6645380 118.1392765  73.6631247  58.9754670
 119.7942349  84.0533315  60.1914453 119.7518527  84.2794161  59.2622985
 120.7105047  83.8196690  60.3400254 117.1347845  71.6293914  63.8741423
 117.7747225  71.4882673  63.1764386 116.3025376  71.3428427  63.4980025
 117.9108149  80.9296344  59.9876415 118.7048748  80.4346664  59.7858990
 117.1999842  80.4014207  59.6244121 114.2190913  75.0739426  56.0636168
 113.2888501  75.0123881  56.2806130 114.3148385  74.5515379  55.2672809
 114.1376462  71.5994239  58.6514410 114.3983279  72.5139572  58.5423570
 114.9593634  71.1318681  58.8011022 115.6101387  73.0131996  65.8213234
 116.2824441  72.8049358  65.1725883 114.7831174  72.8154082  65.3818466
 121.5126959  69.6393937  67.8378895 120.8654874  70.3383887  67.7443371
 122.2827975  70.0730081  68.2055143 120.4879425  81.5025366  63.6674252
 120.3490511  81.1344151  64.5400191 119.6994022  82.0173006  63.4958210
 121.0827577  86.6034463  55.0099789 121.2579333  86.1322506  55.8245412
 120.3960365  87.2300229  55.2381050 122.0384641  80.8806969  61.0563090
 121.7034473  80.8407739  61.9520740 121.5388586  80.2151685  60.5833500
 116.0128885  76.2874599  66.5815671 115.8748682  75.5554838  67.1827210
 116.9233808  76.1983499  66.2999859 118.6411185  75.9994558  66.0699351
 119.3510804  75.3587750  66.0285969 118.5980493  76.2507453  66.9925532
 117.3540119  72.9859776  67.8894990 116.8177476  72.5350515  68.5416587
 116.7656828  73.1205685  67.1465455 115.6488663  89.7523825  61.7839649
 115.8885261  90.3842350  62.4618668 114.8057859  89.4011865  62.0705008
 116.7642378  72.4448428  50.4521454 115.8871844  72.3237228  50.0883701
 117.2400131  71.6534506  50.2000343 108.2844518  77.2325587  60.5462961
 108.9715558  76.9187317  59.9583977 108.1292647  78.1366952  60.2730213
 113.0879240  72.1215784  64.9747985 113.0037429  71.5141453  64.2398395
 112.2661947  72.6124802  64.9757481 120.1616525  85.5602948  64.1881153
 120.0886696  86.3657919  64.7000458 119.7193918  85.7594914  63.3629174
 119.9506304  84.7974718  57.6983975 119.1673826  85.3396398  57.7922199
 120.6499049  85.3148698  58.0978216 119.8437923  72.7486730  60.0689865
 119.4735711  72.1957771  60.7570770 120.3397015  72.1444864  59.5164865
 117.6727122  83.2084225  67.1644883 118.3736581  83.8420708  67.3174277
 117.2022237  83.5498957  66.4040522 121.5215981  76.5048644  71.4763470
 120.8456618  76.4042773  72.1465845 122.3443614  76.3487858  71.9399467
 113.2694840  82.7420580  64.0975985 113.8548276  81.9964268  64.2303889
 113.0719678  83.0524537  64.9812649 116.1233495  85.7771828  59.1138428
 115.4543870  86.2617955  58.6302468 115.9846365  86.0241048  60.0281806
 107.8612494  75.3126181  62.8180428 107.8996594  74.7789771  63.6117547
 107.3552787  74.7861386  62.1991406 120.2638763  87.8115571  65.7121086
 120.8157071  87.9747193  66.4770171 120.6044957  88.4020009  65.0401111
 115.2403257  70.1590721  66.3142971 115.3044583  71.0205552  65.9020368
 115.1770377  69.5464723  65.5815329 114.7155529  72.2313854  69.9616005
 115.3427568  71.8490931  70.5753529 113.8583448  72.0128056  70.3271697
 111.4921072  74.0390283  55.8934360 111.7874513  73.1300961  55.8401413
 110.5909108  74.0178022  55.5715362 115.0215319  72.1146279  61.8761908
 114.3001905  72.7282247  61.7369382 115.8108575  72.6504044  61.7978554
 117.8241632  69.4500706  68.1502560 118.3476034  69.6963002  68.9128869
 117.6053966  70.2820741  67.7305697 113.2208914  71.7204380  56.0173685
 112.8921620  70.8401759  55.8348791 113.5748284  71.6652049  56.9050074
 116.3350737  72.0077350  56.3849163 116.6746809  72.5363271  55.6627771
 116.7822857  72.3457756  57.1607729 119.0294178  70.3914401  65.8352231
 118.6890998  69.5922214  66.2372911 118.3233184  70.6916112  65.2629064
 119.6810649  67.4763713  64.2879554 120.5036719  67.0024192  64.1658444
 119.9248713  68.2554197  64.7878240 118.3218884  70.5051972  54.5842455
 119.0427246  70.8833225  54.0806172 117.6984188  71.2240849  54.6877433
 117.2049228  74.1682834  62.0971532 117.0593809  74.4823137  62.9895814
 116.7274432  74.7867734  61.5442431 119.0645611  71.1585382  62.1452422
 119.0507180  70.2626475  61.8084720 119.7818039  71.1656046  62.7790708
 120.9171742  71.5922722  64.1905549 120.6589520  72.5139793  64.1889880
 120.3856782  71.1953157  64.8806013 111.6794890  76.7088178  65.0359193
 111.1348358  77.4847986  65.1679468 112.5574240  77.0558983  64.8778315
 118.4682507  70.0399762  57.4139992 118.5898418  69.1116408  57.6130880
 118.1784549  70.0538448  56.5018307 121.3373697  67.7254673  60.5506712
 121.3595394  67.7894006  59.5958691 121.7541756  66.8859181  60.7447218
 112.4660912  75.8358075  67.9289350 111.7242648  75.9840710  68.5153981
 112.1453656  76.0966340  67.0656100 120.4104575  85.3774053  67.7269740
 120.7191701  85.1323200  68.5992440 121.2080057  85.5820691  67.2388611
 120.4325187  87.5311963  59.9575117 119.9930177  87.0388341  60.6507974
 121.1833304  86.9884930  59.7167192 112.9117526  83.7223503  59.9599745
 113.7375546  83.4227275  59.5798389 112.5611578  82.9531126  60.4089534
 117.8799059  83.0749972  62.0297419 117.2579068  82.4120677  61.7299646
 118.5503926  83.1011104  61.3471066 111.1126131  81.6409830  60.9188679
 110.2758039  81.2132004  60.7372680 111.0849776  81.8342273  61.8559470
 117.9523586  71.5531760  71.6229925 118.0011742  72.4293882  71.2407694
 118.4946101  71.0109153  71.0501568 117.4412566  81.6253895  55.5055879
 117.5900686  82.3089359  54.8522552 118.2479009  81.6058985  56.0205335
 120.1822875  72.3063132  68.3776283 119.3126184  72.5996698  68.1058872
 120.4182355  72.8903577  69.0983547 115.1965199  77.6519073  56.5116948
 114.9511241  76.7481403  56.7097158 115.3661113  77.6536223  55.5696426
 114.4660846  73.3847430  54.0103110 113.7730091  73.4591785  53.3543145
 114.2212598  72.6207774  54.5324626 120.9407971  84.1202025  52.9767627
 120.3681938  84.7392213  52.5238098 121.5140765  84.6701387  53.5107548
 121.3254770  75.4562838  50.3183679 122.2713875  75.3269046  50.3872097
 120.9469015  74.7177500  50.7953107 121.2093462  79.5080584  71.7784336
 122.1296472  79.6859183  71.9724383 121.1743045  78.5636630  71.6264035
 119.5097687  73.3812815  50.2538564 118.6029142  73.0845927  50.3301278
 119.7873668  73.0842633  49.3872851 110.4275627  74.7019178  60.7037611
 110.1078412  73.8484486  60.4111985 109.8809056  74.9167756  61.4595578
 114.2055535  77.4181619  64.4207117 114.4241545  78.3498727  64.4395151
 114.6181309  77.0589593  65.2061921 121.1259753  67.9249704  56.4082806
 120.3160481  67.5796789  56.7838052 121.8144170  67.6157248  56.9970417
 119.0783400  72.9914825  73.8109866 118.9780127  73.9409182  73.7421957
 118.8604942  72.6633064  72.9385936 118.2796472  70.2399750  50.3950543
 119.1415636  70.5654648  50.6546361 118.4646816  69.4531246  49.8823609
 110.2963887  78.3222089  62.6730732 109.6027359  77.9076042  62.1600687
 111.0436878  78.3642626  62.0764151 118.9414670  76.4211964  72.6274928
 118.4581752  77.2212324  72.8338817 119.0275609  76.4319908  71.6742372
 112.2100630  78.2540343  60.5496747 112.1871318  78.3528031  59.5978630
 112.5201266  79.1005494  60.8713913 114.8688008  80.3116498  64.6643362
 115.8231261  80.2800441  64.5973293 114.6700531  79.8507122  65.4793587
 115.4587390  78.8817614  67.2314159 116.2780279  79.3761693  67.2548997
 115.7324198  77.9649582  67.2031727 113.2238237  85.8536118  61.6813559
 113.0892705  85.0936519  61.1151557 112.8070299  86.5777018  61.2142348
 116.3807362  86.7505435  61.8932002 116.2639747  87.6950867  61.7910692
 115.5599809  86.4478996  62.2817801 110.7122304  73.2155748  67.9306356
 111.3581168  72.7054702  68.4193581 110.5039455  73.9524430  68.5049782
 119.2325915  67.4795793  53.6830252 119.2204585  68.4237633  53.8398523
 120.1249337  67.2965938  53.3889714 117.4061877  87.4033697  65.1087930
 118.3089123  87.4357307  65.4254425 117.1799247  86.4734148  65.1234266
 119.1615479  86.1564683  61.7698009 118.2111110  86.1566545  61.6562381
 119.4647965  85.4097418  61.2534044 115.0519795  70.3623365  72.0281371
 115.9151257  70.0060170  72.2384695 114.4785206  70.0237260  72.7156775
 121.9103229  89.3885603  64.0167006 122.1611267  90.2732612  64.2824582
 122.4462777  89.2090204  63.2442098 119.1238273  92.5617505  60.5462961
 119.8109313  92.2479235  59.9583977 118.9686401  93.4658870  60.2730213
 118.7006249  90.6418098  62.8180428 118.7390348  90.1081689  63.6117547
 118.1946542  90.1153304  62.1991406 121.9519885  96.9701748  60.9188679
 121.1151794  96.5423922  60.7372680 121.9243531  97.1634191  61.8559470
 121.2669382  90.0311096  60.7037611 120.9472166  89.1776404  60.4111985
 120.7202810  90.2459674  61.4595578 121.1357642  93.6514007  62.6730732
 120.4421113  93.2367960  62.1600687 121.8830633  93.6934544  62.0764151
 121.5516059  88.5447666  67.9306356 122.1974922  88.0346620  68.4193581
 121.3433210  89.2816347  68.5049782  74.6526816   2.6932883  44.3636754
  74.5750846   3.6440708  44.4425234  74.0488460   2.3478756  45.0211680
  72.2913646   5.4418277  48.5084956  72.5310244   6.0736801  49.1863974
  71.4482842   5.0906317  48.7950315  72.7658478   1.4666280  45.8383734
  72.0968853   1.9512407  45.3547774  72.6271348   1.7135500  46.7527113
  76.9063747   3.5010023  52.4366393  77.4582055   3.6641645  53.2015478
  77.2469940   4.0914461  51.7646417  77.0750170   3.2206414  46.6820424
  76.6355160   2.7282793  47.3753280  77.8258287   2.6779382  46.4412499
  69.8663220   1.5430570  48.4058866  69.7317688   0.7830971  47.8396864
  69.4495282   2.2671470  47.9387655  73.0232346   2.4399887  48.6177309
  72.9064730   3.3845319  48.5155999  72.2024792   2.1373448  49.0063108
  74.0486860   3.0928149  51.8333237  74.9514107   3.1251759  52.1499732
  73.8224230   2.1628600  51.8479573  88.3482862   7.6347102  49.4950603
  88.0101373   7.5188166  48.6071138  89.2172630   7.2338267  49.4751609
  84.2069677   9.4882578  45.4847494  83.6434543   9.3972515  44.7163782
  84.0922072   8.6682482  45.9649986  88.8302645   8.7881953  55.4536808
  88.8191285   8.3934752  54.5817312  88.9923284   8.0548026  56.0470580
  81.7534109  10.9833770  48.3231714  82.5455401  10.6424594  47.9078014
  81.9930759  11.0928745  49.2433868  89.7869236  13.1553546  40.7961959
  89.1357216  13.7407626  40.4095972  90.5813599  13.6859741  40.8556996
  83.7124863  10.2442683  41.1949093  84.4855739   9.6971670  41.0561969
  84.0650262  11.1086932  41.4063554  85.5509906  11.5719065  54.4015992
  85.2599772  12.4764696  54.2862659  86.1866890  11.6135593  55.1160062
  86.4766113   8.9495914  50.9917352  87.0729685   8.7251936  50.2774315
  86.5341084   8.2080659  51.5942800  86.0491141   6.4035349  38.8267543
  86.3016662   5.8816870  38.0651006  85.1115700   6.2401494  38.9294227
  91.2644501  10.8443978  41.3330943  90.6290334  10.9178604  42.0451848
  90.9341908  11.4337576  40.6550022  85.7687430   8.3063455  41.0291918
  85.6523688   7.6308358  41.6973002  85.8789690   7.8195829  40.2124071
  88.1118971   7.7673602  44.7338607  87.7477178   7.2404223  45.4451529
  88.9686087   7.3772071  44.5605093  90.5099791  11.2580481  51.3965786
  90.2100514  12.1605519  51.2881593  90.1650850  10.9912664  52.2486939
  83.9612272   7.7094277  47.4302490  83.0362769   7.5770492  47.6380182
  84.2096686   8.4888497  47.9272433  81.3221083   7.3527551  48.2646280
  81.4513465   7.6062030  49.1785691  80.6418535   7.9455259  47.9450935
  85.4920571  18.0224801  44.3636754  85.4144600  18.9732626  44.4425234
  84.8882214  17.6770673  45.0211680  86.2384173   8.0038120  56.5816088
  86.9798857   8.5423164  56.3050911  85.5321158   8.6304409  56.7387639
  91.7139512  10.1467260  55.1788249  92.1222868   9.7049671  54.4342881
  90.9916774   9.5719888  55.4322442  92.0368327  10.7068451  48.9340538
  91.4077190  10.8714165  48.2316606  91.6493989  11.1210060  49.7051502
  95.9157559  11.6422889  46.2884902  95.2308597  12.0221790  45.7381935
  96.0001408  12.2518215  47.0216850  93.1708491   9.2882848  52.8880245
  93.3825386   9.9314608  52.2114626  93.1238239   8.4545164  52.4202175
  87.5896289  10.4442859  46.1990623  88.0534634  10.7230562  45.4095246
  87.3253087   9.5426304  46.0163714  84.4820370   9.9914340  49.1370386
  85.0521727  10.4201609  48.4987871  85.0728482   9.7096925  49.8354572
  86.5265175   6.5666011  43.0080188  87.2289218   7.0187055  43.4754115
  86.1945804   5.9249830  43.6360081  84.9745537   5.1577768  57.3831398
  84.3444197   5.8394049  57.6166794  84.8681624   5.0460850  56.4384536
  80.2690509   4.8249564  48.3097322  79.4789563   5.0807093  47.8337432
  80.7601756   5.6397902  48.4149362  94.2854319  12.1654803  51.0602603
  95.1071762  11.7634990  50.7785284  94.2816721  12.0623037  52.0118718
  82.2205254   5.1894143  45.2680799  81.4236418   5.3012837  45.7864294
  81.9930847   5.5280795  44.4021689  88.0510922  11.7138846  53.2163313
  88.1155354  12.1759254  54.0521485  87.3421846  11.0836211  53.3445623
  78.5528212   5.0780054  50.7412313  78.8036250   5.9627064  51.0069889
  79.0887760   4.8984656  49.9687404  87.7658940  13.3806954  43.0842293
  87.6304614  14.2258490  43.5127141  88.3068752  13.5826232  42.3208227
  81.2188337  10.8982392  43.6570219  81.7312858  11.6925642  43.8075783
  81.8711050  10.2008682  43.5903820  83.0283222  14.0148148  45.7392972
  83.2049850  14.9366113  45.5513956  83.8240055  13.7006567  46.1687352
  82.3135578   6.0612780  55.6155135  82.1989093   5.1598037  55.9162234
  81.4580096   6.3076477  55.2639951  89.3927416  14.0030520  57.2142636
  88.9491270  13.2166899  56.8963540  90.0544630  14.1909671  56.5486526
  84.1514537  15.5326322  51.7403314  84.7021962  15.4043385  50.9680308
  83.3126013  15.8321211  51.3898207  91.4908654  14.2833320  55.2424037
  91.4727129  15.1042201  54.7504306  92.4128574  14.1587396  55.4674178
  87.9481708  11.7977450  56.0847545  88.4810045  11.0365738  55.8546853
  87.4195789  11.5051102  56.8271700  79.1837254   9.2271046  44.4329789
  80.0212476   9.6368055  44.2163497  79.3615522   8.2870488  44.4029983
  96.0535960   9.6478482  42.0566796  95.2765403   9.3089641  41.6121958
  96.7327441   9.6531105  41.3821761  89.3134421  10.9263442  43.5966357
  88.7855783  10.1916202  43.2839595  88.8121924  11.7038119  43.3506326
  94.2927267   9.1212463  48.7133404  93.6350941   9.8111724  48.8013532
  95.0967666   9.5108895  49.0567390  87.4587021   8.7443653  36.6001330
  86.5514083   8.5132906  36.7992479  87.9558053   7.9481272  36.7875312
  90.3655100  17.4541160  39.5198016  89.6916799  17.7572857  40.1282974
  90.7520922  18.2570240  39.1703473  88.6375255   8.8456247  41.1225320
  87.7286474   8.5615280  41.2197790  88.6670338   9.2655326  40.2628627
  93.8694522  12.4562837  44.8916488  93.4156849  11.6153747  44.9481678
  93.2388489  13.0924235  45.2291268  92.3127461  14.2939334  45.8266306
  92.6050436  14.8544391  45.1078672  92.8226082  14.5867895  46.5819465
  79.2063425   6.5661762  45.1040523  79.0087825   5.9731122  44.3791589
  78.6510089   6.2613972  45.8216461  88.3351342  10.3864991  38.4613399
  87.8970772   9.6700850  38.0019036  89.0761783  10.6141106  37.8998490
  87.2761086  15.0719685  46.9159759  87.2337265  15.2980531  45.9868291
  88.1923785  14.8383059  47.0645560  96.4793837  10.7298715  49.5300989
  96.9130343  10.6374004  50.3784043  97.1925417  10.7056216  48.8921005
  85.3926887  11.9482714  46.7121722  86.1867486  11.4533034  46.5104297
  84.6818580  11.4200577  46.3489428  90.2121732  14.3300809  51.0634090
  90.2658754  14.8991746  51.8311805  89.3436513  14.5002694  50.6988127
  81.7009651   6.0925796  42.7881475  80.7707239   6.0310251  43.0051437
  81.7967123   5.5701748  41.9918116  97.3409386  10.7722416  52.0633874
  97.5345276  11.6768226  52.3093149  97.2410004  10.3129835  52.8972459
  92.4024495  10.9229159  57.6374755  92.2510001  10.6939710  56.7204839
  92.3929174  11.8799760  57.6506100  89.1709831   8.4961071  52.6221021
  90.1001891   8.6472231  52.4489989  88.7500861   8.5845092  51.7669668
  87.9698163  12.5211736  50.3919559  87.8309249  12.1530520  51.2645497
  87.1812759  13.0359375  50.2203517  88.5646315  17.6220832  41.7345096
  88.7398071  17.1508875  42.5490718  87.8779103  18.2486598  41.9626356
  89.5203378  11.8993338  47.7808397  89.1853211  11.8594108  48.6766047
  89.0207324  11.2338054  47.3078807  83.4947622   7.3060968  53.3060978
  83.3567420   6.5741207  53.9072517  84.4052546   7.2169869  53.0245166
  92.4562570   9.2449373  38.0545456  91.8391741   8.5196201  37.9578509
  91.9879058  10.0058733  37.7112531  86.1229923   7.0180928  52.7944658
  86.8329541   6.3774120  52.7531276  86.0799231   7.2693823  53.7170838
  94.1116702  13.9548281  55.7151237  94.0529248  13.2707501  55.0481820
  94.5136220  14.6967271  55.2631863  83.1307400  20.7710195  48.5084956
  83.3703999  21.4028719  49.1863974  82.2876597  20.4198235  48.7950315
  94.1134109  11.9187865  53.9465217  93.2260888  11.5813787  54.0691615
  94.6832660  11.1870896  54.1833982  75.7663256   8.2511957  47.2708268
  76.4534296   7.9373687  46.6829283  75.6111385   9.1553321  46.9975519
  87.6435262  16.5789317  50.9126460  87.5705434  17.3844289  51.4245764
  87.2012655  16.7781283  50.0874481  87.4325042  15.8161087  44.4229281
  86.6492564  16.3582768  44.5167506  88.1317787  16.3335067  44.8223522
  90.1033946  16.4776151  53.0684618  90.8161918  17.1123616  52.9960520
  89.6123974  16.5740017  52.2524620  91.8251473  10.3827404  44.6401910
  90.8907751  10.5028867  44.4706614  92.0028141   9.4799871  44.3761920
  85.1545859  14.2270595  53.8890189  85.8555319  14.8607078  54.0419583
  84.6840974  14.5685326  53.1285828  93.2800255  12.5688545  42.1738096
  93.5560099  12.4545139  43.0831970  92.4104754  12.1706030  42.1350269
  89.9154319  16.8174896  45.8170910  90.0976714  15.9996551  46.2798662
  90.7387305  17.0342588  45.3795800  90.2496485  15.7443081  43.0785958
  90.7784251  15.2335535  42.4656120  90.5124704  15.4285611  43.9431491
  89.0034718   7.5235013  58.2008777  88.3275355   7.4229143  58.8711152
  89.8262352   7.3674227  58.6644774  80.7513577  13.7606950  50.8221292
  81.3367014  13.0150638  50.9549196  80.5538416  14.0710907  51.7057956
  83.6052233  16.7958197  45.8383734  82.9362608  17.2804325  45.3547774
  83.4665102  17.0427418  46.7527113  75.3431232   6.3312550  49.5425735
  75.3815332   5.7976141  50.3362853  74.8371525   5.8047756  48.9236712
  87.7457501  18.8301941  52.4366393  88.2975809  18.9933562  53.2015478
  88.0863695  19.4206379  51.7646417  92.5968376  13.6563198  58.2915047
  93.1408280  14.2693157  57.7970002  92.0155220  14.2142777  58.8082060
  78.9739810   5.0576652  42.6179666  79.2693251   4.1487331  42.5646720
  78.0727845   5.0364392  42.2960669  90.8825888  16.7783916  49.4230075
  90.7577028  15.9773656  48.9141020  91.5404980  17.2730110  48.9344045
  92.9460797  14.5792936  51.0509625  91.9991132  14.4598288  50.9787952
  93.2943570  13.6915435  51.1335886  89.9507230  14.3745653  47.2513977
  89.8032193  13.4462360  47.4321547  90.7760724  14.3965743  46.7671052
  93.5541352  15.1974211  48.3378850  94.4787900  14.9917073  48.2003301
  93.3856655  14.9490613  49.2468191  84.6867966   5.1869204  48.8216839
  84.5412547   5.5009507  49.7141120  84.2093170   5.8054104  48.2687738
  93.3436668  15.7159879  43.6940941  93.5173546  15.1506301  42.9414794
  93.8365559  16.5160774  43.5120431  79.1613628   7.7274548  51.7604500
  78.6167096   8.5034356  51.8924774  80.0392978   8.0745352  51.6023622
  94.3311841  15.0326643  40.7937840  95.0262745  15.6533336  41.0125154
  94.6734991  14.1821995  41.0690217  79.9479650   6.8544444  54.6534657
  79.2061386   7.0027080  55.2399287  79.6272394   7.1152710  53.7901406
  96.2303264  12.4826349  42.3225170  96.7554588  12.8213622  41.5974490
  96.1425616  11.5473364  42.1388305  87.8923313  16.3960422  54.4515047
  88.2010439  16.1509569  55.3237747  88.6898795  16.6007061  53.9633917
  87.9143925  18.5498332  46.6820424  87.4748915  18.0574711  47.3753280
  88.6652042  18.0071300  46.4412499  80.3936264  14.7409873  46.6845052
  81.2194283  14.4413645  46.3043695  80.0430316  13.9717495  47.1334840
  85.3617797  14.0936341  48.7542725  84.7397806  13.4307046  48.4544953
  86.0322664  14.1197473  48.0716373  78.5944869  12.6596199  47.6433985
  77.7576777  12.2318374  47.4617986  78.5668514  12.8528643  48.5804776
  95.9197170  13.1159252  57.6276368  95.1292714  13.0983391  57.0880868
  95.6830524  13.6547546  58.3825405  96.0395045   9.9651719  54.9409097
  96.0893050   9.8001726  55.8824620  95.9308968   9.0978978  54.5506978
  84.9231304  12.6440265  42.2301186  85.0719424  13.3275729  41.5767859
  85.7297747  12.6245355  42.7450641  97.5413242  12.3848660  55.1851118
  97.2498050  12.7478641  56.0214579  96.9285373  11.6715669  55.0064450
  82.6783937   8.6705442  43.2362255  82.4329979   7.7667772  43.4342465
  82.8479851   8.6722593  42.2941733  88.4226709  15.1388395  39.7012933
  87.8500676  15.7578582  39.2483405  88.9959503  15.6887757  40.2352855
  91.6423969  15.4225545  40.8321515  92.5754642  15.3571107  41.0354391
  91.5547182  16.2581812  40.3736048  94.2711986  14.7391415  37.7925463
  94.1925617  14.4051279  38.6861221  95.0921652  15.2313183  37.7916935
  88.6912200  10.5266954  58.5029643  89.6115210  10.7045553  58.6969689
  88.6561783   9.5822999  58.3509342  77.9094365   5.7205548  47.4282917
  77.5897150   4.8670856  47.1357291  77.3627793   5.9354126  48.1840885
  81.6874273   8.4367989  51.1452424  81.9060283   9.3685096  51.1640458
  82.1000047   8.0775963  51.9307228  77.7782625   9.3408459  49.3976039
  77.0846097   8.9262412  48.8845993  78.5255616   9.3828996  48.8009458
  86.4233408   7.4398333  59.3520234  85.9400490   8.2398693  59.5584123
  86.5094347   7.4506278  58.3987678  79.6919368   9.2726713  47.2742054
  79.6690056   9.3714400  46.3223937  80.0020004  10.1191864  47.5959220
  82.3506746  11.3302868  51.3888668  83.3049999  11.2986810  51.3218600
  82.1519269  10.8693492  52.2038894  82.9406128   9.9003984  53.9559466
  83.7599017  10.3948063  53.9794303  83.2142935   8.9835952  53.9277033
  80.7056974  16.8722487  48.4058866  80.5711442  16.1122888  47.8396864
  80.2889037  17.5963387  47.9387655  91.8415937  12.0559411  37.4135441
  92.5451788  12.2609413  38.0293097  91.1178586  12.6236173  37.6784525
  83.8626100  17.7691804  48.6177309  83.7458484  18.7137237  48.5155999
  83.0418547  17.4665366  49.0063108  93.7502635  12.4941940  39.4633901
  94.5848239  12.0623139  39.2811376  93.5886978  12.3223954  40.3910796
  93.4048527   8.9974053  40.8290241  93.3497331   8.8318325  39.8878685
  92.7794582   9.7050086  40.9852430  78.1941042   4.2342118  54.6551663
  78.8399906   3.7241072  55.1438888  77.9858193   4.9710799  55.2295088
  90.7194434  11.3022965  60.1543803  91.5885594  11.4763618  59.7930438
  90.2401186  12.1217382  60.0319533  84.8880614  18.4220066  51.8333237
  85.7907861  18.4543677  52.1499732  84.6617984  17.4920517  51.8479573
  86.6434216  17.1751053  48.4943316  85.6929847  17.1752914  48.3807688
  86.9466703  16.4283787  47.9779350 102.3786910  23.0111591  49.5589078
 103.0165320  22.8918339  48.8552418 102.2607753  23.9592435  49.6177030
  99.1876616  22.9639019  49.4950603  98.8495128  22.8480084  48.6071138
 100.0566384  22.5630184  49.4751609  95.0463432  24.8174496  45.4847494
  94.4828297  24.7264433  44.7163782  94.9315827  23.9974400  45.9649986
  99.6696399  24.1173871  55.4536808  99.6585040  23.7226669  54.5817312
  99.8317039  23.3839944  56.0470580  92.5927864  26.3125687  48.3231714
  93.3849156  25.9716512  47.9078014  92.8324514  26.4220662  49.2433868
 100.6262991  28.4845463  40.7961959  99.9750970  29.0699544  40.4095972
 101.4207353  29.0151658  40.8556996  94.5518618  25.5734601  41.1949093
  95.3249494  25.0263588  41.0561969  94.9044017  26.4378850  41.4063554
  96.3903660  26.9010983  54.4015992  96.0993526  27.8056614  54.2862659
  97.0260645  26.9427510  55.1160062  97.3159867  24.2787831  50.9917352
  97.9123439  24.0543854  50.2774315  97.3734839  23.5372577  51.5942800
  96.8884896  21.7327267  38.8267543  97.1410416  21.2108788  38.0651006
  95.9509455  21.5693412  38.9294227 101.9328178  20.7363045  46.6342286
 102.7191268  20.3182468  46.2832703 102.1966883  21.6409137  46.8023935
 102.1038256  26.1735895  41.3330943 101.4684089  26.2470522  42.0451848
 101.7735662  26.7629494  40.6550022 107.3336606  20.6738278  47.5375265
 108.0661777  20.1037495  47.7713094 106.5775961  20.2859879  47.9781770
  96.6081184  23.6355373  41.0291918  96.4917442  22.9600276  41.6973002
  96.7183444  23.1487747  40.2124071  98.9512725  23.0965520  44.7338607
  98.5870932  22.5696141  45.4451529  99.8079841  22.7063989  44.5605093
 104.8562026  14.3859852  51.9969873 104.5245351  15.2555263  51.7731088
 104.2607639  14.0696136  52.6763904  98.5918212  18.1255419  39.7299956
  98.7592615  18.9935656  40.0970427  98.4015381  18.2882701  38.8061245
 101.3493545  26.5872398  51.3965786 101.0494269  27.4897437  51.2881593
 101.0044605  26.3204582  52.2486939  94.8006027  23.0386195  47.4302490
  93.8756523  22.9062409  47.6380182  95.0490440  23.8180414  47.9272433
 104.7490689  19.1054939  49.0763223 103.8407567  19.0370347  48.7821984
 104.6978285  19.5826883  49.9045049  98.5707433  20.5813077  40.7146622
  98.4507058  21.0270128  41.5532103  97.8760021  20.9298395  40.1560161
  92.1614838  22.6819469  48.2646280  92.2907219  22.9353948  49.1785691
  91.4812289  23.2747177  47.9450935  96.3314325  33.3516719  44.3636754
  96.2538355  34.3024544  44.4425234  95.7275969  33.0062591  45.0211680
  98.8231555  20.5244584  57.0198121  98.0464889  21.0838504  57.0100985
  99.4622118  21.0101367  57.5412991 106.6152336  17.3071377  50.8541097
 105.9726716  17.6003910  50.2080892 106.1107264  17.1924297  51.6594294
 104.2692499  21.0534550  41.5426957 105.1810355  21.2861937  41.3674654
 103.7602146  21.6371594  40.9802035  97.0777927  23.3330037  56.5816088
  97.8192612  23.8715081  56.3050911  96.3714913  23.9596326  56.7387639
 102.5533267  25.4759178  55.1788249 102.9616623  25.0341588  54.4342881
 101.8310528  24.9011805  55.4322442  98.9064337  20.4131785  52.5521806
  99.7525532  20.8371198  52.6956455  98.8462975  19.7565409  53.2460369
 102.8762082  26.0360369  48.9340538 102.2470944  26.2006083  48.2316606
 102.4887744  26.4501978  49.7051502 106.7551313  26.9714806  46.2884902
 106.0702352  27.3513708  45.7381935 106.8395163  27.5810133  47.0216850
 102.0563782  18.0736153  54.2102980 101.8124714  18.8278214  53.6737255
 102.3323713  18.4521501  55.0450227 104.0102245  24.6174765  52.8880245
 104.2219140  25.2606525  52.2114626 103.9631993  23.7837082  52.4202175
 101.6128474  17.2292586  49.7916817 100.7512953  17.5273840  50.0833555
 101.6390909  17.4462985  48.8597850  98.4290043  25.7734777  46.1990623
  98.8928389  26.0522480  45.4095246  98.1646842  24.8718221  46.0163714
  95.3214125  25.3206258  49.1370386  95.8915482  25.7493527  48.4987871
  95.9122236  25.0388843  49.8354572  97.3658930  21.8957929  43.0080188
  98.0682973  22.3478973  43.4754115  97.0339558  21.2541748  43.6360081
  95.8139291  20.4869686  57.3831398  95.1837952  21.1685966  57.6166794
  95.7075379  20.3752767  56.4384536  91.1084263  20.1541482  48.3097322
  90.3183317  20.4099010  47.8337432  91.5995511  20.9689820  48.4149362
 105.1248073  27.4946721  51.0602603 105.9465517  27.0926908  50.7785284
 105.1210476  27.3914955  52.0118718  93.0599009  20.5186061  45.2680799
  92.2630172  20.6304755  45.7864294  92.8324601  20.8572713  44.4021689
  98.8904676  27.0430764  53.2163313  98.9549109  27.5051171  54.0521485
  98.1815600  26.4128129  53.3445623  89.3921966  20.4071972  50.7412313
  89.6430005  21.2918982  51.0069889  89.9281515  20.2276574  49.9687404
 113.2154066  23.8385469  47.4087574 112.4617774  23.2692867  47.2531579
 113.3501607  23.8048134  48.3558209  98.6052694  28.7098872  43.0842293
  98.4698369  29.5550407  43.5127141  99.1462507  28.9118149  42.3208227
  95.0920034  14.7890451  59.7456649  94.6986979  14.2356650  60.4204293
  95.9086174  15.1001030  60.1363166  92.0582092  26.2274310  43.6570219
  92.5706612  27.0217560  43.8075783  92.7104804  25.5300600  43.5903820
  93.8676976  29.3440066  45.7392972  94.0443605  30.2658031  45.5513956
  94.6633810  29.0298485  46.1687352  98.0087995  16.2048331  57.3376905
  98.7497708  16.8055484  57.2581368  98.2405918  15.4625968  56.7794948
  93.1529333  21.3904698  55.6155135  93.0382848  20.4889955  55.9162234
  92.2973851  21.6368395  55.2639951 100.2321171  29.3322438  57.2142636
  99.7885025  28.5458817  56.8963540 100.8938384  29.5201589  56.5486526
  94.9908292  30.8618240  51.7403314  95.5415717  30.7335303  50.9680308
  94.1519768  31.1613129  51.3898207 102.3302409  29.6125238  55.2424037
 102.3120884  30.4334119  54.7504306 103.2522329  29.4879313  55.4674178
  98.7875463  27.1269368  56.0847545  99.3203800  26.3657656  55.8546853
  98.2589544  26.8343019  56.8271700 101.9545158  12.2329434  51.6141187
 101.6109427  13.1231075  51.5380298 102.3224120  12.0431091  50.7510772
  90.0231008  24.5562964  44.4329789  90.8606230  24.9659972  44.2163497
  90.2009276  23.6162406  44.4029983 101.9195440  22.2238045  40.1213622
 101.4042064  22.9942649  40.3602009 101.6472749  21.5503181  40.7446683
  99.5042551  17.0687745  45.1798860  98.6484148  16.6794596  45.0004499
  99.9169503  17.1479706  44.3198646 101.0341698  14.6034089  49.5790420
 100.5306494  14.5664224  48.7658225 101.3272305  15.5126831  49.6387077
  97.2784584  14.6872818  48.5856602  98.1437581  14.4915627  48.2262491
  97.3462093  14.4583170  49.5125959 106.8929715  24.9770399  42.0566796
 106.1159157  24.6381559  41.6121958 107.5721196  24.9823022  41.3821761
 101.7081744  20.0965137  41.9473403 101.4031879  20.4111286  42.7983546
 102.6612186  20.1746557  41.9900736 100.1528175  26.2555360  43.5966357
  99.6249537  25.5208120  43.2839595  99.6515678  27.0330036  43.3506326
 105.1321021  24.4504381  48.7133404 104.4744696  25.1403642  48.8013532
 105.9361421  24.8400812  49.0567390  94.8846903  16.9175026  45.9572969
  95.4590655  16.6950208  45.2246162  95.4717885  16.9863721  46.7101570
 103.9426480  22.8048753  46.7637345 104.4558362  23.4378745  47.2659055
 104.5927704  22.2049949  46.3980705  95.2116490  18.9479487  39.9768854
  94.3753802  19.2854174  40.2978129  95.0721260  18.8128467  39.0395991
  97.1869571  13.7916275  44.6848038  96.5333983  13.4765292  44.0604653
  97.1450045  13.1692016  45.4107861  98.2980776  24.0735570  36.6001330
  97.3907837  23.8424824  36.7992479  98.7951808  23.2773190  36.7875312
 101.2048854  32.7833077  39.5198016 100.5310553  33.0864774  40.1282974
 101.5914676  33.5862158  39.1703473 100.4207311  20.2798209  49.0095686
  99.5029872  20.5013156  48.8517374 100.8367455  20.3544519  48.1507393
 101.2042359  21.6789624  44.1398366 101.9514178  22.1911022  43.8305488
 101.4733948  21.3573677  45.0002760  99.4769009  24.1748165  41.1225320
  98.5680228  23.8907198  41.2197790  99.5064093  24.5947244  40.2628627
 104.7088276  27.7854755  44.8916488 104.2550604  26.9445665  44.9481678
 104.0782243  28.4216153  45.2291268 103.6521196  18.7146741  46.1217155
 102.9143953  18.2024127  46.4527398 103.9047970  18.2747122  45.3100432
 103.1521216  29.6231251  45.8266306 103.4444190  30.1836308  45.1078672
 103.6619836  29.9159812  46.5819465  90.0457179  21.8953679  45.1040523
  89.8481579  21.3023040  44.3791589  89.4903843  21.5905889  45.8216461
  98.0253903  21.7876786  47.2235116  98.0802513  20.8350622  47.1477592
  97.2145105  21.9436225  47.7076414  99.1745097  25.7156909  38.4613399
  98.7364527  24.9992768  38.0019036  99.9155538  25.9433024  37.8998490
  95.9646263  20.4053845  44.9825495  95.1514129  20.7048016  45.3890687
  96.4605257  20.0109534  45.6999977  98.1154841  30.4011602  46.9159759
  98.0731020  30.6272449  45.9868291  99.0317540  30.1674977  47.0645560
 101.5620475  20.8695670  53.8140388 101.9169862  21.0967143  54.6734854
 102.2092606  21.2014047  53.1917644 107.2918212  23.9914106  44.5189717
 107.1536110  24.1815702  43.5910907 106.9354430  24.7533489  44.9757769
  95.4560338  17.9772201  50.5986730  96.0959717  17.8360960  49.9009693
  94.6237868  17.6906714  50.2225331 107.3187591  26.0590633  49.5300989
 107.7524098  25.9665922  50.3784043 108.0319172  26.0348133  48.8921005
  96.2320642  27.2774631  46.7121722  97.0261240  26.7824952  46.5104297
  95.5212334  26.7492495  46.3489428 101.0515486  29.6592727  51.0634090
 101.1052508  30.2283663  51.8311805 100.1830268  29.8294612  50.6988127
  92.5403405  21.4217713  42.7881475  91.6100993  21.3602169  43.0051437
  92.6360877  20.8993666  41.9918116  92.4588954  17.9472526  45.3759716
  92.7195771  18.8617859  45.2668877  93.2806127  17.4796969  45.5256329
  93.9313880  19.3610283  52.5458541  94.6036933  19.1527645  51.8971190
  93.1043666  19.1632369  52.1063773 108.1803141  26.1014334  52.0633874
 108.3739031  27.0060144  52.3093149 108.0803759  25.6421753  52.8972459
  99.8339452  15.9872224  54.5624202  99.1867367  16.6862174  54.4688678
 100.6040467  16.4208368  54.9300450 103.2418249  26.2521076  57.6374755
 103.0903756  26.0231628  56.7204839 103.2322929  27.2091678  57.6506100
 100.0103586  23.8252989  52.6221021 100.9395646  23.9764149  52.4489989
  99.5894616  23.9137010  51.7669668  98.8091918  27.8503653  50.3919559
  98.6703003  27.4822438  51.2645497  98.0206514  28.3651293  50.2203517
  99.4040070  32.9512750  41.7345096  99.5791825  32.4800793  42.5490718
  98.7172858  33.5778516  41.9626356 100.3597133  27.2285256  47.7808397
 100.0246965  27.1886026  48.6766047  99.8601079  26.5629972  47.3078807
  94.3341377  22.6352886  53.3060978  94.1961175  21.9033125  53.9072517
  95.2446300  22.5461786  53.0245166 103.2956324  24.5741290  38.0545456
 102.6785495  23.8488119  37.9578509 102.8272813  25.3350651  37.7112531
  96.9623677  22.3472845  52.7944658  97.6723296  21.7066038  52.7531276
  96.9192986  22.5985740  53.7170838 104.9510456  29.2840199  55.7151237
 104.8923002  28.5999419  55.0481820 105.3529975  30.0259189  55.2631863
  95.6752611  19.3338063  54.6140297  95.1389968  18.8828802  55.2661893
  95.0869320  19.4683972  53.8710761  95.0854870  18.7926715  37.1766761
  94.2084337  18.6715516  36.8129007  95.5612623  18.0012793  36.9245649
 104.9527863  27.2479783  53.9465217 104.0654642  26.9105705  54.0691615
 105.5226414  26.5162814  54.1833982  86.6057011  23.5803874  47.2708268
  87.2928050  23.2665605  46.6829283  86.4505139  24.4845239  46.9975519
  91.4091733  18.4694071  51.6993292  91.3249921  17.8619741  50.9643702
  90.5874439  18.9603089  51.7002788  98.4829017  31.9081235  50.9126460
  98.4099188  32.7136207  51.4245764  98.0406410  32.1073201  50.0874481
  98.2718796  31.1453005  44.4229281  97.4886318  31.6874685  44.5167506
  98.9711542  31.6626985  44.8223522 101.5815447  16.9547635  47.0663487
 102.0784146  16.2017597  46.7464557 100.8102428  16.9911951  46.5006696
 109.4345204  22.6588000  48.7081778 109.4235080  23.5412716  48.3375711
 108.5662583  22.3059551  48.5136315 100.9427700  31.8068069  53.0684618
 101.6555673  32.4415534  52.9960520 100.4517729  31.9031935  52.2524620
 102.6645227  25.7119322  44.6401910 101.7301506  25.8320784  44.4706614
 102.8421896  24.8091789  44.3761920  98.1650415  19.0965018  46.7935171
  97.7948203  18.5436058  47.4816077  98.6609508  18.4923151  46.2410171
 106.0517779  21.5536641  45.1751944 106.5178231  22.3864633  45.1012247
 106.5025279  21.0881623  45.8797203  95.9939614  29.5562513  53.8890189
  96.6949073  30.1898996  54.0419583  95.5234729  29.8977244  53.1285828
 104.1194010  27.8980462  42.1738096 104.3953854  27.7837057  43.0831970
 103.2498508  27.4997947  42.1350269 104.0234441  13.9217228  49.2142846
 103.1097521  14.1521455  49.3825052 104.4527543  14.0055672  50.0656878
 103.7940900  22.1107120  51.7142740 103.1412350  22.3583027  51.0595192
 104.1721280  21.2971258  51.3805217 100.7548074  32.1466813  45.8170910
 100.9370468  31.3288469  46.2798662 101.5781060  32.3634505  45.3795800
 101.0890239  31.0734998  43.0785958 101.6178006  30.5627453  42.4656120
 101.3518459  30.7577529  43.9431491  99.8428473  22.8526931  58.2008777
  99.1669110  22.7521060  58.8711152 100.6656107  22.6966145  58.6644774
  91.5907332  29.0898868  50.8221292  92.1760769  28.3442556  50.9549196
  91.3932170  29.4002824  51.7057956  86.1824987  21.6604468  49.5425735
  86.2209086  21.1268059  50.3362853  85.6765279  21.1339673  48.9236712
  98.5851256  34.1593859  52.4366393  99.1369564  34.3225480  53.2015478
  98.9257449  34.7498296  51.7646417  93.5615749  16.5069008  53.0388277
  93.6257075  17.3683839  52.6265675  93.4982869  15.8943010  52.3060636
  93.0368021  18.5792141  56.6861312  93.6640060  18.1969218  57.2998836
  92.1795940  18.3606343  57.0517004 103.4362130  28.9855116  58.2915047
 103.9802034  29.5985074  57.7970002 102.8548975  29.5434694  58.8082060
  89.8133564  20.3868570  42.6179666  90.1087005  19.4779248  42.5646720
  88.9121600  20.3656309  42.2960669 101.7219643  32.1075834  49.4230075
 101.5970782  31.3065574  48.9141020 102.3798734  32.6022027  48.9344045
  93.3427811  18.4624567  48.6007215  92.6214397  19.0760534  48.4614688
  94.1321067  18.9982331  48.5223861 103.7854551  29.9084854  51.0509625
 102.8384887  29.7890205  50.9787952 104.1337324  29.0207352  51.1335886
  96.1454125  15.7978993  54.8747867  96.6688527  16.0441290  55.6374176
  95.9266458  16.6299028  54.4551004  91.5421406  18.0682668  42.7418992
  91.2134112  17.1880047  42.5594097  91.8960777  18.0130336  43.6295381
 100.7900985  29.7037570  47.2513977 100.6425947  28.7754278  47.4321547
 101.6154478  29.7257661  46.7671052  94.6563229  18.3555637  43.1094469
  94.9959301  18.8841559  42.3873078  95.1035349  18.6936044  43.8853036
 104.3935107  30.5266129  48.3378850 105.3181654  30.3208990  48.2003301
 104.2250410  30.2782530  49.2468191  97.3506670  16.7392688  52.5597537
  97.0103490  15.9400501  52.9618217  96.6445676  17.0394399  51.9874370
  98.0023142  13.8242001  51.0124860  98.8249211  13.3502479  50.8903751
  98.2461205  14.6032484  51.5123547  96.6431376  16.8530259  41.3087762
  97.3639739  17.2311512  40.8051479  96.0196680  17.5719136  41.4122740
 100.7862499  17.5575408  42.2446094 101.0026113  18.4400046  41.9434923
 100.3056566  17.1661621  41.5151736  95.5261720  20.5161121  48.8216839
  95.3806301  20.8301424  49.7141120  95.0486924  21.1346022  48.2687738
  97.3858103  17.5063669  48.8697728  97.3719672  16.6104763  48.5330026
  98.1030531  17.5134333  49.5036015  99.2384234  17.9401009  50.9150856
  98.9802012  18.8618080  50.9135186  98.7069274  17.5431444  51.6051320
 104.1830423  31.0451797  43.6940941 104.3567300  30.4798219  42.9414794
 104.6759314  31.8452691  43.5120431  90.0007383  23.0566466  51.7604500
  89.4560851  23.8326274  51.8924774  90.8786732  23.4037270  51.6023622
  96.7894999  16.3878050  44.1385299  96.9110910  15.4594696  44.3376186
  96.4997042  16.4016735  43.2263614  99.6586190  14.0732960  47.2752018
  99.6807886  14.1372293  46.3203998 100.0754249  13.2337469  47.4692525
 110.0369814  23.8088220  45.3131241 110.4800960  23.0595545  44.9150364
 109.1596324  23.7998356  44.9304973 105.1705595  30.3618561  40.7937840
 105.8656500  30.9825254  41.0125154 105.5128745  29.5113912  41.0690217
  90.7873404  22.1836362  54.6534657  90.0455140  22.3318997  55.2399287
  90.4666149  22.4444628  53.7901406 107.0697018  27.8118267  42.3225170
 107.5948342  28.1505539  41.5974490 106.9819371  26.8765282  42.1388305
  98.7317067  31.7252340  54.4515047  99.0404193  31.4801487  55.3237747
  99.5292549  31.9298979  53.9633917  98.7537679  33.8790250  46.6820424
  98.3142669  33.3866628  47.3753280  99.5045796  33.3363217  46.4412499
  96.2011551  29.4228259  48.7542725  95.5791561  28.7598964  48.4544953
  96.8716418  29.4489391  48.0716373  89.4338623  27.9888117  47.6433985
  88.5970531  27.5610291  47.4617986  89.4062269  28.1820560  48.5804776
  96.2736079  17.9010047  58.3475231  96.3224234  18.7772170  57.9653001
  96.8158593  17.3587440  57.7746874 106.7590924  28.4451170  57.6276368
 105.9686468  28.4275309  57.0880868 106.5224279  28.9839464  58.3825405
 106.8788799  25.2943637  54.9409097 106.9286804  25.1293644  55.8824620
 106.7702723  24.4270896  54.5506978  95.7625058  27.9732182  42.2301186
  95.9113179  28.6567647  41.5767859  96.5691502  27.9537272  42.7450641
 104.1692562  21.2774565  56.2568404 105.0702425  21.1381029  55.9652401
 104.2440536  21.4429019  57.1966581  98.5035367  18.6541419  55.1021590
  97.6338677  18.9474985  54.8304178  98.7394848  19.2381864  55.8228854
 108.3806996  27.7140578  55.1851118 108.0891805  28.0770559  56.0214579
 107.7679128  27.0007586  55.0064450 109.5802679  25.2793458  47.7053689
 110.4149570  25.7183262  47.8691249 109.7161807  24.8032111  46.8861934
 106.6294185  22.8373193  53.6531176 107.1048306  23.0300839  52.8450028
 105.7059750  22.8932378  53.4074560  93.5177691  23.9997360  43.2362255
  93.2723733  23.0959690  43.4342465  93.6873606  24.0014510  42.2941733
 101.2074401  14.8721036  52.6187010 101.7256345  15.6082063  52.2933499
 100.8529534  15.1785030  53.4533769  92.7873339  19.7325717  40.7348416
  92.0942584  19.8070072  40.0788452  92.5425091  18.9686061  41.2569933
  99.2620464  30.4680313  39.7012933  98.6894431  31.0870500  39.2483405
  99.8353257  31.0179674  40.2352855 105.3295854  19.7138953  51.8859482
 106.2813276  19.8137050  51.9071706 105.1599304  18.9217221  52.3957566
 103.3510233  16.7994536  52.0718883 102.7560165  17.0799549  51.3765372
 103.0659930  17.2888437  52.8435624 102.4817723  30.7517463  40.8321515
 103.4148397  30.6863024  41.0354391 102.3940936  31.5873730  40.3736048
 105.1105740  30.0683333  37.7925463 105.0319372  29.7343197  38.6861221
 105.9315407  30.5605101  37.7916935 107.8083931  22.9345072  51.0001782
 107.7760251  21.9961073  51.1861465 108.4184555  23.0129109  50.2667607
  99.6467262  21.8041125  37.0428986 100.5926367  21.6747334  37.1117404
  99.2681507  21.0655787  37.5198414 107.9578420  19.7256116  51.0460065
 107.4417468  18.9414573  50.8589994 108.8418368  19.3974832  51.2106584
 105.6189147  13.4697131  47.0055877 105.4213968  13.1612220  47.8899209
 106.2288852  14.1958770  47.1353807 113.6260481  23.9961079  50.1407818
 114.3563870  23.7346367  50.7015522 113.0167427  23.2589801  50.1809886
 111.7075778  22.1368942  50.7382270 110.9808942  22.0024907  50.1298761
 111.2923065  22.4445770  51.5438988  99.5305955  25.8558872  58.5029643
 100.4508964  26.0337471  58.6969689  99.4955538  24.9114917  58.3509342
  97.8310179  19.7291102  36.9783871  96.9241635  19.4324215  37.0546585
  98.1086160  19.4320920  36.1118157  88.7488120  21.0497465  47.4282917
  88.4290904  20.1962773  47.1357291  88.2021548  21.2646043  48.1840885
  92.5268027  23.7659906  51.1452424  92.7454037  24.6977014  51.1640458
  92.9393801  23.4067881  51.9307228  99.4472245  14.2727992  43.1328112
  98.6372973  13.9275076  43.5083358 100.1356662  13.9635535  43.7215724
 101.3762793  13.3506038  44.7552409 101.9293832  13.7701492  45.4142432
 101.6132880  12.4241786  44.7975365  97.3995893  19.3393112  60.5355173
  97.2992619  20.2887469  60.4667264  97.1817435  19.0111351  59.6631243
  96.6008964  16.5878037  37.1195850  97.4628128  16.9132935  37.3791667
  96.7859308  15.8009533  36.6068916  88.6176380  24.6700377  49.3976039
  87.9239851  24.2554329  48.8845993  89.3649371  24.7120913  48.8009458
 104.7541600  15.4606563  44.2631073 104.1740269  16.1191368  43.8809126
 104.4877533  14.6383908  43.8518491 103.2045167  14.8611621  46.4652393
 103.7044945  14.9728156  45.6566712 103.8480775  14.5572674  47.1053202
  97.2627163  22.7690251  59.3520234  96.7794244  23.5690611  59.5584123
  97.3488102  22.7798196  58.3987678  90.5313122  24.6018630  47.2742054
  90.5083810  24.7006318  46.3223937  90.8413759  25.4483781  47.5959220
  93.1900500  26.6594786  51.3888668  94.1443754  26.6278728  51.3218600
  92.9913024  26.1985409  52.2038894  93.7799882  25.2295902  53.9559466
  94.5992771  25.7239980  53.9794303  94.0536690  24.3127870  53.9277033
 103.5366478  17.6206654  43.3187421 102.6492333  17.9056304  43.1007616
 103.9520468  17.4600417  42.4714698 106.8881015  17.6453175  47.0341761
 107.6641405  18.1349627  47.3066377 106.1629149  18.0711229  47.4913630
 109.3253573  18.3580794  48.0915701 109.9198064  18.1176530  47.3809009
 109.3980157  17.6387925  48.7189238 102.6809692  27.3851329  37.4135441
 103.3845542  27.5901331  38.0293097 101.9572341  27.9528090  37.6784525
 103.5107502  23.1361190  43.5337712 103.4542704  23.5929741  42.6945344
 104.0635845  22.3751874  43.3560554 107.3212308  18.9250922  44.3587831
 107.0649242  18.5247557  45.1896039 106.6965176  19.6394716  44.2337970
 111.6324646  21.6646995  46.8659122 111.0724204  21.7340184  47.6390684
 111.0268149  21.4887980  46.1458619 104.5896389  27.8233858  39.4633901
 105.4241993  27.3915056  39.2811376 104.4280732  27.6515871  40.3910796
 104.2442282  24.3265971  40.8290241 104.1891085  24.1610242  39.8878685
 103.6188337  25.0342004  40.9852430  89.0334796  19.5634035  54.6551663
  89.6793660  19.0532989  55.1438888  88.8251948  20.3002717  55.2295088
 101.5588189  26.6314883  60.1543803 102.4279348  26.8055535  59.7930438
 101.0794940  27.4509300  60.0319533  97.5538407  13.8274080  40.4075559
  97.5417077  14.7715920  40.5643830  98.4461829  13.6444225  40.1135020
  97.4827971  32.5042970  48.4943316  96.5323602  32.5044832  48.3807688
  97.7860457  31.7575705  47.9779350  93.3732287  16.7101652  58.7526677
  94.2363749  16.3538457  58.9630002  92.7997698  16.3715547  59.4402081
 113.2180664  38.3403509  49.5589078 113.8559074  38.2210256  48.8552418
 113.1001507  39.2884353  49.6177030 110.0270371  38.2930937  49.4950603
 109.6888882  38.1772002  48.6071138 110.8960139  37.8922102  49.4751609
 105.8857186  40.1466413  45.4847494 105.3222052  40.0556350  44.7163782
 105.7709581  39.3266318  45.9649986 110.5090154  39.4465789  55.4536808
 110.4978794  39.0518587  54.5817312 110.6710793  38.7131861  56.0470580
 103.4321618  41.6417605  48.3231714 104.2242910  41.3008430  47.9078014
 103.6718268  41.7512580  49.2433868 111.4656745  43.8137381  40.7961959
 110.8144725  44.3991461  40.4095972 112.2601108  44.3443576  40.8556996
 105.3912372  40.9026518  41.1949093 106.1643248  40.3555505  41.0561969
 105.7437771  41.7670768  41.4063554 107.2297415  42.2302900  54.4015992
 106.9387281  43.1348531  54.2862659 107.8654399  42.2719428  55.1160062
 108.1553622  39.6079749  50.9917352 108.7517194  39.3835771  50.2774315
 108.2128593  38.8664494  51.5942800 107.7278650  37.0619184  38.8267543
 107.9804171  36.5400706  38.0651006 106.7903209  36.8985330  38.9294227
 112.7721933  36.0654963  46.6342286 113.5585022  35.6474386  46.2832703
 113.0360637  36.9701055  46.8023935 112.9432010  41.5027813  41.3330943
 112.3077843  41.5762440  42.0451848 112.6129417  42.0921412  40.6550022
 118.1730360  36.0030196  47.5375265 118.9055532  35.4329413  47.7713094
 117.4169716  35.6151796  47.9781770 107.4474939  38.9647290  41.0291918
 107.3311197  38.2892194  41.6973002 107.5577199  38.4779664  40.2124071
 109.7906480  38.4257437  44.7338607 109.4264687  37.8988058  45.4451529
 110.6473596  38.0355906  44.5605093 115.6955780  29.7151770  51.9969873
 115.3639105  30.5847181  51.7731088 115.1001394  29.3988054  52.6763904
 109.4311967  33.4547337  39.7299956 109.5986369  34.3227573  40.0970427
 109.2409136  33.6174619  38.8061245 112.1887300  41.9164316  51.3965786
 111.8888023  42.8189355  51.2881593 111.8438359  41.6496499  52.2486939
 105.6399781  38.3678113  47.4302490 104.7150278  38.2354327  47.6380182
 105.8884195  39.1472332  47.9272433 115.5884444  34.4346856  49.0763223
 114.6801321  34.3662265  48.7821984 115.5372039  34.9118801  49.9045049
 109.4101188  35.9104995  40.7146622 109.2900813  36.3562045  41.5532103
 108.7153776  36.2590312  40.1560161 103.0008592  38.0111386  48.2646280
 103.1300974  38.2645865  49.1785691 102.3206044  38.6039094  47.9450935
 107.1708080  48.6808636  44.3636754 107.0932109  49.6316461  44.4425234
 106.5669723  48.3354509  45.0211680 109.6625309  35.8536502  57.0198121
 108.8858644  36.4130422  57.0100985 110.3015873  36.3393285  57.5412991
 117.4546090  32.6363295  50.8541097 116.8120470  32.9295828  50.2080892
 116.9501019  32.5216215  51.6594294 115.1086254  36.3826468  41.5426957
 116.0204110  36.6153855  41.3674654 114.5995901  36.9663512  40.9802035
 107.9171682  38.6621955  56.5816088 108.6586366  39.2006999  56.3050911
 107.2108667  39.2888244  56.7387639 113.3927021  40.8051096  55.1788249
 113.8010377  40.3633506  54.4342881 112.6704283  40.2303723  55.4322442
 109.7458091  35.7423702  52.5521806 110.5919287  36.1663116  52.6956455
 109.6856729  35.0857327  53.2460369 113.7155836  41.3652286  48.9340538
 113.0864699  41.5298000  48.2316606 113.3281498  41.7793896  49.7051502
 117.5945068  42.3006724  46.2884902 116.9096106  42.6805625  45.7381935
 117.6788917  42.9102051  47.0216850 112.8957537  33.4028071  54.2102980
 112.6518469  34.1570131  53.6737255 113.1717467  33.7813418  55.0450227
 114.8496000  39.9466683  52.8880245 115.0612895  40.5898443  52.2114626
 114.8025748  39.1129000  52.4202175 112.4522229  32.5584504  49.7916817
 111.5906708  32.8565757  50.0833555 112.4784663  32.7754903  48.8597850
 109.2683798  41.1026694  46.1990623 109.7322143  41.3814397  45.4095246
 109.0040596  40.2010139  46.0163714 106.1607879  40.6498176  49.1370386
 106.7309236  41.0785444  48.4987871 106.7515991  40.3680761  49.8354572
 108.2052684  37.2249847  43.0080188 108.9076727  37.6770890  43.4754115
 107.8733312  36.5833666  43.6360081 106.6533046  35.8161603  57.3831398
 106.0231706  36.4977884  57.6166794 106.5469133  35.7044685  56.4384536
 101.9478018  35.4833399  48.3097322 101.1577072  35.7390928  47.8337432
 102.4389265  36.2981737  48.4149362 115.9641828  42.8238639  51.0602603
 116.7859271  42.4218826  50.7785284 115.9604230  42.7206873  52.0118718
 103.8992763  35.8477979  45.2680799 103.1023927  35.9596673  45.7864294
 103.6718356  36.1864631  44.4021689 109.7298431  42.3722682  53.2163313
 109.7942863  42.8343089  54.0521485 109.0209355  41.7420047  53.3445623
 100.2315721  35.7363890  50.7412313 100.4823759  36.6210900  51.0069889
 100.7675269  35.5568491  49.9687404 109.4446449  44.0390789  43.0842293
 109.3092123  44.8842325  43.5127141 109.9856261  44.2410067  42.3208227
 105.9313788  30.1182369  59.7456649 105.5380734  29.5648568  60.4204293
 106.7479929  30.4292948  60.1363166 102.8975846  41.5566227  43.6570219
 103.4100367  42.3509478  43.8075783 103.5498559  40.8592518  43.5903820
 104.7070731  44.6731984  45.7392972 104.8837359  45.5949948  45.5513956
 105.5027564  44.3590403  46.1687352 108.8481749  31.5340248  57.3376905
 109.5891463  32.1347401  57.2581368 109.0799672  30.7917886  56.7794948
 103.9923087  36.7196616  55.6155135 103.8776602  35.8181873  55.9162234
 103.1367605  36.9660312  55.2639951 111.0714925  44.6614356  57.2142636
 110.6278779  43.8750734  56.8963540 111.7332139  44.8493506  56.5486526
 105.8302046  46.1910157  51.7403314 106.3809471  46.0627221  50.9680308
 104.9913522  46.4905046  51.3898207 113.1696163  44.9417156  55.2424037
 113.1514638  45.7626037  54.7504306 114.0916083  44.8171231  55.4674178
 109.6269217  42.4561285  56.0847545 110.1597554  41.6949573  55.8546853
 109.0983298  42.1634937  56.8271700 112.7938912  27.5621351  51.6141187
 112.4503182  28.4522993  51.5380298 113.1617875  27.3723009  50.7510772
 100.8624763  39.8854882  44.4329789 101.6999985  40.2951890  44.2163497
 101.0403030  38.9454324  44.4029983 112.7589195  37.5529962  40.1213622
 112.2435818  38.3234567  40.3602009 112.4866503  36.8795098  40.7446683
 110.3436306  32.3979663  45.1798860 109.4877902  32.0086513  45.0004499
 110.7563258  32.4771624  44.3198646 111.8735453  29.9326006  49.5790420
 111.3700248  29.8956141  48.7658225 112.1666059  30.8418749  49.6387077
 108.1178338  30.0164736  48.5856602 108.9831335  29.8207545  48.2262491
 108.1855847  29.7875088  49.5125959 117.7323469  40.3062317  42.0566796
 116.9552912  39.9673476  41.6121958 118.4114950  40.3114940  41.3821761
 112.5475498  35.4257054  41.9473403 112.2425634  35.7403204  42.7983546
 113.5005940  35.5038474  41.9900736 110.9921930  41.5847278  43.5966357
 110.4643291  40.8500037  43.2839595 110.4909433  42.3621954  43.3506326
 115.9714776  39.7796298  48.7133404 115.3138450  40.4695560  48.8013532
 116.7755175  40.1692730  49.0567390 105.7240658  32.2466944  45.9572969
 106.2984409  32.0242125  45.2246162 106.3111640  32.3155638  46.7101570
 114.7820235  38.1340671  46.7637345 115.2952116  38.7670663  47.2659055
 115.4321459  37.5341866  46.3980705 106.0510245  34.2771405  39.9768854
 105.2147557  34.6146092  40.2978129 105.9115014  34.1420385  39.0395991
 108.0263325  29.1208193  44.6848038 107.3727738  28.8057210  44.0604653
 107.9843799  28.4983933  45.4107861 109.1374530  39.4027488  36.6001330
 108.2301592  39.1716741  36.7992479 109.6345562  38.6065107  36.7875312
 112.0442609  48.1124995  39.5198016 111.3704308  48.4156692  40.1282974
 112.4308431  48.9154075  39.1703473 111.2601066  35.6090126  49.0095686
 110.3423627  35.8305073  48.8517374 111.6761209  35.6836437  48.1507393
 112.0436113  37.0081542  44.1398366 112.7907932  37.5202939  43.8305488
 112.3127703  36.6865595  45.0002760 110.3162764  39.5040083  41.1225320
 109.4073983  39.2199116  41.2197790 110.3457847  39.9239161  40.2628627
 115.5482031  43.1146672  44.8916488 115.0944358  42.2737582  44.9481678
 114.9175998  43.7508071  45.2291268 114.4914951  34.0438658  46.1217155
 113.7537707  33.5316045  46.4527398 114.7441724  33.6039040  45.3100432
 113.9914970  44.9523169  45.8266306 114.2837945  45.5128226  45.1078672
 114.5013591  45.2451730  46.5819465 114.5926578  26.8214910  46.7158925
 114.8985455  25.9612274  46.4284840 115.3179183  27.4132531  46.5157919
 100.8850934  37.2245597  45.1040523 100.6875334  36.6314958  44.3791589
 100.3297598  36.9197807  45.8216461 108.8647658  37.1168703  47.2235116
 108.9196267  36.1642540  47.1477592 108.0538860  37.2728143  47.7076414
 110.0138851  41.0448826  38.4613399 109.5758281  40.3284685  38.0019036
 110.7549292  41.2724941  37.8998490 106.8040018  35.7345763  44.9825495
 105.9907883  36.0339934  45.3890687 107.2999012  35.3401452  45.6999977
 108.9548595  45.7303520  46.9159759 108.9124774  45.9564366  45.9868291
 109.8711294  45.4966895  47.0645560 112.4014229  36.1987588  53.8140388
 112.7563617  36.4259061  54.6734854 113.0486360  36.5305964  53.1917644
 118.1311966  39.3206024  44.5189717 117.9929865  39.5107620  43.5910907
 117.7748185  40.0825406  44.9757769 106.2954092  33.3064119  50.5986730
 106.9353472  33.1652878  49.9009693 105.4631623  33.0198632  50.2225331
 118.1581346  41.3882551  49.5300989 118.5917852  41.2957840  50.3784043
 118.8712926  41.3640051  48.8921005 107.0714396  42.6066549  46.7121722
 107.8654995  42.1116869  46.5104297 106.3606089  42.0784412  46.3489428
 111.8909241  44.9884645  51.0634090 111.9446263  45.5575581  51.8311805
 111.0224022  45.1586530  50.6988127 103.3797160  36.7509631  42.7881475
 102.4494748  36.6894086  43.0051437 103.4754632  36.2285584  41.9918116
 103.2982709  33.2764444  45.3759716 103.5589526  34.1909777  45.2668877
 104.1199881  32.8088886  45.5256329 104.7707634  34.6902201  52.5458541
 105.4430687  34.4819563  51.8971190 103.9437421  34.4924287  52.1063773
 119.0196895  41.4306251  52.0633874 119.2132785  42.3352062  52.3093149
 118.9197513  40.9713670  52.8972459 110.6733206  31.3164142  54.5624202
 110.0261121  32.0154091  54.4688678 111.4434221  31.7500286  54.9300450
 114.0812004  41.5812994  57.6374755 113.9297510  41.3523546  56.7204839
 114.0716683  42.5383595  57.6506100 110.8497340  39.1544907  52.6221021
 111.7789400  39.3056066  52.4489989 110.4288370  39.2428927  51.7669668
 109.6485672  43.1795571  50.3919559 109.5096758  42.8114356  51.2645497
 108.8600268  43.6943211  50.2203517 110.2433824  48.2804668  41.7345096
 110.4185580  47.8092711  42.5490718 109.5566612  48.9070434  41.9626356
 111.1990887  42.5577174  47.7808397 110.8640720  42.5177944  48.6766047
 110.6994833  41.8921890  47.3078807 105.1735131  37.9644804  53.3060978
 105.0354929  37.2325043  53.9072517 106.0840055  37.8753704  53.0245166
 114.1350079  39.9033208  38.0545456 113.5179250  39.1780036  37.9578509
 113.6666567  40.6642568  37.7112531 107.8017432  37.6764763  52.7944658
 108.5117050  37.0357955  52.7531276 107.7586740  37.9277658  53.7170838
 115.7904211  44.6132116  55.7151237 115.7316757  43.9291337  55.0481820
 116.1923729  45.3551106  55.2631863 106.5146366  34.6629981  54.6140297
 105.9783723  34.2120719  55.2661893 105.9263074  34.7975890  53.8710761
 104.8094909  51.4294030  48.5084956 105.0491508  52.0612554  49.1863974
 103.9664106  51.0782070  48.7950315 105.9248625  34.1218632  37.1766761
 105.0478091  34.0007433  36.8129007 106.4006378  33.3304711  36.9245649
 115.7921618  42.5771700  53.9465217 114.9048397  42.2397622  54.0691615
 116.3620169  41.8454732  54.1833982  97.4450765  38.9095792  47.2708268
  98.1321805  38.5957522  46.6829283  97.2898894  39.8137157  46.9975519
 102.2485487  33.7985989  51.6993292 102.1643676  33.1911658  50.9643702
 101.4268194  34.2895007  51.7002788 109.3222771  47.2373153  50.9126460
 109.2492943  48.0428124  51.4245764 108.8800164  47.4365119  50.0874481
 109.1112551  46.4744923  44.4229281 108.3280073  47.0166603  44.5167506
 109.8105296  46.9918902  44.8223522 112.4209201  32.2839552  47.0663487
 112.9177901  31.5309515  46.7464557 111.6496183  32.3203869  46.5006696
 120.2738958  37.9879918  48.7081778 120.2628835  38.8704633  48.3375711
 119.4056338  37.6351469  48.5136315 111.7821455  47.1359987  53.0684618
 112.4949427  47.7707452  52.9960520 111.2911483  47.2323853  52.2524620
 113.5038982  41.0411239  44.6401910 112.5695260  41.1612702  44.4706614
 113.6815650  40.1383706  44.3761920 109.0044170  34.4256935  46.7935171
 108.6341957  33.8727976  47.4816077 109.5003262  33.8215069  46.2410171
 116.8911533  36.8828559  45.1751944 117.3571985  37.7156550  45.1012247
 117.3419034  36.4173540  45.8797203 106.8333368  44.8854430  53.8890189
 107.5342828  45.5190913  54.0419583 106.3628483  45.2269162  53.1285828
 114.9587764  43.2272380  42.1738096 115.2347608  43.1128975  43.0831970
 114.0892263  42.8289865  42.1350269 114.8628196  29.2509146  49.2142846
 113.9491276  29.4813373  49.3825052 115.2921297  29.3347590  50.0656878
 114.6334654  37.4399038  51.7142740 113.9806105  37.6874945  51.0595192
 115.0115034  36.6263176  51.3805217 111.5941828  47.4758731  45.8170910
 111.7764223  46.6580387  46.2798662 112.4174814  47.6926423  45.3795800
 111.9283994  46.4026916  43.0785958 112.4571760  45.8919371  42.4656120
 112.1912213  46.0869446  43.9431491 110.6822227  38.1818849  58.2008777
 110.0062864  38.0812978  58.8711152 111.5049861  38.0258063  58.6644774
 102.4301086  44.4190785  50.8221292 103.0154523  43.6734473  50.9549196
 102.2325925  44.7294742  51.7057956 105.2839742  47.4542033  45.8383734
 104.6150117  47.9388160  45.3547774 105.1452611  47.7011253  46.7527113
 109.4245010  49.4885776  52.4366393 109.9763318  49.6517398  53.2015478
 109.7651204  50.0790214  51.7646417 104.4009503  31.8360926  53.0388277
 104.4650830  32.6975757  52.6265675 104.3376624  31.2234928  52.3060636
 103.8761776  33.9084059  56.6861312 104.5033815  33.5261136  57.2998836
 103.0189695  33.6898261  57.0517004 114.2755885  44.3147034  58.2915047
 114.8195789  44.9276992  57.7970002 113.6942729  44.8726612  58.8082060
 100.6527319  35.7160488  42.6179666 100.9480760  34.8071166  42.5646720
  99.7515354  35.6948227  42.2960669 112.5613397  47.4367752  49.4230075
 112.4364537  46.6357492  48.9141020 113.2192489  47.9313945  48.9344045
 104.1821566  33.7916484  48.6007215 103.4608151  34.4052452  48.4614688
 104.9714821  34.3274249  48.5223861 114.6248306  45.2376772  51.0509625
 113.6778641  45.1182123  50.9787952 114.9731079  44.3499270  51.1335886
 106.9847879  31.1270911  54.8747867 107.5082281  31.3733207  55.6374176
 106.7660213  31.9590946  54.4551004 102.3815160  33.3974585  42.7418992
 102.0527866  32.5171964  42.5594097 102.7354531  33.3422254  43.6295381
 111.6294739  45.0329488  47.2513977 111.4819702  44.1046195  47.4321547
 112.4548233  45.0549579  46.7671052 105.4956983  33.6847555  43.1094469
 105.8353056  34.2133476  42.3873078 105.9429104  34.0227961  43.8853036
 115.2328861  45.8558047  48.3378850 116.1575408  45.6500908  48.2003301
 115.0644164  45.6074448  49.2468191 108.1900424  32.0684606  52.5597537
 107.8497245  31.2692419  52.9618217 107.4839431  32.3686317  51.9874370
 108.8416896  29.1533918  51.0124860 109.6642965  28.6794396  50.8903751
 109.0854960  29.9324402  51.5123547 107.4825131  32.1822177  41.3087762
 108.2033493  32.5603430  40.8051479 106.8590435  32.9011054  41.4122740
 111.6256253  32.8867326  42.2446094 111.8419868  33.7691964  41.9434923
 111.1450321  32.4953539  41.5151736 106.3655475  35.8453039  48.8216839
 106.2200056  36.1593342  49.7141120 105.8880678  36.4637939  48.2687738
 108.2251858  32.8355587  48.8697728 108.2113427  31.9396680  48.5330026
 108.9424286  32.8426251  49.5036015 110.0777988  33.2692927  50.9150856
 109.8195766  34.1909998  50.9135186 109.5463029  32.8723362  51.6051320
 115.0224177  46.3743714  43.6940941 115.1961055  45.8090137  42.9414794
 115.5153068  47.1744609  43.5120431 100.8401137  38.3858383  51.7604500
 100.2954605  39.1618191  51.8924774 101.7180487  38.7329188  51.6023622
 107.6288754  31.7169967  44.1385299 107.7504665  30.7886613  44.3376186
 107.3390796  31.7308653  43.2263614 110.4979944  29.4024878  47.2752018
 110.5201641  29.4664211  46.3203998 110.9148003  28.5629386  47.4692525
 120.8763568  39.1380137  45.3131241 121.3194714  38.3887462  44.9150364
 119.9990079  39.1290274  44.9304973 116.0099350  45.6910479  40.7937840
 116.7050254  46.3117171  41.0125154 116.3522500  44.8405830  41.0690217
 101.6267159  37.5128280  54.6534657 100.8848895  37.6610915  55.2399287
 101.3059903  37.7736545  53.7901406 117.9090773  43.1410184  42.3225170
 118.4342097  43.4797457  41.5974490 117.8213125  42.2057200  42.1388305
 109.5710822  47.0544258  54.4515047 109.8797948  46.8093405  55.3237747
 110.3686304  47.2590896  53.9633917 109.5931434  49.2082167  46.6820424
 109.1536424  48.7158546  47.3753280 110.3439551  48.6655135  46.4412499
 102.0723773  45.3993708  46.6845052 102.8981792  45.0997480  46.3043695
 101.7217825  44.6301331  47.1334840 107.0405306  44.7520177  48.7542725
 106.4185315  44.0890882  48.4544953 107.7110173  44.7781308  48.0716373
 100.2732378  43.3180035  47.6433985  99.4364286  42.8902209  47.4617986
 100.2456023  43.5112478  48.5804776 107.1129833  33.2301965  58.3475231
 107.1617989  34.1064087  57.9653001 107.6552347  32.6879358  57.7746874
 117.5984679  43.7743088  57.6276368 116.8080223  43.7567227  57.0880868
 117.3618033  44.3131382  58.3825405 117.7182554  40.6235554  54.9409097
 117.7680559  40.4585562  55.8824620 117.6096477  39.7562813  54.5506978
 106.6018813  43.3024100  42.2301186 106.7506933  43.9859564  41.5767859
 107.4085256  43.2829190  42.7450641 115.0086316  36.6066482  56.2568404
 115.9096179  36.4672947  55.9652401 115.0834291  36.7720937  57.1966581
 109.3429122  33.9833337  55.1021590 108.4732431  34.2766903  54.8304178
 109.5788602  34.5673782  55.8228854 119.2200751  43.0432496  55.1851118
 118.9285559  43.4062476  56.0214579 118.6072882  42.3299504  55.0064450
 120.4196433  40.6085375  47.7053689 121.2543324  41.0475180  47.8691249
 120.5555562  40.1324029  46.8861934 117.4687939  38.1665110  53.6531176
 117.9442061  38.3592757  52.8450028 116.5453504  38.2224296  53.4074560
 104.3571446  39.3289278  43.2362255 104.1117488  38.4251608  43.4342465
 104.5267360  39.3306428  42.2941733 112.0468155  30.2012954  52.6187010
 112.5650099  30.9373981  52.2933499 111.6923288  30.5076947  53.4533769
 103.6267093  35.0617635  40.7348416 102.9336338  35.1361990  40.0788452
 103.3818845  34.2977979  41.2569933 112.2980750  26.6213236  48.1387907
 112.5782503  25.9536425  48.7648333 113.0831357  26.8142332  47.6262571
 110.1014218  45.7972230  39.7012933 109.5288185  46.4162417  39.2483405
 110.6747012  46.3471592  40.2352855 116.1689608  35.0430870  51.8859482
 117.1207031  35.1428968  51.9071706 115.9993058  34.2509139  52.3957566
 114.1903987  32.1286454  52.0718883 113.5953920  32.4091466  51.3765372
 113.9053684  32.6180355  52.8435624 113.3211478  46.0809380  40.8321515
 114.2542151  46.0154942  41.0354391 113.2334691  46.9165647  40.3736048
 115.9499495  45.3975251  37.7925463 115.8713126  45.0635114  38.6861221
 116.7709161  45.8897019  37.7916935 118.6477686  38.2636990  51.0001782
 118.6154006  37.3252991  51.1861465 119.2578309  38.3421027  50.2667607
 110.4861017  37.1333043  37.0428986 111.4320121  37.0039251  37.1117404
 110.1075262  36.3947705  37.5198414 118.7972174  35.0548034  51.0460065
 118.2811223  34.2706490  50.8589994 119.6812123  34.7266750  51.2106584
 116.4582901  28.7989049  47.0055877 116.2607722  28.4904137  47.8899209
 117.0682607  29.5250688  47.1353807 110.3699709  41.1850789  58.5029643
 111.2902719  41.3629388  58.6969689 110.3349292  40.2406835  58.3509342
 108.6703934  35.0583019  36.9783871 107.7635389  34.7616132  37.0546585
 108.9479915  34.7612838  36.1118157  99.5881874  36.3789383  47.4282917
  99.2684659  35.5254691  47.1357291  99.0415302  36.5937961  48.1840885
 103.3661782  39.0951824  51.1452424 103.5847792  40.0268932  51.1640458
 103.7787556  38.7359798  51.9307228 110.2866000  29.6019909  43.1328112
 109.4766728  29.2566994  43.5083358 110.9750416  29.2927453  43.7215724
 112.2156548  28.6797956  44.7552409 112.7687586  29.0993409  45.4142432
 112.4526634  27.7533704  44.7975365 108.2389647  34.6685030  60.5355173
 108.1386374  35.6179387  60.4667264 108.0211189  34.3403269  59.6631243
 107.4402718  31.9169955  37.1195850 108.3021882  32.2424853  37.3791667
 107.6253063  31.1301451  36.6068916  99.4570134  39.9992294  49.3976039
  98.7633606  39.5846247  48.8845993 100.2043125  40.0412831  48.8009458
 115.5935355  30.7898481  44.2631073 115.0134024  31.4483285  43.8809126
 115.3271288  29.9675826  43.8518491 114.0438921  30.1903539  46.4652393
 114.5438700  30.3020073  45.6566712 114.6874529  29.8864592  47.1053202
 108.1020917  38.0982168  59.3520234 107.6187999  38.8982529  59.5584123
 108.1881856  38.1090113  58.3987678 101.3706877  39.9310548  47.2742054
 101.3477565  40.0298235  46.3223937 101.6807513  40.7775699  47.5959220
 104.0294255  41.9886703  51.3888668 104.9837508  41.9570646  51.3218600
 103.8306778  41.5277327  52.2038894 104.6193637  40.5587819  53.9559466
 105.4386526  41.0531898  53.9794303 104.8930444  39.6419787  53.9277033
 114.3760233  32.9498572  43.3187421 113.4886088  33.2348222  43.1007616
 114.7914222  32.7892335  42.4714698 117.7274769  32.9745093  47.0341761
 118.5035159  33.4641545  47.3066377 117.0022903  33.4003147  47.4913630
 120.1647328  33.6872712  48.0915701 120.7591818  33.4468448  47.3809009
 120.2373911  32.9679842  48.7189238 102.3844483  47.5306323  48.4058866
 102.2498951  46.7706724  47.8396864 101.9676546  48.2547223  47.9387655
 113.5203446  42.7143246  37.4135441 114.2239297  42.9193249  38.0293097
 112.7966095  43.2820008  37.6784525 114.3501257  38.4653107  43.5337712
 114.2936458  38.9221659  42.6945344 114.9029599  37.7043792  43.3560554
 118.1606063  34.2542839  44.3587831 117.9042997  33.8539475  45.1896039
 117.5358931  34.9686633  44.2337970 122.4718400  36.9938913  46.8659122
 121.9117958  37.0632102  47.6390684 121.8661904  36.8179897  46.1458619
 105.5413609  48.4275640  48.6177309 105.4245993  49.3721072  48.5155999
 104.7206056  48.1249201  49.0063108 115.4290144  43.1525775  39.4633901
 116.2635748  42.7206974  39.2811376 115.2674487  42.9807789  40.3910796
 115.0836036  39.6557889  40.8290241 115.0284840  39.4902160  39.8878685
 114.4582091  40.3633922  40.9852430  99.8728551  34.8925953  54.6551663
 100.5187415  34.3824907  55.1438888  99.6645702  35.6294635  55.2295088
 112.3981943  41.9606801  60.1543803 113.2673103  42.1347453  59.7930438
 111.9188695  42.7801217  60.0319533 108.3932161  29.1565998  40.4075559
 108.3810831  30.1007838  40.5643830 109.2855583  28.9736143  40.1135020
 106.5668123  49.0803902  51.8333237 107.4695370  49.1127512  52.1499732
 106.3405493  48.1504353  51.8479573 108.3221725  47.8334888  48.4943316
 107.3717356  47.8336750  48.3807688 108.6254212  47.0867623  47.9779350
 112.2084281  25.7508774  44.6621496 111.4416677  25.1967261  44.8078178
 112.6194986  25.8230643  45.5235648 104.2126042  32.0393570  58.7526677
 105.0757504  31.6830375  58.9630002 103.6391453  31.7007465  59.4402081
 120.8664125  53.6222855  49.4950603 120.5282637  53.5063919  48.6071138
 121.7353893  53.2214020  49.4751609 116.7250941  55.4758331  45.4847494
 116.1615806  55.3848268  44.7163782 116.6103336  54.6558235  45.9649986
 121.3483908  54.7757706  55.4536808 121.3372549  54.3810505  54.5817312
 121.5104548  54.0423779  56.0470580 114.2715373  56.9709523  48.3231714
 115.0636665  56.6300347  47.9078014 114.5112023  57.0804498  49.2433868
 116.2306127  56.2318436  41.1949093 117.0037003  55.6847423  41.0561969
 116.5831526  57.0962685  41.4063554 118.0691169  57.5594818  54.4015992
 117.7781035  58.4640449  54.2862659 118.7048154  57.6011346  55.1160062
 118.9947376  54.9371667  50.9917352 119.5910948  54.7127689  50.2774315
 119.0522348  54.1956412  51.5942800 118.5672405  52.3911102  38.8267543
 118.8197925  51.8692623  38.0651006 117.6296964  52.2277247  38.9294227
 118.2868693  54.2939208  41.0291918 118.1704951  53.6184111  41.6973002
 118.3970953  53.8071582  40.2124071 120.6300234  53.7549355  44.7338607
 120.2658441  53.2279976  45.4451529 121.4867350  53.3647824  44.5605093
 120.2705721  48.7839255  39.7299956 120.4380124  49.6519491  40.0970427
 120.0802890  48.9466536  38.8061245 116.4793536  53.6970031  47.4302490
 115.5544032  53.5646245  47.6380182 116.7277949  54.4764250  47.9272433
 120.2494942  51.2396912  40.7146622 120.1294567  51.6853963  41.5532103
 119.5547530  51.5882230  40.1560161 113.8402347  53.3403304  48.2646280
 113.9694728  53.5937783  49.1785691 113.1599798  53.9331012  47.9450935
 118.0101834  64.0100554  44.3636754 117.9325864  64.9608379  44.4425234
 117.4063478  63.6646427  45.0211680 120.5019064  51.1828419  57.0198121
 119.7252398  51.7422340  57.0100985 121.1409627  51.6685202  57.5412991
 118.7565436  53.9913873  56.5816088 119.4980121  54.5298917  56.3050911
 118.0502422  54.6180162  56.7387639 120.5851846  51.0715620  52.5521806
 121.4313041  51.4955034  52.6956455 120.5250484  50.4149244  53.2460369
 120.1077552  56.4318612  46.1990623 120.5715898  56.7106315  45.4095246
 119.8434351  55.5302057  46.0163714 117.0001633  55.9790094  49.1370386
 117.5702991  56.4077362  48.4987871 117.5909745  55.6972678  49.8354572
 119.0446438  52.5541764  43.0080188 119.7470482  53.0062808  43.4754115
 118.7127067  51.9125583  43.6360081 117.4926800  51.1453521  57.3831398
 116.8625461  51.8269802  57.6166794 117.3862888  51.0336603  56.4384536
 112.7871772  50.8125317  48.3097322 111.9970826  51.0682846  47.8337432
 113.2783020  51.6273655  48.4149362 114.7386518  51.1769896  45.2680799
 113.9417681  51.2888591  45.7864294 114.5112110  51.5156548  44.4021689
 120.5692185  57.7014599  53.2163313 120.6336618  58.1635007  54.0521485
 119.8603109  57.0711964  53.3445623 111.0709475  51.0655807  50.7412313
 111.3217514  51.9502817  51.0069889 111.6069024  50.8860409  49.9687404
 120.2840203  59.3682707  43.0842293 120.1485878  60.2134243  43.5127141
 120.8250016  59.5701985  42.3208227 116.7707543  45.4474287  59.7456649
 116.3774488  44.8940485  60.4204293 117.5873683  45.7584865  60.1363166
 113.7369601  56.8858145  43.6570219 114.2494121  57.6801395  43.8075783
 114.3892313  56.1884435  43.5903820 115.5464485  60.0023901  45.7392972
 115.7231114  60.9241866  45.5513956 116.3421319  59.6882320  46.1687352
 119.6875504  46.8632166  57.3376905 120.4285217  47.4639319  57.2581368
 119.9193427  46.1209804  56.7794948 114.8316842  52.0488533  55.6155135
 114.7170357  51.1473790  55.9162234 113.9761359  52.2952230  55.2639951
 116.6695801  61.5202075  51.7403314 117.2203226  61.3919138  50.9680308
 115.8307277  61.8196964  51.3898207 120.4662972  57.7853203  56.0847545
 120.9991309  57.0241491  55.8546853 119.9377053  57.4926855  56.8271700
 111.7018517  55.2146799  44.4329789 112.5393739  55.6243808  44.2163497
 111.8796785  54.2746241  44.4029983 121.1830060  47.7271581  45.1798860
 120.3271657  47.3378431  45.0004499 121.5957012  47.8063542  44.3198646
 118.9572093  45.3456654  48.5856602 119.8225090  45.1499462  48.2262491
 119.0249602  45.1167006  49.5125959 121.8315684  56.9139195  43.5966357
 121.3037046  56.1791955  43.2839595 121.3303187  57.6913872  43.3506326
 116.5634412  47.5758862  45.9572969 117.1378164  47.3534043  45.2246162
 117.1505394  47.6447556  46.7101570 116.8903999  49.6063323  39.9768854
 116.0541311  49.9438009  40.2978129 116.7508769  49.4712302  39.0395991
 118.8657080  44.4500111  44.6848038 118.2121492  44.1349128  44.0604653
 118.8237554  43.8275851  45.4107861 119.9768285  54.7319406  36.6001330
 119.0695346  54.5008659  36.7992479 120.4739317  53.9357025  36.7875312
 121.1556518  54.8332001  41.1225320 120.2467737  54.5491033  41.2197790
 121.1851602  55.2531079  40.2628627 111.7244688  52.5537515  45.1040523
 111.5269088  51.9606875  44.3791589 111.1691352  52.2489725  45.8216461
 119.7041412  52.4460621  47.2235116 119.7590022  51.4934458  47.1477592
 118.8932614  52.6020060  47.7076414 120.8532606  56.3740744  38.4613399
 120.4152036  55.6576603  38.0019036 121.5943047  56.6016859  37.8998490
 117.6433772  51.0637681  44.9825495 116.8301638  51.3631851  45.3890687
 118.1392766  50.6693370  45.6999977 119.7942350  61.0595438  46.9159759
 119.7518529  61.2856284  45.9868291 120.7105049  60.8258812  47.0645560
 117.1347847  48.6356036  50.5986730 117.7747226  48.4944795  49.9009693
 116.3025377  48.3490550  50.2225331 117.9108151  57.9358467  46.7121722
 118.7048749  57.4408787  46.5104297 117.1999843  57.4076330  46.3489428
 114.2190914  52.0801549  42.7881475 113.2888502  52.0186004  43.0051437
 114.3148386  51.5577501  41.9918116 114.1376463  48.6056361  45.3759716
 114.3983280  49.5201695  45.2668877 114.9593636  48.1380804  45.5256329
 115.6101389  50.0194119  52.5458541 116.2824442  49.8111481  51.8971190
 114.7831175  49.8216205  52.1063773 121.5126961  46.6456059  54.5624202
 120.8654876  47.3446009  54.4688678 122.2827976  47.0792203  54.9300450
 120.4879427  58.5087489  50.3919559 120.3490512  58.1406273  51.2645497
 119.6994023  59.0235128  50.2203517 121.0827579  63.6096585  41.7345096
 121.2579334  63.1384628  42.5490718 120.3960367  64.2362351  41.9626356
 122.0384642  57.8869091  47.7808397 121.7034474  57.8469861  48.6766047
 121.5388587  57.2213807  47.3078807 116.0128886  53.2936722  53.3060978
 115.8748684  52.5616960  53.9072517 116.9233809  53.2045622  53.0245166
 118.6411186  53.0056681  52.7944658 119.3510805  52.3649873  52.7531276
 118.5980495  53.2569576  53.7170838 117.3540120  49.9921899  54.6140297
 116.8177477  49.5412637  55.2661893 116.7656829  50.1267808  53.8710761
 115.6488664  66.7585948  48.5084956 115.8885262  67.3904472  49.1863974
 114.8057860  66.4073988  48.7950315 116.7642379  49.4510550  37.1766761
 115.8871846  49.3299351  36.8129007 117.2400132  48.6596628  36.9245649
 108.2844519  54.2387710  47.2708268 108.9715559  53.9249440  46.6829283
 108.1292648  55.1429074  46.9975519 113.0879242  49.1277906  51.6993292
 113.0037430  48.5203576  50.9643702 112.2661948  49.6186925  51.7002788
 120.1616526  62.5665070  50.9126460 120.0886697  63.3720042  51.4245764
 119.7193919  62.7657036  50.0874481 119.9506305  61.8036840  44.4229281
 119.1673827  62.3458521  44.5167506 120.6499051  62.3210820  44.8223522
 119.8437924  49.7548853  46.7935171 119.4735712  49.2019893  47.4816077
 120.3397017  49.1506986  46.2410171 117.6727123  60.2146348  53.8890189
 118.3736582  60.8482831  54.0419583 117.2022238  60.5561079  53.1285828
 121.5215982  53.5110766  58.2008777 120.8456619  53.4104896  58.8711152
 122.3443616  53.3549980  58.6644774 113.2694841  59.7482703  50.8221292
 113.8548278  59.0026391  50.9549196 113.0719679  60.0586660  51.7057956
 116.1233496  62.7833950  45.8383734 115.4543871  63.2680078  45.3547774
 115.9846366  63.0303171  46.7527113 107.8612496  52.3188303  49.5425735
 107.8996595  51.7851894  50.3362853 107.3552788  51.7923509  48.9236712
 120.2638765  64.8177694  52.4366393 120.8157073  64.9809315  53.2015478
 120.6044958  65.4082132  51.7646417 115.2403258  47.1652844  53.0388277
 115.3044584  48.0267675  52.6265675 115.1770378  46.5526845  52.3060636
 114.7155530  49.2375976  56.6861312 115.3427569  48.8553054  57.2998836
 113.8583449  49.0190178  57.0517004 111.4921073  51.0452405  42.6179666
 111.7874514  50.1363084  42.5646720 110.5909109  51.0240145  42.2960669
 115.0215320  49.1208402  48.6007215 114.3001906  49.7344370  48.4614688
 115.8108576  49.6566167  48.5223861 117.8241634  46.4562828  54.8747867
 118.3476036  46.7025125  55.6374176 117.6053967  47.2882863  54.4551004
 113.2208915  48.7266503  42.7418992 112.8921621  47.8463882  42.5594097
 113.5748285  48.6714172  43.6295381 116.3350738  49.0139473  43.1094469
 116.6746810  49.5425394  42.3873078 116.7822858  49.3519879  43.8853036
 119.0294179  47.3976524  52.5597537 118.6890999  46.5984337  52.9618217
 118.3233185  47.6978234  51.9874370 119.6810651  44.4825836  51.0124860
 120.5036720  44.0086314  50.8903751 119.9248714  45.2616320  51.5123547
 118.3218885  47.5114094  41.3087762 119.0427248  47.8895347  40.8051479
 117.6984189  48.2302971  41.4122740 117.2049229  51.1744957  48.8216839
 117.0593810  51.4885260  49.7141120 116.7274433  51.7929857  48.2687738
 119.0645612  48.1647505  48.8697728 119.0507181  47.2688598  48.5330026
 119.7818040  48.1718168  49.5036015 120.9171743  48.5984845  50.9150856
 120.6589521  49.5201915  50.9135186 120.3856783  48.2015279  51.6051320
 111.6794892  53.7150301  51.7604500 111.1348360  54.4910109  51.8924774
 112.5574241  54.0621105  51.6023622 118.4682508  47.0461885  44.1385299
 118.5898419  46.1178531  44.3376186 118.1784551  47.0600571  43.2263614
 121.3373699  44.7316795  47.2752018 121.3595395  44.7956128  46.3203998
 121.7541758  43.8921304  47.4692525 112.4660913  52.8420197  54.6534657
 111.7242649  52.9902833  55.2399287 112.1453658  53.1028463  53.7901406
 120.4104576  62.3836176  54.4515047 120.7191702  62.1385322  55.3237747
 121.2080058  62.5882814  53.9633917 120.4325188  64.5374085  46.6820424
 119.9930178  64.0450464  47.3753280 121.1833305  63.9947053  46.4412499
 112.9117527  60.7285626  46.6845052 113.7375547  60.4289398  46.3043695
 112.5611579  59.9593248  47.1334840 117.8799060  60.0812094  48.7542725
 117.2579070  59.4182799  48.4544953 118.5503927  60.1073226  48.0716373
 111.1126132  58.6471952  47.6433985 110.2758040  58.2194127  47.4617986
 111.0849778  58.8404396  48.5804776 117.9523588  48.5593882  58.3475231
 118.0011743  49.4356005  57.9653001 118.4946102  48.0171275  57.7746874
 117.4412567  58.6316018  42.2301186 117.5900687  59.3151482  41.5767859
 118.2479011  58.6121108  42.7450641 120.1822876  49.3125255  55.1021590
 119.3126186  49.6058821  54.8304178 120.4182357  49.8965700  55.8228854
 115.1965200  54.6581195  43.2362255 114.9511242  53.7543525  43.4342465
 115.3661115  54.6598346  42.2941733 114.4660848  50.3909553  40.7348416
 113.7730093  50.4653908  40.0788452 114.2212600  49.6269896  41.2569933
 120.9407973  61.1264148  39.7012933 120.3681940  61.7454335  39.2483405
 121.5140766  61.6763510  40.2352855 121.3254771  52.4624961  37.0428986
 122.2713876  52.3331169  37.1117404 120.9469016  51.7239623  37.5198414
 121.2093464  56.5142707  58.5029643 122.1296473  56.6921306  58.6969689
 121.1743047  55.5698752  58.3509342 119.5097688  50.3874937  36.9783871
 118.6029144  50.0908050  37.0546585 119.7873669  50.0904755  36.1118157
 110.4275629  51.7081301  47.4282917 110.1078413  50.8546609  47.1357291
 109.8809057  51.9229879  48.1840885 114.2055536  54.4243742  51.1452424
 114.4241546  55.3560849  51.1640458 114.6181310  54.0651716  51.9307228
 121.1259754  44.9311827  43.1328112 120.3160482  44.5858912  43.5083358
 121.8144171  44.6219371  43.7215724 119.0783402  49.9976947  60.5355173
 118.9780128  50.9471304  60.4667264 118.8604944  49.6695186  59.6631243
 118.2796473  47.2461872  37.1195850 119.1415637  47.5716771  37.3791667
 118.4646817  46.4593368  36.6068916 110.2963889  55.3284212  49.3976039
 109.6027360  54.9138165  48.8845993 111.0436880  55.3704749  48.8009458
 118.9414672  53.4274086  59.3520234 118.4581753  54.2274446  59.5584123
 119.0275611  53.4382031  58.3987678 112.2100631  55.2602466  47.2742054
 112.1871319  55.3590153  46.3223937 112.5201268  56.1067617  47.5959220
 114.8688009  57.3178621  51.3888668 115.8231263  57.2862563  51.3218600
 114.6700533  56.8569245  52.2038894 115.4587391  55.8879737  53.9559466
 116.2780280  56.3823816  53.9794303 115.7324199  54.9711705  53.9277033
 113.2238238  62.8598240  48.4058866 113.0892706  62.0998641  47.8396864
 112.8070300  63.5839140  47.9387655 116.3807364  63.7567557  48.6177309
 116.2639748  64.7012990  48.5155999 115.5599810  63.4541119  49.0063108
 110.7122305  50.2217871  54.6551663 111.3581169  49.7116825  55.1438888
 110.5039457  50.9586552  55.2295088 119.2325916  44.4857915  40.4075559
 119.2204586  45.4299755  40.5643830 120.1249338  44.3028061  40.1135020
 117.4061878  64.4095819  51.8333237 118.3089125  64.4419430  52.1499732
 117.1799248  63.4796270  51.8479573 119.1615480  63.1626806  48.4943316
 118.2111111  63.1628667  48.3807688 119.4647966  62.4159540  47.9779350
 115.0519796  47.3685488  58.7526677 115.9151258  47.0122293  58.9630002
 114.4785207  47.0299383  59.4402081 121.9103230  66.3947725  50.7412313
 122.1611268  67.2794735  51.0069889 122.4462778  66.2152327  49.9687404
 119.1238274  69.5679628  47.2708268 119.8109314  69.2541358  46.6829283
 118.9686403  70.4720992  46.9975519 118.7006250  67.6480221  49.5425735
 118.7390350  67.1143812  50.3362853 118.1946543  67.1215426  48.9236712
 121.9519887  73.9763870  47.6433985 121.1151795  73.5486044  47.4617986
 121.9243532  74.1696313  48.5804776 121.2669383  67.0373218  47.4282917
 120.9472168  66.1838526  47.1357291 120.7202811  67.2521796  48.1840885
 121.1357643  70.6576130  49.3976039 120.4421115  70.2430083  48.8845993
 121.8830634  70.6996666  48.8009458 121.5516060  65.5509788  54.6551663
 122.1974924  65.0408742  55.1438888 121.3433211  66.2878470  55.2295088
  96.3314326  10.3578841  31.0882060  96.2538356  11.3086666  31.1670541
  95.7275970  10.0124714  31.7456987  93.9701156  13.1064235  35.2330262
  94.2097754  13.7382759  35.9109281  93.1270353  12.7552275  35.5195622
  94.4445988   9.1312238  32.5629041  93.7756364   9.6158365  32.0793081
  94.3058858   9.3781458  33.4772419  98.5851257  11.1655981  39.1611699
  99.1369565  11.3287603  39.9260785  98.9257450  11.7560419  38.4891724
  98.7537680  10.8852372  33.4065730  98.3142671  10.3928751  34.0998587
  99.5045797  10.3425340  33.1657805  91.5450730   9.2076528  35.1304173
  91.4105198   8.4476928  34.5642171  91.1282792   9.9317427  34.6632962
  94.7019856  10.1045845  35.3422615  94.5852240  11.0491277  35.2401306
  93.8812302   9.8019406  35.7308415  95.7274370  10.7574106  38.5578544
  96.6301617  10.7897717  38.8745039  95.5011740   9.8274557  38.5724880
 110.0270372  15.2993060  36.2195909 109.6888883  15.1834124  35.3316444
 110.8960140  14.8984225  36.1996916 105.8857188  17.1528536  32.2092800
 105.3222053  17.0618473  31.4409088 105.7709583  16.3328440  32.6895293
 110.5090155  16.4527911  42.1782115 110.4978796  16.0580710  41.3062619
 110.6710794  15.7193984  42.7715886 103.4321620  18.6479728  35.0477021
 104.2242911  18.3070552  34.6323320 103.6718270  18.7574703  35.9679174
 111.4656746  20.8199504  27.5207265 110.8144726  21.4053584  27.1341279
 112.2601109  21.3505699  27.5802303 105.3912374  17.9088641  27.9194400
 106.1643250  17.3617628  27.7807275 105.7437772  18.7732890  28.1308861
 107.2297416  19.2365023  41.1261299 106.9387282  20.1410654  41.0107965
 107.8654400  19.2781551  41.8405369 108.1553623  16.6141872  37.7162659
 108.7517195  16.3897894  37.0019622 108.2128594  15.8726617  38.3188106
 107.4474940  15.9709413  27.7537225 107.3311198  15.2954316  28.4218309
 107.5577200  15.4841787  26.9369378 109.7906481  15.4319560  31.4583914
 109.4264688  14.9050181  32.1696835 110.6473597  15.0418029  31.2850399
 112.1887301  18.9226439  38.1211093 111.8888024  19.8251477  38.0126900
 111.8438361  18.6558622  38.9732246 105.6399783  15.3740235  34.1547797
 104.7150279  15.2416450  34.3625489 105.8884196  16.1534455  34.6517740
 103.0008594  15.0173509  34.9891586 103.1300975  15.2707988  35.9030998
 102.3206045  15.6101217  34.6696241 107.1708081  25.6870759  31.0882060
 107.0932111  26.6378584  31.1670541 106.5669725  25.3416631  31.7456987
 107.9171683  15.6684078  43.3061394 108.6586367  16.2069122  43.0296218
 107.2108669  16.2950366  43.4632946 113.3927023  17.8113218  41.9033556
 113.8010379  17.3695629  41.1588188 112.6704284  17.2365846  42.1567749
 113.7155837  18.3714409  35.6585845 113.0864700  18.5360123  34.9561913
 113.3281499  18.7856018  36.4296809 117.5945069  19.3068847  33.0130208
 116.9096107  19.6867748  32.4627242 117.6788919  19.9164173  33.7462156
 114.8496001  16.9528806  39.6125552 115.0612896  17.5960566  38.9359933
 114.8025749  16.1191122  39.1447482 109.2683799  18.1088817  32.9235930
 109.7322145  18.3876520  32.1340552 109.0040597  17.2072261  32.7409020
 106.1607880  17.6560298  35.8615693 106.7309237  18.0847567  35.2233178
 106.7515992  17.3742883  36.5599879 108.2052685  14.2311969  29.7325495
 108.9076729  14.6833013  30.1999421 107.8733314  13.5895788  30.3605388
 106.6533047  12.8223726  44.1076704 106.0231707  13.5040007  44.3412101
 106.5469135  12.7106808  43.1629843 101.9478019  12.4895522  35.0342628
 101.1577073  12.7453050  34.5582739 102.4389267  13.3043860  35.1394669
 115.9641829  19.8300761  37.7847909 116.7859273  19.4280948  37.5030591
 115.9604232  19.7268995  38.7364025 103.8992765  12.8540101  31.9926105
 103.1023928  12.9658795  32.5109601 103.6718357  13.1926753  31.1266996
 109.7298432  19.3784804  39.9408620 109.7942865  19.8405212  40.7766792
 109.0209356  18.7482169  40.0690930 100.2315722  12.7426012  37.4657619
 100.4823761  13.6273022  37.7315195 100.7675271  12.5630614  36.6932711
 109.4446450  21.0452912  29.8087600 109.3092125  21.8904448  30.2372448
 109.9856262  21.2472190  29.0453534 102.8975847  18.5628350  30.3815525
 103.4100368  19.3571600  30.5321090 103.5498560  17.8654640  30.3149127
 104.7070732  21.6794106  32.4638278 104.8837360  22.6012071  32.2759262
 105.5027565  21.3652525  32.8932658 103.9923089  13.7258738  42.3400442
 103.8776604  12.8243995  42.6407540 103.1367606  13.9722435  41.9885258
 111.0714926  21.6676478  43.9387942 110.6278780  20.8812857  43.6208847
 111.7332140  21.8555629  43.2731833 105.8302047  23.1972280  38.4648621
 106.3809473  23.0689343  37.6925615 104.9913523  23.4967169  38.1143513
 113.1696164  21.9479278  41.9669343 113.1514640  22.7688159  41.4749613
 114.0916084  21.8233354  42.1919485 109.6269218  19.4623408  42.8092852
 110.1597555  18.7011696  42.5792160 109.0983300  19.1697060  43.5517006
 100.8624764  16.8917004  31.1575096 101.6999986  17.3014013  30.9408803
 101.0403032  15.9516446  31.1275290 110.9921931  18.5909400  30.3211664
 110.4643293  17.8562160  30.0084901 110.4909434  19.3684077  30.0751632
 115.9714777  16.7858421  35.4378710 115.3138452  17.4757682  35.5258839
 116.7755176  17.1754853  35.7812696 112.0442610  25.1187118  26.2443323
 111.3704309  25.4218814  26.8528281 112.4308432  25.9216198  25.8948780
 115.5482032  20.1208795  31.6161795 115.0944359  19.2799705  31.6726985
 114.9175999  20.7570193  31.9536575 113.9914971  21.9585292  32.5511613
 114.2837946  22.5190349  31.8323978 114.5013592  22.2513853  33.3064772
 100.8850935  14.2307720  31.8285829 100.6875335  13.6377080  31.1036896
 100.3297599  13.9259930  32.5461768 108.9548597  22.7365643  33.6405066
 108.9124775  22.9626489  32.7113598 109.8711296  22.5029017  33.7890867
 118.1581347  18.3944673  36.2546296 118.5917854  18.3019962  37.1029350
 118.8712928  18.3702174  35.6166312 107.0714397  19.6128672  33.4367029
 107.8654996  19.1178992  33.2349604 106.3606090  19.0846535  33.0734734
 111.8909242  21.9946767  37.7879396 111.9446264  22.5637704  38.5557112
 111.0224023  22.1648652  37.4233433 103.3797161  13.7571753  29.5126781
 102.4494749  13.6956209  29.7296743 103.4754633  13.2347706  28.7163423
 119.0196897  18.4368374  38.7879181 119.2132787  19.3414184  39.0338456
 118.9197515  17.9775793  39.6217766 114.0812005  18.5875117  44.3620062
 113.9297512  18.3585668  43.4450145 114.0716685  19.5445718  44.3751407
 110.8497342  16.1607029  39.3466328 111.7789402  16.3118189  39.1735295
 110.4288372  16.2491050  38.4914975 109.6485673  20.1857694  37.1164866
 109.5096759  19.8176478  37.9890804 108.8600270  20.7005333  36.9448823
 110.2433825  25.2866790  28.4590402 110.4185581  24.8154833  29.2736025
 109.5566613  25.9132556  28.6871663 111.1990889  19.5639296  34.5053703
 110.8640721  19.5240066  35.4011353 110.6994834  18.8984012  34.0324114
 105.1735133  14.9706926  40.0306285 105.0354930  14.2387165  40.6317824
 106.0840056  14.8815827  39.7490472 107.8017433  14.6826886  39.5189964
 108.5117052  14.0420078  39.4776583 107.7586741  14.9339781  40.4416145
 115.7904212  21.6194239  42.4396543 115.7316758  20.9353459  41.7727127
 116.1923730  22.3613229  41.9877169 104.8094911  28.4356153  35.2330262
 105.0491509  29.0674677  35.9109281 103.9664107  28.0844193  35.5195622
 115.7921619  19.5833823  40.6710523 114.9048398  19.2459745  40.7936922
 116.3620170  18.8516854  40.9079289  97.4450766  15.9157915  33.9953575
  98.1321806  15.6019645  33.4074590  97.2898895  16.8199279  33.7220826
 109.3222773  24.2435275  37.6371766 109.2492944  25.0490247  38.1491071
 108.8800166  24.4427241  36.8119788 109.1112552  23.4807045  31.1474588
 108.3280074  24.0228726  31.2412812 109.8105297  23.9981025  31.5468829
 111.7821456  24.1422109  39.7929925 112.4949428  24.7769574  39.7205826
 111.2911485  24.2385975  38.9769927 113.5038983  18.0473362  31.3647217
 112.5695262  18.1674825  31.1951921 113.6815651  17.1445829  31.1007227
 106.8333370  21.8916553  40.6135496 107.5342829  22.5253036  40.7664890
 106.3628485  22.2331284  39.8531135 111.5941829  24.4820854  32.5416216
 111.7764224  23.6642509  33.0043969 112.4174815  24.6988546  32.1041106
 111.9283995  23.4089039  29.8031265 112.4571761  22.8981493  29.1901427
 112.1912215  23.0931569  30.6676798 110.6822229  15.1880971  44.9254083
 110.0062866  15.0875101  45.5956459 111.5049862  15.0320185  45.3890081
 102.4301088  21.4252908  37.5466599 103.0154524  20.6796596  37.6794503
 102.2325926  21.7356865  38.4303262 105.2839743  24.4604155  32.5629041
 104.6150118  24.9450283  32.0793081 105.1452613  24.7073376  33.4772419
  97.0218742  13.9958508  36.2671042  97.0602842  13.4622099  37.0608160
  96.5159035  13.4693714  35.6482019 109.4245011  26.4947899  39.1611699
 109.9763319  26.6579520  39.9260785 109.7651205  27.0852337  38.4891724
 114.2755886  21.3209156  45.0160354 114.8195790  21.9339115  44.5215309
 113.6942731  21.8788735  45.5327367 100.6527320  12.7222610  29.3424973
 100.9480761  11.8133289  29.2892027  99.7515356  12.7010350  29.0205975
 112.5613399  24.4429874  36.1475381 112.4364538  23.6419614  35.6386327
 113.2192490  24.9376068  35.6589351 114.6248307  22.2438894  37.7754932
 113.6778643  22.1244246  37.7033258 114.9731080  21.3561392  37.8581193
 111.6294740  22.0391611  33.9759284 111.4819703  21.1108318  34.1566854
 112.4548234  22.0611701  33.4916359 115.2328862  22.8620169  35.0624157
 116.1575410  22.6563031  34.9248608 115.0644166  22.6136571  35.9713498
 106.3655476  12.8515162  35.5462146 106.2200057  13.1655465  36.4386427
 105.8880680  13.4700062  34.9933044 115.0224178  23.3805837  30.4186248
 115.1961056  22.8152259  29.6660100 115.5153070  24.1806732  30.2365738
 100.8401138  15.3920506  38.4849807 100.2954606  16.1680314  38.6170081
 101.7180488  15.7391310  38.3268928 101.6267160  14.5190402  41.3779964
 100.8848896  14.6673038  41.9644594 101.3059904  14.7798668  40.5146713
 109.5710823  24.0606380  41.1760354 109.8797949  23.8155527  42.0483053
 110.3686305  24.2653019  40.6879224 109.5931435  26.2144290  33.4065730
 109.1536425  25.7220669  34.0998587 110.3439552  25.6717258  33.1657805
 102.0723774  22.4055831  33.4090358 102.8981794  22.1059603  33.0289002
 101.7217826  21.6363453  33.8580147 107.0405307  21.7582299  35.4788032
 106.4185316  21.0953004  35.1790260 107.7110174  21.7843431  34.7961680
 100.2732379  20.3242157  34.3679292  99.4364287  19.8964332  34.1863293
 100.2456024  20.5174601  35.3050083 117.5984680  20.7805210  44.3521675
 116.8080224  20.7629349  43.8126174 117.3618035  21.3193504  45.1070712
 117.7182555  17.6297677  41.6654404 117.7680560  17.4647684  42.6069926
 117.6096479  16.7624936  41.2752284 106.6018814  20.3086222  28.9546492
 106.7506934  20.9921687  28.3013165 107.4085257  20.2891313  29.4695948
 119.2200752  20.0494618  41.9096425 118.9285560  20.4124599  42.7459886
 118.6072883  19.3361627  41.7309757 104.3571447  16.3351400  29.9607561
 104.1117489  15.4313730  30.1587771 104.5267361  16.3368551  29.0187039
 110.1014219  22.8034353  26.4258240 109.5288187  23.4224540  25.9728712
 110.6747013  23.3533715  26.9598162 113.3211479  23.0871503  27.5566822
 114.2542152  23.0217065  27.7599698 113.2334692  23.9227770  27.0981355
 110.3699710  18.1912912  45.2274949 111.2902720  18.3691511  45.4214996
 110.3349293  17.2468957  45.0754649  99.5881875  13.3851505  34.1528224
  99.2684660  12.5316814  33.8602598  99.0415304  13.6000084  34.9086191
 103.3661783  16.1013946  37.8697730 103.5847793  17.0331054  37.8885764
 103.7787557  15.7421921  38.6552534  99.4570135  17.0054417  36.1221346
  98.7633607  16.5908370  35.6091300 100.2043126  17.0474953  35.5254764
 108.1020918  15.1044291  46.0765541 107.6188000  15.9044651  46.2829430
 108.1881857  15.1152236  45.1232985 101.3706878  16.9372671  33.9987360
 101.3477566  17.0360358  33.0469244 101.6807514  17.7837822  34.3204527
 104.0294256  18.9948826  38.1133975 104.9837509  18.9632768  38.0463906
 103.8306779  18.5339450  38.9284201 104.6193638  17.5649942  40.6804773
 105.4386527  18.0594020  40.7039610 104.8930446  16.6481910  40.6522340
 102.3844485  24.5368445  35.1304173 102.2498953  23.7768846  34.5642171
 101.9676547  25.2609345  34.6632962 105.5413611  25.4337762  35.3422615
 105.4245995  26.3783195  35.2401306 104.7206057  25.1311324  35.7308415
  99.8728552  11.8988076  41.3796970 100.5187416  11.3887030  41.8684195
  99.6645703  12.6356757  41.9540395 112.3981944  18.9668923  46.8789110
 113.2673104  19.1409575  46.5175745 111.9188696  19.7863340  46.7564839
 106.5668125  26.0866024  38.5578544 107.4695371  26.1189634  38.8745039
 106.3405495  25.1566475  38.5724880 108.3221727  24.8397011  35.2188622
 107.3717358  24.8398872  35.1052995 108.6254213  24.0929745  34.7024657
 120.8664126  30.6284977  36.2195909 120.5282638  30.5126042  35.3316444
 121.7353895  30.2276142  36.1996916 116.7250942  32.4820454  32.2092800
 116.1615807  32.3910391  31.4409088 116.6103337  31.6620358  32.6895293
 121.3483909  31.7819829  42.1782115 121.3372550  31.3872627  41.3062619
 121.5104549  31.0485902  42.7715886 114.2715374  33.9771645  35.0477021
 115.0636666  33.6362470  34.6323320 114.5112024  34.0866620  35.9679174
 116.2306128  33.2380558  27.9194400 117.0037004  32.6909546  27.7807275
 116.5831527  34.1024808  28.1308861 118.0691171  34.5656941  41.1261299
 117.7781037  35.4702572  41.0107965 118.7048155  34.6073468  41.8405369
 118.9947377  31.9433789  37.7162659 119.5910950  31.7189812  37.0019622
 119.0522349  31.2018535  38.3188106 118.2868695  31.3001331  27.7537225
 118.1704953  30.6246234  28.4218309 118.3970954  30.8133704  26.9369378
 120.6300235  30.7611478  31.4583914 120.2658443  30.2342099  32.1696835
 121.4867351  30.3709947  31.2850399 116.4793537  30.7032153  34.1547797
 115.5544034  30.5708367  34.3625489 116.7277950  31.4826372  34.6517740
 113.8402348  30.3465427  34.9891586 113.9694729  30.5999906  35.9030998
 113.1599799  30.9393135  34.6696241 118.0101835  41.0162677  31.0882060
 117.9325865  41.9670502  31.1670541 117.4063479  40.6708549  31.7456987
 120.5019065  28.1890542  43.7443427 119.7252399  28.7484462  43.7346292
 121.1409628  28.6747325  44.2658297 118.7565438  30.9975995  43.3061394
 119.4980122  31.5361039  43.0296218 118.0502423  31.6242284  43.4632946
 120.5851847  28.0777743  39.2767113 121.4313042  28.5017156  39.4201762
 120.5250485  27.4211367  39.9705676 120.1077554  33.4380735  32.9235930
 120.5715899  33.7168438  32.1340552 119.8434352  32.5364179  32.7409020
 117.0001635  32.9852216  35.8615693 117.5702992  33.4139484  35.2233178
 117.5909747  32.7034801  36.5599879 119.0446440  29.5603887  29.7325495
 119.7470483  30.0124931  30.1999421 118.7127068  28.9187706  30.3605388
 117.4926801  28.1515644  44.1076704 116.8625462  28.8331924  44.3412101
 117.3862889  28.0398725  43.1629843 112.7871774  27.8187440  35.0342628
 111.9970828  28.0744968  34.5582739 113.2783021  28.6335777  35.1394669
 114.7386519  28.1832019  31.9926105 113.9417682  28.2950713  32.5109601
 114.5112111  28.5218671  31.1266996 120.5692187  34.7076722  39.9408620
 120.6336619  35.1697129  40.7766792 119.8603111  34.0774087  40.0690930
 111.0709477  28.0717930  37.4657619 111.3217515  28.9564940  37.7315195
 111.6069025  27.8922532  36.6932711 120.2840204  36.3744830  29.8087600
 120.1485879  37.2196365  30.2372448 120.8250017  36.5764107  29.0453534
 116.7707544  22.4536409  46.4701955 116.3774490  21.9002608  47.1449600
 117.5873684  22.7646988  46.8608473 113.7369602  33.8920268  30.3815525
 114.2494122  34.6863518  30.5321090 114.3892315  33.1946558  30.3149127
 115.5464486  37.0086024  32.4638278 115.7231115  37.9303989  32.2759262
 116.3421320  36.6944443  32.8932658 119.6875505  23.8694289  44.0622212
 120.4285218  24.4701442  43.9826674 119.9193428  23.1271926  43.5040254
 114.8316843  29.0550656  42.3400442 114.7170358  28.1535913  42.6407540
 113.9761361  29.3014353  41.9885258 116.6695802  38.5264198  38.4648621
 117.2203227  38.3981261  37.6925615 115.8307278  38.8259087  38.1143513
 120.4662973  34.7915325  42.8092852 120.9991310  34.0303614  42.5792160
 119.9377054  34.4988977  43.5517006 111.7018519  32.2208922  31.1575096
 112.5393741  32.6305930  30.9408803 111.8796786  31.2808364  31.1275290
 118.9572094  22.3518776  35.3101909 119.8225091  22.1561585  34.9507798
 119.0249603  22.1229128  36.2371265 121.8315686  33.9201318  30.3211664
 121.3037047  33.1854078  30.0084901 121.3303188  34.6975994  30.0751632
 116.5634413  24.5820984  32.6818275 117.1378165  24.3596166  31.9491468
 117.1505396  24.6509679  33.4346877 111.7244690  29.5599637  31.8285829
 111.5269089  28.9668998  31.1036896 111.1691354  29.2551847  32.5461768
 119.7041413  29.4522744  33.9480422 119.7590023  28.4996580  33.8722899
 118.8932615  29.6082183  34.4321721 117.6433773  28.0699803  31.7070801
 116.8301639  28.3693974  32.1135993 118.1392767  27.6755492  32.4245283
 119.7942351  38.0657560  33.6405066 119.7518530  38.2918407  32.7113598
 120.7105050  37.8320935  33.7890867 117.1347848  25.6418159  37.3232036
 117.7747227  25.5006918  36.6254999 116.3025379  25.3552672  36.9470638
 117.9108152  34.9420589  33.4367029 118.7048750  34.4470910  33.2349604
 117.1999844  34.4138453  33.0734734 114.2190915  29.0863671  29.5126781
 113.2888503  29.0248127  29.7296743 114.3148387  28.5639624  28.7163423
 114.1376464  25.6118484  32.1005023 114.3983282  26.5263817  31.9914183
 114.9593637  25.1442927  32.2501636 115.6101390  27.0256241  39.2703847
 116.2824443  26.8173603  38.6216496 114.7831176  26.8278327  38.8309080
 121.5126962  23.6518182  41.2869508 120.8654877  24.3508132  41.1933985
 122.2827977  24.0854326  41.6545757 120.4879428  35.5149611  37.1164866
 120.3490514  35.1468396  37.9890804 119.6994024  36.0297251  36.9448823
 121.0827580  40.6158708  28.4590402 121.2579336  40.1446751  29.2736025
 120.3960368  41.2424474  28.6871663 122.0384643  34.8931214  34.5053703
 121.7034476  34.8531984  35.4011353 121.5388589  34.2275930  34.0324114
 116.0128887  30.2998844  40.0306285 115.8748685  29.5679083  40.6317824
 116.9233810  30.2107744  39.7490472 118.6411188  30.0118803  39.5189964
 119.3510806  29.3711996  39.4776583 118.5980496  30.2631698  40.4416145
 117.3540122  26.9984021  41.3385604 116.8177479  26.5474760  41.9907200
 116.7656830  27.1329930  40.5956068 115.6488665  43.7648071  35.2330262
 115.8885263  44.3966595  35.9109281 114.8057862  43.4136111  35.5195622
 108.2844521  31.2449832  33.9953575 108.9715561  30.9311562  33.4074590
 108.1292649  32.1491197  33.7220826 113.0879243  26.1340029  38.4238598
 113.0037432  25.5265699  37.6889008 112.2661949  26.6249047  38.4248095
 120.1616527  39.5727193  37.6371766 120.0886699  40.3782165  38.1491071
 119.7193920  39.7719159  36.8119788 119.9506307  38.8098963  31.1474588
 119.1673829  39.3520643  31.2412812 120.6499052  39.3272943  31.5468829
 119.8437926  26.7610976  33.5180478 119.4735713  26.2082016  34.2061383
 120.3397018  26.1569109  32.9655478 117.6727124  37.2208471  40.6135496
 118.3736584  37.8544954  40.7664890 117.2022239  37.5623202  39.8531135
 121.5215983  30.5172889  44.9254083 120.8456620  30.4167018  45.5956459
 122.3443617  30.3612103  45.3890081 113.2694842  36.7544826  37.5466599
 113.8548279  36.0088514  37.6794503 113.0719681  37.0648782  38.4303262
 116.1233497  39.7896073  32.5629041 115.4543873  40.2742201  32.0793081
 115.9846367  40.0365293  33.4772419 107.8612497  29.3250426  36.2671042
 107.8996596  28.7914016  37.0608160 107.3552790  28.7985631  35.6482019
 120.2638766  41.8239817  39.1611699 120.8157074  41.9871438  39.9260785
 120.6044959  42.4144254  38.4891724 115.2403259  24.1714966  39.7633584
 115.3044586  25.0329797  39.3510982 115.1770379  23.5588968  39.0305942
 114.7155532  26.2438099  43.4106618 115.3427571  25.8615176  44.0244143
 113.8583451  26.0252301  43.7762311 111.4921074  28.0514528  29.3424973
 111.7874516  27.1425206  29.2892027 110.5909110  28.0302267  29.0205975
 115.0215321  26.1270525  35.3252522 114.3001907  26.7406492  35.1859995
 115.8108577  26.6628289  35.2469168 117.8241635  23.4624951  41.5993173
 118.3476037  23.7087248  42.3619483 117.6053968  24.2944986  41.1796311
 113.2208916  25.7328626  29.4664298 112.8921622  24.8526005  29.2839404
 113.5748287  25.6776294  30.3540687 116.3350739  26.0201595  29.8339776
 116.6746812  26.5487517  29.1118384 116.7822860  26.3582002  30.6098342
 119.0294180  24.4038646  39.2842844 118.6891000  23.6046459  39.6863524
 118.3233186  24.7040357  38.7119677 119.6810652  21.4887959  37.7370167
 120.5036721  21.0148437  37.6149057 119.9248715  22.2678442  38.2368853
 117.2049231  28.1807079  35.5462146 117.0593811  28.4947382  36.4386427
 116.7274434  28.7991980  34.9933044 119.0645613  25.1709627  35.5943035
 119.0507182  24.2750720  35.2575333 119.7818042  25.1780291  36.2281321
 120.9171744  25.6046967  37.6396163 120.6589522  26.5264038  37.6380493
 120.3856785  25.2077402  38.3296627 111.6794893  30.7212424  38.4849807
 111.1348361  31.4972232  38.6170081 112.5574243  31.0683228  38.3268928
 118.4682509  24.0524007  30.8630605 118.5898421  23.1240654  31.0621493
 118.1784552  24.0662693  29.9508921 112.4660915  29.8482320  41.3779964
 111.7242651  29.9964955  41.9644594 112.1453659  30.1090585  40.5146713
 120.4104577  39.3898298  41.1760354 120.7191704  39.1447445  42.0483053
 121.2080059  39.5944937  40.6879224 120.4325189  41.5436208  33.4065730
 119.9930180  41.0512586  34.0998587 121.1833306  41.0009175  33.1657805
 112.9117528  37.7347749  33.4090358 113.7375548  37.4351520  33.0289002
 112.5611580  36.9655371  33.8580147 117.8799061  37.0874217  35.4788032
 117.2579071  36.4244922  35.1790260 118.5503928  37.1135349  34.7961680
 111.1126133  35.6534075  34.3679292 110.2758042  35.2256249  34.1863293
 111.0849779  35.8466518  35.3050083 117.9523589  25.5656005  45.0720538
 118.0011744  26.4418128  44.6898307 118.4946103  25.0233398  44.4992181
 117.4412568  35.6378140  28.9546492 117.5900689  36.3213605  28.3013165
 118.2479012  35.6183230  29.4695948 120.1822877  26.3187377  41.8266897
 119.3126187  26.6120943  41.5549485 120.4182358  26.9027822  42.5474160
 115.1965201  31.6643318  29.9607561 114.9511243  30.7605648  30.1587771
 115.3661116  31.6660468  29.0187039 114.4660849  27.3971675  27.4593723
 113.7730094  27.4716030  26.8033759 114.2212601  26.6332019  27.9815240
 120.9407974  38.1326271  26.4258240 120.3681941  38.7516458  25.9728712
 121.5140768  38.6825632  26.9598162 121.2093465  33.5204829  45.2274949
 122.1296474  33.6983428  45.4214996 121.1743048  32.5760875  45.0754649
 110.4275630  28.7143423  34.1528224 110.1078414  27.8608731  33.8602598
 109.8809058  28.9292001  34.9086191 114.2055537  31.4305864  37.8697730
 114.4241547  32.3622972  37.8885764 114.6181311  31.0713839  38.6552534
 119.0783403  27.0039070  47.2600479 118.9780130  27.9533427  47.1912570
 118.8604945  26.6757309  46.3876549 110.2963890  32.3346335  36.1221346
 109.6027361  31.9200287  35.6091300 111.0436881  32.3766871  35.5254764
 118.9414673  30.4336209  46.0765541 118.4581755  31.2336569  46.2829430
 119.0275612  30.4444154  45.1232985 112.2100632  32.2664588  33.9987360
 112.1871321  32.3652276  33.0469244 112.5201269  33.1129739  34.3204527
 114.8688010  34.3240743  38.1133975 115.8231264  34.2924686  38.0463906
 114.6700534  33.8631367  38.9284201 115.4587392  32.8941859  40.6804773
 116.2780281  33.3885938  40.7039610 115.7324200  31.9773828  40.6522340
 113.2238239  39.8660363  35.1304173 113.0892707  39.1060764  34.5642171
 112.8070301  40.5901263  34.6632962 116.3807365  40.7629680  35.3422615
 116.2639749  41.7075112  35.2401306 115.5599811  40.4603242  35.7308415
 110.7122307  27.2279993  41.3796970 111.3581170  26.7178947  41.8684195
 110.5039458  27.9648675  41.9540395 117.4061879  41.4157942  38.5578544
 118.3089126  41.4481552  38.8745039 117.1799249  40.4858393  38.5724880
 119.1615481  40.1688928  35.2188622 118.2111112  40.1690790  35.1052995
 119.4647967  39.4221663  34.7024657 115.0519798  24.3747610  45.4771984
 115.9151259  24.0184415  45.6875308 114.4785208  24.0361505  46.1647388
 121.9103231  43.4009848  37.4657619 122.1611270  44.2856858  37.7315195
 122.4462780  43.2214449  36.6932711 119.1238275  46.5741750  33.9953575
 119.8109315  46.2603480  33.4074590 118.9686404  47.4783115  33.7220826
 118.7006251  44.6542343  36.2671042 118.7390351  44.1205934  37.0608160
 118.1946544  44.1277549  35.6482019 121.9519888  50.9825993  34.3679292
 121.1151796  50.5548167  34.1863293 121.9243533  51.1758436  35.3050083
 121.2669384  44.0435341  34.1528224 120.9472169  43.1900649  33.8602598
 120.7202813  44.2583919  34.9086191 121.1357644  47.6638252  36.1221346
 120.4421116  47.2492205  35.6091300 121.8830635  47.7058789  35.5254764
 121.5516061  42.5571911  41.3796970 122.1974925  42.0470865  41.8684195
 121.3433212  43.2940593  41.9540395   3.6505058  55.7770958 105.8971480
   2.9766757  56.0802655 106.5056438   4.0370880  56.5800039 105.5476937
   5.7412528  47.5679171 104.4318920   5.1241698  46.8426000 104.3351973
   5.2729016  48.3288532 104.0885994   7.6161799  53.3556442 107.1711303
   8.3112703  53.9763135 107.3898618   7.9584949  52.5051793 107.4463681
   1.7076667  53.4618194 106.0786397   1.1350634  54.0808381 105.6256869
   2.2809461  54.0117555 106.6126319   4.9273927  53.7455344 107.2094979
   5.8604600  53.6800905 107.4127855   4.8397140  54.5811611 106.7509512
   7.5561943  53.0621214 104.1698927   7.4775575  52.7281078 105.0634685
   8.3771610  53.5542982 104.1690399   5.1265895  50.3789209 103.7908905
   5.8301745  50.5839212 104.4066561   4.4028544  50.9465971 104.0557989
   7.0352593  50.8171739 105.8407365   7.8698197  50.3852937 105.6584840
   6.8736936  50.6453752 106.7684260  15.6636868  61.3341390 115.9362542
  16.3015278  61.2148137 115.2325882  15.5457711  62.2822234 115.9950494
  12.4726574  61.2868818 115.8724067  12.1345086  61.1709883 114.9844601
  13.3416342  60.8859983 115.8525073   8.3313390  63.1404294 111.8620958
   7.7678255  63.0494231 111.0937245   8.2165785  62.3204199 112.3423450
  13.9112948  66.8075262 107.1735422  13.2600928  67.3929342 106.7869436
  14.7057311  67.3381457 107.2330460   7.8368576  63.8964399 107.5722557
   8.6099452  63.3493386 107.4335433   8.1893974  64.7608648 107.7837018
  10.1734853  60.0557065 105.2041007  10.4260374  59.5338587 104.4424470
   9.2359412  59.8923211 105.3067690  15.2178136  59.0592844 113.0115750
  16.0041225  58.6412267 112.6606167  15.4816841  59.9638936 113.1797398
  15.3888214  64.4965694 107.7104407  14.7534047  64.5700320 108.4225311
  15.0585620  65.0859293 107.0323486  20.6186563  58.9968077 113.9148728
  21.3511735  58.4267294 114.1486558  19.8625919  58.6089677 114.3555234
   9.8931142  61.9585171 107.4065382   9.7767400  61.2830075 108.0746466
  10.0033402  61.4717545 106.5897535  12.2362683  61.4195318 111.1112071
  11.8720890  60.8925939 111.8224992  13.0929799  61.0293787 110.9378556
  11.8768170  56.4485218 106.1073419  12.0442572  57.3165454 106.4743890
  11.6865339  56.6112500 105.1834709  14.6343503  64.9102197 117.7739250
  14.3344226  65.8127236 117.6655057  14.2894563  64.6434380 118.6260403
  18.0340647  57.4284737 115.4536687  17.1257524  57.3600146 115.1595448
  17.9828243  57.9056682 116.2818513  11.8557391  58.9042876 107.0920086
  11.7357016  59.3499926 107.9305567  11.1609979  59.2528193 106.5333624
   9.6164283  71.6746517 110.7410217   9.5388313  72.6254342 110.8198698
   9.0125927  71.3292390 111.3985144  17.5542457  59.3764349 107.9200420
  18.4660313  59.6091735 107.7448118  17.0452104  59.9601393 107.3575499
  16.1612039  64.3590167 115.3114002  15.5320902  64.5235881 114.6090070
  15.7737701  64.7731777 116.0824966  20.0401271  65.2944605 112.6658366
  19.3552309  65.6743506 112.1155399  20.1245121  65.9039932 113.3990313
  11.7140001  64.0964575 112.5764087  12.1778347  64.3752278 111.7868709
  11.4496799  63.1948020 112.3937178  10.6508887  60.2187728 109.3853652
  11.3532931  60.6708771 109.8527578  10.3189516  59.5771546 110.0133545
  18.4098031  65.8176519 117.4376066  19.2315475  65.4156707 117.1558748
  18.4060434  65.7144754 118.3892182  26.5004024  62.1615268 113.7861038
  25.7467732  61.5922666 113.6305042  26.6351565  62.1277932 114.7331673
  11.8902652  67.0328670 109.4615757  11.7548327  67.8780206 109.8900605
  12.4312464  67.2347948 108.6981691   5.3432049  64.5504108 110.0343682
   5.8556570  65.3447359 110.1849247   5.9954762  63.8530399 109.9677284
   7.1526934  67.6669865 112.1166435   7.3293562  68.5887829 111.9287419
   7.9483768  67.3528284 112.5460815   3.3080966  62.8792763 110.8103253
   4.1456188  63.2889771 110.5936961   3.4859234  61.9392205 110.7803447
  15.2045398  60.5467843 106.4987086  14.6892022  61.3172448 106.7375473
  14.9322707  59.8732979 107.1220147  12.7892509  55.3917544 111.5572324
  11.9334106  55.0024394 111.3777963  13.2019461  55.4709505 110.6972110
  20.1779672  63.3000198 108.4340259  19.4009115  62.9611357 107.9895421
  20.8571153  63.3052821 107.7595224  14.9931701  58.4194935 108.3246867
  14.6881837  58.7341085 109.1757010  15.9462144  58.4976355 108.3674200
  13.4378133  64.5785159 109.9739821  12.9099495  63.8437918 109.6613058
  12.9365636  65.3559835 109.7279789  18.4170979  62.7734179 115.0906867
  17.7594654  63.4633441 115.1786996  19.2211378  63.1630611 115.4340854
  17.2276438  61.1278552 113.1410809  17.7408320  61.7608544 113.6432519
  17.8777662  60.5279747 112.7754169   8.4966448  57.2709286 106.3542318
   7.6603760  57.6083973 106.6751592   8.3571218  57.1358266 105.4169455
  11.5830733  62.3965369 102.9774794  10.6757795  62.1654622 103.1765943
  12.0801765  61.6002988 103.1648776  14.4898812  71.1062876 105.8971480
  13.8160511  71.4094573 106.5056438  14.8764634  71.9091956 105.5476937
  14.4892317  60.0019423 110.5171830  15.2364136  60.5140820 110.2078952
  14.7583906  59.6803476 111.3776223  12.7618967  62.4977964 107.4998784
  11.8530186  62.2136997 107.5971254  12.7914051  62.9177042 106.6402091
  17.9938234  66.1084553 111.2689952  17.5400561  65.2675463 111.3255142
  17.3632201  66.7445952 111.6064732  16.9371154  57.0376539 112.4990619
  16.1993911  56.5253926 112.8300862  17.1897927  56.5976921 111.6873896
  16.4371174  67.9461050 112.2039770  16.7294148  68.5066107 111.4852135
  16.9469794  68.2389611 112.9592929  11.3103861  60.1106584 113.6008579
  11.3652471  59.1580421 113.5251056  10.4995063  60.2666023 114.0849878
  12.4595055  64.0386707 104.8386863  12.0214485  63.3222566 104.3792500
  13.2005496  64.2662822 104.2771954   9.2496221  58.7283644 111.3598958
   8.4364086  59.0277815 111.7664150   9.7455215  58.3339333 112.0773441
  11.4004799  68.7241401 113.2933223  11.3580977  68.9502247 112.3641755
  12.3167498  68.4904776 113.4419024  20.5768169  62.3143904 110.8963181
  20.4386068  62.5045500 109.9684370  20.2204388  63.0763287 111.3531232
  20.6037549  64.3820431 115.9074453  21.0374056  64.2895721 116.7557507
  21.3169130  64.3577932 115.2694469   9.5170599  65.6004430 113.0895186
  10.3111198  65.1054750 112.8877761   8.8062292  65.0722293 112.7262891
  14.3365444  67.9822526 117.4407553  14.3902466  68.5513462 118.2085269
  13.4680225  68.1524411 117.0761590   5.8253363  59.7447512 109.1654938
   4.8950951  59.6831967 109.3824901   5.9210835  59.2223465 108.3691580
  21.4653099  64.4244132 118.4407338  21.6588989  65.3289943 118.6866613
  21.3653717  63.9651551 119.2745923  12.0941875  66.1733452 116.7693023
  11.9552961  65.8052236 117.6418961  11.3056472  66.6881091 116.5976981
  12.6890027  71.2742549 108.1118559  12.8641783  70.8030592 108.9264182
  12.0022815  71.9008315 108.3399820  13.6447091  65.5515055 114.1581861
  13.3096923  65.5115825 115.0539510  13.1451036  64.8859771 113.6852271
  16.5806282  62.8971089 104.4318920  15.9635453  62.1717917 104.3351973
  16.1122771  63.6580449 104.0885994   8.3704828  57.1156513 103.5540224
   7.4934294  56.9945314 103.1902471   8.8462581  56.3242592 103.3019113
  11.5568754  69.4682804 110.8002745  10.7736276  70.0104484 110.8940970
  12.2561499  69.9856783 111.1996986  14.8665404  55.2777433 113.4436950
  15.3634104  54.5247396 113.1238021  14.0952386  55.3141750 112.8780160
  22.7195162  60.9817799 115.0855242  22.7085038  61.8642514 114.7149175
  21.8512541  60.6289350 114.8909779  15.9495185  64.0349120 111.0175374
  15.0151464  64.1550583 110.8480078  16.1271853  63.1321587 110.7535384
  19.3367736  59.8766440 111.5525408  19.8028189  60.7094431 111.4785711
  19.7875237  59.4111421 112.2570666  17.4043967  66.2210261 108.5511560
  17.6803811  66.1066856 109.4605434  16.5348466  65.8227746 108.5123733
  14.0398031  70.4696612 112.1944374  14.2220426  69.6518268 112.6572126
  14.8631017  70.6864304 111.7569264  14.3740197  69.3964797 109.4559422
  14.9027963  68.8857252 108.8429584  14.6368417  69.0807327 110.3204955
   3.0983522  58.7098369 108.9953130   3.3936963  57.8009047 108.9420184
   2.1971558  58.6886108 108.6734133  15.0069601  70.4305633 115.8003539
  14.8820740  69.6295373 115.2914484  15.6648692  70.9251826 115.3117509
  17.0704509  68.2314653 117.4283089  16.1234845  68.1120004 117.3561415
  17.4187282  67.3437151 117.5109350   4.8271364  56.3912466 109.1192455
   4.4984070  55.5109845 108.9367561   5.1810734  56.3360135 110.0068845
  14.0750942  68.0267369 113.6287441  13.9275905  67.0984076 113.8095011
  14.9004436  68.0487460 113.1444516   7.9413187  56.6785436 109.4867933
   8.2809259  57.2071357 108.7646541   8.3885307  57.0165842 110.2626500
  17.6785064  68.8495928 114.7152314  18.6031612  68.6438789 114.5776765
  17.5100368  68.6012329 115.6241655   9.9281334  55.1760058 107.6861226
  10.6489696  55.5541310 107.1824943   9.3046638  55.8948935 107.7896204
  14.0712457  55.8805207 108.6219558  14.2876071  56.7629845 108.3208386
  13.5906524  55.4891420 107.8925200  17.4680381  69.3681595 110.0714405
  17.6417258  68.8028018 109.3188258  17.9609272  70.1682490 109.8893895
  10.0744957  54.7107848 110.5158762  10.1960868  53.7824494 110.7149650
   9.7846999  54.7246534 109.6037078  23.3219772  62.1318018 111.6904705
  23.7650918  61.3825343 111.2923828  22.4446282  62.1228155 111.3078437
  18.4555553  68.6848360 107.1711303  19.1506458  69.3055052 107.3898618
  18.7978703  67.8343711 107.4463681  20.3546976  66.1348065 108.6998634
  20.8798300  66.4735338 107.9747954  20.2669329  65.1995080 108.5161769
  12.0387637  72.2020048 113.0593887  11.5992627  71.7096427 113.7526744
  12.7895754  71.6593016 112.8185963   9.0475016  66.2961981 108.6074650
   9.1963136  66.9797445 107.9541322   9.8541459  66.2767071 109.1224105
  21.6656954  66.0370377 121.5624582  21.3741762  66.4000357 122.3988043
  21.0529085  65.3237385 121.3837914  22.8652636  63.6023256 114.0827152
  23.6999528  64.0413061 114.2464713  23.0011765  63.1261910 113.2635398
   6.8027649  62.3227158 109.6135718   6.5573691  61.4189488 109.8115929
   6.9723563  62.3244309 108.6715196   6.0723296  58.0555516 107.1121880
   5.3792541  58.1299871 106.4561916   5.8275048  57.2915860 107.6343397
  12.5470421  68.7910111 106.0786397  11.9744389  69.4100298 105.6256869
  13.1203215  69.3409473 106.6126319  15.7667681  69.0747261 107.2094979
  16.6998354  69.0092823 107.4127855  15.6790894  69.9103528 106.7509512
  18.3955698  68.3913132 104.1698927  18.3169329  68.0572995 105.0634685
  19.2165365  68.8834900 104.1690399  21.0933889  61.2574871 117.3775245
  21.0610209  60.3190872 117.5634929  21.7034513  61.3358908 116.6441070
  12.9317220  60.1270924 103.4202449  13.8776325  59.9977132 103.4890867
  12.5531465  59.3885586 103.8971878  26.9110439  62.3190878 116.5181282
  27.6413827  62.0576166 117.0788986  26.3017384  61.5819600 116.5583350
  24.9925736  60.4598740 117.1155733  24.2658900  60.3254705 116.5072225
  24.5773023  60.7675569 117.9212451  11.1160137  58.0520900 103.3557335
  10.2091593  57.7554013 103.4320048  11.3936118  57.7550719 102.4891621
  12.7322203  52.5957790 109.5101576  11.9222931  52.2504875 109.8856822
  13.4206620  52.2865334 110.0989188   9.8858922  54.9107836 103.4969314
  10.7478086  55.2362734 103.7565131  10.0709266  54.1239332 102.9842380
  18.0391558  53.7836362 110.6404537  17.4590227  54.4421166 110.2582589
  17.7727491  52.9613707 110.2291954  16.8216436  55.9436452 109.6960885
  15.9342291  56.2286103 109.4781080  17.2370425  55.7830216 108.8488162
  20.1730972  55.9682973 113.4115224  20.9491362  56.4579426 113.6839841
  19.4479107  56.3941028 113.8687094  22.6103531  56.6810593 114.4689165
  23.2048022  56.4406329 113.7582473  22.6830115  55.9617723 115.0962701
  15.9659650  65.7081127 103.7908905  16.6695500  65.9131130 104.4066561
  15.2422298  66.2757889 104.0557989  16.7957460  61.4590988 109.9111175
  16.7392661  61.9159540 109.0718808  17.3485802  60.6981673 109.7334018
  20.6062266  57.2480720 110.7361295  20.3499200  56.8477356 111.5669502
  19.9815134  57.9624514 110.6111434  24.9174604  59.9876794 113.2432586
  24.3574162  60.0569983 114.0164148  24.3118107  59.8117778 112.5232082
  17.8746347  66.1463656 105.8407365  18.7091951  65.7144855 105.6584840
  17.7130690  65.9745670 106.7684260  17.5292239  62.6495770 107.2063704
  17.4741043  62.4840041 106.2652149  16.9038295  63.3571803 107.3625894
  10.8388365  52.1503879 106.7849023  10.8267035  53.0945719 106.9417294
  11.7311787  51.9674024 106.4908484  26.5030622  76.6633307 115.9362542
  27.1409032  76.5440055 115.2325882  26.3851465  77.6114151 115.9950494
  23.3120328  76.6160736 115.8724067  22.9738840  76.5001800 114.9844601
  24.1810097  76.2151901 115.8525073  19.1707144  78.4696212 111.8620958
  18.6072009  78.3786149 111.0937245  19.0559539  77.6496116 112.3423450
  24.7506703  82.1367180 107.1735422  24.0994683  82.7221260 106.7869436
  25.5451066  82.6673375 107.2330460  18.6762330  79.2256317 107.5722557
  19.4493206  78.6785304 107.4335433  19.0287729  80.0900566 107.7837018
  21.4403579  77.9309548 117.3690816  22.0367152  77.7065570 116.6547779
  21.4978551  77.1894293 117.9716264  21.0128608  75.3848983 105.2041007
  21.2654129  74.8630504 104.4424470  20.0753167  75.2215128 105.3067690
  26.0571891  74.3884761 113.0115750  26.8434980  73.9704184 112.6606167
  26.3210595  75.2930854 113.1797398  26.2281968  79.8257612 107.7104407
  25.5927801  79.8992238 108.4225311  25.8979374  80.4151210 107.0323486
  31.4580318  74.3259995 113.9148728  32.1905490  73.7559211 114.1486558
  30.7019674  73.9381595 114.3555234  20.7324897  77.2877089 107.4065382
  20.6161155  76.6121992 108.0746466  20.8427156  76.8009463 106.5897535
  23.0756438  76.7487236 111.1112071  22.7114645  76.2217857 111.8224992
  23.9323553  76.3585705 110.9378556  28.9805738  68.0381569 118.3743337
  28.6489063  68.9076980 118.1504552  28.3851352  67.7217853 119.0537367
  22.7161925  71.7777136 106.1073419  22.8836327  72.6457372 106.4743890
  22.5259094  71.9404417 105.1834709  25.4737258  80.2394115 117.7739250
  25.1737981  81.1419153 117.6655057  25.1288317  79.9726298 118.6260403
  18.9249739  76.6907911 113.8075954  18.0000236  76.5584126 114.0153646
  19.1734152  77.4702131 114.3045897  28.8734401  72.7576655 115.4536687
  27.9651279  72.6892063 115.1595448  28.8221997  73.2348600 116.2818513
  22.6951145  74.2334793 107.0920086  22.5750771  74.6791844 107.9305567
  22.0003734  74.5820111 106.5333624  20.4558038  87.0038435 110.7410217
  20.3782067  87.9546260 110.8198698  19.8519681  86.6584307 111.3985144
  30.7396048  70.9593093 117.2314561  30.0970428  71.2525626 116.5854356
  30.2350976  70.8446014 118.0367758  28.3936212  74.7056266 107.9200420
  29.3054068  74.9383653 107.7448118  27.8845859  75.2893311 107.3575499
  26.6776979  79.1280894 121.5561713  27.0860335  78.6863305 120.8116345
  25.9554241  78.5533522 121.8095906  23.0308049  74.0653501 118.9295270
  23.8769244  74.4892915 119.0729919  22.9706687  73.4087125 119.6233833
  27.0005794  79.6882085 115.3114002  26.3714656  79.8527799 114.6090070
  26.6131456  80.1023694 116.0824966  30.8795026  80.6236523 112.6658366
  30.1946064  81.0035424 112.1155399  30.9638875  81.2331849 113.3990313
  26.1807495  71.7257869 120.5876443  25.9368426  72.4799930 120.0510719
  26.4567425  72.1043217 121.4223691  28.1345957  78.2696482 119.2653709
  28.3462853  78.9128242 118.5888090  28.0875706  77.4358798 118.7975639
  25.7372186  70.8814302 116.1690281  24.8756665  71.1795556 116.4607019
  25.7634621  71.0984701 115.2371314  22.5533756  79.4256493 112.5764087
  23.0172101  79.7044196 111.7868709  22.2890554  78.5239938 112.3937178
  19.4457837  78.9727974 115.5143850  20.0159194  79.4015243 114.8761335
  20.0365949  78.6910559 116.2128036  21.4902642  75.5479645 109.3853652
  22.1926685  76.0000689 109.8527578  21.1583270  74.9063464 110.0133545
  15.2327976  73.8063198 114.6870786  14.4427030  74.0620727 114.2110896
  15.7239223  74.6211536 114.7922826  29.2491785  81.1468437 117.4376066
  30.0709229  80.7448624 117.1558748  29.2454188  81.0436671 118.3892182
  17.1842721  74.1707777 111.6454262  16.3873884  74.2826471 112.1637758
  16.9568313  74.5094429 110.7795153  37.3397778  77.4907186 113.7861038
  36.5861487  76.9214584 113.6305042  37.4745320  77.4569850 114.7331673
  22.7296406  82.3620588 109.4615757  22.5942081  83.2072124 109.8900605
  23.2706219  82.5639866 108.6981691  16.1825804  79.8796026 110.0343682
  16.6950324  80.6739276 110.1849247  16.8348517  79.1822316 109.9677284
  17.9920689  82.9961782 112.1166435  18.1687317  83.9179747 111.9287419
  18.7877522  82.6820201 112.5460815  22.1331707  69.8570047 123.7150369
  22.8741420  70.4577200 123.6354831  22.3649630  69.1147685 123.1568412
  26.0788870  65.8851150 117.9914651  25.7353139  66.7752791 117.9153761
  26.4467833  65.6952807 117.1284236  14.1474721  78.2084680 110.8103253
  14.9849943  78.6181689 110.5936961  14.3252988  77.2684122 110.7803447
  26.0439153  75.8759761 106.4987086  25.5285776  76.6464366 106.7375473
  25.7716461  75.2024897 107.1220147  23.6286264  70.7209462 111.5572324
  22.7727860  70.3316312 111.3777963  24.0413215  70.8001423 110.6972110
  25.1585410  68.2555805 115.9563884  24.6550206  68.2185940 115.1431689
  25.4516017  69.1648548 116.0160541  21.4028296  68.3394535 114.9630066
  22.2681293  68.1437343 114.6035955  21.4705805  68.1104886 115.8899422
  31.0173427  78.6292116 108.4340259  30.2402870  78.2903275 107.9895421
  31.6964908  78.6344739 107.7595224  25.8325456  73.7486853 108.3246867
  25.5275591  74.0633002 109.1757010  26.7855898  73.8268273 108.3674200
  24.2771888  79.9077076 109.9739821  23.7493249  79.1729836 109.6613058
  23.7759390  80.6851753 109.7279789  29.2564734  78.1026097 115.0906867
  28.5988408  78.7925358 115.1786996  30.0605133  78.4922529 115.4340854
  19.0090615  70.5696743 112.3346432  19.5834367  70.3471924 111.6019625
  19.5961598  70.6385437 113.0875034  28.0670193  76.4570470 113.1410809
  28.5802074  77.0900461 113.6432519  28.7171416  75.8571665 112.7754169
  19.3360202  72.6001204 106.3542318  18.4997515  72.9375890 106.6751592
  19.1964972  72.4650183 105.4169455  21.3113283  67.4437992 111.0621502
  20.6577695  67.1287009 110.4378117  21.2693757  66.8213732 111.7881325
  22.4224488  77.7257287 102.9774794  21.5151550  77.4946540 103.1765943
  22.9195520  76.9294906 103.1648776  25.3292567  86.4354794 105.8971480
  24.6554266  86.7386491 106.5056438  25.7158389  87.2383874 105.5476937
  24.5451023  73.9319925 115.3869150  23.6273585  74.1534872 115.2290838
  24.9611167  74.0066236 114.5280857  25.3286071  75.3311341 110.5171830
  26.0757890  75.8432738 110.2078952  25.5977661  75.0095393 111.3776223
  23.6012721  77.8269881 107.4998784  22.6923941  77.5428914 107.5971254
  23.6307805  78.2468960 106.6402091  28.8331989  81.4376471 111.2689952
  28.3794316  80.5967381 111.3255142  28.2025955  82.0737869 111.6064732
  27.7764908  72.3668457 112.4990619  27.0387665  71.8545843 112.8300862
  28.0291682  71.9268839 111.6873896  27.2764928  83.2752968 112.2039770
  27.5687902  83.8358025 111.4852135  27.7863549  83.5681529 112.9592929
  27.8776536  65.1444709 113.0932388  28.1835412  64.2842072 112.8058303
  28.6029140  65.7362329 112.8931382  14.1700892  75.5475396 111.4813986
  13.9725292  74.9544756 110.7565053  13.6147556  75.2427606 112.1989925
  22.1497615  75.4398502 113.6008579  22.2046225  74.4872338 113.5251056
  21.3388817  75.5957941 114.0849878  23.2988809  79.3678625 104.8386863
  22.8608239  78.6514484 104.3792500  24.0399250  79.5954740 104.2771954
  20.0889975  74.0575562 111.3598958  19.2757841  74.3569732 111.7664150
  20.5848969  73.6631251 112.0773441  22.2398553  84.0533319 113.2933223
  22.1974732  84.2794165 112.3641755  23.1561252  83.8196693 113.4419024
  25.6864187  74.5217386 120.1913852  26.0413575  74.7488859 121.0508318
  26.3336318  74.8535763 119.5691107  31.4161924  77.6435822 110.8963181
  31.2779823  77.8337418 109.9684370  31.0598143  78.4055205 111.3531232
  19.5804050  71.6293917 116.9760193  20.2203429  71.4882676 116.2783157
  18.7481581  71.3428431 116.5998795  31.4431304  79.7112349 115.9074453
  31.8767810  79.6187638 116.7557507  32.1562884  79.6869850 115.2694469
  20.3564354  80.9296348 113.0895186  21.1504952  80.4346668 112.8877761
  19.6456046  80.4014211 112.7262891  25.1759198  83.3114443 117.4407553
  25.2296221  83.8805380 118.2085269  24.3073980  83.4816328 117.0761590
  16.6647117  75.0739429 109.1654938  15.7344706  75.0123885 109.3824901
  16.7604589  74.5515382 108.3691580  16.5832666  71.5994242 111.7533180
  16.8439484  72.5139576 111.6442341  17.4049839  71.1318685 111.9029793
  32.3046853  79.7536050 118.4407338  32.4982743  80.6581860 118.6866613
  32.2047471  79.2943469 119.2745923  23.9583164  69.6393940 120.9397665
  23.3111079  70.3383890 120.8462142  24.7284179  70.0730084 121.3073914
  24.1347298  77.4774705 118.9994485  25.0639358  77.6285865 118.8263452
  23.7138328  77.5658726 118.1443132  22.9335630  81.5025370 116.7693023
  22.7946716  81.1344154 117.6418961  22.1450226  82.0173009 116.5976981
  23.5283782  86.6034466 108.1118559  23.7035538  86.1322509 108.9264182
  22.8416570  87.2300232 108.3399820  24.4840845  80.8806972 114.1581861
  24.1490678  80.8407742 115.0539510  23.9844791  80.2151688 113.6852271
  27.4200037  78.2263007 104.4318920  26.8029207  77.5009835 104.3351973
  26.9516525  78.9872367 104.0885994  29.0754168  82.9361915 122.0924701
  29.0166715  82.2521135 121.4255284  29.4773687  83.6780905 121.6405327
  19.2098583  72.4448431 103.5540224  18.3328049  72.3237232 103.1902471
  19.6856336  71.6534509 103.3019113  29.0771576  80.9001499 120.3238680
  28.1898354  80.5627421 120.4465079  29.6470127  80.1684530 120.5607446
  22.3962509  84.7974721 110.8002745  21.6130031  85.3396402 110.8940970
  23.0955254  85.3148701 111.1996986  25.7059159  70.6069351 113.4436950
  26.2027858  69.8539313 113.1238021  24.9346140  70.6433668 112.8780160
  33.5588916  76.3109716 115.0855242  33.5478792  77.1934432 114.7149175
  32.6906296  75.9581267 114.8909779  26.7888940  79.3641038 111.0175374
  25.8545218  79.4842501 110.8480078  26.9665608  78.4613505 110.7535384
  22.2894128  72.7486734 113.1708635  21.9191915  72.1957774 113.8589541
  22.7853220  72.1444867 112.6183635  30.1761491  75.2058357 111.5525408
  30.6421943  76.0386349 111.4785711  30.6268991  74.7403339 112.2570666
  28.2437722  81.5502179 108.5511560  28.5197566  81.4358773 109.4605434
  27.3742221  81.1519664 108.5123733  28.1478154  67.5738944 115.5916309
  27.2341233  67.8043171 115.7598516  28.5771255  67.6577388 116.4430342
  27.9184612  75.7628836 118.0916203  27.2656062  76.0104744 117.4368656
  28.2964992  74.9492975 117.7578681  24.8791786  85.7988530 112.1944374
  25.0614181  84.9810185 112.6572126  25.7024772  86.0156222 111.7569264
  25.2133951  84.7256715 109.4559422  25.7421718  84.2149169 108.8429584
  25.4762171  84.4099245 110.3204955  17.6859461  70.1590725 119.4161741
  17.7500788  71.0205556 119.0039139  17.6226581  69.5464726 118.6834100
  13.9377277  74.0390286 108.9953130  14.2330718  73.1300965 108.9420184
  13.0365312  74.0178026 108.6734133  25.8463355  85.7597550 115.8003539
  25.7214495  84.9587290 115.2914484  26.5042446  86.2543744 115.3117509
  17.4671524  72.1146283 114.9780679  16.7458109  72.7282251 114.8388152
  18.2564779  72.6504048 114.8997325  27.9098264  83.5606570 117.4283089
  26.9628599  83.4411922 117.3561415  28.2581037  82.6729069 117.5109350
  20.2697837  69.4500709 121.2521331  20.7932239  69.6963006 122.0147640
  20.0510170  70.2820744 120.8324468  15.6665118  71.7204384 109.1192455
  15.3377824  70.8401763 108.9367561  16.0204489  71.6652053 110.0068845
  24.9144697  83.3559287 113.6287441  24.7669659  82.4275994 113.8095011
  25.7398190  83.3779377 113.1444516  18.7806941  72.0077354 109.4867933
  19.1203014  72.5363275 108.7646541  19.2279062  72.3457760 110.2626500
  28.5178819  84.1787845 114.7152314  29.4425366  83.9730707 114.5776765
  28.3494122  83.9304247 115.6241655  21.4750382  70.3914405 118.9371001
  21.1347202  69.5922218 119.3391681  20.7689388  70.6916115 118.3647834
  22.1266854  67.4763717 117.3898324  22.9492923  67.0024195 117.2677214
  22.3704917  68.2554201 117.8897010  20.7675088  70.5051975 107.6861226
  21.4883451  70.8833228 107.1824943  20.1440393  71.2240852 107.7896204
  24.9106211  71.2097124 108.6219558  25.1269826  72.0921762 108.3208386
  24.4300278  70.8183338 107.8925200  19.6505433  74.1682838 115.1990303
  19.5050013  74.4823141 116.0914584  19.1730636  74.7867738 114.6461201
  21.5101816  71.1585386 115.2471192  21.4963384  70.2626479 114.9103490
  22.2274244  71.1656049 115.8809478  23.3627946  71.5922726 117.2924320
  23.1045724  72.5139796 117.2908650  22.8312987  71.1953160 117.9824784
  28.3074135  84.6973513 110.0714405  28.4811013  84.1319935 109.3188258
  28.8003026  85.4974408 109.8893895  20.9138711  70.0399766 110.5158762
  21.0354623  69.1116412 110.7149650  20.6240754  70.0538452 109.6037078
  23.7829902  67.7254676 113.6525482  23.8051599  67.7894009 112.6977462
  24.1997961  66.8859185 113.8465988  34.1613526  77.4609936 111.6904705
  34.6044672  76.7117261 111.2923828  33.2840036  77.4520072 111.3078437
  29.2949308  84.0140277 107.1711303  29.9900212  84.6346970 107.3898618
  29.6372458  83.1635629 107.4463681  31.1940731  81.4639983 108.6998634
  31.7192055  81.8027256 107.9747954  31.1063083  80.5286998 108.5161769
  22.8781391  87.5311966 113.0593887  22.4386382  87.0388345 113.7526744
  23.6289508  86.9884934 112.8185963  31.0032512  78.9465353 121.3182561
  31.0530517  78.7815360 122.2598083  30.8946435  78.0792612 120.9280441
  19.8868770  81.6253899 108.6074650  20.0356891  82.3089363 107.9541322
  20.6935214  81.6058989 109.1224105  28.2936274  74.9296281 122.6341867
  29.1946137  74.7902746 122.3425865  28.3684249  75.0950736 123.5740045
  22.6279079  72.3063136 121.4795054  21.7582389  72.5996702 121.2077642
  22.8638560  72.8903581 122.2002317  32.5050709  81.3662294 121.5624582
  32.2135517  81.7292275 122.3988043  31.8922840  80.6529303 121.3837914
  33.7046391  78.9315174 114.0827152  34.5393282  79.3704978 114.2464713
  33.8405520  78.4553827 113.2635398  30.7537897  76.4894909 120.0304640
  31.2292018  76.6822555 119.2223492  29.8303462  76.5454095 119.7848024
  17.6421403  77.6519076 109.6135718  17.3967445  76.7481406 109.8115929
  17.8117318  77.6536227 108.6715196  25.3318113  68.5242753 118.9960474
  25.8500057  69.2603779 118.6706963  24.9773246  68.8306746 119.8307233
  16.9117051  73.3847434 107.1121880  16.2186296  73.4591789 106.4561916
  16.6668803  72.6207777 107.6343397  25.5830707  64.9443035 114.5161371
  25.8632461  64.2766224 115.1421797  26.3681314  65.1372131 114.0036034
  23.3864176  84.1202029 106.0786397  22.8138143  84.7392216 105.6256869
  23.9596970  84.6701391 106.6126319  29.4539566  73.3660669 118.2632946
  30.4056989  73.4658767 118.2845170  29.2843016  72.5738938 118.7731030
  27.4753945  70.4516252 118.4492347  26.8803877  70.7321265 117.7538835
  27.1903642  70.9410153 119.2209088  26.6061436  84.4039179 107.2094979
  27.5392109  84.3384741 107.4127855  26.5184649  85.2395446 106.7509512
  29.2349452  83.7205049 104.1698927  29.1563084  83.3864913 105.0634685
  30.0559119  84.2126817 104.1690399  31.9327644  76.5866789 117.3775245
  31.9003964  75.6482789 117.5634929  32.5428267  76.6650825 116.6441070
  23.7710974  75.4562842 103.4202449  24.7170079  75.3269050 103.4890867
  23.3925219  74.7177504 103.8971878  32.0822132  73.3777832 117.4233529
  31.5661181  72.5936289 117.2363457  32.9662081  73.0496549 117.5880048
  29.7432859  67.1218848 113.3829341  29.5457680  66.8133936 114.2672673
  30.3532565  67.8480487 113.5127271  37.7504193  77.6482796 116.5181282
  38.4807582  77.3868084 117.0788986  37.1411139  76.9111518 116.5583350
  35.8319491  75.7890658 117.1155733  35.1052654  75.6546623 116.5072225
  35.4166777  76.0967487 117.9212451  21.9553892  73.3812818 103.3557335
  21.0485347  73.0845931 103.4320048  22.2329873  73.0842636 102.4891621
  23.5715957  67.9249708 109.5101576  22.7616686  67.5796793 109.8856822
  24.2600374  67.6157252 110.0989188  25.5006506  67.0027755 111.1325873
  26.0537544  67.4223208 111.7915896  25.7376592  66.0763503 111.1748829
  20.7252676  70.2399753 103.4969314  21.5871840  70.5654652 103.7565131
  20.9103020  69.4531249 102.9842380  28.8785313  69.1128280 110.6404537
  28.2983982  69.7713084 110.2582589  28.6121245  68.2905624 110.2291954
  27.3288879  68.5133338 112.8425857  27.8288657  68.6249872 112.0340176
  27.9724487  68.2094390 113.4826666  27.6610191  71.2728370 109.6960885
  26.7736046  71.5578021 109.4781080  28.0764180  71.1122134 108.8488162
  31.0124727  71.2974891 113.4115224  31.7885117  71.7871344 113.6839841
  30.2872861  71.7232945 113.8687094  33.4497285  72.0102510 114.4689165
  34.0441776  71.7698246 113.7582473  33.5223869  71.2909641 115.0962701
  26.8053404  81.0373045 103.7908905  27.5089254  81.2423047 104.4066561
  26.0816053  81.6049807 104.0557989  27.6351214  76.7882906 109.9111175
  27.5786416  77.2451458 109.0718808  28.1879557  76.0273591 109.7334018
  31.4456020  72.5772638 110.7361295  31.1892955  72.1769274 111.5669502
  30.8208888  73.2916432 110.6111434  35.7568358  75.3168711 113.2432586
  35.1967916  75.3861901 114.0164148  35.1511862  75.1409696 112.5232082
  28.7140102  81.4755574 105.8407365  29.5485706  81.0436773 105.6584840
  28.5524445  81.3037588 106.7684260  28.3685994  77.9787687 107.2063704
  28.3134798  77.8131959 106.2652149  27.7432049  78.6863720 107.3625894
  21.6782119  67.4795796 106.7849023  21.6660789  68.4237636 106.9417294
  22.5705541  67.2965942 106.4908484  25.4934239  64.0738573 111.0394960
  24.7266635  63.5197060 111.1851642  25.9044944  64.1460442 111.9009111
  37.3424377  91.9925225 115.9362542  37.9802787  91.8731973 115.2325882
  37.2245220  92.9406069 115.9950494  34.1514083  91.9452653 115.8724067
  33.8132594  91.8293718 114.9844601  35.0203851  91.5443818 115.8525073
  30.0100899  93.7988130 111.8620958  29.4465764  93.7078067 111.0937245
  29.8953294  92.9788034 112.3423450  35.5900457  97.4659097 107.1735422
  34.9388437  98.0513178 106.7869436  36.3844820  97.9965292 107.2330460
  29.5156085  94.5548235 107.5722557  30.2886961  94.0077222 107.4335433
  29.8681483  95.4192484 107.7837018  32.2797334  93.2601465 117.3690816
  32.8760906  93.0357488 116.6547779  32.3372305  92.5186211 117.9716264
  31.8522362  90.7140901 105.2041007  32.1047883  90.1922422 104.4424470
  30.9146921  90.5507046 105.3067690  36.8965645  89.7176679 113.0115750
  37.6828734  89.2996102 112.6606167  37.1604350  90.6222771 113.1797398
  37.0675723  95.1549529 107.7104407  36.4321556  95.2284156 108.4225311
  36.7373129  95.7443128 107.0323486  42.2974072  89.6551912 113.9148728
  43.0299244  89.0851129 114.1486558  41.5413428  89.2673513 114.3555234
  31.5718651  92.6169007 107.4065382  31.4554909  91.9413910 108.0746466
  31.6820911  92.1301381 106.5897535  33.9150192  92.0779154 111.1112071
  33.5508399  91.5509775 111.8224992  34.7717308  91.6877623 110.9378556
  39.8199493  83.3673486 118.3743337  39.4882817  84.2368897 118.1504552
  39.2245106  83.0509770 119.0537367  33.5555679  87.1069053 106.1073419
  33.7230081  87.9749290 106.4743890  33.3652848  87.2696335 105.1834709
  36.3131012  95.5686032 117.7739250  36.0131735  96.4711071 117.6655057
  35.9682072  95.3018216 118.6260403  29.7643494  92.0199829 113.8075954
  28.8393990  91.8876043 114.0153646  30.0127907  92.7994048 114.3045897
  39.7128156  88.0868572 115.4536687  38.8045033  88.0183981 115.1595448
  39.6615752  88.5640517 116.2818513  33.5344900  89.5626711 107.0920086
  33.4144525  90.0083762 107.9305567  32.8397488  89.9112029 106.5333624
  31.2951792 102.3330353 110.7410217  31.2175822 103.2838178 110.8198698
  30.6913436 101.9876225 111.3985144  41.5789802  86.2885011 117.2314561
  40.9364183  86.5817544 116.5854356  41.0744731  86.1737931 118.0367758
  39.2329966  90.0348184 107.9200420  40.1447822  90.2675571 107.7448118
  38.7239613  90.6185228 107.3575499  37.5170734  94.4572812 121.5561713
  37.9254090  94.0155222 120.8116345  36.7947995  93.8825439 121.8095906
  33.8701804  89.3945419 118.9295270  34.7162999  89.8184832 119.0729919
  33.8100441  88.7379043 119.6233833  37.8399548  95.0174003 115.3114002
  37.2108411  95.1819717 114.6090070  37.4525210  95.4315612 116.0824966
  41.7188780  95.9528440 112.6658366  41.0339818  96.3327342 112.1155399
  41.8032630  96.5623767 113.3990313  37.0201249  87.0549787 120.5876443
  36.7762181  87.8091848 120.0510719  37.2961180  87.4335135 121.4223691
  38.9739712  93.5988399 119.2653709  39.1856607  94.2420159 118.5888090
  38.9269460  92.7650716 118.7975639  36.5765941  86.2106220 116.1690281
  35.7150420  86.5087474 116.4607019  36.6028375  86.4276619 115.2371314
  33.3927510  94.7548411 112.5764087  33.8565856  95.0336114 111.7868709
  33.1284308  93.8531855 112.3937178  30.2851591  94.3019892 115.5143850
  30.8552948  94.7307161 114.8761335  30.8759703  94.0202477 116.2128036
  32.3296396  90.8771563 109.3853652  33.0320440  91.3292607 109.8527578
  31.9977025  90.2355382 110.0133545  26.0721730  89.1355116 114.6870786
  25.2820784  89.3912644 114.2110896  26.5632978  89.9503454 114.7922826
  40.0885540  96.4760355 117.4376066  40.9102984  96.0740542 117.1558748
  40.0847943  96.3728589 118.3892182  28.0236476  89.4999695 111.6454262
  27.2267639  89.6118389 112.1637758  27.7962068  89.8386347 110.7795153
  48.1791533  92.8199103 113.7861038  47.4255241  92.2506501 113.6305042
  48.3139074  92.7861768 114.7331673  33.5690161  97.6912506 109.4615757
  33.4335836  98.5364041 109.8900605  34.1099973  97.8931783 108.6981691
  27.0219558  95.2087944 110.0343682  27.5344079  96.0031194 110.1849247
  27.6742271  94.5114234 109.9677284  28.8314443  98.3253700 112.1166435
  29.0081071  99.2471665 111.9287419  29.6271277  98.0112119 112.5460815
  32.9725462  85.1861965 123.7150369  33.7135175  85.7869118 123.6354831
  33.2043384  84.4439602 123.1568412  36.9182624  81.2143067 117.9914651
  36.5746894  82.1044709 117.9153761  37.2861587  81.0244725 117.1284236
  24.9868475  93.5376598 110.8103253  25.8243697  93.9473606 110.5936961
  25.1646743  92.5976040 110.7803447  36.8832907  91.2051679 106.4987086
  36.3679531  91.9756283 106.7375473  36.6110216  90.5316815 107.1220147
  34.4680018  86.0501379 111.5572324  33.6121615  85.6608230 111.3777963
  34.8806970  86.1293340 110.6972110  35.9979165  83.5847723 115.9563884
  35.4943960  83.5477858 115.1431689  36.2909772  84.4940465 116.0160541
  32.2422051  83.6686452 114.9630066  33.1075048  83.4729261 114.6035955
  32.3099560  83.4396804 115.8899422  41.8567181  93.9584033 108.4340259
  41.0796624  93.6195193 107.9895421  42.5358662  93.9636656 107.7595224
  36.6719210  89.0778771 108.3246867  36.3669346  89.3924920 109.1757010
  37.6249652  89.1560191 108.3674200  35.1165642  95.2368994 109.9739821
  34.5887004  94.5021754 109.6613058  34.6153145  96.0143670 109.7279789
  40.0958488  93.4318014 115.0906867  39.4382163  94.1217276 115.1786996
  40.8998887  93.8214446 115.4340854  29.8484370  85.8988660 112.3346432
  30.4228122  85.6763842 111.6019625  30.4355352  85.9677355 113.0875034
  38.9063947  91.7862387 113.1410809  39.4195829  92.4192379 113.6432519
  39.5565171  91.1863583 112.7754169  30.1753957  87.9293121 106.3542318
  29.3391269  88.2667808 106.6751592  30.0358727  87.7942101 105.4169455
  32.1507038  82.7729909 111.0621502  31.4971450  82.4578926 110.4378117
  32.1087512  82.1505650 111.7881325  33.2618242  93.0549204 102.9774794
  32.3545304  92.8238458 103.1765943  33.7589274  92.2586824 103.1648776
  36.1686321 101.7646711 105.8971480  35.4948020 102.0678408 106.5056438
  36.5552143 102.5675792 105.5476937  35.3844778  89.2611843 115.3869150
  34.4667339  89.4826790 115.2290838  35.8004922  89.3358153 114.5280857
  36.1679826  90.6603258 110.5171830  36.9151645  91.1724656 110.2078952
  36.4371415  90.3387311 111.3776223  34.4406476  93.1561799 107.4998784
  33.5317695  92.8720832 107.5971254  34.4701560  93.5760878 106.6402091
  39.6725743  96.7668389 111.2689952  39.2188070  95.9259299 111.3255142
  39.0419710  97.4029787 111.6064732  38.6158663  87.6960375 112.4990619
  37.8781420  87.1837761 112.8300862  38.8685436  87.2560756 111.6873896
  38.1158682  98.6044885 112.2039770  38.4081657  99.1649942 111.4852135
  38.6257303  98.8973446 112.9592929  38.7170290  80.4736627 113.0932388
  39.0229167  79.6133990 112.8058303  39.4422895  81.0654247 112.8931382
  25.0094646  90.8767313 111.4813986  24.8119046  90.2836674 110.7565053
  24.4541310  90.5719523 112.1989925  32.9891370  90.7690420 113.6008579
  33.0439980  89.8164256 113.5251056  32.1782572  90.9249859 114.0849878
  34.1382564  94.6970543 104.8386863  33.7001994  93.9806402 104.3792500
  34.8793004  94.9246658 104.2771954  30.9283730  89.3867479 111.3598958
  30.1151595  89.6861650 111.7664150  31.4242724  88.9923168 112.0773441
  33.0792308  99.3825236 113.2933223  33.0368486  99.6086083 112.3641755
  33.9955007  99.1488611 113.4419024  36.5257941  89.8509304 120.1913852
  36.8807329  90.0780777 121.0508318  37.1730073  90.1827681 119.5691107
  42.2555678  92.9727740 110.8963181  42.1173577  93.1629336 109.9684370
  41.8991897  93.7347123 111.3531232  30.4197805  86.9585835 116.9760193
  31.0597184  86.8174594 116.2783157  29.5875335  86.6720348 116.5998795
  42.2825058  95.0404267 115.9074453  42.7161565  94.9479556 116.7557507
  42.9956639  95.0161767 115.2694469  31.1958108  96.2588265 113.0895186
  31.9898707  95.7638586 112.8877761  30.4849801  95.7306129 112.7262891
  36.0152953  98.6406361 117.4407553  36.0689975  99.2097297 118.2085269
  35.1467734  98.8108246 117.0761590  27.5040872  90.4031347 109.1654938
  26.5738460  90.3415803 109.3824901  27.5998344  89.8807300 108.3691580
  27.4226421  86.9286160 111.7533180  27.6833238  87.8431493 111.6442341
  28.2443593  86.4610603 111.9029793  43.1440608  95.0827968 118.4407338
  43.3376498  95.9873778 118.6866613  43.0441226  94.6235387 119.2745923
  34.7976918  84.9685858 120.9397665  34.1504833  85.6675808 120.8462142
  35.5677934  85.4022002 121.3073914  34.9741053  92.8066623 118.9994485
  35.9033113  92.9577783 118.8263452  34.5532083  92.8950644 118.1443132
  33.7729384  96.8317287 116.7693023  33.6340470  96.4636072 117.6418961
  32.9843981  97.3464927 116.5976981  34.3677536 101.9326384 108.1118559
  34.5429292 101.4614427 108.9264182  33.6810324 102.5592150 108.3399820
  35.3234600  96.2098890 114.1581861  34.9884432  96.1699660 115.0539510
  34.8238545  95.5443606 113.6852271  38.2593791  93.5554924 104.4318920
  37.6422962  92.8301753 104.3351973  37.7910280  94.3164285 104.0885994
  39.9147923  98.2653833 122.0924701  39.8560469  97.5813053 121.4255284
  40.3167441  99.0072823 121.6405327  30.0492337  87.7740349 103.5540224
  29.1721803  87.6529150 103.1902471  30.5250090  86.9826427 103.3019113
  39.9165330  96.2293417 120.3238680  39.0292109  95.8919339 120.4465079
  40.4863881  95.4976448 120.5607446  33.2356263 100.1266639 110.8002745
  32.4523785 100.6688319 110.8940970  33.9349008 100.6440619 111.1996986
  36.5452913  85.9361269 113.4436950  37.0421613  85.1831231 113.1238021
  35.7739895  85.9725585 112.8780160  44.3982671  91.6401634 115.0855242
  44.3872547  92.5226350 114.7149175  43.5300050  91.2873185 114.8909779
  37.6282694  94.6932956 111.0175374  36.6938973  94.8134418 110.8480078
  37.8059362  93.7905423 110.7535384  33.1287882  88.0778652 113.1708635
  32.7585670  87.5249692 113.8589541  33.6246975  87.4736785 112.6183635
  41.0155245  90.5350275 111.5525408  41.4815698  91.3678267 111.4785711
  41.4662746  90.0695257 112.2570666  39.0831476  96.8794096 108.5511560
  39.3591320  96.7650691 109.4605434  38.2135975  96.4811581 108.5123733
  38.9871908  82.9030862 115.5916309  38.0734988  83.1335089 115.7598516
  39.4165010  82.9869306 116.4430342  38.7578367  91.0920754 118.0916203
  38.1049817  91.3396661 117.4368656  39.1358746  90.2784892 117.7578681
  35.7185540 101.1280447 112.1944374  35.9007935 100.3102103 112.6572126
  36.5418526 101.3448139 111.7569264  36.0527706 100.0548632 109.4559422
  36.5815472  99.5441087 108.8429584  36.3155926  99.7391163 110.3204955
  28.5253216  85.4882642 119.4161741  28.5894542  86.3497473 119.0039139
  28.4620336  84.8756644 118.6834100  24.7771031  89.3682204 108.9953130
  25.0724472  88.4592882 108.9420184  23.8759067  89.3469943 108.6734133
  36.6857110 101.0889468 115.8003539  36.5608249 100.2879208 115.2914484
  37.3436201 101.5835661 115.3117509  28.3065278  87.4438201 114.9780679
  27.5851864  88.0574168 114.8388152  29.0958534  87.9795965 114.8997325
  38.7492018  98.8898488 117.4283089  37.8022354  98.7703839 117.3561415
  39.0974791  98.0020986 117.5109350  31.1091592  84.7792627 121.2521331
  31.6325993  85.0254924 122.0147640  30.8903925  85.6112662 120.8324468
  26.5058873  87.0496302 109.1192455  26.1771579  86.1693681 108.9367561
  26.8598243  86.9943970 110.0068845  35.7538451  98.6851204 113.6287441
  35.6063414  97.7567912 113.8095011  36.5791945  98.7071295 113.1444516
  29.6200696  87.3369271 109.4867933  29.9596768  87.8655193 108.7646541
  30.0672816  87.6749678 110.2626500  39.3572573  99.5079763 114.7152314
  40.2819121  99.3022624 114.5776765  39.1887877  99.2596164 115.6241655
  32.3144137  85.7206322 118.9371001  31.9740957  84.9214135 119.3391681
  31.6083143  86.0208033 118.3647834  32.9660608  82.8055635 117.3898324
  33.7886678  82.3316113 117.2677214  33.2098672  83.5846118 117.8897010
  31.6068843  85.8343893 107.6861226  32.3277205  86.2125146 107.1824943
  30.9834147  86.5532770 107.7896204  35.7499966  86.5389042 108.6219558
  35.9663580  87.4213680 108.3208386  35.2694033  86.1475255 107.8925200
  30.4899187  89.4974755 115.1990303  30.3443768  89.8115058 116.0914584
  30.0124391  90.1159656 114.6461201  32.3495570  86.4877303 115.2471192
  32.3357139  85.5918397 114.9103490  33.0667998  86.4947967 115.8809478
  34.2021701  86.9214643 117.2924320  33.9439479  87.8431714 117.2908650
  33.6706741  86.5245078 117.9824784  39.1467890 100.0265431 110.0714405
  39.3204767  99.4611853 109.3188258  39.6396781 100.8266325 109.8893895
  31.7532466  85.3691684 110.5158762  31.8748377  84.4408330 110.7149650
  31.4634508  85.3830369 109.6037078  34.6223656  83.0546594 113.6525482
  34.6445353  83.1185927 112.6977462  35.0391715  82.2151103 113.8465988
  45.0007281  92.7901853 111.6904705  45.4438427  92.0409179 111.2923828
  44.1233791  92.7811990 111.3078437  40.1343062  99.3432195 107.1711303
  40.8293967  99.9638888 107.3898618  40.4766212  98.4927546 107.4463681
  42.0334485  96.7931900 108.6998634  42.5585809  97.1319173 107.9747954
  41.9456838  95.8578916 108.5161769  33.7175146 102.8603884 113.0593887
  33.2780136 102.3680262 113.7526744  34.4683263 102.3176851 112.8185963
  41.8426266  94.2757271 121.3182561  41.8924271  94.1107278 122.2598083
  41.7340190  93.4084530 120.9280441  30.7262525  96.9545816 108.6074650
  30.8750645  97.6381281 107.9541322  31.5328968  96.9350906 109.1224105
  39.1330029  90.2588199 122.6341867  40.0339891  90.1194663 122.3425865
  39.2078003  90.4242653 123.5740045  33.4672834  87.6355053 121.4795054
  32.5976143  87.9288619 121.2077642  33.7032314  88.2195498 122.2002317
  43.3444463  96.6954212 121.5624582  43.0529271  97.0584193 122.3988043
  42.7316594  95.9821220 121.3837914  44.5440145  94.2607092 114.0827152
  45.3787037  94.6996896 114.2464713  44.6799274  93.7845745 113.2635398
  41.5931651  91.8186827 120.0304640  42.0685773  92.0114473 119.2223492
  40.6697217  91.8746012 119.7848024  28.4815158  92.9810994 109.6135718
  28.2361200  92.0773324 109.8115929  28.6511072  92.9828144 108.6715196
  36.1711868  83.8534670 118.9960474  36.6893812  84.5895697 118.6706963
  35.8167001  84.1598664 119.8307233  27.7510805  88.7139351 107.1121880
  27.0580050  88.7883706 106.4561916  27.5062557  87.9499695 107.6343397
  36.4224462  80.2734953 114.5161371  36.7026216  79.6058142 115.1421797
  37.2075069  80.4664048 114.0036034  34.2257930  99.4493947 106.0786397
  33.6531898 100.0684134 105.6256869  34.7990724  99.9993308 106.6126319
  40.2933320  88.6952587 118.2632946  41.2450743  88.7950684 118.2845170
  40.1236771  87.9030855 118.7731030  38.3147700  85.7808170 118.4492347
  37.7197632  86.0613183 117.7538835  38.0297396  86.2702071 119.2209088
  37.4455190  99.7331097 107.2094979  38.3785863  99.6676658 107.4127855
  37.3578403 100.5687364 106.7509512  40.0743207  99.0496967 104.1698927
  39.9956838  98.7156831 105.0634685  40.8952874  99.5418735 104.1690399
  42.7721398  91.9158706 117.3775245  42.7397718  90.9774707 117.5634929
  43.3822022  91.9942743 116.6441070  34.6104729  90.7854759 103.4202449
  35.5563834  90.6560968 103.4890867  34.2318974  90.0469421 103.8971878
  42.9215887  88.7069750 117.4233529  42.4054935  87.9228206 117.2363457
  43.8055835  88.3788466 117.5880048  40.5826613  82.4510765 113.3829341
  40.3851435  82.1425854 114.2672673  41.1926319  83.1772404 113.5127271
  48.5897948  92.9774713 116.5181282  49.3201336  92.7160001 117.0788986
  47.9804893  92.2403435 116.5583350  46.6713245  91.1182576 117.1155733
  45.9446409  90.9838541 116.5072225  46.2560532  91.4259404 117.9212451
  32.7947646  88.7104736 103.3557335  31.8879101  88.4137848 103.4320048
  33.0723627  88.4134554 102.4891621  34.4109712  83.2541625 109.5101576
  33.6010440  82.9088710 109.8856822  35.0994129  82.9449169 110.0989188
  36.3400260  82.3319672 111.1325873  36.8931299  82.7515126 111.7915896
  36.5770346  81.4055420 111.1748829  31.5646431  85.5691671 103.4969314
  32.4265595  85.8946569 103.7565131  31.7496775  84.7823167 102.9842380
  39.7179067  84.4420197 110.6404537  39.1377736  85.1005001 110.2582589
  39.4515000  83.6197542 110.2291954  38.1682634  83.8425255 112.8425857
  38.6682412  83.9541790 112.0340176  38.8118241  83.5386308 113.4826666
  38.5003945  86.6020288 109.6960885  37.6129800  86.8869938 109.4781080
  38.9157934  86.4414051 108.8488162  41.8518481  86.6266809 113.4115224
  42.6278871  87.1163261 113.6839841  41.1266616  87.0524863 113.8687094
  44.2891040  87.3394428 114.4689165  44.8835531  87.0990164 113.7582473
  44.3617624  86.6201559 115.0962701  37.6447159  96.3664963 103.7908905
  38.3483009  96.5714965 104.4066561  36.9209807  96.9341724 104.0557989
  38.4744969  92.1174824 109.9111175  38.4180170  92.5743375 109.0718808
  39.0273311  91.3565508 109.7334018  42.2849775  87.9064556 110.7361295
  42.0286709  87.5061191 111.5669502  41.6602643  88.6208350 110.6111434
  46.5962113  90.6460629 113.2432586  46.0361671  90.7153818 114.0164148
  45.9905616  90.4701614 112.5232082  39.5533856  96.8047492 105.8407365
  40.3879460  96.3728690 105.6584840  39.3918199  96.6329505 106.7684260
  39.2079748  93.3079605 107.2063704  39.1528552  93.1423876 106.2652149
  38.5825804  94.0155638 107.3625894  32.5175874  82.8087714 106.7849023
  32.5054544  83.7529554 106.9417294  33.4099296  82.6257859 106.4908484
  36.3327993  79.4030491 111.0394960  35.5660389  78.8488977 111.1851642
  36.7438698  79.4752359 111.9009111  44.9907837 107.2744571 115.8724067
  44.6526349 107.1585636 114.9844601  45.8597606 106.8735736 115.8525073
  40.8494653 109.1280047 111.8620958  40.2859518 109.0369984 111.0937245
  40.7347048 108.3079952 112.3423450  46.4294212 112.7951015 107.1735422
  45.7782192 113.3805095 106.7869436  47.2238575 113.3257210 107.2330460
  40.3549839 109.8840152 107.5722557  41.1280715 109.3369139 107.4335433
  40.7075238 110.7484402 107.7837018  42.6916117 106.0432818 105.2041007
  42.9441638 105.5214340 104.4424470  41.7540676 105.8798964 105.3067690
  47.7359400 105.0468597 113.0115750  48.5222489 104.6288020 112.6606167
  47.9998104 105.9514689 113.1797398  47.9069477 110.4841447 107.7104407
  47.2715310 110.5576074 108.4225311  47.5766883 111.0735046 107.0323486
  53.1367827 104.9843830 113.9148728  53.8692999 104.4143047 114.1486558
  52.3807182 104.5965430 114.3555234  42.4112406 107.9460924 107.4065382
  42.2948664 107.2705828 108.0746466  42.5214665 107.4593298 106.5897535
  44.7543947 107.4071071 111.1112071  44.3902154 106.8801692 111.8224992
  45.6111062 107.0169540 110.9378556  50.6593247  98.6965404 118.3743337
  50.3276572  99.5660815 118.1504552  50.0638861  98.3801688 119.0537367
  44.3949433 102.4360971 106.1073419  44.5623836 103.3041207 106.4743890
  44.2046603 102.5988253 105.1834709  40.6037248 107.3491747 113.8075954
  39.6787745 107.2167961 114.0153646  40.8521661 108.1285966 114.3045897
  44.3738654 104.8918629 107.0920086  44.2538280 105.3375679 107.9305567
  43.6791243 105.2403946 106.5333624  42.1345546 117.6622270 110.7410217
  42.0569576 118.6130095 110.8198698  41.5307190 117.3168143 111.3985144
  50.0723721 105.3640102 107.9200420  50.9841577 105.5967489 107.7448118
  49.5633368 105.9477146 107.3575499  47.4159695 101.5398138 116.1690281
  46.5544174 101.8379391 116.4607019  47.4422130 101.7568537 115.2371314
  44.2321265 110.0840328 112.5764087  44.6959610 110.3628031 111.7868709
  43.9678063 109.1823773 112.3937178  41.1245346 109.6311810 115.5143850
  41.6946703 110.0599078 114.8761335  41.7153458 109.3494395 116.2128036
  43.1690151 106.2063481 109.3853652  43.8714194 106.6584524 109.8527578
  42.8370779 105.5647300 110.0133545  36.9115485 104.4647033 114.6870786
  36.1214539 104.7204562 114.2110896  37.4026732 105.2795371 114.7922826
  38.8630230 104.8291613 111.6454262  38.0661393 104.9410307 112.1637758
  38.6355822 105.1678265 110.7795153  44.4083915 113.0204423 109.4615757
  44.2729590 113.8655959 109.8900605  44.9493728 113.2223701 108.6981691
  37.8613313 110.5379861 110.0343682  38.3737833 111.3323112 110.1849247
  38.5136026 109.8406152 109.9677284  39.6708197 113.6545618 112.1166435
  39.8474826 114.5763582 111.9287419  40.4665031 113.3404037 112.5460815
  47.7576379  96.5434985 117.9914651  47.4140648  97.4336627 117.9153761
  48.1255342  96.3536643 117.1284236  35.8262230 108.8668516 110.8103253
  36.6637452 109.2765524 110.5936961  36.0040497 107.9267958 110.7803447
  47.7226662 106.5343596 106.4987086  47.2073285 107.3048201 106.7375473
  47.4503970 105.8608732 107.1220147  45.3073773 101.3793297 111.5572324
  44.4515369 100.9900147 111.3777963  45.7200724 101.4585258 110.6972110
  46.8372919  98.9139640 115.9563884  46.3337715  98.8769775 115.1431689
  47.1303526  99.8232383 116.0160541  43.0815805  98.9978370 114.9630066
  43.9468802  98.8021179 114.6035955  43.1493314  98.7688722 115.8899422
  52.6960936 109.2875951 108.4340259  51.9190379 108.9487110 107.9895421
  53.3752417 109.2928574 107.7595224  47.5112965 104.4070688 108.3246867
  47.2063100 104.7216838 109.1757010  48.4643407 104.4852108 108.3674200
  45.9559397 110.5660912 109.9739821  45.4280758 109.8313671 109.6613058
  45.4546899 111.3435588 109.7279789  40.6878124 101.2280578 112.3346432
  41.2621876 101.0055759 111.6019625  41.2749107 101.2969272 113.0875034
  49.7457702 107.1154305 113.1410809  50.2589583 107.7484297 113.6432519
  50.3958925 106.5155500 112.7754169  41.0147711 103.2585039 106.3542318
  40.1785024 103.5959726 106.6751592  40.8752481 103.1234019 105.4169455
  42.9900792  98.1021827 111.0621502  42.3365204  97.7870844 110.4378117
  42.9481266  97.4797567 111.7881325  44.1011997 108.3841122 102.9774794
  43.1939059 108.1530375 103.1765943  44.5983029 107.5878741 103.1648776
  47.0080076 117.0938629 105.8971480  46.3341775 117.3970326 106.5056438
  47.3945898 117.8967709 105.5476937  46.2238532 104.5903760 115.3869150
  45.3061094 104.8118707 115.2290838  46.6398676 104.6650071 114.5280857
  47.0073580 105.9895176 110.5171830  47.7545399 106.5016573 110.2078952
  47.2765170 105.6679229 111.3776223  45.2800230 108.4853717 107.4998784
  44.3711450 108.2012750 107.5971254  45.3095314 108.9052795 106.6402091
  49.4552417 103.0252292 112.4990619  48.7175174 102.5129679 112.8300862
  49.7079191 102.5852674 111.6873896  49.5564045  95.8028544 113.0932388
  49.8622921  94.9425908 112.8058303  50.2816649  96.3946165 112.8931382
  35.8488401 106.2059231 111.4813986  35.6512801 105.6128592 110.7565053
  35.2935065 105.9011441 112.1989925  43.8285124 106.0982337 113.6008579
  43.8833734 105.1456174 113.5251056  43.0176326 106.2541777 114.0849878
  44.9776318 110.0262460 104.8386863  44.5395748 109.3098319 104.3792500
  45.7186759 110.2538575 104.2771954  41.7677484 104.7159397 111.3598958
  40.9545350 105.0153568 111.7664150  42.2636478 104.3215086 112.0773441
  53.0949433 108.3019658 110.8963181  52.9567331 108.4921253 109.9684370
  52.7385652 109.0639040 111.3531232  41.2591559 102.2877753 116.9760193
  41.8990938 102.1466512 116.2783157  40.4269090 102.0012266 116.5998795
  42.0351863 111.5880183 113.0895186  42.8292461 111.0930503 112.8877761
  41.3243555 111.0598046 112.7262891  38.3434626 105.7323265 109.1654938
  37.4132215 105.6707720 109.3824901  38.4392098 105.2099218 108.3691580
  38.2620175 102.2578078 111.7533180  38.5226993 103.1723411 111.6442341
  39.0837348 101.7902520 111.9029793  45.2071291 117.2618302 108.1118559
  45.3823047 116.7906345 108.9264182  44.5204079 117.8884068 108.3399820
  49.0987546 108.8846842 104.4318920  48.4816716 108.1593670 104.3351973
  48.6304034 109.6456202 104.0885994  40.8886092 103.1032266 103.5540224
  40.0115558 102.9821067 103.1902471  41.3643845 102.3118345 103.3019113
  44.0750018 115.4558557 110.8002745  43.2917540 115.9980237 110.8940970
  44.7742763 115.9732536 111.1996986  47.3846668 101.2653186 113.4436950
  47.8815367 100.5123149 113.1238021  46.6133649 101.3017503 112.8780160
  48.4676448 110.0224873 111.0175374  47.5332727 110.1426336 110.8480078
  48.6453117 109.1197340 110.7535384  43.9681637 103.4070569 113.1708635
  43.5979424 102.8541610 113.8589541  44.4640729 102.8028703 112.6183635
  51.8549000 105.8642193 111.5525408  52.3209452 106.6970184 111.4785711
  52.3056500 105.3987174 112.2570666  49.9225231 112.2086014 108.5511560
  50.1985075 112.0942609 109.4605434  49.0529730 111.8103499 108.5123733
  49.8265663  98.2322780 115.5916309  48.9128742  98.4627007 115.7598516
  50.2558764  98.3161224 116.4430342  46.8921460 115.3840550 109.4559422
  47.4209227 114.8733005 108.8429584  47.1549680 115.0683080 110.3204955
  39.3646970 100.8174560 119.4161741  39.4288297 101.6789391 119.0039139
  39.3014090 100.2048562 118.6834100  35.6164785 104.6974122 108.9953130
  35.9118227 103.7884800 108.9420184  34.7152821 104.6761861 108.6734133
  39.1459032 102.7730118 114.9780679  38.4245618 103.3866086 114.8388152
  39.9352288 103.3087883 114.8997325  37.3452627 102.3788219 109.1192455
  37.0165333 101.4985598 108.9367561  37.6991998 102.3235888 110.0068845
  40.4594450 102.6661189 109.4867933  40.7990523 103.1947110 108.7646541
  40.9066571 103.0041595 110.2626500  43.1537891 101.0498240 118.9371001
  42.8134711 100.2506053 119.3391681  42.4476897 101.3499951 118.3647834
  43.8054363  98.1347552 117.3898324  44.6280432  97.6608030 117.2677214
  44.0492426  98.9138036 117.8897010  42.4462597 101.1635811 107.6861226
  43.1670960 101.5417064 107.1824943  41.8227901 101.8824688 107.7896204
  46.5893720 101.8680960 108.6219558  46.8057335 102.7505598 108.3208386
  46.1087787 101.4767173 107.8925200  41.3292942 104.8266673 115.1990303
  41.1837522 105.1406976 116.0914584  40.8518145 105.4451573 114.6461201
  43.1889325 101.8169221 115.2471192  43.1750893 100.9210314 114.9103490
  43.9061753 101.8239885 115.8809478  45.0415455 102.2506561 117.2924320
  44.7833233 103.1723632 117.2908650  44.5100496 101.8536996 117.9824784
  42.5926220 100.6983601 110.5158762  42.7142132  99.7700247 110.7149650
  42.3028263 100.7122287 109.6037078  45.4617411  98.3838512 113.6525482
  45.4839108  98.4477845 112.6977462  45.8785470  97.5443020 113.8465988
  50.9736816 114.6724113 107.1711303  51.6687721 115.2930805 107.3898618
  51.3159967 113.8219464 107.4463681  52.8728240 112.1223818 108.6998634
  53.3979564 112.4611091 107.9747954  52.7850592 111.1870833 108.5161769
  41.5656279 112.2837734 108.6074650  41.7144400 112.9673198 107.9541322
  42.3722723 112.2642824 109.1224105  39.3208912 108.3102912 109.6135718
  39.0754954 107.4065242 109.8115929  39.4904827 108.3120062 108.6715196
  47.0105622  99.1826588 118.9960474  47.5287566  99.9187615 118.6706963
  46.6560755  99.4890581 119.8307233  38.5904560 104.0431269 107.1121880
  37.8973805 104.1175624 106.4561916  38.3456312 103.2791613 107.6343397
  47.2618216  95.6026870 114.5161371  47.5419970  94.9350059 115.1421797
  48.0468823  95.7955966 114.0036034  45.0651685 114.7785864 106.0786397
  44.4925652 115.3976051 105.6256869  45.6384479 115.3285226 106.6126319
  48.2848945 115.0623014 107.2094979  49.2179618 114.9968576 107.4127855
  48.1972158 115.8979281 106.7509512  50.9136961 114.3788885 104.1698927
  50.8350593 114.0448748 105.0634685  51.7346628 114.8710653 104.1690399
  45.4498483 106.1146677 103.4202449  46.3957588 105.9852885 103.4890867
  45.0712728 105.3761339 103.8971878  51.4220368  97.7802683 113.3829341
  51.2245189  97.4717771 114.2672673  52.0320074  98.5064322 113.5127271
  43.6341401 104.0396653 103.3557335  42.7272856 103.7429766 103.4320048
  43.9117382 103.7426472 102.4891621  45.2503466  98.5833543 109.5101576
  44.4404195  98.2380628 109.8856822  45.9387883  98.2741087 110.0989188
  47.1794015  97.6611590 111.1325873  47.7325053  98.0807043 111.7915896
  47.4164101  96.7347338 111.1748829  42.4040185 100.8983589 103.4969314
  43.2659349 101.2238487 103.7565131  42.5890529 100.1115085 102.9842380
  50.5572822  99.7712115 110.6404537  49.9771491 100.4296919 110.2582589
  50.2908754  98.9489460 110.2291954  49.0076388  99.1717173 112.8425857
  49.5076166  99.2833707 112.0340176  49.6511996  98.8678226 113.4826666
  49.3397700 101.9312206 109.6960885  48.4523555 102.2161856 109.4781080
  49.7551689 101.7705969 108.8488162  52.6912236 101.9558727 113.4115224
  53.4672626 102.4455179 113.6839841  51.9660370 102.3816781 113.8687094
  55.1284794 102.6686346 114.4689165  55.7229285 102.4282082 113.7582473
  55.2011378 101.9493476 115.0962701  48.4840913 111.6956880 103.7908905
  49.1876763 111.9006883 104.4066561  47.7603562 112.2633642 104.0557989
  49.3138723 107.4466741 109.9111175  49.2573925 107.9035293 109.0718808
  49.8667066 106.6857426 109.7334018  53.1243529 103.2356473 110.7361295
  52.8680464 102.8353109 111.5669502  52.4996397 103.9500267 110.6111434
  50.3927611 112.1339409 105.8407365  51.2273215 111.7020608 105.6584840
  50.2311953 111.9621423 106.7684260  50.0473503 108.6371523 107.2063704
  49.9922307 108.4715794 106.2652149  49.4219558 109.3447556 107.3625894
  43.3569628  98.1379632 106.7849023  43.3448298  99.0821472 106.9417294
  44.2493050  97.9549777 106.4908484  47.1721748  94.7322408 111.0394960
  46.4054143  94.1780895 111.1851642  47.5832453  94.8044277 111.9009111
  51.8541466 118.5876957 106.3542318  51.0178778 118.9251643 106.6751592
  51.7146236 118.4525936 105.4169455  51.7279846 118.4324184 103.5540224
  50.8509312 118.3112985 103.1902471  52.2037599 117.6410262 103.3019113
  49.4298314 119.3723187 107.1121880  48.7367559 119.4467542 106.4561916
  49.1850066 118.6083530 107.6343397  54.4735155 119.3688571 103.3557335
  53.5666610 119.0721684 103.4320048  54.7511136 119.0718389 102.4891621
  53.2433940 116.2275506 103.4969314  54.1053104 116.5530405 103.7565131
  53.4284284 115.4407002 102.9842380  54.1963383 113.4671549 106.7849023
  54.1842053 114.4113389 106.9417294  55.0886805 113.2841695 106.4908484
   3.6505059  32.7833081  92.6216787   2.9766758  33.0864778  93.2301745
   4.0370881  33.5862161  92.2722244   5.7412529  24.5741294  91.1564227
   5.1241700  23.8488122  91.0597280   5.2729017  25.3350654  90.8131301
   7.6161800  30.3618565  93.8956610   8.3112704  30.9825257  94.1143925
   7.9584950  29.5113916  94.1708988   1.7076668  30.4680316  92.8031704
   1.1350635  31.0870503  92.3502175   2.2809462  31.0179678  93.3371626
   4.9273928  30.7517466  93.9340286   5.8604601  30.6863028  94.1373161
   4.8397141  31.5873733  93.4754818   7.5561945  30.0683337  90.8944233
   7.4775576  29.7343200  91.7879991   8.3771611  30.5605105  90.8935706
   5.1265896  27.3851332  90.5154212   5.8301747  27.5901335  91.1311867
   4.4028545  27.9528094  90.7803295   7.0352594  27.8233861  92.5652672
   7.8698198  27.3915060  92.3830147   6.8736937  27.6515875  93.4929566
  15.6636869  38.3403512 102.6607849  16.3015279  38.2210260 101.9571189
  15.5457712  39.2884356 102.7195801  12.4726575  38.2930941 102.5969373
  12.1345087  38.1772005 101.7089908  13.3416343  37.8922106 102.5770379
   8.3313391  40.1466417  98.5866264   7.7678256  40.0556354  97.8182552
   8.2165786  39.3266321  99.0668757  13.9112950  43.8137385  93.8980729
  13.2600929  44.3991465  93.5114743  14.7057312  44.3443580  93.9575767
   7.8368577  40.9026522  94.2967863   8.6099453  40.3555509  94.1580739
   8.1893976  41.7670771  94.5082325  10.1734855  37.0619188  91.9286313
  10.4260375  36.5400709  91.1669776   9.2359414  36.8985333  92.0312997
  15.2178137  36.0654966  99.7361057  16.0041227  35.6474389  99.3851474
  15.4816842  36.9701058  99.9042705  15.3888215  41.5027817  94.4349713
  14.7534048  41.5762443  95.1470618  15.0585621  42.0921415  93.7568793
  20.6186565  36.0030199 100.6394035  21.3511737  35.4329416 100.8731865
  19.8625920  35.6151800 101.0800541   9.8931143  38.9647294  94.1310688
   9.7767401  38.2892197  94.7991773  10.0033403  38.4779668  93.3142841
  12.2362684  38.4257441  97.8357378  11.8720892  37.8988062  98.5470299
  13.0929800  38.0355910  97.6623863  11.8768171  33.4547341  92.8318726
  12.0442574  34.3227577  93.1989197  11.6865340  33.6174622  91.9080015
  14.6343504  41.9164320 104.4984556  14.3344228  42.8189358 104.3900364
  14.2894564  41.6496503 105.3505709  18.0340648  34.4346860 102.1781994
  17.1257526  34.3662268 101.8840755  17.9828244  34.9118805 103.0063819
  11.8557392  35.9104998  93.8165393  11.7357017  36.3562049  94.6550873
  11.1609981  36.2590316  93.2578931   9.6164284  48.6808640  97.4655524
   9.5388314  49.6316465  97.5444005   9.0125928  48.3354512  98.1230450
  17.5542458  36.3826471  94.6445727  18.4660314  36.6153858  94.4693424
  17.0452105  36.9663516  94.0820806  16.1612041  41.3652290 102.0359308
  15.5320903  41.5298004 101.3335376  15.7737703  41.7793899 102.8070272
  20.0401273  42.3006728  99.3903672  19.3552311  42.6805629  98.8400705
  20.1245122  42.9102054 100.1235620  11.7140002  41.1026698  99.3009393
  12.1778348  41.3814401  98.5114016  11.4496801  40.2010142  99.1182484
  10.6508889  37.2249850  96.1098959  11.3532932  37.6770894  96.5772885
  10.3189517  36.5833669  96.7378852  18.4098032  42.8238642 104.1621373
  19.2315476  42.4218829 103.8804055  18.4060435  42.7206876 105.1137489
  26.5004025  39.1677391 100.5106344  25.7467734  38.5984789 100.3550349
  26.6351566  39.1340055 101.4576979  11.8902653  44.0390793  96.1861064
  11.7548328  44.8842329  96.6145912  12.4312466  44.2410070  95.4226998
   5.3432051  41.5566231  96.7588989   5.8556571  42.3509481  96.9094554
   5.9954763  40.8592521  96.6922590   7.1526935  44.6731987  98.8411742
   7.3293564  45.5949952  98.6532726   7.9483769  44.3590406  99.2706122
   8.2758251  46.1910161 104.8422084   8.8265676  46.0627224 104.0699078
   7.4369727  46.4905050 104.4916977   3.3080967  39.8854885  97.5348559
   4.1456189  40.2951894  97.3182267   3.4859235  38.9454327  97.5048753
  15.2045399  37.5529966  93.2232392  14.6892023  38.3234570  93.4620780
  14.9322708  36.8795102  93.8465454  12.7892510  32.3979667  98.2817631
  11.9334107  32.0086517  98.1023269  13.2019462  32.4771627  97.4217416
  20.1779674  40.3062320  95.1585566  19.4009116  39.9673480  94.7140728
  20.8571155  40.3114944  94.4840531  14.9931703  35.4257058  95.0492174
  14.6881838  35.7403207  95.9002317  15.9462145  35.5038478  95.0919507
  13.4378134  41.5847281  96.6985128  12.9099496  40.8500041  96.3858365
  12.9365637  42.3621958  96.4525096  18.4170981  39.7796302 101.8152174
  17.7594655  40.4695563 101.9032303  19.2211380  40.1692734 102.1586160
  17.2276439  38.1340674  99.8656116  17.7408321  38.7670666 100.3677825
  17.8777663  37.5341870  99.4999476   8.4966449  34.2771409  93.0787624
   7.6603761  34.6146095  93.3996899   8.3571219  34.1420388  92.1414761
  11.5830735  39.4027492  89.7020101  10.6757796  39.1716745  89.9011250
  12.0801767  38.6065111  89.8894082  14.4898814  48.1124999  92.6216787
  13.8160512  48.4156695  93.2301745  14.8764636  48.9154079  92.2722244
  14.4892318  37.0081546  97.2417136  15.2364137  37.5202943  96.9324258
  14.7583907  36.6865598  98.1021530  12.7618968  39.5040086  94.2244091
  11.8530187  39.2199119  94.3216560  12.7914052  39.9239165  93.3647398
  17.9938236  43.1146676  97.9935258  17.5400563  42.2737586  98.0500449
  17.3632202  43.7508074  98.3310038  16.9371155  34.0438662  99.2235926
  16.1993912  33.5316048  99.5546168  17.1897929  33.6039044  98.4119203
  16.4371175  44.9523173  98.9285076  16.7294149  45.5128230  98.2097442
  16.9469795  45.2451734  99.6838236  11.3103862  37.1168707 100.3253886
  11.3652472  36.1642543 100.2496363  10.4995064  37.2728146 100.8095184
  12.4595056  41.0448830  91.5632169  12.0214486  40.3284689  91.1037807
  13.2005497  41.2724945  91.0017261   9.2496222  35.7345767  98.0844265
   8.4364088  36.0339937  98.4909457   9.7455216  35.3401456  98.8018747
  11.4004800  45.7303524 100.0178530  11.3580979  45.9564370  99.0887062
  12.3167499  45.4966898 100.1664331  20.5768171  39.3206027  97.6208488
  20.4386069  39.5107623  96.6929677  20.2204389  40.0825410  98.0776539
  20.6037550  41.3882554 102.6319759  21.0374057  41.2957843 103.4802813
  21.3169131  41.3640055 101.9939775   9.5170601  42.6066553  99.8140492
  10.3111199  42.1116873  99.6123067   8.8062293  42.0784416  99.4508198
  14.3365445  44.9884648 104.1652860  14.3902467  45.5575585 104.9330576
  13.4680227  45.1586533 103.8006897   5.8253364  36.7509634  95.8900245
   4.8950952  36.6894090  96.1070207   5.9210836  36.2285587  95.0936886
  21.4653100  41.4306255 105.1652645  21.6588990  42.3352065 105.4111920
  21.3653718  40.9713674 105.9991230  12.0941877  43.1795575 103.4938329
  11.9552962  42.8114359 104.3664268  11.3056473  43.6943214 103.3222287
  12.6890029  48.2804671  94.8363866  12.8641784  47.8092714  95.6509489
  12.0022817  48.9070437  95.0645127  13.6447092  42.5577177 100.8827167
  13.3096924  42.5177947 101.7784817  13.1451038  41.8921893 100.4097577
  16.5806284  39.9033212  91.1564227  15.9635454  39.1780040  91.0597280
  16.1122772  40.6642572  90.8131301   7.2551114  51.4294034 101.6103726
   7.4947712  52.0612558 102.2882745   6.4120310  51.0782074 101.8969085
   8.3704829  34.1218636  90.2785531   7.4934296  34.0007437  89.9147778
   8.8462582  33.3304714  90.0264420  11.7678976  47.2373156 104.0145230
  11.6949147  48.0428128 104.5264535  11.3256369  47.4365122 103.1893251
  11.5568755  46.4744926  97.5248052  10.7736277  47.0166607  97.6186276
  12.2561501  46.9918906  97.9242293  14.8665406  32.2839556 100.1682257
  15.3634105  31.5309518  99.8483327  14.0952387  32.3203872  99.6025466
  22.7195163  37.9879921 101.8100549  22.7085039  38.8704637 101.4394482
  21.8512542  37.6351472 101.6155086  14.2277659  47.1359990 106.1703389
  14.9405632  47.7707455 106.0979290  13.7367688  47.2323856 105.3543391
  15.9495186  41.0411243  97.7420680  15.0151465  41.1612706  97.5725385
  16.1271855  40.1383710  97.4780690  19.3367738  36.8828562  98.2770715
  19.8028190  37.7156554  98.2031017  19.7875238  36.4173544  98.9815973
  17.4043969  43.2272384  95.2756867  17.6803813  43.1128978  96.1850741
  16.5348467  42.8289868  95.2369040  14.0398033  47.4758734  98.9189680
  14.2220427  46.6580390  99.3817433  14.8631019  47.6926427  98.4814570
  14.3740198  46.4026920  96.1804729  14.9027965  45.8919374  95.5674891
  14.6368418  46.0869450  97.0450262   7.7295946  47.4542036  98.9402505
   7.0606321  47.9388164  98.4566545   7.5908816  47.7011257  99.8545883
  11.8701215  49.4885780 105.5385163  12.4219523  49.6517401 106.3034248
  12.2107408  50.0790218 104.8665188   3.0983523  35.7160491  95.7198437
   3.3936964  34.8071170  95.6665490   2.1971559  35.6948231  95.3979439
  15.0069602  47.4367755 102.5248845  14.8820741  46.6357495 102.0159791
  15.6648693  47.9313949 102.0362815  17.0704510  45.2376775 104.1528395
  16.1234846  45.1182127 104.0806722  17.4187284  44.3499273 104.2354657
   4.8271365  33.3974589  95.8437762   4.4984071  32.5171968  95.6612868
   5.1810736  33.3422258  96.7314151  14.0750944  45.0329492 100.3532747
  13.9275906  44.1046199 100.5340318  14.9004437  45.0549582  99.8689823
   7.9413188  33.6847559  96.2113240   8.2809261  34.2133480  95.4891848
   8.3885308  34.0227965  96.9871806  17.6785066  45.8558050 101.4397620
  18.6031613  45.6500912 101.3022071  17.5100369  45.6074452 102.3486962
   9.9281335  32.1822180  94.4106532  10.6489698  32.5603433  93.9070249
   9.3046639  32.9011057  94.5141510  14.0712458  32.8867329  95.3464865
  14.2876072  33.7691967  95.0453693  13.5906525  32.4953543  94.6170507
  17.4680382  46.3743718  96.7959712  17.6417259  45.8090140  96.0433564
  17.9609273  47.1744613  96.6139202  10.0744958  31.7169971  97.2404069
  10.1960869  30.7886617  97.4394957   9.7847001  31.7308657  96.3282384
  23.3219773  39.1380141  98.4150011  23.7650919  38.3887466  98.0169135
  22.4446283  39.1290277  98.0323743  18.4555554  45.6910482  93.8956610
  19.1506459  46.3117175  94.1143925  18.7978704  44.8405833  94.1708988
  20.3546977  43.1410188  95.4243941  20.8798301  43.4797460  94.6993261
  20.2669330  42.2057203  95.2407075  12.0387638  49.2082171  99.7839194
  11.5992628  48.7158550 100.4772051  12.7895755  48.6655139  99.5431269
   4.5179977  45.3993712  99.7863822   5.3437997  45.0997484  99.4062466
   4.1674029  44.6301334 100.2353611   9.4861510  44.7520180 101.8561496
   8.8641520  44.0890885 101.5563723  10.1566377  44.7781312 101.1735143
   2.7188582  43.3180038 100.7452756   1.8820490  42.8902213 100.5636757
   2.6912228  43.5112482 101.6823547   9.0475017  43.3024103  95.3319956
   9.1963138  43.9859568  94.6786629   9.8541461  43.2829194  95.8469412
  21.6656955  43.0432499 108.2869889  21.3741764  43.4062480 109.1233350
  21.0529087  42.3299508 108.1083221  22.8652638  40.6085379 100.8072459
  23.6999529  41.0475183 100.9710019  23.0011766  40.1324032  99.9880705
   6.8027650  39.3289281  96.3381025   6.5573692  38.4251611  96.5361235
   6.9723565  39.3306432  95.3960503   6.0723298  35.0617639  93.8367187
   5.3792543  35.1361994  93.1807222   5.8275050  34.2977982  94.3588703
  12.5470423  45.7972234  92.8031704  11.9744390  46.4162421  92.3502175
  13.1203216  46.3471596  93.3371626  15.7667683  46.0809384  93.9340286
  16.6998356  46.0154946  94.1373161  15.6790895  46.9165651  93.4754818
  18.3955699  45.3975254  90.8944233  18.3169331  45.0635118  91.7879991
  19.2165366  45.8897022  90.8935706  21.0933890  38.2636994 104.1020552
  21.0610210  37.3252994 104.2880236  21.7034514  38.3421030 103.3686377
  12.9317221  37.1333047  90.1447756  13.8776326  37.0039255  90.2136174
  12.5531466  36.3947709  90.6217184  26.9110440  39.3253001 103.2426589
  27.6413829  39.0638289 103.8034292  26.3017386  38.5881722 103.2828657
  24.9925737  37.4660863 103.8401040  24.2658901  37.3316828 103.2317532
  24.5773024  37.7737692 104.6457758  11.1160138  35.0583023  90.0802641
  10.2091594  34.7616136  90.1565355  11.3936119  34.7612841  89.2136928
  12.7322204  29.6019913  96.2346883  11.9222932  29.2566998  96.6102129
  13.4206621  29.2927456  96.8234494   9.8858923  31.9169958  90.2214620
  10.7478087  32.2424857  90.4810438  10.0709267  31.1301454  89.7087686
  18.0391559  30.7898485  97.3649843  17.4590229  31.4483289  96.9827896
  17.7727492  29.9675829  96.9537261  16.8216437  32.9498575  96.4206192
  15.9342293  33.2348226  96.2026386  17.2370427  32.7892338  95.5733469
  20.1730974  32.9745096 100.1360531  20.9491364  33.4641549 100.4085148
  19.4479108  33.4003150 100.5932400  22.6103532  33.6872715 101.1934472
  23.2048023  33.4468451 100.4827780  22.6830116  32.9679846 101.8208008
   4.8300688  47.5306326 101.5077636   4.6955156  46.7706727 100.9415634
   4.4132750  48.2547226 101.0406425  15.9659651  42.7143250  90.5154212
  16.6695501  42.9193252  91.1311867  15.2422300  43.2820012  90.7803295
  16.7957461  38.4653111  96.6356482  16.7392663  38.9221662  95.7964114
  17.3485804  37.7043796  96.4579325  20.6062267  34.2542843  97.4606601
  20.3499201  33.8539479  98.2914809  19.9815135  34.9686637  97.3356741
  24.9174605  36.9938916  99.9677893  24.3574163  37.0632105 100.7409455
  24.3118108  36.8179901  99.2477389   7.9869814  48.4275643 101.7196079
   7.8702198  49.3721076 101.6174769   7.1662260  48.1249205 102.1081878
  17.8746348  43.1525779  92.5652672  18.7091952  42.7206977  92.3830147
  17.7130691  42.9807793  93.4929566  17.5292241  39.6557892  93.9309011
  17.4741044  39.4902164  92.9897455  16.9038296  40.3633925  94.0871201
  10.8388366  29.1566001  93.5094329  10.8267036  30.1007841  93.6662600
  11.7311788  28.9736147  93.2153791   9.0124328  49.0803905 104.9352008
   9.9151575  49.1127515 105.2518502   8.7861698  48.1504356 104.9498343
  10.7677930  47.8334892 101.5962086   9.8173561  47.8336753 101.4826458
  11.0710416  47.0867626 101.0798121  26.5030623  53.6695430 102.6607849
  27.1409033  53.5502177 101.9571189  26.3851466  54.6176274 102.7195801
  23.3120330  53.6222858 102.5969373  22.9738841  53.5063923 101.7089908
  24.1810098  53.2214023 102.5770379  19.1707145  55.4758335  98.5866264
  18.6072011  55.3848272  97.8182552  19.0559540  54.6558239  99.0668757
  23.7940113  54.7757710 108.5555579  23.7828753  54.3810508 107.6836082
  23.9560752  54.0423783 109.1489350  16.7171577  56.9709526 101.4250485
  17.5092869  56.6300351 101.0096784  16.9568228  57.0804501 102.3452638
  24.7506704  59.1429302  93.8980729  24.0994684  59.7283383  93.5114743
  25.5451067  59.6735497  93.9575767  18.6762331  56.2318439  94.2967863
  19.4493207  55.6847427  94.1580739  19.0287730  57.0962689  94.5082325
  20.5147374  57.5594822 107.5034763  20.2237240  58.4640453 107.3881429
  21.1504358  57.6011349 108.2178832  21.4403581  54.9371670 104.0936122
  22.0367153  54.7127693 103.3793085  21.4978552  54.1956416 104.6961570
  21.0128609  52.3911106  91.9286313  21.2654130  51.8692627  91.1669776
  20.0753168  52.2277251  92.0312997  26.0571892  51.3946884  99.7361057
  26.8434981  50.9766307  99.3851474  26.3210596  52.2992976  99.9042705
  31.4580319  51.3322117 100.6394035  32.1905491  50.7621334 100.8731865
  30.7019675  50.9443718 101.0800541  20.7324898  54.2939212  94.1310688
  20.6161156  53.6184115  94.7991773  20.8427158  53.8071585  93.3142841
  23.0756439  53.7549359  97.8357378  22.7114646  53.2279980  98.5470299
  23.9323555  53.3647828  97.6623863  28.9805739  45.0443691 105.0988644
  28.6489064  45.9139102 104.8749859  28.3851353  44.7279975 105.7782674
  22.7161926  48.7839258  92.8318726  22.8836328  49.6519495  93.1989197
  22.5259095  48.9466540  91.9080015  25.4737259  57.2456237 104.4984556
  25.1737982  58.1481276 104.3900364  25.1288318  56.9788420 105.3505709
  18.9249740  53.6970034 100.5321261  18.0000237  53.5646248 100.7398953
  19.1734154  54.4764253 101.0291203  28.8734403  49.7638777 102.1781994
  27.9651280  49.6954186 101.8840755  28.8221999  50.2410722 103.0063819
  22.6951147  51.2396916  93.8165393  22.5750772  51.6853967  94.6550873
  22.0003735  51.5882233  93.2578931  16.2858551  53.3403308 101.3665050
  16.4150933  53.5937787 102.2804462  15.6056003  53.9331016 101.0469705
  20.4558039  64.0100558  97.4655524  20.3782068  64.9608383  97.5444005
  19.8519682  63.6646430  98.1230450  22.9475269  51.1828423 110.1216891
  22.1708603  51.7422343 110.1119756  23.5865832  51.6685206 110.6431761
  30.7396049  47.9655216 103.9559868  30.0970429  48.2587749 103.3099662
  30.2350978  47.8508136 104.7613064  28.3936213  51.7118389  94.6445727
  29.3054069  51.9445776  94.4693424  27.8845860  52.2955433  94.0820806
  21.2021641  53.9913876 109.6834858  21.9436325  54.5298920 109.4069682
  20.4958626  54.6180165 109.8406410  26.6776980  56.1343017 108.2807020
  27.0860337  55.6925427 107.5361652  25.9554242  55.5595644 108.5341212
  23.0308051  51.0715624 105.6540576  23.8769246  51.4955037 105.7975225
  22.9706688  50.4149248 106.3479140  27.0005795  56.6944207 102.0359308
  26.3714658  56.8589922 101.3335376  26.6131457  57.1085817 102.8070272
  26.1807496  48.7319992 107.3121750  25.9368428  49.4862052 106.7756026
  26.4567426  49.1105340 108.1468997  28.1345959  55.2758604 105.9899016
  28.3462854  55.9190364 105.3133397  28.0875707  54.4420921 105.5220946
  25.7372188  47.8876425 102.8935588  24.8756667  48.1857679 103.1852325
  25.7634622  48.1046824 101.9616620  22.5533757  56.4318616  99.3009393
  23.0172103  56.7106319  98.5114016  22.2890555  55.5302060  99.1182484
  19.4457838  55.9790097 102.2389157  20.0159195  56.4077365 101.6006641
  20.0365950  55.6972682 102.9373342  21.4902643  52.5541768  96.1098959
  22.1926686  53.0062812  96.5772885  21.1583272  51.9125587  96.7378852
  19.9383005  51.1453525 110.4850168  19.3081665  51.8269805 110.7185565
  19.8319092  51.0336606 109.5403306  15.2327977  50.8125321 101.4116092
  14.4427031  51.0682849 100.9356203  15.7239224  51.6273658 101.5168133
  29.2491787  58.1530560 104.1621373  30.0709230  57.7510747 103.8804055
  29.2454189  58.0498794 105.1137489  17.1842722  51.1769900  98.3699569
  16.3873886  51.2888594  98.8883065  16.9568315  51.5156552  97.5040459
  23.0148390  57.7014603 106.3182084  23.0792823  58.1635010 107.1540255
  22.3059314  57.0711968 106.4464393  13.5165680  51.0655811 103.8431083
  13.7673718  51.9502821 104.1088659  14.0525228  50.8860413 103.0706175
  22.7296408  59.3682711  96.1861064  22.5942082  60.2134246  96.6145912
  23.2706220  59.5701988  95.4226998  16.1825805  56.8858149  96.7588989
  16.6950326  57.6801399  96.9094554  16.8348518  56.1884439  96.6922590
  17.9920690  60.0023905  98.8411742  18.1687318  60.9241870  98.6532726
  18.7877523  59.6882324  99.2706122  22.1331708  46.8632169 110.4395676
  22.8741422  47.4639323 110.3600138  22.3649631  46.1209807 109.8813718
  17.2773046  52.0488537 108.7173905  17.1626561  51.1473794 109.0181004
  16.4217564  52.2952233 108.3658722  24.3564884  59.9906277 110.3161406
  23.9128738  59.2042656 109.9982310  25.0182098  60.1785428 109.6505297
  19.1152005  61.5202079 104.8422084  19.6659430  61.3919142 104.0699078
  18.2763481  61.8196968 104.4916977  26.4546122  60.2709077 108.3442807
  26.4364597  61.0917958 107.8523076  27.3766042  60.1463152 108.5692948
  22.9119176  57.7853206 109.1866316  23.4447513  57.0241495 108.9565624
  22.3833257  57.4926858 109.9290470  26.0788871  42.8913272 104.7159957
  25.7353141  43.7814914 104.6399068  26.4467834  42.7014930 103.8529542
  14.1474722  55.2146803  97.5348559  14.9849944  55.6243811  97.3182267
  14.3252990  54.2746245  97.5048753  26.0439154  52.8821884  93.2232392
  25.5285777  53.6526488  93.4620780  25.7716462  52.2087020  93.8465454
  23.6286265  47.7271584  98.2817631  22.7727861  47.3378435  98.1023269
  24.0413217  47.8063545  97.4217416  25.1585412  45.2617928 102.6809191
  24.6550207  45.2248063 101.8676996  25.4516018  46.1710670 102.7405847
  21.4028298  45.3456657 101.6875372  22.2681294  45.1499466 101.3281262
  21.4705806  45.1167009 102.6144729  25.8325457  50.7548976  95.0492174
  25.5275593  51.0695125  95.9002317  26.7855899  50.8330396  95.0919507
  24.2771889  56.9139199  96.6985128  23.7493251  56.1791959  96.3858365
  23.7759392  57.6913875  96.4525096  29.2564735  55.1088219 101.8152174
  28.5988409  55.7987481 101.9032303  30.0605134  55.4984651 102.1586160
  19.0090617  47.5758865  99.0591739  19.5834368  47.3534047  98.3264932
  19.5961599  47.6447560  99.8120340  28.0670194  53.4632592  99.8656116
  28.5802076  54.0962584 100.3677825  28.7171418  52.8633788  99.4999476
  19.3360204  49.6063326  93.0787624  18.4997516  49.9438013  93.3996899
  19.1964973  49.4712306  92.1414761  21.3113284  44.4500114  97.7866809
  20.6577697  44.1349131  97.1623423  21.2693758  43.8275855  98.5126631
  22.4224489  54.7319409  89.7020101  21.5151551  54.5008663  89.9011250
  22.9195521  53.9357028  89.8894082  25.3292568  63.4416916  92.6216787
  24.6554267  63.7448613  93.2301745  25.7158390  64.2445997  92.2722244
  24.5451025  50.9382048 102.1114456  23.6273586  51.1596995 101.9536144
  24.9611168  51.0128358 101.2526163  25.3286072  52.3373463  97.2417136
  26.0757891  52.8494861  96.9324258  25.5977662  52.0157516  98.1021530
  23.6012723  54.8332004  94.2244091  22.6923942  54.5491037  94.3216560
  23.6307806  55.2531083  93.3647398  27.7764910  49.3730580  99.2235926
  27.0387666  48.8607966  99.5546168  28.0291683  48.9330961  98.4119203
  27.2764929  60.2815090  98.9285076  27.5687904  60.8420147  98.2097442
  27.7863550  60.5743651  99.6838236  27.8776537  42.1506832  99.8177695
  28.1835414  41.2904195  99.5303610  28.6029142  42.7424452  99.6176689
  14.1700893  52.5537518  98.2059293  13.9725293  51.9606879  97.4810359
  13.6147557  52.2489728  98.9235232  22.1497617  52.4460625 100.3253886
  22.2046226  51.4934461 100.2496363  21.3388819  52.6020064 100.8095184
  23.2988810  56.3740748  91.5632169  22.8608240  55.6576607  91.1037807
  24.0399251  56.6016863  91.0017261  20.0889977  51.0637684  98.0844265
  19.2757842  51.3631855  98.4909457  20.5848971  50.6693373  98.8018747
  22.2398554  61.0595441 100.0178530  22.1974733  61.2856288  99.0887062
  23.1561253  60.8258816 100.1664331  25.6864188  51.5279509 106.9159159
  26.0413576  51.7550982 107.7753625  26.3336319  51.8597886 106.2936414
  19.5804051  48.6356040 103.7005500  20.2203431  48.4944799 103.0028463
  18.7481582  48.3490553 103.3244102  20.3564355  57.9358470  99.8140492
  21.1504954  57.4408790  99.6123067  19.6456048  57.4076333  99.4508198
  25.1759200  60.3176566 104.1652860  25.2296222  60.8867502 104.9330576
  24.3073981  60.4878451 103.8006897  16.6647119  52.0801552  95.8900245
  15.7344707  52.0186008  96.1070207  16.7604591  51.5577505  95.0936886
  16.5832668  48.6056365  98.4778487  16.8439485  49.5201698  98.3687647
  17.4049840  48.1380807  98.6275099  18.0557593  50.0194122 105.6477311
  18.7280646  49.8111484 104.9989960  17.2287380  49.8216208 105.2082543
  32.3046854  56.7598172 105.1652645  32.4982744  57.6643983 105.4111920
  32.2047473  56.3005592 105.9991230  23.9583165  46.6456063 107.6642972
  23.3111080  47.3446013 107.5707448  24.7284180  47.0792207 108.0319220
  27.3661963  56.9104915 110.7393525  27.2147469  56.6815467 109.8223609
  27.3566642  57.8675517 110.7524870  24.1347299  54.4836828 105.7239792
  25.0639359  54.6347988 105.5508759  23.7138329  54.5720849 104.8688438
  22.9335631  58.5087492 103.4938329  22.7946717  58.1406277 104.3664268
  22.1450227  59.0235132 103.3222287  23.5283783  63.6096589  94.8363866
  23.7035539  63.1384632  95.6509489  22.8416571  64.2362355  95.0645127
  24.4840846  57.8869095 100.8827167  24.1490679  57.8469865 101.7784817
  23.9844792  57.2213811 100.4097577  18.4585090  53.2936725 106.4079748
  18.3204888  52.5616964 107.0091287  19.3690014  53.2045625 106.1263936
  27.4200038  55.2325129  91.1564227  26.8029209  54.5071958  91.0597280
  26.9516526  55.9934490  90.8131301  21.0867391  53.0056684 105.8963428
  21.7967010  52.3649877 105.8550046  21.0436699  53.2569579 106.8189609
  29.0754170  59.9424038 108.8170007  29.0166716  59.2583258 108.1500590
  29.4773688  60.6843028 108.3650633  19.7996325  49.9921902 107.7159067
  19.2633682  49.5412641 108.3680664  19.2113033  50.1267811 106.9729532
  18.0944868  66.7585952 101.6103726  18.3341467  67.3904476 102.2882745
  17.2514065  66.4073992 101.8969085  19.2098584  49.4510554  90.2785531
  18.3328050  49.3299354  89.9147778  19.6856337  48.6596632  90.0264420
  29.0771577  57.9063622 107.0483987  28.1898356  57.5689543 107.1710386
  29.6470128  57.1746653 107.2852752  10.7300724  54.2387713 100.3727038
  11.4171764  53.9249443  99.7848054  10.5748853  55.1429078 100.0994290
  15.5335446  49.1277910 104.8012062  15.4493635  48.5203580 104.0662472
  14.7118153  49.6186928 104.8021558  22.6072730  62.5665074 104.0145230
  22.5342902  63.3720046 104.5264535  22.1650123  62.7657040 103.1893251
  22.3962510  61.8036844  97.5248052  21.6130032  62.3458524  97.6186276
  23.0955255  62.3210824  97.9242293  25.7059160  47.6131474 100.1682257
  26.2027860  46.8601436  99.8483327  24.9346142  47.6495790  99.6025466
  25.0671414  62.4651908 106.1703389  25.7799386  63.0999373 106.0979290
  24.5761442  62.5615774 105.3543391  26.7888941  56.3703161  97.7420680
  25.8545219  56.4904623  97.5725385  26.9665609  55.4675627  97.4780690
  22.2894129  49.7548856  99.8953942  21.9191916  49.2019897 100.5834847
  22.7853221  49.1506990  99.3428942  30.1761492  52.2120480  98.2770715
  30.6421944  53.0448472  98.2031017  30.6268993  51.7465462  98.9815973
  20.1183327  60.2146352 106.9908960  20.8192787  60.8482834 107.1438354
  19.6478442  60.5561083 106.2304599  28.1478155  44.5801067 102.3161616
  27.2341235  44.8105294 102.4843823  28.5771256  44.6639511 103.1675648
  27.9184613  52.7690959 104.8161510  27.2656064  53.0166866 104.1613963
  28.2964993  51.9555097 104.4823987  24.8791787  62.8050652  98.9189680
  25.0614182  61.9872308  99.3817433  25.7024773  63.0218344  98.4814570
  25.2133953  61.7318837  96.1804729  25.7421719  61.2211292  95.5674891
  25.4762172  61.4161367  97.0450262  23.9672186  53.5110770 111.3027547
  23.2912823  53.4104899 111.9729922  24.7899820  53.3549984 111.7663544
  15.7151045  59.7482707 103.9240062  16.3004482  59.0026394 104.0567966
  15.5175884  60.0586663 104.8076726  18.5689701  62.7833954  98.9402505
  17.9000076  63.2680082  98.4566545  18.4302570  63.0303174  99.8545883
  10.3068700  52.3188307 102.6444505  10.3452800  51.7851897 103.4381624
   9.8008993  51.7923512 102.0255483  22.7094969  64.8177697 105.5385163
  23.2613277  64.9809319 106.3034248  23.0501163  65.4082135 104.8665188
  17.6859462  47.1652847 106.1407048  17.7500789  48.0267678 105.7284445
  17.6226583  46.5526849 105.4079406  17.1611735  49.2375980 109.7880082
  17.7883774  48.8553057 110.4017606  16.3039654  49.0190182 110.1535774
  27.5605844  59.6438955 111.3933817  28.1045748  60.2568913 110.8988772
  26.9792688  60.2018533 111.9100830  13.9377278  51.0452409  95.7198437
  14.2330719  50.1363087  95.6665490  13.0365314  51.0240148  95.3979439
  25.8463357  62.7659673 102.5248845  25.7214496  61.9649413 102.0159791
  26.5042448  63.2605866 102.0362815  17.4671525  49.1208405 101.7025985
  16.7458111  49.7344373 101.5633459  18.2564781  49.6566170 101.6242631
  27.9098265  60.5668693 104.1528395  26.9628600  60.4474044 104.0806722
  28.2581038  59.6791191 104.2354657  20.2697838  46.4562832 107.9766637
  20.7932240  46.7025129 108.7392946  20.0510172  47.2882867 107.5569774
  15.6665119  48.7266507  95.8437762  15.3377826  47.8463886  95.6612868
  16.0204490  48.6714175  96.7314151  24.9144698  60.3621409 100.3532747
  24.7669661  59.4338117 100.5340318  25.7398192  60.3841500  99.8689823
  18.7806943  49.0139476  96.2113240  19.1203015  49.5425398  95.4891848
  19.2279063  49.3519883  96.9871806  21.4750383  47.3976527 105.6616308
  21.1347204  46.5984340 106.0636988  20.7689390  47.6978238 105.0893141
  22.1266855  44.4825840 104.1143631  22.9492924  44.0086318 103.9922521
  22.3704919  45.2616323 104.6142317  20.7675090  47.5114098  94.4106532
  21.4883452  47.8895351  93.9070249  20.1440394  48.2302975  94.5141510
  24.9106213  48.2159247  95.3464865  25.1269827  49.0983885  95.0453693
  24.4300280  47.8245460  94.6170507  19.6505434  51.1744960 101.9235609
  19.5050015  51.4885263 102.8159891  19.1730638  51.7929860 101.3706508
  21.5101817  48.1647508 101.9716499  21.4963386  47.2688601 101.6348797
  22.2274245  48.1718172 102.6054785  23.3627948  48.5984848 104.0169626
  23.1045725  49.5201919 104.0153957  22.8312988  48.2015283 104.7070090
  14.1251096  53.7150305 104.8623270  13.5804564  54.4910113 104.9943545
  15.0030446  54.0621109 104.7042392  20.9138713  47.0461888  97.2404069
  21.0354624  46.1178535  97.4394957  20.6240755  47.0600574  96.3282384
  23.7829903  44.7316799 100.3770789  23.8051600  44.7956132  99.4222768
  24.1997962  43.8921308 100.5711295  14.9117118  52.8420201 107.7553427
  14.1698854  52.9902836 108.3418058  14.5909862  53.1028466 106.8920177
  22.8560781  62.3836179 107.5533817  23.1647907  62.1385326 108.4256517
  23.6536263  62.5882818 107.0652688  22.8781393  64.5374089  99.7839194
  22.4386383  64.0450467 100.4772051  23.6289510  63.9947056  99.5431269
  15.3573732  60.7285630  99.7863822  16.1831752  60.4289401  99.4062466
  15.0067784  59.9593252 100.2353611  20.3255265  60.0812098 101.8561496
  19.7035274  59.4182803 101.5563723  20.9960132  60.1073230 101.1735143
  13.5582337  58.6471956 100.7452756  12.7214245  58.2194130 100.5636757
  13.5305982  58.8404399 101.6823547  20.3979792  48.5593886 111.4494002
  20.4467948  49.4356009 111.0671771  20.9402306  48.0171279 110.8765645
  30.8834638  59.1035009 110.7295139  30.0930182  59.0859148 110.1899638
  30.6467993  59.6423303 111.4844175  31.0032513  55.9527475 108.0427867
  31.0530518  55.7877483 108.9843390  30.8946436  55.0854734 107.6525748
  19.8868772  58.6316021  95.3319956  20.0356892  59.3151486  94.6786629
  20.6935215  58.6121111  95.8469412  28.2936275  51.9358403 109.3587174
  29.1946138  51.7964868 109.0671172  28.3684250  52.1012858 110.2985351
  22.6279081  49.3125258 108.2040360  21.7582390  49.6058824 107.9322949
  22.8638561  49.8965703 108.9247624  32.5050710  58.3724417 108.2869889
  32.2135518  58.7354397 109.1233350  31.8922841  57.6591425 108.1083221
  30.7537898  53.4957032 106.7549947  31.2292020  53.6884678 105.9468798
  29.8303463  53.5516217 106.5093330  17.6421405  54.6581199  96.3381025
  17.3967447  53.7543529  96.5361235  17.8117319  54.6598349  95.3960503
  25.3318115  45.5304875 105.7205781  25.8500058  46.2665902 105.3952269
  24.9773247  45.8368868 106.5552540  16.9117052  50.3909556  93.8367187
  16.2186297  50.4653911  93.1807222  16.6668804  49.6269900  94.3588703
  25.5830709  41.9505158 101.2406677  25.8632462  41.2828347 101.8667104
  26.3681316  42.1434253 100.7281341  23.3864177  61.1264152  92.8031704
  22.8138144  61.7454339  92.3502175  23.9596971  61.6763513  93.3371626
  29.4539567  50.3722792 104.9878252  30.4056990  50.4720889 105.0090476
  29.2843017  49.5801060 105.4976337  27.4753947  47.4578375 105.1737653
  26.8803879  47.7383388 104.4784142  27.1903643  47.9472276 105.9454394
  29.2349454  60.7267172  90.8944233  29.1563085  60.3927036  91.7879991
  30.0559120  61.2188940  90.8935706  31.9327645  53.5928911 104.1020552
  31.9003965  52.6544912 104.2880236  32.5428268  53.6712948 103.3686377
  23.7710976  52.4624964  90.1447756  24.7170080  52.3331172  90.2136174
  23.3925221  51.7239626  90.6217184  32.0822133  50.3839955 104.1478835
  31.5661182  49.5998411 103.9608764  32.9662082  50.0558671 104.3125355
  29.7432860  44.1280970 100.1074648  29.5457681  43.8196059 100.9917980
  30.3532566  44.8542609 100.2372578  23.6549668  56.5142710 111.6048413
  24.5752678  56.6921309 111.7988460  23.6199251  55.5698756 111.4528112
  21.9553893  50.3874941  90.0802641  21.0485348  50.0908053  90.1565355
  22.2329874  50.0904759  89.2136928  12.8731833  51.7081304 100.5301688
  12.5534618  50.8546612 100.2376062  12.3265261  51.9229882 101.2859655
  16.6511741  54.4243745 104.2471194  16.8697751  55.3560853 104.2659228
  17.0637515  54.0651720 105.0325998  23.5715959  44.9311830  96.2346883
  22.7616687  44.5858915  96.6102129  24.2600376  44.6219374  96.8234494
  25.5006507  44.0089877  97.8571179  26.0537545  44.4285331  98.5161202
  25.7376593  43.0825625  97.8994135  20.7252677  47.2461876  90.2214620
  21.5871841  47.5716774  90.4810438  20.9103022  46.4593372  89.7087686
  12.7420093  55.3284216 102.4994809  12.0483565  54.9138168 101.9864764
  13.4893084  55.3704752 101.9028228  28.8785314  46.1190402  97.3649843
  28.2983983  46.7775206  96.9827896  28.6121247  45.2967747  96.9537261
  27.3288880  45.5195460  99.5671164  27.8288659  45.6311995  98.7585483
  27.9724488  45.2156513 100.2071972  21.3870876  53.4274090 112.4539005
  20.9037958  54.2274450 112.6602894  21.4731815  53.4382035 111.5006449
  14.6556836  55.2602469 100.3760824  14.6327524  55.3590157  99.4242707
  14.9657472  56.1067620 100.6977990  17.3144214  57.3178624 104.4907439
  18.2687467  57.2862567 104.4237370  17.1156737  56.8569248 105.3057664
  17.9043596  55.8879740 107.0578236  18.7236485  56.3823819 107.0813074
  18.1780403  54.9711709 107.0295804  27.6610192  48.2790493  96.4206192
  26.7736047  48.5640143  96.2026386  28.0764181  48.1184256  95.5733469
  31.0124728  48.3037014 100.1360531  31.7885118  48.7933466 100.4085148
  30.2872862  48.7295068 100.5932400  33.4497287  49.0164633 101.1934472
  34.0441778  48.7760369 100.4827780  33.5223870  48.2971764 101.8208008
  15.6694442  62.8598244 101.5077636  15.5348910  62.0998645 100.9415634
  15.2526505  63.5839144 101.0406425  26.8053405  58.0435167  90.5154212
  27.5089256  58.2485170  91.1311867  26.0816054  58.6111929  90.7803295
  27.6351216  53.7945029  96.6356482  27.5786417  54.2513580  95.7964114
  28.1879558  53.0335713  96.4579325  31.4456022  49.5834761  97.4606601
  31.1892956  49.1831396  98.2914809  30.8208890  50.2978555  97.3356741
  18.8263568  63.7567561 101.7196079  18.7095952  64.7012993 101.6174769
  18.0056015  63.4541122 102.1081878  13.1578510  50.2217874 107.7570433
  13.8037374  49.7116828 108.2457658  12.9495661  50.9586556 108.3313859
  25.6831902  57.2898722 113.2562574  26.5523062  57.4639374 112.8949209
  25.2038654  58.1093139 113.1338303  21.6782120  44.4857919  93.5094329
  21.6660790  45.4299759  93.6662600  22.5705542  44.3028064  93.2153791
  19.8518082  64.4095823 104.9352008  20.7545329  64.4419433 105.2518502
  19.6255453  63.4796274 104.9498343  21.6071684  63.1626809 101.5962086
  20.6567315  63.1628671 101.4826458  21.9104171  62.4159544 101.0798121
  25.4934240  41.0800696  97.7640266  24.7266636  40.5259182  97.9096949
  25.9044945  41.1522564  98.6254418  34.6333867  70.1049628 108.5555579
  34.6222508  69.7102426 107.6836082  34.7954507  69.3715700 109.1489350
  27.5565332  72.3001444 101.4250485  28.3486624  71.9592269 101.0096784
  27.7961982  72.4096419 102.3452638  31.3541128  72.8886739 107.5034763
  31.0630994  73.7932370 107.3881429  31.9898113  72.9303267 108.2178832
  32.2797335  70.2663588 104.0936122  32.8760907  70.0419610 103.3793085
  32.3372307  69.5248333 104.6961570  27.1252306  68.6695225 101.3665050
  27.2544687  68.9229704 102.2804462  26.4449757  69.2622933 101.0469705
  31.2951793  79.3392475  97.4655524  31.2175823  80.2900300  97.5444005
  30.6913437  78.9938348  98.1230450  33.7869023  66.5120341 110.1216891
  33.0102357  67.0714261 110.1119756  34.4259586  66.9977124 110.6431761
  32.0415395  69.3205794 109.6834858  32.7830080  69.8590838 109.4069682
  31.3352381  69.9472083 109.8406410  37.5170735  71.4634935 108.2807020
  37.9254091  71.0217345 107.5361652  36.7947996  70.8887562 108.5341212
  33.8701805  66.4007541 105.6540576  34.7163000  66.8246955 105.7975225
  33.8100443  65.7441166 106.3479140  38.9739713  70.6050522 105.9899016
  39.1856608  71.2482282 105.3133397  38.9269461  69.7712839 105.5220946
  30.7776759  66.4745442 110.4850168  30.1475420  67.1561723 110.7185565
  30.6712847  66.3628524 109.5403306  26.0721731  66.1417238 101.4116092
  25.2820785  66.3974767 100.9356203  26.5632979  66.9565576 101.5168133
  28.0236477  66.5061817  98.3699569  27.2267640  66.6180512  98.8883065
  27.7962069  66.8448470  97.5040459  33.8542144  73.0306521 106.3182084
  33.9186577  73.4926928 107.1540255  33.1453068  72.4003886 106.4464393
  24.3559434  66.3947729 103.8431083  24.6067473  67.2794739 104.1088659
  24.8918983  66.2152330 103.0706175  30.0557502  60.7766208 112.8475419
  29.6624447  60.2232407 113.5223063  30.8723642  61.0876787 113.2381937
  27.0219560  72.2150066  96.7588989  27.5344080  73.0093316  96.9094554
  27.6742272  71.5176357  96.6922590  28.8314444  75.3315823  98.8411742
  29.0081073  76.2533787  98.6532726  29.6271278  75.0174242  99.2706122
  32.9725463  62.1924087 110.4395676  33.7135176  62.7931240 110.3600138
  33.2043386  61.4501725 109.8813718  28.1166801  67.3780454 108.7173905
  28.0020316  66.4765712 109.0181004  27.2611319  67.6244151 108.3658722
  35.1958639  75.3198195 110.3161406  34.7522493  74.5334573 109.9982310
  35.8575852  75.5077345 109.6505297  29.9545760  76.8493996 104.8422084
  30.5053185  76.7211060 104.0699078  29.1157236  77.1488885 104.4916977
  37.2939877  75.6000995 108.3442807  37.2758352  76.4209876 107.8523076
  38.2159797  75.4755070 108.5692948  33.7512931  73.1145124 109.1866316
  34.2841268  72.3533412 108.9565624  33.2227012  72.8218776 109.9290470
  24.9868476  70.5438721  97.5348559  25.8243698  70.9535729  97.3182267
  25.1646744  69.6038163  97.5048753  30.1753958  64.9355244  93.0787624
  29.3391270  65.2729930  93.3996899  30.0358728  64.8004224  92.1414761
  25.0094647  67.8829436  98.2059293  24.8119047  67.2898797  97.4810359
  24.4541311  67.5781646  98.9235232  36.5257943  66.8571427 106.9159159
  36.8807330  67.0842900 107.7753625  37.1730074  67.1889803 106.2936414
  30.4197806  63.9647958 103.7005500  31.0597185  63.8236717 103.0028463
  29.5875336  63.6782471 103.3244102  27.5040873  67.4093470  95.8900245
  26.5738461  67.3477925  96.1070207  27.5998345  66.8869423  95.0936886
  28.8951348  65.3486040 105.6477311  29.5674401  65.1403402 104.9989960
  28.0681134  65.1508126 105.2082543  34.7976920  61.9747981 107.6642972
  34.1504835  62.6737930 107.5707448  35.5677935  62.4084125 108.0319220
  38.2055718  72.2396833 110.7393525  38.0541224  72.0107385 109.8223609
  38.1960397  73.1967434 110.7524870  34.9741054  69.8128746 105.7239792
  35.9033114  69.9639905 105.5508759  34.5532084  69.9012766 104.8688438
  34.3677538  78.9388506  94.8363866  34.5429293  78.4676550  95.6509489
  33.6810326  79.5654273  95.0645127  29.2978845  68.6228643 106.4079748
  29.1598643  67.8908882 107.0091287  30.2083768  68.5337543 106.1263936
  31.9261145  68.3348602 105.8963428  32.6360764  67.6941794 105.8550046
  31.8830454  68.5861497 106.8189609  39.9147924  75.2715955 108.8170007
  39.8560470  74.5875176 108.1500590  40.3167443  76.0134945 108.3650633
  30.6390079  65.3213820 107.7159067  30.1027436  64.8704558 108.3680664
  30.0506788  65.4559729 106.9729532  28.9338623  82.0877869 101.6103726
  29.1735221  82.7196393 102.2882745  28.0907819  81.7365909 101.8969085
  30.0492338  64.7802471  90.2785531  29.1721805  64.6591272  89.9147778
  30.5250091  63.9888550  90.0264420  21.5694479  69.5679631 100.3727038
  22.2565518  69.2541361  99.7848054  21.4142607  70.4720996 100.0994290
  26.3729201  64.4569828 104.8012062  26.2887389  63.8495497 104.0662472
  25.5511907  64.9478846 104.8021558  33.4466485  77.8956992 104.0145230
  33.3736656  78.7011963 104.5264535  33.0043878  78.0948958 103.1893251
  35.9065168  77.7943826 106.1703389  36.6193141  78.4291291 106.0979290
  35.4155197  77.8907692 105.3543391  30.9577082  75.5438269 106.9908960
  31.6586541  76.1774752 107.1438354  30.4872197  75.8853001 106.2304599
  38.7578368  68.0982877 104.8161510  38.1049818  68.3458784 104.1613963
  39.1358748  67.2847015 104.4823987  34.8065941  68.8402688 111.3027547
  34.1306578  68.7396817 111.9729922  35.6293575  68.6841901 111.7663544
  26.5544800  75.0774624 103.9240062  27.1398237  74.3318312 104.0567966
  26.3569638  75.3878581 104.8076726  29.4083455  78.1125872  98.9402505
  28.7393830  78.5971999  98.4566545  29.2696325  78.3595092  99.8545883
  21.1462455  67.6480224 102.6444505  21.1846554  67.1143815 103.4381624
  20.6402747  67.1215430 102.0255483  33.5488724  80.1469615 105.5385163
  34.1007032  80.3101237 106.3034248  33.8894917  80.7374053 104.8665188
  28.5253217  62.4944765 106.1407048  28.5894543  63.3559596 105.7284445
  28.4620337  61.8818767 105.4079406  28.0005489  64.5667897 109.7880082
  28.6277528  64.1844975 110.4017606  27.1433408  64.3482099 110.1535774
  38.3999598  74.9730873 111.3933817  38.9439502  75.5860831 110.8988772
  37.8186443  75.5310451 111.9100830  24.7771032  66.3744327  95.7198437
  25.0724473  65.4655005  95.6665490  23.8759068  66.3532066  95.3979439
  28.3065279  64.4500323 101.7025985  27.5851865  65.0636291 101.5633459
  29.0958535  64.9858088 101.6242631  31.1091593  61.7854750 107.9766637
  31.6325995  62.0317046 108.7392946  30.8903926  62.6174784 107.5569774
  26.5058874  64.0558424  95.8437762  26.1771580  63.1755803  95.6612868
  26.8598245  64.0006093  96.7314151  32.3144138  62.7268445 105.6616308
  31.9740958  61.9276258 106.0636988  31.6083144  63.0270156 105.0893141
  32.9660610  59.8117757 104.1143631  33.7886679  59.3378235 103.9922521
  33.2098673  60.5908241 104.6142317  24.9644851  69.0442222 104.8623270
  24.4198319  69.8202030 104.9943545  25.8424200  69.3913027 104.7042392
  25.7510872  68.1712119 107.7553427  25.0092608  68.3194754 108.3418058
  25.4303617  68.4320384 106.8920177  33.6954535  77.7128097 107.5533817
  34.0041662  77.4677244 108.4256517  34.4930017  77.9174735 107.0652688
  33.7175147  79.8666006  99.7839194  33.2780137  79.3742385 100.4772051
  34.4683264  79.3238974  99.5431269  26.1967486  76.0577547  99.7863822
  27.0225506  75.7581319  99.4062466  25.8461538  75.2885170 100.2353611
  31.1649019  75.4104015 101.8561496  30.5429029  74.7474720 101.5563723
  31.8353886  75.4365147 101.1735143  24.3976091  73.9763874 100.7452756
  23.5607999  73.5486048 100.5636757  24.3699737  74.1696317 101.6823547
  31.2373547  63.8885803 111.4494002  31.2861702  64.7647926 111.0671771
  31.7796061  63.3463197 110.8765645  41.7228392  74.4326927 110.7295139
  40.9323936  74.4151066 110.1899638  41.4861747  74.9715220 111.4844175
  41.8426267  71.2819393 108.0427867  41.8924272  71.1169401 108.9843390
  41.7340191  70.4146652 107.6525748  39.1330030  67.2650321 109.3587174
  40.0339893  67.1256786 109.0671172  39.2078004  67.4304776 110.2985351
  33.4672835  64.6417176 108.2040360  32.5976145  64.9350742 107.9322949
  33.7032316  65.2257621 108.9247624  43.3444464  73.7016335 108.2869889
  43.0529273  74.0646315 109.1233350  42.7316596  72.9883343 108.1083221
  41.5931653  68.8248949 106.7549947  42.0685774  69.0176596 105.9468798
  40.6697218  68.8808135 106.5093330  28.4815159  69.9873116  96.3381025
  28.2361201  69.0835446  96.5361235  28.6511074  69.9890267  95.3960503
  27.7510807  65.7201474  93.8367187  27.0580052  65.7945829  93.1807222
  27.5062559  64.9561818  94.3588703  34.4943423  71.8434628 111.6048413
  35.4146432  72.0213227 111.7988460  34.4593006  70.8990673 111.4528112
  23.7125588  67.0373222 100.5301688  23.3928372  66.1838530 100.2376062
  23.1659016  67.2521800 101.2859655  27.4905495  69.7535663 104.2471194
  27.7091505  70.6852771 104.2659228  27.9031269  69.3943637 105.0325998
  32.3633361  65.3268869 113.6373943  32.2630087  66.2763226 113.5686034
  32.1454903  64.9987107 112.7650013  31.5646432  62.5753794  90.2214620
  32.4265596  62.9008692  90.4810438  31.7496776  61.7885290  89.7087686
  23.5813848  70.6576133 102.4994809  22.8877319  70.2430086 101.9864764
  24.3286839  70.6996670 101.9028228  32.2264631  68.7566007 112.4539005
  31.7431712  69.5566368 112.6602894  32.3125570  68.7673952 111.5006449
  25.4950590  70.5894387 100.3760824  25.4721278  70.6882074  99.4242707
  25.8051227  71.4359538 100.6977990  28.1537968  72.6470542 104.4907439
  29.1081222  72.6154484 104.4237370  27.9550492  72.1861166 105.3057664
  28.7437350  71.2171658 107.0578236  29.5630239  71.7115737 107.0813074
  29.0174158  70.3003626 107.0295804  26.5088197  78.1890162 101.5077636
  26.3742665  77.4290562 100.9415634  26.0920259  78.9131061 101.0406425
  29.6657323  79.0859479 101.7196079  29.5489707  80.0304911 101.6174769
  28.8449769  78.7833040 102.1081878  23.9972265  65.5509792 107.7570433
  24.6431128  65.0408746 108.2457658  23.7889416  66.2878474 108.3313859
  36.5225657  72.6190639 113.2562574  37.3916816  72.7931292 112.8949209
  36.0432408  73.4385056 113.1338303  30.6911837  79.7387740 104.9352008
  31.5939084  79.7711351 105.2518502  30.4649207  78.8088191 104.9498343
  32.4465439  78.4918727 101.5962086  31.4961070  78.4920589 101.4826458
  32.7497925  77.7451462 101.0798121  28.3369756  62.6977409 111.8545448
  29.2001217  62.3414214 112.0648772  27.7635166  62.3591304 112.5420852
  45.4727622  85.4341545 108.5555579  45.4616262  85.0394344 107.6836082
  45.6348261  84.7007618 109.1489350  38.3959086  87.6293362 101.4250485
  39.1880378  87.2884186 101.0096784  38.6355737  87.7388337 102.3452638
  42.1934883  88.2178657 107.5034763  41.9024749  89.1224288 107.3881429
  42.8291867  88.2595185 108.2178832  43.1191090  85.5955506 104.0936122
  43.7154662  85.3711528 103.3793085  43.1766061  84.8540251 104.6961570
  50.6593248  75.7027527 105.0988644  50.3276573  76.5722938 104.8749859
  50.0638862  75.3863811 105.7782674  47.1524768  87.9040073 104.4984556
  46.8525491  88.8065111 104.3900364  46.8075827  87.6372256 105.3505709
  42.1345548  94.6684393  97.4655524  42.0569577  95.6192218  97.5444005
  41.5307191  94.3230265  98.1230450  44.6262777  81.8412258 110.1216891
  43.8496112  82.4006178 110.1119756  45.2653341  82.3269041 110.6431761
  42.8809150  84.6497712 109.6834858  43.6223834  85.1882756 109.4069682
  42.1746135  85.2764000 109.8406410  48.3564489  86.7926852 108.2807020
  48.7647845  86.3509263 107.5361652  47.6341751  86.2179480 108.5341212
  48.6793304  87.3528043 102.0359308  48.0502167  87.5173757 101.3335376
  48.2918966  87.7669652 102.8070272  52.5582536  88.2882481  99.3903672
  51.8733574  88.6681382  98.8400705  52.6426385  88.8977807 100.1235620
  47.8595005  79.3903827 107.3121750  47.6155937  80.1445888 106.7756026
  48.1354935  79.7689175 108.1468997  41.6170514  81.8037360 110.4850168
  40.9869174  82.4853641 110.7185565  41.5106601  81.6920441 109.5403306
  50.9279296  88.8114395 104.1621373  51.7496739  88.4094582 103.8804055
  50.9241698  88.7082629 105.1137489  44.6935899  88.3598438 106.3182084
  44.7580332  88.8218846 107.1540255  43.9846823  87.7295803 106.4464393
  35.1953189  81.7239646 103.8431083  35.4461227  82.6086656 104.1088659
  35.7312737  81.5444248 103.0706175  59.0185289  85.1553144 100.5106344
  58.2648997  84.5860542 100.3550349  59.1532830  85.1215808 101.4576979
  40.8951256  76.1058126 112.8475419  40.5018202  75.5524324 113.5223063
  41.7117397  76.4168704 113.2381937  37.8613314  87.5441984  96.7588989
  38.3737835  88.3385234  96.9094554  38.5136027  86.8468274  96.6922590
  39.6708199  90.6607740  98.8411742  39.8474827  91.5825705  98.6532726
  40.4665032  90.3466159  99.2706122  43.8119217  77.5216005 110.4395676
  44.5528931  78.1223158 110.3600138  44.0437140  76.7793643 109.8813718
  38.9560555  82.7072372 108.7173905  38.8414070  81.8057629 109.0181004
  38.1005073  82.9536069 108.3658722  46.0352393  90.6490112 110.3161406
  45.5916247  89.8626491 109.9982310  46.6969607  90.8369263 109.6505297
  40.7939514  92.1785914 104.8422084  41.3446939  92.0502977 104.0699078
  39.9550990  92.4780803 104.4916977  48.1333631  90.9292912 108.3442807
  48.1152106  91.7501793 107.8523076  49.0553551  90.8046988 108.5692948
  44.5906685  88.4437042 109.1866316  45.1235022  87.6825330 108.9565624
  44.0620766  88.1510694 109.9290470  47.7576380  73.5497108 104.7159957
  47.4140650  74.4398749 104.6399068  48.1255343  73.3598765 103.8529542
  35.8262231  85.8730638  97.5348559  36.6637453  86.2827647  97.3182267
  36.0040499  84.9330080  97.5048753  48.9552438  90.9398926  98.9285076
  49.2475413  91.5003983  98.2097442  49.4651059  91.2327487  99.6838236
  35.8488402  83.2121354  98.2059293  35.6512802  82.6190714  97.4810359
  35.2935066  82.9073564  98.9235232  43.9186063  91.7179277 100.0178530
  43.8762242  91.9440123  99.0887062  44.8348762  91.4842651 100.1664331
  53.1218814  87.3758307 102.6319759  53.5555320  87.2833596 103.4802813
  53.8350394  87.3515808 101.9939775  46.8546709  90.9760401 104.1652860
  46.9083731  91.5451338 104.9330576  45.9861490  91.1462286 103.8006897
  53.9834363  87.4182008 105.1652645  54.1770253  88.3227818 105.4111920
  53.8834981  86.9589427 105.9991230  45.6370674  77.3039898 107.6642972
  44.9898589  78.0029848 107.5707448  46.4071689  77.7376042 108.0319220
  49.0449472  87.5688751 110.7393525  48.8934978  87.3399302 109.8223609
  49.0354151  88.5259352 110.7524870  45.8134808  85.1420663 105.7239792
  46.7426868  85.2931823 105.5508759  45.3925838  85.2304684 104.8688438
  44.6123140  89.1671328 103.4938329  44.4734226  88.7990112 104.3664268
  43.8237736  89.6818967 103.3222287  45.2071292  94.2680424  94.8363866
  45.3823048  93.7968467  95.6509489  44.5204080  94.8946190  95.0645127
  40.1372599  83.9520560 106.4079748  39.9992397  83.2200799 107.0091287
  41.0477523  83.8629461 106.1263936  50.7541679  90.6007873 108.8170007
  50.6954225  89.9167093 108.1500590  51.1561197  91.3426863 108.3650633
  41.4783834  80.6505738 107.7159067  40.9421191  80.1996476 108.3680664
  40.8900542  80.7851646 106.9729532  39.7732377  97.4169787 101.6103726
  40.0128976  98.0488311 102.2882745  38.9301574  97.0657827 101.8969085
  50.7559086  88.5647457 107.0483987  49.8685865  88.2273379 107.1710386
  51.3257637  87.8330488 107.2852752  32.4088233  84.8971549 100.3727038
  33.0959273  84.5833279  99.7848054  32.2536362  85.8012913 100.0994290
  37.2122955  79.7861745 104.8012062  37.1281144  79.1787415 104.0662472
  36.3905662  80.2770764 104.8021558  44.2860239  93.2248909 104.0145230
  44.2130411  94.0303881 104.5264535  43.8437632  93.4240875 103.1893251
  44.0750019  92.4620679  97.5248052  43.2917541  93.0042360  97.6186276
  44.7742764  92.9794659  97.9242293  46.7458923  93.1235743 106.1703389
  47.4586895  93.7583208 106.0979290  46.2548951  93.2199609 105.3543391
  41.7970836  90.8730187 106.9908960  42.4980296  91.5066670 107.1438354
  41.3265951  91.2144918 106.2304599  46.5579296  93.4634487  98.9189680
  46.7401691  92.6456143  99.3817433  47.3812282  93.6802180  98.4814570
  46.8921462  92.3902673  96.1804729  47.4209228  91.8795127  95.5674891
  47.1549681  92.0745203  97.0450262  45.6459695  84.1694605 111.3027547
  44.9700332  84.0688735 111.9729922  46.4687329  84.0133819 111.7663544
  37.3938554  90.4066542 103.9240062  37.9791991  89.6610230 104.0567966
  37.1963393  90.7170499 104.8076726  40.2477210  93.4417789  98.9402505
  39.5787585  93.9263917  98.4566545  40.1090079  93.6887010  99.8545883
  31.9856209  82.9772142 102.6444505  32.0240309  82.4435733 103.4381624
  31.4796502  82.4507348 102.0255483  44.3882478  95.4761533 105.5385163
  44.9400786  95.6393154 106.3034248  44.7288672  96.0665971 104.8665188
  39.3646971  77.8236683 106.1407048  39.4288298  78.6851514 105.7284445
  39.3014092  77.2110684 105.4079406  38.8399244  79.8959815 109.7880082
  39.4671283  79.5136892 110.4017606  37.9827163  79.6774017 110.1535774
  49.2393353  90.3022790 111.3933817  49.7833257  90.9152749 110.8988772
  48.6580197  90.8602369 111.9100830  47.5250866  93.4243508 102.5248845
  47.4002005  92.6233248 102.0159791  48.1829957  93.9189702 102.0362815
  49.5885774  91.2252528 104.1528395  48.6416109  91.1057880 104.0806722
  49.9368547  90.3375026 104.2354657  41.9485347  77.1146667 107.9766637
  42.4719749  77.3608964 108.7392946  41.7297681  77.9466702 107.5569774
  46.5932207  91.0205245 100.3532747  46.4457170  90.0921952 100.5340318
  47.4185701  91.0425335  99.8689823  50.1966329  91.8433803 101.4397620
  51.1212877  91.6376665 101.3022071  50.0281632  91.5950205 102.3486962
  35.8038605  84.3734140 104.8623270  35.2592073  85.1493948 104.9943545
  36.6817955  84.7204944 104.7042392  36.5904627  83.5004036 107.7553427
  35.8486363  83.6486672 108.3418058  36.2697371  83.7612302 106.8920177
  44.5348290  93.0420014 107.5533817  44.8435416  92.7969161 108.4256517
  45.3323772  93.2466653 107.0652688  44.5568902  95.1957924  99.7839194
  44.1173892  94.7034303 100.4772051  45.3077019  94.6530892  99.5431269
  37.0361241  91.3869465  99.7863822  37.8619260  91.0873237  99.4062466
  36.6855293  90.6177087 100.2353611  42.0042774  90.7395933 101.8561496
  41.3822783  90.0766638 101.5563723  42.6747641  90.7657065 101.1735143
  35.2369846  89.3055791 100.7452756  34.4001754  88.8777966 100.5636757
  35.2093491  89.4988235 101.6823547  42.0767301  79.2177721 111.4494002
  42.1255457  80.0939844 111.0671771  42.6189815  78.6755114 110.8765645
  52.5622147  89.7618844 110.7295139  51.7717691  89.7442983 110.1899638
  52.3255501  90.3007138 111.4844175  52.6820022  86.6111311 108.0427867
  52.7318027  86.4461318 108.9843390  52.5733945  85.7438570 107.6525748
  44.3066590  79.9709094 108.2040360  43.4369899  80.2642660 107.9322949
  44.5426070  80.5549539 108.9247624  54.1838219  89.0308252 108.2869889
  53.8923027  89.3938233 109.1233350  53.5710350  88.3175261 108.1083221
  47.0105624  76.1888710 105.7205781  47.5287567  76.9249737 105.3952269
  46.6560756  76.4952704 106.5552540  49.1541456  78.1162210 105.1737653
  48.5591388  78.3967223 104.4784142  48.8691152  78.6056111 105.9454394
  59.4291704  85.3128754 103.2426589  60.1595092  85.0514042 103.8034292
  58.8198649  84.5757475 103.2828657  57.5107001  83.4536616 103.8401040
  56.7840164  83.3192581 103.2317532  57.0954288  83.7613445 104.6457758
  45.3337177  87.1726546 111.6048413  46.2540187  87.3505145 111.7988460
  45.2986760  86.2282591 111.4528112  34.5519342  82.3665139 100.5301688
  34.2322127  81.5130448 100.2376062  34.0052770  82.5813718 101.2859655
  38.3299250  85.0827580 104.2471194  38.5485260  86.0144688 104.2659228
  38.7425024  84.7235555 105.0325998  43.2027115  80.6560786 113.6373943
  43.1023842  81.6055143 113.5686034  42.9848657  80.3279025 112.7650013
  34.4207602  85.9868051 102.4994809  33.7271074  85.5722004 101.9864764
  35.1680593  86.0288587 101.9028228  43.0658385  84.0857925 112.4539005
  42.5825467  84.8858285 112.6602894  43.1519324  84.0965870 111.5006449
  36.3344345  85.9186305 100.3760824  36.3115033  86.0173992  99.4242707
  36.6444981  86.7651456 100.6977990  38.9931723  87.9762460 104.4907439
  39.9474976  87.9446402 104.4237370  38.7944246  87.5153084 105.3057664
  39.5831105  86.5463576 107.0578236  40.4023994  87.0407654 107.0813074
  39.8567912  85.6295544 107.0295804  37.3481951  93.5182079 101.5077636
  37.2136419  92.7582480 100.9415634  36.9314014  94.2422979 101.0406425
  40.5051077  94.4151396 101.7196079  40.3883461  95.3596829 101.6174769
  39.6843524  94.1124958 102.1081878  34.8366019  80.8801710 107.7570433
  35.4824883  80.3700664 108.2457658  34.6283170  81.6170391 108.3313859
  47.3619411  87.9482557 113.2562574  48.2310571  88.1223209 112.8949209
  46.8826163  88.7676974 113.1338303  41.5305591  95.0679658 104.9352008
  42.4332838  95.1003268 105.2518502  41.3042961  94.1380109 104.9498343
  43.2859193  93.8210645 101.5962086  42.3354824  93.8212506 101.4826458
  43.5891680  93.0743379 101.0798121  39.1763510  78.0269327 111.8545448
  40.0394972  77.6706132 112.0648772  38.6028921  77.6883222 112.5420852
  59.0211887  99.6571183 102.6607849  59.6590297  99.5377930 101.9571189
  58.9032730 100.6052027 102.7195801  55.8301593  99.6098611 102.5969373
  55.4920105  99.4939676 101.7089908  56.6991361  99.2089776 102.5770379
  51.6888409 101.4634088  98.5866264  51.1253274 101.3724025  97.8182552
  51.5740804 100.6433992  99.0668757  56.3121376 100.7633463 108.5555579
  56.3010017 100.3686261 107.6836082  56.4742016 100.0299536 109.1489350
  49.2352841 102.9585279 101.4250485  50.0274133 102.6176104 101.0096784
  49.4749491 103.0680254 102.3452638  57.2687968 105.1305055  93.8980729
  56.6175947 105.7159136  93.5114743  58.0632330 105.6611250  93.9575767
  51.1943595 102.2194192  94.2967863  51.9674471 101.6723180  94.1580739
  51.5468994 103.0838442  94.5082325  53.0328637 103.5470575 107.5034763
  52.7418503 104.4516206 107.3881429  53.6685622 103.5887102 108.2178832
  53.9584844 100.9247423 104.0936122  54.5548416 100.7003446 103.3793085
  54.0159816 100.1832169 104.6961570  53.5309873  98.3786859  91.9286313
  53.7835393  97.8568380  91.1669776  52.5934432  98.2153004  92.0312997
  58.5753155  97.3822637  99.7361057  59.3616245  96.9642060  99.3851474
  58.8391860  98.2868729  99.9042705  58.7463233 102.8195487  94.4349713
  58.1109066 102.8930114  95.1470618  58.4160639 103.4089086  93.7568793
  63.9761583  97.3197870 100.6394035  64.7086754  96.7497087 100.8731865
  63.2200938  96.9319471 101.0800541  53.2506161 100.2814965  94.1310688
  53.1342419  99.6059868  94.7991773  53.3608421  99.7947338  93.3142841
  55.5937702  99.7425112  97.8357378  55.2295909  99.2155733  98.5470299
  56.4504818  99.3523581  97.6623863  61.4987003  91.0319444 105.0988644
  61.1670328  91.9014855 104.8749859  60.9032616  90.7155728 105.7782674
  55.2343189  94.7715011  92.8318726  55.4017592  95.6395248  93.1989197
  55.0440358  94.9342293  91.9080015  57.9918522 103.2331990 104.4984556
  57.6919246 104.1357029 104.3900364  57.6469582 102.9664173 105.3505709
  51.4431004  99.6845787 100.5321261  50.5181500  99.5522001 100.7398953
  51.6915417 100.4640006 101.0291203  61.3915666  95.7514530 102.1781994
  60.4832544  95.6829939 101.8840755  61.3403262  96.2286475 103.0063819
  55.2132410  97.2272669  93.8165393  55.0932035  97.6729720  94.6550873
  54.5184998  97.5757987  93.2578931  48.8039815  99.3279061 101.3665050
  48.9332196  99.5813540 102.2804462  48.1237266  99.9206769 101.0469705
  52.9739302 109.9976311  97.4655524  52.8963332 110.9484136  97.5444005
  52.3700946 109.6522183  98.1230450  55.4656532  97.1704176 110.1216891
  54.6889866  97.7298096 110.1119756  56.1047095  97.6560959 110.6431761
  63.2577313  93.9530969 103.9559868  62.6151693  94.2463502 103.3099662
  62.7532241  93.8383889 104.7613064  60.9117476  97.6994142  94.6445727
  61.8235332  97.9321529  94.4693424  60.4027123  98.2831186  94.0820806
  53.7202904  99.9789629 109.6834858  54.4617589 100.5174673 109.4069682
  53.0139890 100.6055918 109.8406410  59.1958244 102.1218770 108.2807020
  59.6041600 101.6801180 107.5361652  58.4735505 101.5471397 108.5341212
  55.5489314  97.0591377 105.6540576  56.3950509  97.4830790 105.7975225
  55.4887952  96.4025001 106.3479140  59.5187059 102.6819960 102.0359308
  58.8895921 102.8465675 101.3335376  59.1312721 103.0961570 102.8070272
  63.3976290 103.6174398  99.3903672  62.7127329 103.9973300  98.8400705
  63.4820140 104.2269725 100.1235620  58.6988759  94.7195745 107.3121750
  58.4549691  95.4737806 106.7756026  58.9748690  95.0981093 108.1468997
  60.6527222 101.2634357 105.9899016  60.8644117 101.9066117 105.3133397
  60.6056970 100.4296674 105.5220946  58.2553451  93.8752178 102.8935588
  57.3937930  94.1733432 103.1852325  58.2815886  94.0922577 101.9616620
  55.0715020 102.4194369  99.3009393  55.5353366 102.6982072  98.5114016
  54.8071819 101.5177813  99.1182484  51.9639102 101.9665850 102.2389157
  52.5340459 102.3953118 101.6006641  52.5547213 101.6848435 102.9373342
  54.0083907  98.5417521  96.1098959  54.7107950  98.9938565  96.5772885
  53.6764535  97.9001340  96.7378852  52.4564268  97.1329278 110.4850168
  51.8262929  97.8145558 110.7185565  52.3500356  97.0212359 109.5403306
  47.7509240  96.8001074 101.4116092  46.9608294  97.0558602 100.9356203
  48.2420488  97.6149411 101.5168133  61.7673050 104.1406313 104.1621373
  62.5890494 103.7386500 103.8804055  61.7635453 104.0374547 105.1137489
  49.7023986  97.1645653  98.3699569  48.9055149  97.2764347  98.8883065
  49.4749578  97.5032305  97.5040459  55.5329653 103.6890356 106.3182084
  55.5974086 104.1510763 107.1540255  54.8240577 103.0587721 106.4464393
  46.0346943  97.0531564 103.8431083  46.2854982  97.9378574 104.1088659
  46.5706492  96.8736166 103.0706175  69.8579043 100.4845061 100.5106344
  69.1042751  99.9152459 100.3550349  69.9926584 100.4507726 101.4576979
  55.2477671 105.3558464  96.1861064  55.1123346 106.2009999  96.6145912
  55.7887484 105.5577741  95.4226998  51.7345011  91.4350043 112.8475419
  51.3411956  90.8816242 113.5223063  52.5511151  91.7460622 113.2381937
  48.7007069 102.8733902  96.7588989  49.2131589 103.6677152  96.9094554
  49.3529781 102.1760192  96.6922590  50.5101953 105.9899658  98.8411742
  50.6868582 106.9117623  98.6532726  51.3058787 105.6758077  99.2706122
  54.6512972  92.8507922 110.4395676  55.3922685  93.4515076 110.3600138
  54.8830895  92.1085560 109.8813718  49.7954310  98.0364290 108.7173905
  49.6807825  97.1349547 109.0181004  48.9398828  98.2827987 108.3658722
  56.8746148 105.9782030 110.3161406  56.4310002 105.1918409 109.9982310
  57.5363361 106.1661181 109.6505297  51.6333269 107.5077832 104.8422084
  52.1840694 107.3794895 104.0699078  50.7944745 107.8072721 104.4916977
  58.9727386 106.2584830 108.3442807  58.9545861 107.0793711 107.8523076
  59.8947306 106.1338905 108.5692948  55.4300440 103.7728959 109.1866316
  55.9628777 103.0117248 108.9565624  54.9014521 103.4802611 109.9290470
  58.5970135  88.8789025 104.7159957  58.2534404  89.7690667 104.6399068
  58.9649097  88.6890683 103.8529542  46.6655985 101.2022556  97.5348559
  47.5031207 101.6119564  97.3182267  46.8434253 100.2621998  97.5048753
  58.5620417  98.8697637  93.2232392  58.0467041  99.6402241  93.4620780
  58.2897726  98.1962773  93.8465454  56.1467528  93.7147337  98.2817631
  55.2909125  93.3254188  98.1023269  56.5594480  93.7939298  97.4217416
  57.6766675  91.2493681 102.6809191  57.1731471  91.2123816 101.8676996
  57.9697282  92.1586423 102.7405847  53.9209561  91.3332410 101.6875372
  54.7862558  91.1375219 101.3281262  53.9887070  91.1042762 102.6144729
  63.5354692 101.6229991  95.1585566  62.7584134 101.2841151  94.7140728
  64.2146173 101.6282614  94.4840531  58.3506721  96.7424729  95.0492174
  58.0456856  97.0570878  95.9002317  59.3037163  96.8206149  95.0919507
  56.7953152 102.9014952  96.6985128  56.2674514 102.1667712  96.3858365
  56.2940655 103.6789628  96.4525096  61.7745998 101.0963972 101.8152174
  61.1169673 101.7863234 101.9032303  62.5786398 101.4860404 102.1586160
  51.5271880  93.5634618  99.0591739  52.1015632  93.3409800  98.3264932
  52.1142862  93.6323313  99.8120340  60.5851457  99.4508345  99.8656116
  61.0983339 100.0838337 100.3677825  61.2352681  98.8509541  99.4999476
  51.8541467  95.5939079  93.0787624  51.0178779  95.9313766  93.3996899
  51.7146237  95.4588059  92.1414761  54.9405753 100.7195162  89.7020101
  54.0332814 100.4884416  89.9011250  55.4376785  99.9232781  89.8894082
  57.8473832 109.4292669  92.6216787  57.1735530 109.7324366  93.2301745
  58.2339653 110.2321750  92.2722244  57.0632288  96.9257801 102.1114456
  56.1454850  97.1472748 101.9536144  57.4792432  97.0004111 101.2526163
  57.8467336  98.3249216  97.2417136  58.5939155  98.8370614  96.9324258
  58.1158925  98.0033269  98.1021530  56.1193986 100.8207757  94.2244091
  55.2105205 100.5366790  94.3216560  56.1489070 101.2406836  93.3647398
  61.3513253 104.4314347  97.9935258  60.8975581 103.5905256  98.0500449
  60.7207220 105.0675745  98.3310038  60.2946173  95.3606333  99.2235926
  59.5568930  94.8483719  99.5546168  60.5472947  94.9206714  98.4119203
  59.7946193 106.2690843  98.9285076  60.0869167 106.8295900  98.2097442
  60.3044813 106.5619404  99.6838236  60.3957800  88.1382585  99.8177695
  60.7016677  87.2779948  99.5303610  61.1210405  88.7300205  99.6176689
  46.6882156  98.5413271  98.2059293  46.4906556  97.9482632  97.4810359
  46.1328820  98.2365481  98.9235232  54.6678880  98.4336378 100.3253886
  54.7227490  97.4810214 100.2496363  53.8570082  98.5895817 100.8095184
  55.8170074 102.3616501  91.5632169  55.3789504 101.6452360  91.1037807
  56.5580515 102.5892616  91.0017261  52.6071240  97.0513437  98.0844265
  51.7939106  97.3507608  98.4909457  53.1030234  96.6569126  98.8018747
  54.7579818 107.0471194 100.0178530  54.7155997 107.2732041  99.0887062
  55.6742517 106.8134569 100.1664331  58.2045452  97.5155262 106.9159159
  58.5594839  97.7426735 107.7753625  58.8517583  97.8473639 106.2936414
  63.9343189 100.6373698  97.6208488  63.7961087 100.8275294  96.6929677
  63.5779407 101.3993081  98.0776539  52.0985315  94.6231793 103.7005500
  52.7384694  94.4820552 103.0028463  51.2662845  94.3366306 103.3244102
  63.9612568 102.7050225 102.6319759  64.3949075 102.6125514 103.4802813
  64.6744149 102.6807725 101.9939775  52.8745619 103.9234223  99.8140492
  53.6686217 103.4284544  99.6123067  52.1637311 103.3952087  99.4508198
  57.6940463 106.3052319 104.1652860  57.7477485 106.8743255 104.9330576
  56.8255245 106.4754204 103.8006897  49.1828382  98.0677305  95.8900245
  48.2525970  98.0061761  96.1070207  49.2785854  97.5453258  95.0936886
  49.1013931  94.5932118  98.4778487  49.3620749  95.5077451  98.3687647
  49.9231104  94.1256561  98.6275099  50.5738857  96.0069875 105.6477311
  51.2461910  95.7987237 104.9989960  49.7468643  95.8091961 105.2082543
  64.8228118 102.7473925 105.1652645  65.0164008 103.6519736 105.4111920
  64.7228736 102.2881345 105.9991230  56.4764429  92.6331816 107.6642972
  55.8292344  93.3321766 107.5707448  57.2465444  93.0667960 108.0319220
  59.8843226 102.8980668 110.7393525  59.7328733 102.6691220 109.8223609
  59.8747906 103.8551270 110.7524870  56.6528563 100.4712581 105.7239792
  57.5820623 100.6223741 105.5508759  56.2319593 100.5596602 104.8688438
  55.4516895 104.4963245 103.4938329  55.3127980 104.1282030 104.3664268
  54.6631491 105.0110885 103.3222287  56.0465047 109.5972342  94.8363866
  56.2216802 109.1260385  95.6509489  55.3597835 110.2238108  95.0645127
  57.0022110 103.8744848 100.8827167  56.6671942 103.8345618 101.7784817
  56.5026056 103.2089564 100.4097577  50.9766354  99.2812478 106.4079748
  50.8386152  98.5492717 107.0091287  51.8871277  99.1921378 106.1263936
  59.9381301 101.2200882  91.1564227  59.3210472 100.4947711  91.0597280
  59.4697790 101.9810243  90.8131301  53.6048654  98.9932437 105.8963428
  54.3148273  98.3525630 105.8550046  53.5617963  99.2445332 106.8189609
  61.5935433 105.9299791 108.8170007  61.5347979 105.2459011 108.1500590
  61.9954952 106.6718781 108.3650633  52.3177588  95.9797655 107.7159067
  51.7814945  95.5288394 108.3680664  51.7294297  96.1143564 106.9729532
  50.6126132 112.7461705 101.6103726  50.8522730 113.3780229 102.2882745
  49.7695328 112.3949745 101.8969085  51.7279847  95.4386307  90.2785531
  50.8509314  95.3175107  89.9147778  52.2037600  94.6472385  90.0264420
  61.5952840 103.8939375 107.0483987  60.7079619 103.5565296 107.1710386
  62.1651391 103.1622406 107.2852752  43.2481988 100.2263466 100.3727038
  43.9353027  99.9125196  99.7848054  43.0930116 101.1304831 100.0994290
  48.0516710  95.1153663 104.8012062  47.9674898  94.5079333 104.0662472
  47.2299416  95.6062681 104.8021558  55.1253994 108.5540827 104.0145230
  55.0524165 109.3595799 104.5264535  54.6831387 108.7532793 103.1893251
  54.9143773 107.7912597  97.5248052  54.1311295 108.3334277  97.6186276
  55.6136519 108.3086577  97.9242293  58.2240424  93.6007227 100.1682257
  58.7209123  92.8477189  99.8483327  57.4527405  93.6371543  99.6025466
  66.0770181  99.3047592 101.8100549  66.0660057 100.1872307 101.4394482
  65.2087560  98.9519143 101.6155086  57.5852677 108.4527661 106.1703389
  58.2980650 109.0875126 106.0979290  57.0942706 108.5491527 105.3543391
  59.3070204 102.3578914  97.7420680  58.3726483 102.4780376  97.5725385
  59.4846873 101.4551381  97.4780690  54.8075392  95.7424610  99.8953942
  54.4373180  95.1895650 100.5834847  55.3034485  95.1382743  99.3428942
  62.6942756  98.1996233  98.2770715  63.1603208  99.0324225  98.2031017
  63.1450256  97.7341215  98.9815973  52.6364591 106.2022105 106.9908960
  53.3374050 106.8358588 107.1438354  52.1659706 106.5436836 106.2304599
  60.7618987 104.5440054  95.2756867  61.0378831 104.4296649  96.1850741
  59.8923485 104.1457539  95.2369040  60.6659418  90.5676820 102.3161616
  59.7522498  90.7981047 102.4843823  61.0952520  90.6515264 103.1675648
  60.4365877  98.7566712 104.8161510  59.7837327  99.0042619 104.1613963
  60.8146257  97.9430850 104.4823987  57.3973051 108.7926405  98.9189680
  57.5795445 107.9748061  99.3817433  58.2206037 109.0094097  98.4814570
  57.7315216 107.7194590  96.1804729  58.2602983 107.2087045  95.5674891
  57.9943436 107.4037121  97.0450262  56.4853450  99.4986523 111.3027547
  55.8094087  99.3980652 111.9729922  57.3081084  99.3425737 111.7663544
  48.2332309 105.7358460 103.9240062  48.8185746 104.9902147 104.0567966
  48.0357147 106.0462416 104.8076726  51.0870964 108.7709707  98.9402505
  50.4181339 109.2555835  98.4566545  50.9483834 109.0178927  99.8545883
  42.8249964  98.3064060 102.6444505  42.8634063  97.7727650 103.4381624
  42.3190256  97.7799265 102.0255483  55.2276233 110.8053450 105.5385163
  55.7794541 110.9685072 106.3034248  55.5682426 111.3957888 104.8665188
  50.2040726  93.1528600 106.1407048  50.2682052  94.0143431 105.7284445
  50.1407846  92.5402602 105.4079406  49.6792998  95.2251733 109.7880082
  50.3065037  94.8428810 110.4017606  48.8220917  95.0065935 110.1535774
  46.4558541  97.0328162  95.7198437  46.7511982  96.1238840  95.6665490
  45.5546577  97.0115901  95.3979439  58.3644620 108.7535426 102.5248845
  58.2395759 107.9525166 102.0159791  59.0223711 109.2481619 102.0362815
  49.9852788  95.1084159 101.7025985  49.2639374  95.7220126 101.5633459
  50.7746044  95.6441923 101.6242631  60.4279528 106.5544446 104.1528395
  59.4809864 106.4349797 104.0806722  60.7762301 105.6666944 104.2354657
  52.7879102  92.4438585 107.9766637  53.3113504  92.6900882 108.7392946
  52.5691435  93.2758620 107.5569774  48.1846383  94.7142260  95.8437762
  47.8559089  93.8339639  95.6612868  48.5385754  94.6589928  96.7314151
  57.4325962 106.3497162 100.3532747  57.2850924 105.4213870 100.5340318
  58.2579455 106.3717253  99.8689823  51.2988206  95.0015229  96.2113240
  51.6384278  95.5301151  95.4891848  51.7460326  95.3395636  96.9871806
  61.0360084 107.1725721 101.4397620  61.9606631 106.9668582 101.3022071
  60.8675387 106.9242122 102.3486962  53.9931647  93.3852280 105.6616308
  53.6528467  92.5860093 106.0636988  53.2870653  93.6853991 105.0893141
  54.6448119  90.4701593 104.1143631  55.4674188  89.9962071 103.9922521
  54.8886182  91.2492076 104.6142317  53.2856353  93.4989851  94.4106532
  54.0064716  93.8771104  93.9070249  52.6621657  94.2178728  94.5141510
  57.4287476  94.2035000  95.3464865  57.6451090  95.0859638  95.0453693
  56.9481543  93.8121213  94.6170507  52.1686697  97.1620713 101.9235609
  52.0231278  97.4761016 102.8159891  51.6911901  97.7805614 101.3706508
  54.0283080  94.1523261 101.9716499  54.0144649  93.2564354 101.6348797
  54.7455508  94.1593925 102.6054785  55.8809211  94.5860601 104.0169626
  55.6226989  95.5077672 104.0153957  55.3494251  94.1891036 104.7070090
  60.8255400 107.6911388  96.7959712  60.9992277 107.1257811  96.0433564
  61.3184291 108.4912283  96.6139202  46.6432360  99.7026058 104.8623270
  46.0985828 100.4785866 104.9943545  47.5211709 100.0496862 104.7042392
  53.4319976  93.0337641  97.2404069  53.5535887  92.1054288  97.4394957
  53.1422019  93.0476327  96.3282384  56.3011167  90.7192552 100.3770789
  56.3232863  90.7831885  99.4222768  56.7179226  89.8797061 100.5711295
  66.6794791 100.4547811  98.4150011  67.1225937  99.7055137  98.0169135
  65.8021301 100.4457948  98.0323743  61.8130572 107.0078153  93.8956610
  62.5081477 107.6284846  94.1143925  62.1553722 106.1573504  94.1708988
  47.4298381  98.8295954 107.7553427  46.6880117  98.9778589 108.3418058
  47.1091126  99.0904219 106.8920177  63.7121995 104.4577858  95.4243941
  64.2373319 104.7965131  94.6993261  63.6244348 103.5224874  95.2407075
  55.3742044 108.3711932 107.5533817  55.6829170 108.1261079 108.4256517
  56.1717526 108.5758571 107.0652688  55.3962656 110.5249842  99.7839194
  54.9567646 110.0326220 100.4772051  56.1470773 109.9822809  99.5431269
  47.8754995 106.7161383  99.7863822  48.7013015 106.4165154  99.4062466
  47.5249047 105.9469005 100.2353611  52.8436528 106.0687851 101.8561496
  52.2216538 105.4058556 101.5563723  53.5141395 106.0948983 101.1735143
  46.0763600 104.6347709 100.7452756  45.2395508 104.2069883 100.5636757
  46.0487246 104.8280152 101.6823547  52.9161056  94.5469639 111.4494002
  52.9649211  95.4231762 111.0671771  53.4583570  94.0047032 110.8765645
  63.5213776 101.9403228 108.0427867  63.5711781 101.7753236 108.9843390
  63.4127700 101.0730487 107.6525748  52.4050035 104.6191774  95.3319956
  52.5538156 105.3027239  94.6786629  53.2116479 104.5996864  95.8469412
  60.8117539  97.9234156 109.3587174  61.7127402  97.7840621 109.0671172
  60.8865513  98.0888611 110.2985351  55.1460344  95.3001011 108.2040360
  54.2763654  95.5934577 107.9322949  55.3819825  95.8841456 108.9247624
  65.0231973 104.3600170 108.2869889  64.7316782 104.7230151 109.1233350
  64.4104105 103.6467178 108.1083221  66.2227656 101.9253050 100.8072459
  67.0574547 102.3642854 100.9710019  66.3586784 101.4491703  99.9880705
  63.2719162  99.4832785 106.7549947  63.7473283  99.6760431 105.9468798
  62.3484727  99.5391970 106.5093330  50.1602668 100.6456952  96.3381025
  49.9148710  99.7419282  96.5361235  50.3298583 100.6474102  95.3960503
  57.8499378  91.5180628 105.7205781  58.3681322  92.2541655 105.3952269
  57.4954511  91.8244621 106.5552540  49.4298316  96.3785309  93.8367187
  48.7367561  96.4529664  93.1807222  49.1850068  95.6145653  94.3588703
  58.1011972  87.9380911 101.2406677  58.3813726  87.2704100 101.8667104
  58.8862579  88.1310006 100.7281341  55.9045441 107.1139905  92.8031704
  55.3319408 107.7330092  92.3502175  56.4778234 107.6639266  93.3371626
  61.9720831  96.3598545 104.9878252  62.9238253  96.4596642 105.0090476
  61.8024281  95.5676813 105.4976337  59.9935210  93.4454128 105.1737653
  59.3985142  93.7259141 104.4784142  59.7084907  93.9348029 105.9454394
  59.1242700 107.3977055  93.9340286  60.0573374 107.3322616  94.1373161
  59.0365913 108.2333322  93.4754818  61.7530717 106.7142925  90.8944233
  61.6744349 106.3802789  91.7879991  62.5740384 107.2064693  90.8935706
  64.4508908  99.5804664 104.1020552  64.4185228  98.6420665 104.2880236
  65.0609532  99.6588701 103.3686377  56.2892239  98.4500717  90.1447756
  57.2351344  98.3206925  90.2136174  55.9106484  97.7115379  90.6217184
  64.6003397  96.3715708 104.1478835  64.0842445  95.5874164 103.9608764
  65.4843345  96.0434424 104.3125355  62.2614124  90.1156723 100.1074648
  62.0638945  89.8071812 100.9917980  62.8713829  90.8418362 100.2372578
  70.2685458 100.6420671 103.2426589  70.9988847 100.3805959 103.8034292
  69.6592404  99.9049393 103.2828657  68.3500755  98.7828534 103.8401040
  67.6233919  98.6484499 103.2317532  67.9348042  99.0905362 104.6457758
  56.1730932 102.5018463 111.6048413  57.0933941 102.6797062 111.7988460
  56.1380515 101.5574509 111.4528112  54.4735156  96.3750694  90.0802641
  53.5666612  96.0783806  90.1565355  54.7511137  96.0780512  89.2136928
  45.3913097  97.6957057 100.5301688  45.0715881  96.8422365 100.2376062
  44.8446525  97.9105635 101.2859655  49.1693004 100.4119498 104.2471194
  49.3879014 101.3436606 104.2659228  49.5818778 100.0527473 105.0325998
  56.0897222  90.9187583  96.2346883  55.2797950  90.5734668  96.6102129
  56.7781639  90.6095127  96.8234494  58.0187770  89.9965630  97.8571179
  58.5718809  90.4161084  98.5161202  58.2557857  89.0701378  97.8994135
  54.0420870  95.9852704 113.6373943  53.9417596  96.9347061 113.5686034
  53.8242412  95.6570943 112.7650013  45.2601357 101.3159969 102.4994809
  44.5664828 100.9013921 101.9864764  46.0074348 101.3580505 101.9028228
  61.3966577  92.1066155  97.3649843  60.8165246  92.7650959  96.9827896
  61.1302510  91.2843500  96.9537261  59.8470144  91.5071213  99.5671164
  60.3469922  91.6187748  98.7585483  60.4905752  91.2032266 100.2071972
  53.9052140  99.4149843 112.4539005  53.4219221 100.2150203 112.6602894
  53.9913079  99.4257788 111.5006449  47.1738099 101.2478222 100.3760824
  47.1508787 101.3465910  99.4242707  47.4838736 102.0943373 100.6977990
  49.8325477 103.3054377 104.4907439  50.7868731 103.2738320 104.4237370
  49.6338001 102.8445001 105.3057664  50.4224859 101.8755493 107.0578236
  51.2417748 102.3699572 107.0813074  50.6961667 100.9587462 107.0295804
  60.1791455  94.2666246  96.4206192  59.2917310  94.5515896  96.2026386
  60.5945445  94.1060009  95.5733469  63.5305992  94.2912767 100.1360531
  64.3066382  94.7809219 100.4085148  62.8054126  94.7170821 100.5932400
  65.9678550  95.0040386 101.1934472  66.5623041  94.7636122 100.4827780
  66.0405134  94.2847517 101.8208008  48.1875706 108.8473997 101.5077636
  48.0530174 108.0874398 100.9415634  47.7707768 109.5714897 101.0406425
  59.3234669 104.0310920  90.5154212  60.0270519 104.2360923  91.1311867
  58.5997318 104.5987682  90.7803295  60.1532479  99.7820782  96.6356482
  60.0967681 100.2389333  95.7964114  60.7060822  99.0211466  96.4579325
  63.9637285  95.5710514  97.4606601  63.7074219  95.1707149  98.2914809
  63.3390153  96.2854308  97.3356741  68.2749623  98.3106587  99.9677893
  67.7149181  98.3799776 100.7409455  67.6693126  98.1347571  99.2477389
  51.3444832 109.7443314 101.7196079  51.2277216 110.6888746 101.6174769
  50.5237278 109.4416876 102.1081878  61.2321366 104.4693450  92.5652672
  62.0666970 104.0374648  92.3830147  61.0705709 104.2975463  93.4929566
  60.8867259 100.9725563  93.9309011  60.8316062 100.8069834  92.9897455
  60.2613314 101.6801596  94.0871201  45.6759773  96.2093627 107.7570433
  46.3218637  95.6992581 108.2457658  45.4676925  96.9462309 108.3313859
  52.3699346 110.3971576 104.9352008  53.2726593 110.4295186 105.2518502
  52.1436716 109.4672027 104.9498343  54.1252948 109.1502562 101.5962086
  53.1748579 109.1504424 101.4826458  54.4285434 108.4035297 101.0798121
  50.0157264  93.3561244 111.8545448  50.8788726  92.9998049 112.0648772
  49.4422675  93.0175139 112.5420852  66.6695348 114.9390529 102.5969373
  66.3313859 114.8231594 101.7089908  67.5385116 114.5381694 102.5770379
  62.5282163 116.7926005  98.5866264  61.9647029 116.7015942  97.8182552
  62.4134558 115.9725910  99.0668757  60.0746595 118.2877197 101.4250485
  60.8667887 117.9468022 101.0096784  60.3143245 118.3972172 102.3452638
  68.1081722 120.4596973  93.8980729  67.4569702 121.0451053  93.5114743
  68.9026085 120.9903168  93.9575767  62.0337349 117.5486110  94.2967863
  62.8068225 117.0015097  94.1580739  62.3862748 118.4130359  94.5082325
  64.3703627 113.7078776  91.9286313  64.6229148 113.1860298  91.1669776
  63.4328186 113.5444922  92.0312997  69.4146910 112.7114555  99.7361057
  70.2009999 112.2933978  99.3851474  69.6785614 113.6160647  99.9042705
  69.5856987 118.1487405  94.4349713  68.9502820 118.2222031  95.1470618
  69.2554394 118.7381004  93.7568793  74.8155337 112.6489788 100.6394035
  75.5480509 112.0789005 100.8731865  74.0594693 112.2611388 101.0800541
  64.0899916 115.6106882  94.1310688  63.9736174 114.9351786  94.7991773
  64.2002176 115.1239256  93.3142841  66.4331457 115.0717029  97.8357378
  66.0689664 114.5447650  98.5470299  67.2898573 114.6815498  97.6623863
  72.3380757 106.3611362 105.0988644  72.0064082 107.2306773 104.8749859
  71.7426371 106.0447646 105.7782674  66.0736944 110.1006929  92.8318726
  66.2411346 110.9687165  93.1989197  65.8834113 110.2634211  91.9080015
  62.2824758 115.0137705 100.5321261  61.3575255 114.8813919 100.7398953
  62.5309172 115.7931924 101.0291203  66.0526165 112.5564587  93.8165393
  65.9325790 113.0021637  94.6550873  65.3578753 112.9049904  93.2578931
  59.6433569 114.6570978 101.3665050  59.7725951 114.9105457 102.2804462
  58.9631021 115.2498686 101.0469705  63.8133057 125.3268228  97.4655524
  63.7357086 126.2776053  97.5444005  63.2094700 124.9814101  98.1230450
  71.7511231 113.0286060  94.6445727  72.6629087 113.2613446  94.4693424
  71.2420878 113.6123104  94.0820806  69.0947206 109.2044096 102.8935588
  68.2331685 109.5025349 103.1852325  69.1209640 109.4214495 101.9616620
  65.9108775 117.7486286  99.3009393  66.3747120 118.0273989  98.5114016
  65.6465573 116.8469731  99.1182484  62.8032856 117.2957768 102.2389157
  63.3734213 117.7245036 101.6006641  63.3940968 117.0140352 102.9373342
  64.8477661 113.8709439  96.1098959  65.5501704 114.3230482  96.5772885
  64.5158290 113.2293257  96.7378852  58.5902995 112.1292991 101.4116092
  57.8002049 112.3850520 100.9356203  59.0814242 112.9441329 101.5168133
  60.5417740 112.4937571  98.3699569  59.7448904 112.6056265  98.8883065
  60.3143333 112.8324223  97.5040459  56.8740698 112.3823482 103.8431083
  57.1248736 113.2670492 104.1088659  57.4100246 112.2028083 103.0706175
  66.0871426 120.6850381  96.1861064  65.9517100 121.5301917  96.6145912
  66.6281238 120.8869659  95.4226998  59.5400823 118.2025819  96.7588989
  60.0525344 118.9969070  96.9094554  60.1923536 117.5052110  96.6922590
  61.3495708 121.3191576  98.8411742  61.5262336 122.2409540  98.6532726
  62.1452541 121.0049995  99.2706122  69.4363889 104.2080943 104.7159957
  69.0928159 105.0982585 104.6399068  69.8042852 104.0182601 103.8529542
  57.5049740 116.5314474  97.5348559  58.3424962 116.9411482  97.3182267
  57.6828008 115.5913916  97.5048753  69.4014172 114.1989554  93.2232392
  68.8860795 114.9694159  93.4620780  69.1291480 113.5254690  93.8465454
  66.9861283 109.0439255  98.2817631  66.1302879 108.6546105  98.1023269
  67.3988235 109.1231216  97.4217416  68.5160430 106.5785598 102.6809191
  68.0125225 106.5415733 101.8676996  68.8091036 107.4878341 102.7405847
  64.7603315 106.6624328 101.6875372  65.6256312 106.4667137 101.3281262
  64.8280824 106.4334680 102.6144729  74.3748446 116.9521909  95.1585566
  73.5977889 116.6133068  94.7140728  75.0539927 116.9574532  94.4840531
  69.1900475 112.0716646  95.0492174  68.8850611 112.3862795  95.9002317
  70.1430917 112.1498066  95.0919507  67.6346907 118.2306870  96.6985128
  67.1068269 117.4959629  96.3858365  67.1334410 119.0081546  96.4525096
  62.3665635 108.8926536  99.0591739  62.9409386 108.6701717  98.3264932
  62.9536617 108.9615230  99.8120340  71.4245212 114.7800263  99.8656116
  71.9377094 115.4130255 100.3677825  72.0746436 114.1801458  99.4999476
  62.6935222 110.9230997  93.0787624  61.8572534 111.2605683  93.3996899
  62.5539991 110.7879977  92.1414761  64.6688302 105.7667785  97.7866809
  64.0152715 105.4516802  97.1623423  64.6268776 105.1443525  98.5126631
  65.7799507 116.0487080  89.7020101  64.8726569 115.8176333  89.9011250
  66.2770539 115.2524699  89.8894082  68.6867586 124.7584587  92.6216787
  68.0129285 125.0616284  93.2301745  69.0733408 125.5613667  92.2722244
  67.9026043 112.2549718 102.1114456  66.9848604 112.4764665 101.9536144
  68.3186186 112.3296029 101.2526163  68.6861090 113.6541134  97.2417136
  69.4332909 114.1662531  96.9324258  68.9552680 113.3325187  98.1021530
  66.9587741 116.1499675  94.2244091  66.0498960 115.8658708  94.3216560
  66.9882824 116.5698753  93.3647398  71.1339928 110.6898250  99.2235926
  70.3962684 110.1775637  99.5546168  71.3866701 110.2498632  98.4119203
  71.2351555 103.4674502  99.8177695  71.5410432 102.6071866  99.5303610
  71.9604160 104.0592122  99.6176689  57.5275911 113.8705189  98.2059293
  57.3300311 113.2774550  97.4810359  56.9722575 113.5657399  98.9235232
  65.5072635 113.7628295 100.3253886  65.5621244 112.8102132 100.2496363
  64.6963837 113.9187734 100.8095184  66.6563828 117.6908418  91.5632169
  66.2183258 116.9744277  91.1037807  67.3974269 117.9184533  91.0017261
  63.4464995 112.3805355  98.0844265  62.6332860 112.6799526  98.4909457
  63.9423989 111.9861044  98.8018747  74.7736943 115.9665615  97.6208488
  74.6354842 116.1567211  96.6929677  74.4173162 116.7284998  98.0776539
  62.9379069 109.9523711 103.7005500  63.5778449 109.8112470 103.0028463
  62.1056600 109.6658224 103.3244102  63.7139373 119.2526141  99.8140492
  64.5079972 118.7576461  99.6123067  63.0031066 118.7244004  99.4508198
  60.0222137 113.3969223  95.8900245  59.0919725 113.3353678  96.1070207
  60.1179609 112.8745176  95.0936886  59.9407686 109.9224036  98.4778487
  60.2014503 110.8369369  98.3687647  60.7624858 109.4548478  98.6275099
  61.4132611 111.3361793 105.6477311  62.0855664 111.1279155 104.9989960
  60.5862398 111.1383879 105.2082543  66.8858801 124.9264260  94.8363866
  67.0610557 124.4552303  95.6509489  66.1991589 125.5530026  95.0645127
  70.7775056 116.5492800  91.1564227  70.1604227 115.8239628  91.0597280
  70.3091544 117.3102160  90.8131301  62.5673602 110.7678224  90.2785531
  61.6903068 110.6467025  89.9147778  63.0431355 109.9764303  90.0264420
  54.0875742 115.5555384 100.3727038  54.7746782 115.2417114  99.7848054
  53.9323871 116.4596749 100.0994290  58.8910464 110.4445581 104.8012062
  58.8068653 109.8371250 104.0662472  58.0693171 110.9354599 104.8021558
  65.7537528 123.1204515  97.5248052  64.9705050 123.6626195  97.6186276
  66.4530273 123.6378494  97.9242293  69.0634178 108.9299144 100.1682257
  69.5602878 108.1769107  99.8483327  68.2921160 108.9663461  99.6025466
  70.1463959 117.6870831  97.7420680  69.2120237 117.8072294  97.5725385
  70.3240627 116.7843298  97.4780690  65.6469147 111.0716527  99.8953942
  65.2766934 110.5187568 100.5834847  66.1428239 110.4674661  99.3428942
  73.5336510 113.5288151  98.2770715  73.9996962 114.3616142  98.2031017
  73.9844011 113.0633132  98.9815973  71.6012741 119.8731972  95.2756867
  71.8772585 119.7588567  96.1850741  70.7317240 119.4749457  95.2369040
  71.5053173 105.8968738 102.3161616  70.5916253 106.1272965 102.4843823
  71.9346274 105.9807182 103.1675648  68.5708971 123.0486508  96.1804729
  69.0996737 122.5378963  95.5674891  68.8337190 122.7329038  97.0450262
  53.6643718 113.6355977 102.6444505  53.7027818 113.1019568 103.4381624
  53.1584011 113.1091183 102.0255483  61.0434480 108.4820518 106.1407048
  61.1075807 109.3435349 105.7284445  60.9801601 107.8694520 105.4079406
  57.2952296 112.3620080  95.7198437  57.5905737 111.4530758  95.6665490
  56.3940331 112.3407819  95.3979439  60.8246543 110.4376076 101.7025985
  60.1033128 111.0512044 101.5633459  61.6139798 110.9733841 101.6242631
  59.0240137 110.0434177  95.8437762  58.6952843 109.1631556  95.6612868
  59.3779508 109.9881846  96.7314151  62.1381960 110.3307147  96.2113240
  62.4778033 110.8593068  95.4891848  62.5854081 110.6687553  96.9871806
  64.8325401 108.7144198 105.6616308  64.4922222 107.9152011 106.0636988
  64.1264408 109.0145909 105.0893141  65.4841873 105.7993510 104.1143631
  66.3067942 105.3253988 103.9922521  65.7279937 106.5783994 104.6142317
  64.1250108 108.8281769  94.4106532  64.8458470 109.2063021  93.9070249
  63.5015412 109.5470645  94.5141510  68.2681230 109.5326918  95.3464865
  68.4844845 110.4151556  95.0453693  67.7875298 109.1413131  94.6170507
  63.0080452 112.4912631 101.9235609  62.8625033 112.8052934 102.8159891
  62.5305656 113.1097531 101.3706508  64.8676835 109.4815179 101.9716499
  64.8538404 108.5856272 101.6348797  65.5849263 109.4885843 102.6054785
  66.7202965 109.9152519 104.0169626  66.4620743 110.8369590 104.0153957
  66.1888006 109.5182954 104.7070090  57.4826114 115.0317975 104.8623270
  56.9379582 115.8077783 104.9943545  58.3605464 115.3788780 104.7042392
  64.2713731 108.3629559  97.2404069  64.3929642 107.4346205  97.4394957
  63.9815773 108.3768245  96.3282384  67.1404921 106.0484470 100.3770789
  67.1626618 106.1123803  99.4222768  67.5572980 105.2088978 100.5711295
  72.6524327 122.3370071  93.8956610  73.3475231 122.9576763  94.1143925
  72.9947477 121.4865422  94.1708988  74.5515750 119.7869776  95.4243941
  75.0767074 120.1257049  94.6993261  74.4638102 118.8516791  95.2407075
  58.7148750 122.0453300  99.7863822  59.5406769 121.7457072  99.4062466
  58.3642802 121.2760923 100.2353611  56.9157355 119.9639627 100.7452756
  56.0789263 119.5361801 100.5636757  56.8881000 120.1572070 101.6823547
  63.2443790 119.9483692  95.3319956  63.3931910 120.6319156  94.6786629
  64.0510233 119.9288782  95.8469412  60.9996423 115.9748869  96.3381025
  60.7542465 115.0711199  96.5361235  61.1692337 115.9766020  95.3960503
  68.6893133 106.8472546 105.7205781  69.2075076 107.5833573 105.3952269
  68.3348265 107.1536539 106.5552540  60.2692070 111.7077227  93.8367187
  59.5761315 111.7821582  93.1807222  60.0243822 110.9437571  94.3588703
  68.9405727 103.2672828 101.2406677  69.2207480 102.5996017 101.8667104
  69.7256334 103.4601924 100.7281341  66.7439195 122.4431822  92.8031704
  66.1713162 123.0622009  92.3502175  67.3171989 122.9931184  93.3371626
  69.9636455 122.7268972  93.9340286  70.8967128 122.6614534  94.1373161
  69.8759668 123.5625239  93.4754818  72.5924472 122.0434843  90.8944233
  72.5138103 121.7094706  91.7879991  73.4134138 122.5356611  90.8935706
  67.1285994 113.7792635  90.1447756  68.0745098 113.6498843  90.2136174
  66.7500239 113.0407297  90.6217184  73.1007878 105.4448641 100.1074648
  72.9032699 105.1363729 100.9917980  73.7107584 106.1710280 100.2372578
  65.3128911 111.7042611  90.0802641  64.4060366 111.4075724  90.1565355
  65.5904892 111.4072429  89.2136928  56.2306851 113.0248975 100.5301688
  55.9109636 112.1714283 100.2376062  55.6840279 113.2397553 101.2859655
  60.0086759 115.7411416 104.2471194  60.2272769 116.6728524 104.2659228
  60.4212533 115.3819390 105.0325998  66.9290977 106.2479501  96.2346883
  66.1191705 105.9026586  96.6102129  67.6175393 105.9387045  96.8234494
  68.8581525 105.3257548  97.8571179  69.4112563 105.7453001  98.5161202
  69.0951611 104.3993296  97.8994135  64.0827695 108.5629547  90.2214620
  64.9446859 108.8884445  90.4810438  64.2678040 107.7761043  89.7087686
  56.0995111 116.6451886 102.4994809  55.4058583 116.2305839 101.9864764
  56.8468102 116.6872423 101.9028228  72.2360332 107.4358073  97.3649843
  71.6559001 108.0942877  96.9827896  71.9696265 106.6135418  96.9537261
  70.6863898 106.8363131  99.5671164  71.1863677 106.9479665  98.7585483
  71.3299506 106.5324184 100.2071972  58.0131854 116.5770140 100.3760824
  57.9902542 116.6757827  99.4242707  58.3232490 117.4235291 100.6977990
  71.0185210 109.5958163  96.4206192  70.1311065 109.8807814  96.2026386
  71.4339199 109.4351927  95.5733469  74.3699746 109.6204684 100.1360531
  75.1460136 110.1101137 100.4085148  73.6447880 110.0462739 100.5932400
  76.8072305 110.3332304 101.1934472  77.4016796 110.0928040 100.4827780
  76.8798888 109.6139434 101.8208008  70.1628423 119.3602838  90.5154212
  70.8664274 119.5652841  91.1311867  69.4391072 119.9279600  90.7803295
  70.9926234 115.1112699  96.6356482  70.9361435 115.5681251  95.7964114
  71.5454576 114.3503384  96.4579325  74.8031040 110.9002431  97.4606601
  74.5467974 110.4999067  98.2914809  74.1783908 111.6146225  97.3356741
  72.0715121 119.7985367  92.5652672  72.9060725 119.3666566  92.3830147
  71.9099464 119.6267381  93.4929566  71.7261013 116.3017481  93.9309011
  71.6709817 116.1361752  92.9897455  71.1007068 117.0093514  94.0871201
  56.5153528 111.5385545 107.7570433  57.1612392 111.0284499 108.2457658
  56.3070679 112.2754227 108.3313859  65.0357138 105.8025590  93.5094329
  65.0235808 106.7467430  93.6662600  65.9280560 105.6195735  93.2153791
  68.8509258 102.3968366  97.7640266  68.0841654 101.8426853  97.9096949
  69.2619963 102.4690235  98.6254418  73.5328976 126.2522915  93.0787624
  72.6966288 126.5897601  93.3996899  73.3933746 126.1171894  92.1414761
  73.4067356 126.0970142  90.2785531  72.5296823 125.9758943  89.9147778
  73.8825109 125.3056220  90.0264420  71.1085825 127.0369145  93.8367187
  70.4155070 127.1113500  93.1807222  70.8637577 126.2729488  94.3588703
  76.1522665 127.0334529  90.0802641  75.2454121 126.7367642  90.1565355
  76.4298646 126.7364347  89.2136928  74.9221450 123.8921464  90.2214620
  75.7840614 124.2176363  90.4810438  75.1071794 123.1052960  89.7087686
  75.8750893 121.1317507  93.5094329  75.8629563 122.0759347  93.6662600
  76.7674315 120.9487653  93.2153791  15.6636870  15.3465635  89.3853155
  16.3015280  15.2272382  88.6816495  15.5457713  16.2946479  89.4441107
  12.4726577  15.2993063  89.3214680  12.1345088  15.1834128  88.4335215
  13.3416345  14.8984228  89.3015686   8.3313392  17.1528540  85.3111571
   7.7678257  17.0618476  84.5427859   8.2165787  16.3328444  85.7914063
  13.9112951  20.8199507  80.6226036  13.2600931  21.4053588  80.2360049
  14.7057314  21.3505702  80.6821073   7.8368578  17.9088644  81.0213170
   8.6099454  17.3617631  80.8826046   8.1893977  18.7732894  81.2327631
  10.1734856  14.0681310  78.6531620  10.4260377  13.5462832  77.8915083
   9.2359415  13.9047456  78.7558304  15.2178139  13.0717089  86.4606363
  16.0041228  12.6536512  86.1096780  15.4816843  13.9763181  86.6288012
  15.3888216  18.5089939  81.1595020  14.7534049  18.5824566  81.8715925
  15.0585622  19.0983538  80.4814099  20.6186566  13.0092322  87.3639342
  21.3511738  12.4391539  87.5977171  19.8625922  12.6213922  87.8045847
   9.8931145  15.9709416  80.8555995   9.7767403  15.2954320  81.5237079
  10.0033405  15.4841790  80.0388148  12.2362686  15.4319564  84.5602684
  11.8720893  14.9050185  85.2715606  13.0929801  15.0418033  84.3869170
  11.8768173  10.4609463  79.5564033  12.0442575  11.3289700  79.9234504
  11.6865342  10.6236745  78.6325322  14.6343506  18.9226442  91.2229863
  14.3344229  19.8251481  91.1145670  14.2894565  18.6558625  92.0751016
  18.0340650  11.4408982  88.9027300  17.1257527  11.3724391  88.6086061
  17.9828245  11.9180927  89.7309126  11.8557393  12.9167121  80.5410700
  11.7357019  13.3624172  81.3796180  11.1609982  13.2652438  79.9824238
   9.6164286  25.6870762  84.1900831   9.5388315  26.6378588  84.2689311
   9.0125929  25.3416635  84.8475757  17.5542460  13.3888594  81.3691034
  18.4660316  13.6215981  81.1938731  17.0452107  13.9725638  80.8066112
  16.1612042  18.3714412  88.7604615  15.5320904  18.5360126  88.0580683
  15.7737704  18.7856022  89.5315579  20.0401274  19.3068850  86.1148979
  19.3552312  19.6867752  85.5646012  20.1245123  19.9164177  86.8480927
  11.7140004  18.1088820  86.0254700  12.1778349  18.3876523  85.2359323
  11.4496802  17.2072265  85.8427791  10.6508890  14.2311973  82.8344265
  11.3532933  14.6833016  83.3018192  10.3189518  13.5895792  83.4624158
  18.4098033  19.8300765  90.8866680  19.2315477  19.4280952  90.6049361
  18.4060436  19.7268999  91.8382795  26.5004026  16.1739513  87.2351651
  25.7467735  15.6046911  87.0795656  26.6351568  16.1402178  88.1822286
  11.8902654  21.0452915  82.9106370  11.7548329  21.8904451  83.3391218
  12.4312467  21.2472193  82.1472304   5.3432052  18.5628353  83.4834296
   5.8556572  19.3571604  83.6339860   5.9954765  17.8654644  83.4167897
   7.1526937  21.6794110  85.5657049   7.3293565  22.6012074  85.3778033
   7.9483770  21.3652529  85.9951429   8.2758252  23.1972284  91.5667391
   8.8265677  23.0689347  90.7944385   7.4369728  23.4967173  91.2162284
  15.2045401  14.5592088  79.9477699  14.6892024  15.3296693  80.1866086
  14.9322709  13.8857225  80.5710760  20.1779675  17.3124443  81.8830873
  19.4009118  16.9735603  81.4386035  20.8571156  17.3177066  81.2085838
  14.9931704  12.4319181  81.7737480  14.6881839  12.7465330  82.6247623
  15.9462146  12.5100600  81.8164813  13.4378136  18.5909404  83.4230434
  12.9099497  17.8562163  83.1103672  12.9365638  19.3684080  83.1770403
  18.4170982  16.7858424  88.5397481  17.7594656  17.4757686  88.6277609
  19.2211381  17.1754856  88.8831467  17.2276441  15.1402797  86.5901422
  17.7408322  15.7732789  87.0923132  17.8777664  14.5403993  86.2244782
  11.5830736  16.4089614  76.4265407  10.6757798  16.1778868  76.6256556
  12.0801768  15.6127233  76.6139389  14.4898815  25.1187121  79.3462093
  13.8160514  25.4218818  79.9547051  14.8764637  25.9216202  78.9967550
  14.4892319  14.0143668  83.9662443  15.2364138  14.5265065  83.6569565
  14.7583909  13.6927721  84.8266837  12.7618969  16.5102209  80.9489397
  11.8530189  16.2261242  81.0461867  12.7914053  16.9301288  80.0892704
  17.9938237  20.1208798  84.7180565  17.5400564  19.2799708  84.7745755
  17.3632203  20.7570197  85.0555345  16.9371156  11.0500785  85.9481232
  16.1993913  10.5378171  86.2791475  17.1897930  10.6101166  85.1364509
  16.4371176  21.9585295  85.6530383  16.7294150  22.5190352  84.9342749
  16.9469797  22.2513856  86.4083542  11.3103863  14.1230830  87.0499193
  11.3652473  13.1704666  86.9741669  10.4995065  14.2790269  87.5340491
  12.4595057  18.0510953  78.2877476  12.0214487  17.3346812  77.8283113
  13.2005498  18.2787067  77.7262567   9.2496223  12.7407889  84.8089572
   8.4364089  13.0402060  85.2154764   9.7455218  12.3463578  85.5264054
  11.4004801  22.7365646  86.7423836  11.3580980  22.9626493  85.8132368
  12.3167500  22.5029021  86.8909637  20.5768172  16.3268150  84.3453794
  20.4386071  16.5169746  83.4174984  20.2204391  17.0887533  84.8021846
  20.6037552  18.3944677  89.3565066  21.0374058  18.3019966  90.2048120
  21.3169132  18.3702177  88.7185082   9.5170602  19.6128675  86.5385799
  10.3111200  19.1178995  86.3368374   8.8062294  19.0846538  86.1753505
  14.3365446  21.9946771  90.8898167  14.3902469  22.5637707  91.6575882
  13.4680228  22.1648656  90.5252204  21.4653101  18.4368377  91.8897951
  21.6588991  19.3414188  92.1357226  21.3653719  17.9775796  92.7236536
  12.0941878  20.1857697  90.2183636  11.9552964  19.8176482  91.0909574
  11.3056474  20.7005337  90.0467594  12.6890030  25.2866794  81.5609173
  12.8641786  24.8154837  82.3754795  12.0022818  25.9132560  81.7890433
  13.6447093  19.5639300  87.6072474  13.3096926  19.5240070  88.5030124
  13.1451039  18.8984016  87.1342884  16.5806285  16.9095334  77.8809533
  15.9635455  16.1842162  77.7842586  16.1122773  17.6704695  77.5376608
   7.2551115  28.4356156  88.3349033   7.4947713  29.0674681  89.0128051
   6.4120312  28.0844197  88.6214392  11.7678977  24.2435279  90.7390537
  11.6949149  25.0490250  91.2509841  11.3256370  24.4427245  89.9138558
  11.5568757  23.4807049  84.2493358  10.7736279  24.0228729  84.3431583
  12.2561502  23.9981029  84.6487599  14.8665407   9.2901678  86.8927564
  15.3634106   8.5371641  86.5728634  14.0952388   9.3265995  86.3270773
  22.7195164  14.9942044  88.5345855  22.7085040  15.8766759  88.1639788
  21.8512544  14.6413595  88.3400392  14.2277661  24.1422113  92.8948695
  14.9405633  24.7769578  92.8224597  13.7367689  24.2385979  92.0788697
  15.9495188  18.0473366  84.4665987  15.0151466  18.1674828  84.2970691
  16.1271856  17.1445832  84.2025997  19.3367739  13.8890685  85.0016021
  19.8028191  14.7218677  84.9276324  19.7875239  13.4235666  85.7061280
  17.4043970  20.2334506  82.0002173  17.6803814  20.1191101  82.9096047
  16.5348469  19.8351991  81.9614346  14.0398034  24.4820857  85.6434987
  14.2220429  23.6642513  86.1062739  14.8631020  24.6988549  85.2059877
  14.3740199  23.4089042  82.9050035  14.9027966  22.8981497  82.2920197
  14.6368419  23.0931572  83.7695568   7.7295947  24.4604159  85.6647811
   7.0606323  24.9450286  85.1811851   7.5908817  24.7073379  86.5791190
  11.8701216  26.4947902  92.2630470  12.4219524  26.6579524  93.0279555
  12.2107409  27.0852340  91.5910494  15.0069603  24.4429878  89.2494152
  14.8820743  23.6419618  88.7405097  15.6648694  24.9376071  88.7608122
  17.0704512  22.2438898  90.8773702  16.1234847  22.1244249  90.8052029
  17.4187285  21.3561396  90.9599963  14.0750945  22.0391614  87.0778054
  13.9275907  21.1108322  87.2585624  14.9004438  22.0611705  86.5935129
  17.6785067  22.8620173  88.1642927  18.6031614  22.6563034  88.0267378
  17.5100370  22.6136574  89.0732268  14.0712459   9.8929452  82.0710171
  14.2876074  10.7754090  81.7699000  13.5906526   9.5015665  81.3415813
  17.4680383  23.3805840  83.5205018  17.6417261  22.8152263  82.7678871
  17.9609274  24.1806735  83.3384508  23.3219774  16.1442263  85.1395318
  23.7650920  15.3949589  84.7414441  22.4446284  16.1352400  84.7569050
  18.4555556  22.6972605  80.6201917  19.1506460  23.3179297  80.8389231
  18.7978706  21.8467956  80.8954294  20.3546979  20.1472310  82.1489247
  20.8798303  20.4859583  81.4238567  20.2669331  19.2119326  81.9652382
  12.0387639  26.2144294  86.5084501  11.5992630  25.7220672  87.2017357
  12.7895756  25.6717261  86.2676576   4.5179978  22.4055834  86.5109129
   5.3437998  22.1059606  86.1307772   4.1674030  21.6363457  86.9598917
   9.4861512  21.7582303  88.5806802   8.8641521  21.0953008  88.2809030
  10.1566378  21.7843435  87.8980450   2.7188583  20.3242161  87.4698062
   1.8820492  19.8964335  87.2882063   2.6912229  20.5174604  88.4068853
   9.0475018  20.3086226  82.0565263   9.1963139  20.9921690  81.4031936
   9.8541462  20.2891316  82.5714719  21.6656957  20.0494622  95.0115195
  21.3741765  20.4124602  95.8478656  21.0529088  19.3361630  94.8328527
  22.8652639  17.6147502  87.5317766  23.6999530  18.0537306  87.6955326
  23.0011768  17.1386155  86.7126011   6.8027651  16.3351404  83.0626332
   6.5573693  15.4313734  83.2606542   6.9723566  16.3368554  82.1205810
  12.5470424  22.8034356  79.5277010  11.9744391  23.4224544  79.0747482
  13.1203218  23.3533718  80.0616932  15.7667684  23.0871507  80.6585592
  16.6998357  23.0217068  80.8618468  15.6790897  23.9227773  80.2000125
  18.3955700  22.4037377  77.6189540  18.3169332  22.0697241  78.5125298
  19.2165367  22.8959145  77.6181012  21.0933892  15.2699116  90.8265859
  21.0610212  14.3315117  91.0125542  21.7034515  15.3483153  90.0931684
  12.9317222  14.1395169  76.8693063  13.8776327  14.0101377  76.9381481
  12.5531467  13.4009831  77.3462491  26.9110441  16.3315123  89.9671895
  27.6413830  16.0700411  90.5279599  26.3017387  15.5943845  90.0073963
  24.9925739  14.4722986  90.5646347  24.2658902  14.3378951  89.9562838
  24.5773025  14.7799814  91.3703065  11.1160140  12.0645146  76.8047948
  10.2091595  11.7678258  76.8810662  11.3936121  11.7674964  75.9382234
  18.0391561   7.7960607  84.0895150  17.4590230   8.4545411  83.7073203
  17.7727493   6.9737952  83.6782568  16.8216439   9.9560698  83.1451498
  15.9342294  10.2410348  82.9271693  17.2370428   9.7954461  82.2978775
  20.1730975   9.9807219  86.8605838  20.9491365  10.4703671  87.1330454
  19.4479109  10.4065273  87.3177707  22.6103534  10.6934838  87.9179778
  23.2048024  10.4530574  87.2073086  22.6830117   9.9741968  88.5453315
   4.8300689  24.5368449  88.2322943   4.6955157  23.7768850  87.6660941
   4.4132751  25.2609349  87.7651732  15.9659652  19.7205372  77.2399518
  16.6695502  19.9255375  77.8557174  15.2422301  20.2882134  77.5048602
  16.7957462  15.4715234  83.3601789  16.7392664  15.9283785  82.5209421
  17.3485805  14.7105918  83.1824631  20.6062268  11.2604965  84.1851908
  20.3499203  10.8601601  85.0160116  19.9815136  11.9748759  84.0602047
  24.9174606  14.0001039  86.6923199  24.3574164  14.0694228  87.4654761
  24.3118110  13.8242023  85.9722696   7.9869815  25.4337766  88.4441386
   7.8702199  26.3783198  88.3420076   7.1662261  25.1311327  88.8327185
  17.8746350  20.1587902  79.2897978  18.7091954  19.7269100  79.1075453
  17.7130693  19.9869915  80.2174873  17.5292242  16.6620015  80.6554318
  17.4741046  16.4964286  79.7142762  16.9038297  17.3696048  80.8116507
   9.0124329  26.0866028  91.6597314   9.9151576  26.1189638  91.9763809
   8.7861699  25.1566479  91.6743650  10.7677931  24.8397014  88.3207393
   9.8173562  24.8398876  88.2071765  11.0710417  24.0929749  87.8043427
  26.5030625  30.6757553  89.3853155  27.1409035  30.5564300  88.6816495
  26.3851468  31.6238397  89.4441107  23.3120331  30.6284981  89.3214680
  22.9738843  30.5126045  88.4335215  24.1810099  30.2276146  89.3015686
  19.1707147  32.4820457  85.3111571  18.6072012  32.3910394  84.5427859
  19.0559542  31.6620362  85.7914063  23.7940114  31.7819833  95.2800885
  23.7828755  31.3872631  94.4081389  23.9560753  31.0485905  95.8734657
  16.7171579  33.9771649  88.1495791  17.5092871  33.6362473  87.7342091
  16.9568229  34.0866624  89.0697945  24.7506705  36.1491425  80.6226036
  24.0994685  36.7345505  80.2360049  25.5451068  36.6797620  80.6821073
  18.6762333  33.2380562  81.0213170  19.4493209  32.6909549  80.8826046
  19.0287731  34.1024811  81.2327631  20.5147375  34.5656944  94.2280069
  20.2237241  35.4702575  94.1126736  21.1504359  34.6073472  94.9424139
  21.4403582  31.9433793  90.8181429  22.0367154  31.7189815  90.1038392
  21.4978554  31.2018538  91.4206877  21.0128610  29.3973228  78.6531620
  21.2654131  28.8754749  77.8915083  20.0753169  29.2339374  78.7558304
  26.0571893  28.4009007  86.4606363  26.8434982  27.9828430  86.1096780
  26.3210598  29.3055099  86.6288012  26.2281971  33.8381857  81.1595020
  25.5927804  33.9116483  81.8715925  25.8979377  34.4275456  80.4814099
  31.4580320  28.3384240  87.3639342  32.1905492  27.7683457  87.5977171
  30.7019676  27.9505840  87.8045847  20.7324899  31.3001334  80.8555995
  20.6161157  30.6246237  81.5237079  20.8427159  30.8133708  80.0388148
  23.0756440  30.7611481  84.5602684  22.7114647  30.2342102  85.2715606
  23.9323556  30.3709950  84.3869170  28.9805741  22.0505814  91.8233950
  28.6489065  22.9201225  91.5995165  28.3851354  21.7342098  92.5027981
  22.7161927  25.7901381  79.5564033  22.8836329  26.6581617  79.9234504
  22.5259096  25.9528663  78.6325322  25.4737260  34.2518360  91.2229863
  25.1737983  35.1543399  91.1145670  25.1288320  33.9850543  92.0751016
  18.9249742  30.7032157  87.2566567  18.0000238  30.5708371  87.4644259
  19.1734155  31.4826376  87.7536510  28.8734404  26.7700900  88.9027300
  27.9651281  26.7016308  88.6086061  28.8222000  27.2472845  89.7309126
  22.6951148  28.2459038  80.5410700  22.5750773  28.6916089  81.3796180
  22.0003736  28.5944356  79.9824238  16.2858553  30.3465430  88.0910357
  16.4150934  30.5999909  89.0049768  15.6056004  30.9393138  87.7715012
  20.4558040  41.0162680  84.1900831  20.3782070  41.9670505  84.2689311
  19.8519684  40.6708553  84.8475757  22.9475270  28.1890546  96.8462198
  22.1708604  28.7484466  96.8365062  23.5865833  28.6747329  97.3677068
  30.7396050  24.9717338  90.6805174  30.0970431  25.2649872  90.0344969
  30.2350979  24.8570259  91.4858371  28.3936214  28.7180512  81.3691034
  29.3054070  28.9507898  81.1938731  27.8845861  29.3017556  80.8066112
  21.2021642  30.9975999  96.4080165  21.9436326  31.5361043  96.1314988
  20.4958628  31.6242288  96.5651716  26.6776982  33.1405139  95.0052326
  27.0860338  32.6987550  94.2606958  25.9554243  32.5657767  95.2586519
  23.0308052  28.0777746  92.3785883  23.8769247  28.5017160  92.5220532
  22.9706689  27.4211371  93.0724446  27.0005796  33.7006330  88.7604615
  26.3714659  33.8652044  88.0580683  26.6131458  34.1147940  89.5315579
  30.8795028  34.6360768  86.1148979  30.1946066  35.0159669  85.5646012
  30.9638878  35.2456095  86.8480927  26.1807497  25.7382115  94.0367057
  25.9368429  26.4924175  93.5001332  26.4567428  26.1167462  94.8714304
  28.1345960  32.2820727  92.7144322  28.3462855  32.9252487  92.0378703
  28.0875708  31.4483043  92.2466252  25.7372189  24.8938548  89.6180894
  24.8756668  25.1919801  89.9097632  25.7634623  25.1108946  88.6861927
  22.5533758  33.4380738  86.0254700  23.0172104  33.7168441  85.2359323
  22.2890556  32.5364183  85.8427791  19.4457839  32.9852220  88.9634463
  20.0159196  33.4139488  88.3251948  20.0365951  32.7034804  89.6618649
  21.4902644  29.5603891  82.8344265  22.1926688  30.0124934  83.3018192
  21.1583273  28.9187709  83.4624158  19.9383006  28.1515647  97.2095475
  19.3081666  28.8331928  97.4430871  19.8319094  28.0398729  96.2648613
  15.2327978  27.8187443  88.1361399  14.4427032  28.0744972  87.6601509
  15.7239226  28.6335781  88.2413439  29.2491788  35.1592682  90.8866680
  30.0709232  34.7572870  90.6049361  29.2454191  35.0560917  91.8382795
  17.1842724  28.1832022  85.0944876  16.3873887  28.2950717  85.6128371
  16.9568316  28.5218675  84.2285766  23.0148391  34.7076726  93.0427390
  23.0792824  35.1697133  93.8785562  22.3059315  34.0774091  93.1709700
  13.5165681  28.0717934  90.5676390  13.7673720  28.9564944  90.8333966
  14.0525230  27.8922535  89.7951481  37.3397781  31.5031431  87.2351651
  36.5861489  30.9338829  87.0795656  37.4745322  31.4694095  88.1822286
  22.7296409  36.3744833  82.9106370  22.5942084  37.2196369  83.3391218
  23.2706221  36.5764111  82.1472304  16.1825806  33.8920271  83.4834296
  16.6950327  34.6863521  83.6339860  16.8348519  33.1946562  83.4167897
  17.9920691  37.0086027  85.5657049  18.1687319  37.9303992  85.3778033
  18.7877525  36.6944447  85.9951429  22.1331710  23.8694292  97.1640982
  22.8741423  24.4701445  97.0845445  22.3649632  23.1271930  96.6059025
  17.2773048  29.0550659  95.4419212  17.1626563  28.1535917  95.7426311
  16.4217565  29.3014356  95.0904028  24.3564885  36.9968400  97.0406713
  23.9128739  36.2104778  96.7227617  25.0182099  37.1847550  96.3750603
  19.1152006  38.5264201  91.5667391  19.6659432  38.3981265  90.7944385
  18.2763482  38.8259090  91.2162284  26.4546123  37.2771200  95.0688114
  26.4364599  38.0980081  94.5768383  27.3766043  37.1525275  95.2938255
  22.9119178  34.7915329  95.9111622  23.4447514  34.0303617  95.6810930
  22.3833259  34.4988981  96.6535777  26.0788872  19.8975395  91.4405264
  25.7353142  20.7877037  91.3644375  26.4467835  19.7077053  90.5774849
  14.1474723  32.2208925  84.2593866  14.9849945  32.6305934  84.0427574
  14.3252991  31.2808368  84.2294060  26.0439155  29.8884006  79.9477699
  25.5285779  30.6588611  80.1866086  25.7716464  29.2149142  80.5710760
  23.6286266  24.7333707  85.0062937  22.7727863  24.3440557  84.8268576
  24.0413218  24.8125668  84.1462723  25.1585413  22.2680050  89.4054497
  24.6550208  22.2310185  88.5922302  25.4516020  23.1772793  89.4651154
  21.4028299  22.3518780  88.4120679  22.2681296  22.1561589  88.0526568
  21.4705808  22.1229132  89.3390036  31.0173429  32.6416361  81.8830873
  30.2402872  32.3027520  81.4386035  31.6964910  32.6468984  81.2085838
  25.8325458  27.7611098  81.7737480  25.5275594  28.0757247  82.6247623
  26.7855901  27.8392518  81.8164813  24.2771890  33.9201322  83.4230434
  23.7493252  33.1854081  83.1103672  23.7759393  34.6975998  83.1770403
  29.2564736  32.1150342  88.5397481  28.5988411  32.8049603  88.6277609
  30.0605135  32.5046774  88.8831467  19.0090618  24.5820988  85.7837046
  19.5834370  24.3596169  85.0510239  19.5961600  24.6509682  86.5365647
  28.0670195  30.4694715  86.5901422  28.5802077  31.1024707  87.0923132
  28.7171419  29.8695910  86.2244782  19.3360205  26.6125449  79.8032931
  18.4997517  26.9500135  80.1242206  19.1964975  26.4774429  78.8660068
  21.3113286  21.4562237  84.5112115  20.6577698  21.1411254  83.8868730
  21.2693760  20.8337977  85.2371938  22.4224490  31.7381532  76.4265407
  21.5151552  31.5070785  76.6256556  22.9195522  30.9419151  76.6139389
  25.3292569  40.4479039  79.3462093  24.6554268  40.7510736  79.9547051
  25.7158391  41.2508119  78.9967550  24.5451026  27.9444170  88.8359763
  23.6273587  28.1659117  88.6781451  24.9611170  28.0190481  87.9771470
  25.3286074  29.3435586  83.9662443  26.0757893  29.8556983  83.6569565
  25.5977663  29.0219639  84.8266837  23.6012724  31.8394127  80.9489397
  22.6923943  31.5553159  81.0461867  23.6307808  32.2593205  80.0892704
  28.8331991  35.4500716  84.7180565  28.3794318  34.6091626  84.7745755
  28.2025958  36.0862115  85.0555345  27.7764911  26.3792702  85.9481232
  27.0387668  25.8670088  86.2791475  28.0291684  25.9393084  85.1364509
  27.2764931  37.2877213  85.6530383  27.5687905  37.8482270  84.9342749
  27.7863551  37.5805774  86.4083542  27.8776538  19.1568954  86.5423002
  28.1835415  18.2966318  86.2548917  28.6029143  19.7486574  86.3421996
  14.1700894  29.5599641  84.9304600  13.9725294  28.9669001  84.2055666
  13.6147558  29.2551851  85.6480538  22.1497618  29.4522747  87.0499193
  22.2046228  28.4996584  86.9741669  21.3388820  29.6082186  87.5340491
  23.2988812  33.3802870  78.2877476  22.8608242  32.6638729  77.8283113
  24.0399253  33.6078985  77.7262567  20.0889978  28.0699807  84.8089572
  19.2757843  28.3693978  85.2154764  20.5848972  27.6755496  85.5264054
  22.2398556  38.0657564  86.7423836  22.1974734  38.2918410  85.8132368
  23.1561255  37.8320939  86.8909637  25.6864189  28.5341631  93.6404465
  26.0413577  28.7613105  94.4998931  26.3336321  28.8660008  93.0181721
  31.4161926  31.6560067  84.3453794  31.2779825  31.8461663  83.4174984
  31.0598145  32.4179450  84.8021846  19.5804053  25.6418163  90.4250807
  20.2203432  25.5006922  89.7273770  18.7481583  25.3552676  90.0489408
  31.4431306  33.7236594  89.3565066  31.8767813  33.6311883  90.2048120
  32.1562887  33.6994095  88.7185082  20.3564356  34.9420593  86.5385799
  21.1504955  34.4470913  86.3368374  19.6456049  34.4138456  86.1753505
  25.1759201  37.3238688  90.8898167  25.2296223  37.8929625  91.6575882
  24.3073982  37.4940574  90.5252204  16.6647120  29.0863675  82.6145552
  15.7344708  29.0248130  82.8315514  16.7604592  28.5639627  81.8182193
  16.5832669  25.6118488  85.2023793  16.8439486  26.5263821  85.0932954
  17.4049841  25.1442930  85.3520406  18.0557594  27.0256245  92.3722618
  18.7280648  26.8173607  91.7235267  17.2287381  26.8278331  91.9327850
  32.3046856  33.7660295  91.8897951  32.4982746  34.6706106  92.1357226
  32.2047474  33.3067714  92.7236536  23.9583166  23.6518186  94.3888279
  23.3111081  24.3508135  94.2952755  24.7284182  24.0854330  94.7564527
  27.3661964  33.9167038  97.4638832  27.2147471  33.6877589  96.5468916
  27.3566644  34.8737639  97.4770177  24.1347301  31.4898951  92.4485098
  25.0639361  31.6410110  92.2754066  23.7138331  31.5782971  91.5933745
  22.9335632  35.5149615  90.2183636  22.7946718  35.1468399  91.0909574
  22.1450229  36.0297254  90.0467594  23.5283784  40.6158711  81.5609173
  23.7035540  40.1446755  82.3754795  22.8416572  41.2424478  81.7890433
  24.4840848  34.8931218  87.6072474  24.1490680  34.8531988  88.5030124
  23.9844793  34.2275934  87.1342884  18.4585092  30.2998848  93.1325055
  18.3204890  29.5679086  93.7336594  19.3690015  30.2107748  92.8509243
  27.4200039  32.2387252  77.8809533  26.8029210  31.5134080  77.7842586
  26.9516528  32.9996612  77.5376608  21.0867392  30.0118807  92.6208735
  21.7967011  29.3711999  92.5795353  21.0436700  30.2631702  93.5434915
  29.0754171  36.9486160  95.5415314  29.0166717  36.2645380  94.8745897
  29.4773689  37.6905150  95.0895940  19.7996326  26.9984025  94.4404374
  19.2633683  26.5474763  95.0925970  19.2113035  27.1329934  93.6974838
  18.0944870  43.7648074  88.3349033  18.3341468  44.3966598  89.0128051
  17.2514066  43.4136114  88.6214392  19.2098585  26.4572676  77.0030838
  18.3328051  26.3361477  76.6393084  19.6856338  25.6658755  76.7509726
  29.0771578  34.9125744  93.7729294  28.1898357  34.5751666  93.8955692
  29.6470129  34.1808775  94.0098059  10.7300725  31.2449836  87.0972345
  11.4171765  30.9311566  86.5093360  10.5748854  32.1491201  86.8239596
  15.5335447  26.1340033  91.5257369  15.4493636  25.5265702  90.7907779
  14.7118154  26.6249051  91.5266865  22.6072732  39.5727197  90.7390537
  22.5342903  40.3782168  91.2509841  22.1650125  39.7719162  89.9138558
  22.3962511  38.8098967  84.2493358  21.6130033  39.3520647  84.3431583
  23.0955256  39.3272946  84.6487599  25.7059161  24.6193596  86.8927564
  26.2027861  23.8663558  86.5728634  24.9346143  24.6557913  86.3270773
  33.5588919  30.3233962  88.5345855  33.5478795  31.2058677  88.1639788
  32.6906298  29.9705512  88.3400392  25.0671415  39.4714031  92.8948695
  25.7799387  40.1061495  92.8224597  24.5761444  39.5677897  92.0788697
  26.7888942  33.3765283  84.4665987  25.8545221  33.4966746  84.2970691
  26.9665610  32.4737750  84.2025997  22.2894130  26.7610979  86.6199248
  21.9191918  26.2082019  87.3080154  22.7853223  26.1569113  86.0674248
  30.1761493  29.2182603  85.0016021  30.6421946  30.0510594  84.9276324
  30.6268994  28.7527584  85.7061280  20.1183329  37.2208474  93.7154266
  20.8192788  37.8544957  93.8683660  19.6478444  37.5623206  92.9549905
  28.2437724  35.5626424  82.0002173  28.5197568  35.4483018  82.9096047
  27.3742223  35.1643909  81.9614346  28.1478156  21.5863190  89.0406923
  27.2341236  21.8167416  89.2089129  28.5771258  21.6701634  89.8920955
  27.9184615  29.7753082  91.5406817  27.2656065  30.0228989  90.8859269
  28.2964995  28.9617220  91.2069294  24.8791788  39.8112775  85.6434987
  25.0614183  38.9934431  86.1062739  25.7024775  40.0280467  85.2059877
  25.2133954  38.7380960  82.9050035  25.7421720  38.2273414  82.2920197
  25.4762174  38.4223490  83.7695568  23.9672188  30.5172893  98.0272854
  23.2912825  30.4167022  98.6975229  24.7899822  30.3612106  98.4908851
  15.7151047  36.7544829  90.6485369  16.3004484  36.0088517  90.7813273
  15.5175885  37.0648786  91.5322033  18.5689702  39.7896077  85.6647811
  17.9000077  40.2742204  85.1811851  18.4302572  40.0365297  86.5791190
  10.3068701  29.3250429  89.3689812  10.3452801  28.7914020  90.1626930
   9.8008994  28.7985635  88.7500789  22.7094971  41.8239820  92.2630470
  23.2613279  41.9871442  93.0279555  23.0501164  42.4144258  91.5910494
  17.6859464  24.1714970  92.8652354  17.7500790  25.0329801  92.4529752
  17.6226584  23.5588972  92.1324713  17.1611736  26.2438102  96.5125389
  17.7883775  25.8615180  97.1262913  16.3039655  26.0252304  96.8781081
  27.5605845  36.6501078  98.1179124  28.1045749  37.2631036  97.6234079
  26.9792690  37.2080656  98.6346137  13.9377279  28.0514532  82.4443743
  14.2330720  27.1425210  82.3910797  13.0365315  28.0302271  82.1224746
  25.8463358  39.7721796  89.2494152  25.7214497  38.9711535  88.7405097
  26.5042449  40.2667989  88.7608122  17.4671526  26.1270528  88.4271292
  16.7458112  26.7406496  88.2878765  18.2564782  26.6628293  88.3487938
  27.9098266  37.5730816  90.8773702  26.9628602  37.4536167  90.8052029
  28.2581039  36.6853314  90.9599963  20.2697840  23.4624955  94.7011944
  20.7932241  23.7087251  95.4638253  20.0510173  24.2944989  94.2815081
  15.6665121  25.7328629  82.5683069  15.3377827  24.8526008  82.3858175
  16.0204491  25.6776298  83.4559458  24.9144699  37.3683532  87.0778054
  24.7669662  36.4400239  87.2585624  25.7398193  37.3903623  86.5935129
  18.7806944  26.0201599  82.9358546  19.1203016  26.5487520  82.2137155
  19.2279064  26.3582005  83.7117113  28.5178821  38.1912091  88.1642927
  29.4425369  37.9854952  88.0267378  28.3494125  37.9428492  89.0732268
  21.4750385  24.4038650  92.3861614  21.1347205  23.6046463  92.7882294
  20.7689391  24.7040361  91.8138448  22.1266856  21.4887962  90.8388937
  22.9492926  21.0148440  90.7167828  22.3704920  22.2678446  91.3387624
  20.7675091  24.5176221  81.1351839  21.4883453  24.8957473  80.6315556
  20.1440395  25.2365097  81.2386817  24.9106214  25.2221370  82.0710171
  25.1269828  26.1046007  81.7699000  24.4300281  24.8307583  81.3415813
  19.6505435  28.1807083  88.6480916  19.5050016  28.4947386  89.5405197
  19.1730639  28.7991983  88.0951815  21.5101818  25.1709631  88.6961806
  21.4963387  24.2750724  88.3594103  22.2274246  25.1780294  89.3300092
  23.3627949  25.6046971  90.7414933  23.1045727  26.5264042  90.7399263
  22.8312989  25.2077405  91.4315397  28.3074138  38.7097758  83.5205018
  28.4811015  38.1444181  82.7678871  28.8003029  39.5098653  83.3384508
  14.1251097  30.7212427  91.5868577  13.5804565  31.4972235  91.7188851
  15.0030447  31.0683232  91.4287699  20.9138714  24.0524011  83.9649376
  21.0354625  23.1240657  84.1640263  20.6240756  24.0662697  83.0527691
  23.7829904  21.7378921  87.1016095  23.8051601  21.8018255  86.1468075
  24.1997963  20.8983430  87.2956602  34.1613529  31.4734181  85.1395318
  34.6044675  30.7241506  84.7414441  33.2840039  31.4644317  84.7569050
  29.2949310  38.0264522  80.6201917  29.9900215  38.6471215  80.8389231
  29.6372460  37.1759874  80.8954294  14.9117119  29.8482323  94.4798734
  14.1698855  29.9964959  95.0663364  14.5909863  30.1090589  93.6165483
  31.1940733  35.4764228  82.1489247  31.7192057  35.8151501  81.4238567
  31.1063086  34.5411243  81.9652382  22.8560782  39.3898302  94.2779124
  23.1647908  39.1447448  95.1501824  23.6536264  39.5944940  93.7897994
  22.8781394  41.5436211  86.5084501  22.4386384  41.0512590  87.2017357
  23.6289511  41.0009179  86.2676576  15.3573733  37.7347752  86.5109129
  16.1831753  37.4351524  86.1307772  15.0067785  36.9655375  86.9598917
  20.3255266  37.0874220  88.5806802  19.7035275  36.4244925  88.2809030
  20.9960133  37.1135352  87.8980450  13.5582338  35.6534079  87.4698062
  12.7214246  35.2256253  87.2882063  13.5305983  35.8466522  88.4068853
  20.3979794  25.5656008  98.1739308  20.4467949  26.4418131  97.7917078
  20.9402308  25.0233401  97.6010951  30.8834639  36.1097132  97.4540445
  30.0930183  36.0921270  96.9144945  30.6467994  36.6485425  98.2089482
  31.0032514  32.9589598  94.7673174  31.0530519  32.7939605  95.7088697
  30.8946438  32.0916857  94.3771055  19.8868773  35.6378144  82.0565263
  20.0356893  36.3213608  81.4031936  20.6935216  35.6183234  82.5714719
  28.2936277  28.9420526  96.0832481  29.1946139  28.8026991  95.7916478
  28.3684251  29.1074981  97.0230658  22.6279082  26.3187381  94.9285667
  21.7582391  26.6120947  94.6568255  22.8638562  26.9027826  95.6492931
  32.5050711  35.3786540  95.0115195  32.2135519  35.7416520  95.8478656
  31.8922842  34.6653548  94.8328527  33.7046393  32.9439419  87.5317766
  34.5393285  33.3829223  87.6955326  33.8405522  32.4678073  86.7126011
  30.7537899  30.5019154  93.4795253  31.2292021  30.6946800  92.6714105
  29.8303465  30.5578340  93.2338637  17.6421406  31.6643321  83.0626332
  17.3967448  30.7605651  83.2606542  17.8117320  31.6660472  82.1205810
  25.3318116  22.5366998  92.4451087  25.8500060  23.2728025  92.1197576
  24.9773249  22.8430991  93.2797846  16.9117053  27.3971679  80.5612493
  16.2186298  27.4716034  79.9052529  16.6668805  26.6332023  81.0834010
  25.5830710  18.9567280  87.9651984  25.8632464  18.2890469  88.5912410
  26.3681317  19.1496376  87.4526648  23.3864178  38.1326274  79.5277010
  22.8138146  38.7516461  79.0747482  23.9596972  38.6825636  80.0616932
  29.4539568  27.3784914  91.7123559  30.4056991  27.4783012  91.7335783
  29.2843019  26.5863183  92.2221643  27.4753948  24.4640497  91.8982960
  26.8803880  24.7445510  91.2029449  27.1903644  24.9534398  92.6699701
  26.6061438  38.4163424  80.6585592  27.5392111  38.3508986  80.8618468
  26.5184651  39.2519691  80.2000125  29.2349455  37.7329295  77.6189540
  29.1563086  37.3989158  78.5125298  30.0559122  38.2251063  77.6181012
  31.9327646  30.5991034  90.8265859  31.9003966  29.6607035  91.0125542
  32.5428270  30.6775071  90.0931684  23.7710977  29.4687087  76.8693063
  24.7170082  29.3393295  76.9381481  23.3925222  28.7301749  77.3462491
  32.0822135  27.3902077  90.8724142  31.5661183  26.6060534  90.6854071
  32.9662083  27.0620794  91.0370661  29.7432862  21.1343093  86.8319955
  29.5457683  20.8258181  87.7163286  30.3532567  21.8604732  86.9617884
  37.7504196  31.6607041  89.9671895  38.4807584  31.3992329  90.5279599
  37.1411141  30.9235763  90.0073963  35.8319493  29.8014903  90.5646347
  35.1052657  29.6670868  89.9562838  35.4166780  30.1091732  91.3703065
  23.6549669  33.5204833  98.3293720  24.5752679  33.6983432  98.5233766
  23.6199253  32.5760878  98.1773419  21.9553894  27.3937063  76.8047948
  21.0485350  27.0970176  76.8810662  22.2329875  27.0966881  75.9382234
  12.8731834  28.7143427  87.2546994  12.5534619  27.8608735  86.9621368
  12.3265263  28.9292005  88.0104962  16.6511742  31.4305868  90.9716501
  16.8697752  32.3622976  90.9904535  17.0637516  31.0713842  91.7571305
  23.5715960  21.9373953  82.9592189  22.7616688  21.5921038  83.3347435
  24.2600377  21.6281497  83.5479801  25.5006508  21.0152000  84.5816486
  26.0537547  21.4347453  85.2406509  25.7376594  20.0887748  84.6239442
  20.7252679  24.2523999  76.9459927  21.5871843  24.5778897  77.2055744
  20.9103023  23.4655494  76.4332993  12.7420095  32.3346338  89.2240116
  12.0483566  31.9200291  88.7110070  13.4893086  32.3766875  88.6273535
  28.8785315  23.1252525  84.0895150  28.2983984  23.7837329  83.7073203
  28.6121248  22.3029870  83.6782568  27.3288882  22.5257583  86.2916470
  27.8288660  22.6374117  85.4830789  27.9724490  22.2218636  86.9317279
  21.3870877  30.4336212  99.1784311  20.9037959  31.2336572  99.3848200
  21.4731816  30.4444157  98.2251755  14.6556837  32.2664592  87.1006131
  14.6327525  32.3652279  86.1488014  14.9657474  33.1129743  87.4223297
  17.3144215  34.3240747  91.2152745  18.2687468  34.2924689  91.1482677
  17.1156738  33.8631371  92.0302971  17.9043597  32.8941863  93.7823543
  18.7236486  33.3885942  93.8058380  18.1780405  31.9773831  93.7541110
  27.6610193  25.2852615  83.1451498  26.7736048  25.5702266  82.9271693
  28.0764182  25.1246379  82.2978775  31.0124729  25.3099136  86.8605838
  31.7885119  25.7995589  87.1330454  30.2872864  25.7357191  87.3177707
  33.4497288  26.0226756  87.9179778  34.0441779  25.7822492  87.2073086
  33.5223872  25.3033886  88.5453315  15.6694444  39.8660367  88.2322943
  15.5348912  39.1060767  87.6660941  15.2526506  40.5901266  87.7651732
  26.8053407  35.0497290  77.2399518  27.5089257  35.2547293  77.8557174
  26.0816055  35.6174052  77.5048602  27.6351217  30.8007151  83.3601789
  27.5786418  31.2575703  82.5209421  28.1879559  30.0397836  83.1824631
  31.4456023  26.5896883  84.1851908  31.1892957  26.1893519  85.0160116
  30.8208891  27.3040677  84.0602047  35.7568361  29.3292956  86.6923199
  35.1967919  29.3986146  87.4654761  35.1511864  29.1533941  85.9722696
  18.8263570  40.7629684  88.4441386  18.7095954  41.7075116  88.3420076
  18.0056016  40.4603245  88.8327185  28.7140104  35.4879819  79.2897978
  29.5485708  35.0561018  79.1075453  28.5524447  35.3161833  80.2174873
  28.3685996  31.9911933  80.6554318  28.3134800  31.8256204  79.7142762
  27.7432052  32.6987965  80.8116507  13.1578511  27.2279997  94.4815740
  13.8037375  26.7178951  94.9702965  12.9495662  27.9648679  95.0559165
  25.6831903  34.2960844  99.9807880  26.5523063  34.4701497  99.6194515
  25.2038655  35.1155261  99.8583610  21.6782122  21.4920042  80.2339636
  21.6660792  22.4361881  80.3907907  22.5705544  21.3090187  79.9399097
  19.8518084  41.4157945  91.6597314  20.7545330  41.4481556  91.9763809
  19.6255454  40.4858396  91.6743650  21.6071686  40.1688932  88.3207393
  20.6567317  40.1690794  88.2071765  21.9104172  39.4221667  87.8043427
  25.4934241  18.0862818  84.4885573  24.7266637  17.5321305  84.6342255
  25.9044946  18.1584687  85.3499725  37.3424379  46.0049470  89.3853155
  37.9802789  45.8856218  88.6816495  37.2245222  46.9530314  89.4441107
  34.1514085  45.9576898  89.3214680  33.8132597  45.8417963  88.4335215
  35.0203854  45.5568064  89.3015686  30.0100901  47.8112375  85.3111571
  29.4465766  47.7202312  84.5427859  29.8953296  46.9912279  85.7914063
  34.6333868  47.1111750  95.2800885  34.6222509  46.7164548  94.4081389
  34.7954508  46.3777823  95.8734657  27.5565333  49.3063566  88.1495791
  28.3486625  48.9654391  87.7342091  27.7961983  49.4158542  89.0697945
  29.5156087  48.5672480  81.0213170  30.2886963  48.0201467  80.8826046
  29.8681486  49.4316729  81.2327631  31.3541130  49.8948862  94.2280069
  31.0630996  50.7994493  94.1126736  31.9898114  49.9365390  94.9424139
  32.2797336  47.2725711  90.8181429  32.8760909  47.0481733  90.1038392
  32.3372308  46.5310456  91.4206877  31.8522365  44.7265146  78.6531620
  32.1047886  44.2046667  77.8915083  30.9146924  44.5631291  78.7558304
  36.8965648  43.7300924  86.4606363  37.6828737  43.3120347  86.1096780
  37.1604352  44.6347016  86.6288012  42.2974075  43.6676157  87.3639342
  43.0299247  43.0975374  87.5977171  41.5413431  43.2797758  87.8045847
  31.5718654  46.6293252  80.8555995  31.4554912  45.9538155  81.5237079
  31.6820914  46.1425626  80.0388148  33.9150195  46.0903399  84.5602684
  33.5508402  45.5634020  85.2715606  34.7717310  45.7001868  84.3869170
  39.8199495  37.3797732  91.8233950  39.4882820  38.2493142  91.5995165
  39.2245109  37.0634016  92.5027981  33.5555682  41.1193299  79.5564033
  33.7230084  41.9873535  79.9234504  33.3652851  41.2820580  78.6325322
  36.3131015  49.5810277  91.2229863  36.0131738  50.4835316  91.1145670
  35.9682074  49.3142461  92.0751016  29.7643496  46.0324074  87.2566567
  28.8393993  45.9000288  87.4644259  30.0127909  46.8118294  87.7536510
  39.7128158  42.0992818  88.9027300  38.8045036  42.0308226  88.6086061
  39.6615754  42.5764763  89.7309126  33.5344902  43.5750956  80.5410700
  33.4144528  44.0208007  81.3796180  32.8397491  43.9236274  79.9824238
  27.1252307  45.6757348  88.0910357  27.2544688  45.9291827  89.0049768
  26.4449759  46.2685056  87.7715012  31.2951795  56.3454598  84.1900831
  31.2175824  57.2962423  84.2689311  30.6913438  56.0000470  84.8475757
  33.7869024  43.5182463  96.8462198  33.0102358  44.0776383  96.8365062
  34.4259587  44.0039246  97.3677068  41.5789805  40.3009256  90.6805174
  40.9364185  40.5941789  90.0344969  41.0744733  40.1862176  91.4858371
  39.2329969  44.0472429  81.3691034  40.1447825  44.2799816  81.1938731
  38.7239616  44.6309473  80.8066112  32.0415397  46.3267917  96.4080165
  32.7830081  46.8652961  96.1314988  31.3352382  46.9534205  96.5651716
  37.5170736  48.4697057  95.0052326  37.9254092  48.0279468  94.2606958
  36.7947998  47.8949685  95.2586519  33.8701806  43.4069664  92.3785883
  34.7163001  43.8309077  92.5220532  33.8100444  42.7503288  93.0724446
  37.8399551  49.0298248  88.7604615  37.2108413  49.1943962  88.0580683
  37.4525213  49.4439857  89.5315579  41.7188783  49.9652686  86.1148979
  41.0339821  50.3451587  85.5646012  41.8032632  50.5748012  86.8480927
  37.0201252  41.0674032  94.0367057  36.7762183  41.8216093  93.5001332
  37.2961182  41.4459380  94.8714304  38.9739714  47.6112645  92.7144322
  39.1856610  48.2544404  92.0378703  38.9269463  46.7774961  92.2466252
  36.5765943  40.2230465  89.6180894  35.7150422  40.5211719  89.9097632
  36.6028378  40.4400864  88.6861927  33.3927513  48.7672656  86.0254700
  33.8565858  49.0460359  85.2359323  33.1284311  47.8656100  85.8427791
  30.2851594  48.3144137  88.9634463  30.8552951  48.7431406  88.3251948
  30.8759706  48.0326722  89.6618649  32.3296399  44.8895808  82.8344265
  33.0320442  45.3416852  83.3018192  31.9977027  44.2479627  83.4624158
  30.7776760  43.4807565  97.2095475  30.1475421  44.1623846  97.4430871
  30.6712848  43.3690646  96.2648613  26.0721733  43.1479361  88.1361399
  25.2820787  43.4036889  87.6601509  26.5632980  43.9627699  88.2413439
  40.0885542  50.4884600  90.8866680  40.9102986  50.0864787  90.6049361
  40.0847945  50.3852834  91.8382795  28.0236478  43.5123940  85.0944876
  27.2267641  43.6242634  85.6128371  27.7962070  43.8510592  84.2285766
  33.8542146  50.0368643  93.0427390  33.9186578  50.4989051  93.8785562
  33.1453070  49.4066008  93.1709700  24.3559436  43.4009851  90.5676390
  24.6067474  44.2856861  90.8333966  24.8918984  43.2214453  89.7951481
  48.1791535  46.8323348  87.2351651  47.4255244  46.2630747  87.0795656
  48.3139077  46.7986013  88.1822286  33.5690163  51.7036751  82.9106370
  33.4335838  52.5488287  83.3391218  34.1099976  51.9056028  82.1472304
  30.0557503  37.7828331  99.5720726  29.6624449  37.2294529 100.2468370
  30.8723643  38.0938909  99.9627243  27.0219561  49.2212189  83.4834296
  27.5344081  50.0155439  83.6339860  27.6742274  48.5238479  83.4167897
  28.8314446  52.3377945  85.5657049  29.0081074  53.2595910  85.3778033
  29.6271279  52.0236364  85.9951429  32.9725464  39.1986210  97.1640982
  33.7135177  39.7993363  97.0845445  33.2043387  38.4563848  96.6059025
  28.1166802  44.3842577  95.4419212  28.0020317  43.4827834  95.7426311
  27.2611320  44.6306274  95.0904028  29.9545761  53.8556119  91.5667391
  30.5053186  53.7273182  90.7944385  29.1157237  54.1551008  91.2162284
  33.7512932  50.1207247  95.9111622  34.2841269  49.3595535  95.6810930
  33.2227013  49.8280899  96.6535777  36.9182627  35.2267313  91.4405264
  36.5746896  36.1168954  91.3644375  37.2861590  35.0368970  90.5774849
  24.9868478  47.5500843  84.2593866  25.8243700  47.9597852  84.0427574
  25.1646745  46.6100285  84.2294060  34.4680021  40.0625625  85.0062937
  33.6121617  39.6732475  84.8268576  34.8806973  40.1417585  84.1462723
  35.9979167  37.5971968  89.4054497  35.4943963  37.5602103  88.5922302
  36.2909774  38.5064711  89.4651154  32.2422053  37.6810698  88.4120679
  33.1075050  37.4853506  88.0526568  32.3099562  37.4521049  89.3390036
  36.6719213  43.0903016  81.7737480  36.3669348  43.4049165  82.6247623
  37.6249655  43.1684436  81.8164813  40.0958491  47.4442260  88.5397481
  39.4382165  48.1341521  88.6277609  40.8998890  47.8338692  88.8831467
  29.8484372  39.9112905  85.7837046  30.4228124  39.6888087  85.0510239
  30.4355355  39.9801600  86.5365647  38.9063950  45.7986632  86.5901422
  39.4195831  46.4316624  87.0923132  39.5565173  45.1987828  86.2244782
  30.1753959  41.9417367  79.8032931  29.3391272  42.2792053  80.1242206
  30.0358729  41.8066346  78.8660068  32.1507040  36.7854154  84.5112115
  31.4971452  36.4703172  83.8868730  32.1087514  36.1629895  85.2371938
  36.1686324  55.7770957  79.3462093  35.4948023  56.0802653  79.9547051
  36.5552146  56.5800037  78.9967550  35.3844780  43.2736088  88.8359763
  34.4667342  43.4951035  88.6781451  35.8004924  43.3482398  87.9771470
  36.1679828  44.6727504  83.9662443  36.9151647  45.1848901  83.6569565
  36.4371418  44.3511556  84.8266837  38.6158665  41.7084620  85.9481232
  37.8781422  41.1962006  86.2791475  38.8685439  41.2685001  85.1364509
  38.1158685  52.6169131  85.6530383  38.4081659  53.1774188  84.9342749
  38.6257306  52.9097692  86.4083542  38.7170293  34.4860872  86.5423002
  39.0229169  33.6258235  86.2548917  39.4422897  35.0778492  86.3421996
  25.0094649  44.8891558  84.9304600  24.8119049  44.2960919  84.2055666
  24.4541313  44.5843769  85.6480538  32.9891372  44.7814665  87.0499193
  33.0439982  43.8288501  86.9741669  32.1782574  44.9374104  87.5340491
  30.9283732  43.3991725  84.8089572  30.1151598  43.6985895  85.2154764
  31.4242726  43.0047413  85.5264054  33.0792310  53.3949482  86.7423836
  33.0368489  53.6210328  85.8132368  33.9955009  53.1612856  86.8909637
  36.5257944  43.8633549  93.6404465  36.8807332  44.0905022  94.4998931
  37.1730075  44.1951926  93.0181721  42.2555681  46.9851985  84.3453794
  42.1173580  47.1753581  83.4174984  41.8991900  47.7471368  84.8021846
  30.4197807  40.9710080  90.4250807  31.0597186  40.8298839  89.7273770
  29.5875338  40.6844594  90.0489408  42.2825061  49.0528512  89.3565066
  42.7161567  48.9603801  90.2048120  42.9956641  49.0286013  88.7185082
  31.1958111  50.2712511  86.5385799  31.9898709  49.7762831  86.3368374
  30.4849803  49.7430374  86.1753505  36.0152955  52.6530606  90.8898167
  36.0689978  53.2221542  91.6575882  35.1467737  52.8232491  90.5252204
  27.5040874  44.4155592  82.6145552  26.5738463  44.3540048  82.8315514
  27.5998346  43.8931545  81.8182193  27.4226423  40.9410405  85.2023793
  27.6833241  41.8555738  85.0932954  28.2443596  40.4734848  85.3520406
  28.8951349  42.3548162  92.3722618  29.5674402  42.1465524  91.7235267
  28.0681135  42.1570248  91.9327850  43.1440610  49.0952213  91.8897951
  43.3376500  49.9998023  92.1357226  43.0441228  48.6359632  92.7236536
  34.7976921  38.9810103  94.3888279  34.1504836  39.6800053  94.2952755
  35.5677936  39.4146247  94.7564527  38.2055719  49.2458955  97.4638832
  38.0541225  49.0169507  96.5468916  38.1960398  50.2029557  97.4770177
  34.9741055  46.8190868  92.4485098  35.9033115  46.9702028  92.2754066
  34.5532085  46.9074889  91.5933745  33.7729387  50.8441533  90.2183636
  33.6340473  50.4760317  91.0909574  32.9843983  51.3589172  90.0467594
  34.3677539  55.9450629  81.5609173  34.5429295  55.4738672  82.3754795
  33.6810327  56.5716395  81.7890433  35.3234602  50.2223135  87.6072474
  34.9884435  50.1823905  88.5030124  34.8238548  49.5567851  87.1342884
  29.2978846  45.6290765  93.1325055  29.1598644  44.8971004  93.7336594
  30.2083770  45.5399665  92.8509243  31.9261147  45.3410725  92.6208735
  32.6360765  44.7003917  92.5795353  31.8830455  45.5923620  93.5434915
  30.6390081  42.3275943  94.4404374  30.1027438  41.8766681  95.0925970
  30.0506789  42.4621851  93.6974838  30.0492340  41.7864594  77.0030838
  29.1721806  41.6653395  76.6393084  30.5250093  40.9950672  76.7509726
  39.9165333  50.2417662  93.7729294  39.0292111  49.9043584  93.8955692
  40.4863884  49.5100693  94.0098059  21.5694480  46.5741754  87.0972345
  22.2565520  46.2603484  86.5093360  21.4142608  47.4783118  86.8239596
  26.3729202  41.4631950  91.5257369  26.2887391  40.8557620  90.7907779
  25.5511908  41.9540969  91.5266865  33.4466486  54.9019114  90.7390537
  33.3736658  55.7074086  91.2509841  33.0043879  55.1011080  89.9138558
  33.2356266  54.1390884  84.2493358  32.4523788  54.6812565  84.3431583
  33.9349011  54.6564864  84.6487599  36.5452916  39.9485514  86.8927564
  37.0421615  39.1955476  86.5728634  35.7739897  39.9849830  86.3270773
  44.3982673  45.6525879  88.5345855  44.3872549  46.5350595  88.1639788
  43.5300053  45.2997430  88.3400392  37.6282697  48.7057201  84.4665987
  36.6938975  48.8258663  84.2970691  37.8059365  47.8029668  84.2025997
  33.1287885  42.0902897  86.6199248  32.7585672  41.5373937  87.3080154
  33.6246977  41.4861030  86.0674248  41.0155248  44.5474520  85.0016021
  41.4815700  45.3802512  84.9276324  41.4662748  44.0819502  85.7061280
  30.9577083  52.5500392  93.7154266  31.6586543  53.1836875  93.8683660
  30.4872198  52.8915123  92.9549905  38.9871911  36.9155107  89.0406923
  38.0734990  37.1459334  89.2089129  39.4165012  36.9993551  89.8920955
  38.7578369  45.1044999  91.5406817  38.1049819  45.3520907  90.8859269
  39.1358749  44.2909137  91.2069294  35.7185543  55.1404692  85.6434987
  35.9007938  54.3226348  86.1062739  36.5418529  55.3572385  85.2059877
  34.8065942  45.8464810  98.0272854  34.1306579  45.7458940  98.6975229
  35.6293576  45.6904024  98.4908851  26.5544801  52.0836747  90.6485369
  27.1398238  51.3380435  90.7813273  26.3569640  52.3940704  91.5322033
  29.4083456  55.1187994  85.6647811  28.7393832  55.6034122  85.1811851
  29.2696326  55.3657215  86.5791190  21.1462456  44.6542347  89.3689812
  21.1846555  44.1205938  90.1626930  20.6402749  44.1277553  88.7500789
  28.5253218  39.5006888  92.8652354  28.5894545  40.3621718  92.4529752
  28.4620338  38.8880889  92.1324713  28.0005491  41.5730020  96.5125389
  28.6277530  41.1907097  97.1262913  27.1433410  41.3544222  96.8781081
  24.7771034  43.3806449  82.4443743  25.0724475  42.4717128  82.3910797
  23.8759069  43.3594189  82.1224746  28.3065281  41.4562446  88.4271292
  27.5851866  42.0698413  88.2878765  29.0958536  41.9920211  88.3487938
  31.1091594  38.7916872  94.7011944  31.6325996  39.0379169  95.4638253
  30.8903927  39.6236907  94.2815081  26.5058875  41.0620547  82.5683069
  26.1771581  40.1817926  82.3858175  26.8598246  41.0068216  83.4559458
  35.7538454  52.6975450  87.0778054  35.6063416  51.7692157  87.2585624
  36.5791947  52.7195540  86.5935129  29.6200698  41.3493517  82.9358546
  29.9596771  41.8779438  82.2137155  30.0672819  41.6873923  83.7117113
  32.3144139  39.7330567  92.3861614  31.9740959  38.9338380  92.7882294
  31.6083145  40.0332278  91.8138448  32.9660611  36.8179880  90.8388937
  33.7886680  36.3440358  90.7167828  33.2098674  37.5970364  91.3387624
  31.6068845  39.8468138  81.1351839  32.3277208  40.2249391  80.6315556
  30.9834150  40.5657015  81.2386817  35.7499968  40.5513287  82.0710171
  35.9663583  41.4337925  81.7699000  35.2694035  40.1599501  81.3415813
  30.4899190  43.5099000  88.6480916  30.3443770  43.8239304  89.5405197
  30.0124393  44.1283901  88.0951815  32.3495573  40.5001548  88.6961806
  32.3357141  39.6042642  88.3594103  33.0668001  40.5072212  89.3300092
  34.2021703  40.9338889  90.7414933  33.9439481  41.8555959  90.7399263
  33.6706744  40.5369323  91.4315397  24.9644852  46.0504345  91.5868577
  24.4198320  46.8264153  91.7188851  25.8424202  46.3975149  91.4287699
  31.7532468  39.3815929  83.9649376  31.8748380  38.4532575  84.1640263
  31.4634511  39.3954615  83.0527691  34.6223659  37.0670839  87.1016095
  34.6445356  37.1310172  86.1468075  35.0391718  36.2275348  87.2956602
  45.0007283  46.8026099  85.1395318  45.4438429  46.0533424  84.7414441
  44.1233793  46.7936235  84.7569050  25.7510874  45.1774241  94.4798734
  25.0092610  45.3256876  95.0663364  25.4303618  45.4382507  93.6165483
  33.7175148  56.8728129  86.5084501  33.2780139  56.3804508  87.2017357
  34.4683265  56.3301097  86.2676576  26.1967487  53.0639670  86.5109129
  27.0225507  52.7643442  86.1307772  25.8461539  52.2947292  86.9598917
  31.1649021  52.4166138  88.5806802  30.5429030  51.7536843  88.2809030
  31.8353887  52.4427270  87.8980450  24.3976092  50.9825996  87.4698062
  23.5608001  50.5548171  87.2882063  24.3699738  51.1758440  88.4068853
  31.2373548  40.8947926  98.1739308  31.2861703  41.7710049  97.7917078
  31.7796062  40.3525319  97.6010951  41.8426269  48.2881516  94.7673174
  41.8924274  48.1231523  95.7088697  41.7340192  47.4208775  94.3771055
  30.7262527  50.9670061  82.0565263  30.8750648  51.6505526  81.4031936
  31.5328971  50.9475151  82.5714719  39.1330031  44.2712444  96.0832481
  40.0339894  44.1318909  95.7916478  39.2078006  44.4366899  97.0230658
  33.4672836  41.6479298  94.9285667  32.5976146  41.9412865  94.6568255
  33.7032317  42.2319743  95.6492931  44.5440148  48.2731337  87.5317766
  45.3787039  48.7121141  87.6955326  44.6799277  47.7969990  86.7126011
  41.5931654  45.8311072  93.4795253  42.0685775  46.0238718  92.6714105
  40.6697219  45.8870258  93.2338637  28.4815160  46.9935239  83.0626332
  28.2361202  46.0897569  83.2606542  28.6511075  46.9952389  82.1205810
  36.1711870  37.8658915  92.4451087  36.6893814  38.6019942  92.1197576
  35.8167003  38.1722909  93.2797846  27.7510808  42.7263597  80.5612493
  27.0580053  42.8007952  79.9052529  27.5062560  41.9623940  81.0834010
  36.4224464  34.2859198  87.9651984  36.7026218  33.6182387  88.5912410
  37.2075071  34.4788294  87.4526648  40.2933323  42.7076832  91.7123559
  41.2450746  42.8074930  91.7335783  40.1236773  41.9155100  92.2221643
  38.3147702  39.7932415  91.8982960  37.7197634  40.0737428  91.2029449
  38.0297399  40.2826316  92.6699701  42.7721401  45.9282952  90.8265859
  42.7397721  44.9898952  91.0125542  43.3822024  46.0066988  90.0931684
  34.6104731  44.7979005  76.8693063  35.5563836  44.6685213  76.9381481
  34.2318976  44.0593666  77.3462491  42.9215889  42.7193995  90.8724142
  42.4054938  41.9352452  90.6854071  43.8055838  42.3912712  91.0370661
  40.5826616  36.4635011  86.8319955  40.3851437  36.1550099  87.7163286
  41.1926322  37.1896650  86.9617884  48.5897950  46.9898958  89.9671895
  49.3201339  46.7284247  90.5279599  47.9804896  46.2527680  90.0073963
  46.6713248  45.1306821  90.5646347  45.9446411  44.9962786  89.9562838
  46.2560534  45.4383650  91.3703065  34.4943424  48.8496751  98.3293720
  35.4146433  49.0275350  98.5233766  34.4593007  47.9052796  98.1773419
  32.7947649  42.7228981  76.8047948  31.8879104  42.4262094  76.8810662
  33.0723630  42.4258799  75.9382234  23.7125589  44.0435344  87.2546994
  23.3928373  43.1900653  86.9621368  23.1659017  44.2583923  88.0104962
  27.4905497  46.7597785  90.9716501  27.7091506  47.6914893  90.9904535
  27.9031270  46.4005760  91.7571305  34.4109714  37.2665871  82.9592189
  33.6010443  36.9212956  83.3347435  35.0994131  36.9573414  83.5479801
  36.3400263  36.3443918  84.5816486  36.8931301  36.7639371  85.2406509
  36.5770349  35.4179666  84.6239442  32.3633362  42.3330991 100.3619250
  32.2630089  43.2825348 100.2931341  32.1454904  42.0049230  99.4895320
  31.5646433  39.5815916  76.9459927  32.4265597  39.9070815  77.2055744
  31.7496777  38.7947412  76.4332993  23.5813849  47.6638256  89.2240116
  22.8877320  47.2492209  88.7110070  24.3286840  47.7058792  88.6273535
  39.7179070  38.4544443  84.0895150  39.1377739  39.1129247  83.7073203
  39.4515002  37.6321787  83.6782568  38.1682636  37.8549500  86.2916470
  38.6682414  37.9666035  85.4830789  38.8118244  37.5510553  86.9317279
  32.2264632  45.7628130  99.1784311  31.7431714  46.5628490  99.3848200
  32.3125571  45.7736075  98.2251755  25.4950592  47.5956510  87.1006131
  25.4721280  47.6944197  86.1488014  25.8051228  48.4421660  87.4223297
  28.1537969  49.6532665  91.2152745  29.1081223  49.6216607  91.1482677
  27.9550493  49.1923288  92.0302971  28.7437352  48.2233781  93.7823543
  29.5630241  48.7177859  93.8058380  29.0174159  47.3065749  93.7541110
  38.5003948  40.6144533  83.1451498  37.6129803  40.8994184  82.9271693
  38.9157937  40.4538296  82.2978775  41.8518484  40.6391054  86.8605838
  42.6278874  41.1287506  87.1330454  41.1266618  41.0649108  87.3177707
  44.2891042  41.3518673  87.9179778  44.8835533  41.1114409  87.2073086
  44.3617626  40.6325804  88.5453315  26.5088198  55.1952284  88.2322943
  26.3742666  54.4352685  87.6660941  26.0920260  55.9193184  87.7651732
  42.2849777  41.9188801  84.1851908  42.0286712  41.5185437  85.0160116
  41.6602645  42.6332595  84.0602047  46.5962115  44.6584874  86.6923199
  46.0361673  44.7278063  87.4654761  45.9905619  44.4825859  85.9722696
  29.6657324  56.0921601  88.4441386  29.5489708  57.0367034  88.3420076
  28.8449770  55.7895163  88.8327185  23.9972266  42.5571915  94.4815740
  24.6431129  42.0470869  94.9702965  23.7889417  43.2940596  95.0559165
  32.5175876  36.8211959  80.2339636  32.5054546  37.7653799  80.3907907
  33.4099298  36.6382105  79.9399097  32.4465440  55.4980850  88.3207393
  31.4961071  55.4982711  88.2071765  32.7497926  54.7513584  87.8043427
  36.3327996  33.4154736  84.4885573  35.5660392  32.8613223  84.6342255
  36.7438701  33.4876605  85.3499725  28.3369757  39.7039532  98.5790754
  29.2001218  39.3476337  98.7894079  27.7635167  39.3653426  99.2666158
  45.4727623  62.4403668  95.2800885  45.4616264  62.0456466  94.4081389
  45.6348262  61.7069740  95.8734657  50.6593250  52.7089649  91.8233950
  50.3276574  53.5785060  91.5995165  50.0638863  52.3925933  92.5027981
  50.5521913  57.4284735  88.9027300  49.6438790  57.3600144  88.6086061
  50.5009509  57.9056680  89.7309126  44.3738657  58.9042874  80.5410700
  44.2538282  59.3499925  81.3796180  43.6791245  59.2528191  79.9824238
  52.4183559  55.6301174  90.6805174  51.7757940  55.9233707  90.0344969
  51.9138488  55.5154094  91.4858371  47.8595006  56.3965950  94.0367057
  47.6155938  57.1508010  93.5001332  48.1354937  56.7751298  94.8714304
  47.4159698  55.5522383  89.6180894  46.5544177  55.8503636  89.9097632
  47.4422132  55.7692782  88.6861927  36.9115487  58.4771279  88.1361399
  36.1214541  58.7328807  87.6601509  37.4026735  59.2919616  88.2413439
  38.8630233  58.8415858  85.0944876  38.0661396  58.9534552  85.6128371
  38.6355825  59.1802510  84.2285766  35.1953190  58.7301769  90.5676390
  35.4461229  59.6148779  90.8333966  35.7312739  58.5506370  89.7951481
  47.7576381  50.5559230  91.4405264  47.4140651  51.4460872  91.3644375
  48.1255344  50.3660888  90.5774849  45.3073775  55.3917542  85.0062937
  44.4515372  55.0024393  84.8268576  45.7200727  55.4709503  84.1462723
  46.8372922  52.9263886  89.4054497  46.3337717  52.8894021  88.5922302
  47.1303529  53.8356628  89.4651154  40.6878127  55.2404823  85.7837046
  41.2621879  55.0180005  85.0510239  41.2749109  55.3093518  86.5365647
  42.9900795  52.1146072  84.5112115  42.3365207  51.7995089  83.8868730
  42.9481269  51.4921813  85.2371938  46.2238535  58.6028006  88.8359763
  45.3061096  58.8242953  88.6781451  46.6398679  58.6774316  87.9771470
  49.4552420  57.0376538  85.9481232  48.7175177  56.5253924  86.2791475
  49.7079193  56.5976919  85.1364509  49.5564047  49.8152790  86.5423002
  49.8622924  48.9550153  86.2548917  50.2816652  50.4070410  86.3421996
  41.7677487  58.7283642  84.8089572  40.9545352  59.0277813  85.2154764
  42.2636481  58.3339331  85.5264054  47.3651698  59.1925467  93.6404465
  47.7201086  59.4196940  94.4998931  48.0123830  59.5243844  93.0181721
  38.2620178  56.2702323  85.2023793  38.5226995  57.1847656  85.0932954
  39.0837350  55.8026765  85.3520406  45.6370675  54.3102021  94.3888279
  44.9898590  55.0091971  94.2952755  46.4071691  54.7438165  94.7564527
  47.3846670  55.2777431  86.8927564  47.8815370  54.5247394  86.5728634
  46.6133652  55.3141748  86.3270773  43.9681639  57.4194814  86.6199248
  43.5979427  56.8665855  87.3080154  44.4640732  56.8152948  86.0674248
  49.8265665  52.2447025  89.0406923  48.9128745  52.4751252  89.2089129
  50.2558767  52.3285469  89.8920955  49.5972124  60.4336917  91.5406817
  48.9443574  60.6812824  90.8859269  49.9752503  59.6201055  91.2069294
  35.6164788  58.7098367  82.4443743  35.9118229  57.8009045  82.3910797
  34.7152824  58.6886106  82.1224746  37.3452630  56.3912465  82.5683069
  37.0165336  55.5109843  82.3858175  37.6992000  56.3360133  83.4559458
  40.4594453  56.6785434  82.9358546  40.7990525  57.2071356  82.2137155
  40.9066573  57.0165840  83.7117113  43.8054365  52.1471797  90.8388937
  44.6280435  51.6732276  90.7167828  44.0492429  52.9262281  91.3387624
  45.0415458  56.2630806  90.7414933  44.7833236  57.1847877  90.7399263
  44.5100498  55.8661241  91.4315397  42.5926223  54.7107846  83.9649376
  42.7142134  53.7824493  84.1640263  42.3028265  54.7246532  83.0527691
  45.4617413  52.3962757  87.1016095  45.4839110  52.4602090  86.1468075
  45.8785472  51.5567265  87.2956602  49.9723786  59.6004361  96.0832481
  50.8733648  59.4610826  95.7916478  50.0471760  59.7658816  97.0230658
  47.0105625  53.1950833  92.4451087  47.5287569  53.9311860  92.1197576
  46.6560758  53.5014826  93.2797846  47.2618219  49.6151116  87.9651984
  47.5419973  48.9474305  88.5912410  48.0468826  49.8080211  87.4526648
  51.1327077  58.0368750  91.7123559  52.0844500  58.1366847  91.7335783
  50.9630528  57.2447018  92.2221643  49.1541457  55.1224333  91.8982960
  48.5591389  55.4029346  91.2029449  48.8691153  55.6118234  92.6699701
  53.7609644  58.0485913  90.8724142  53.2448692  57.2644369  90.6854071
  54.6449592  57.7204629  91.0370661  51.4220370  51.7926928  86.8319955
  51.2245192  51.4842016  87.7163286  52.0320076  52.5188567  86.9617884
  47.1794017  51.6735835  84.5816486  47.7325056  52.0931289  85.2406509
  47.4164103  50.7471583  84.6239442  49.0076391  53.1841418  86.2916470
  49.5076169  53.2957953  85.4830789  49.6511998  52.8802471  86.9317279
  52.6912238  55.9682972  86.8605838  53.4672628  56.4579424  87.1330454
  51.9660373  56.3941026  87.3177707  55.1284797  56.6810591  87.9179778
  55.7229288  56.4406327  87.2073086  55.2011381  55.9617721  88.5453315
  53.1243532  57.2480719  84.1851908  52.8680466  56.8477354  85.0160116
  52.4996400  57.9624512  84.0602047  47.1721750  48.7446654  84.4885573
  46.4054146  48.1905140  84.6342255  47.5832455  48.8168522  85.3499725
  60.0787108  82.6376831  98.1179124  60.6227012  83.2506789  97.6234079
  59.4973953  83.1956409  98.6346137  67.1515132  93.0987503  95.2800885
  67.1403773  92.7040301  94.4081389  67.3135771  92.3653576  95.8734657
  68.1081723  97.4659096  80.6226036  67.4569703  98.0513176  80.2360049
  68.9026086  97.9965291  80.6821073  63.8722393  95.8824615  94.2280069
  63.5812259  96.7870246  94.1126736  64.5079377  95.9241143  94.9424139
  69.5856989  95.1549528  81.1595020  68.9502821  95.2284154  81.8715925
  69.2554395  95.7443126  80.4814099  74.8155338  89.6551910  87.3639342
  75.5480510  89.0851127  87.5977171  74.0594694  89.2673511  87.8045847
  72.3380759  83.3673485  91.8233950  72.0064083  84.2368895  91.5995165
  71.7426372  83.0509769  92.5027981  68.8312278  95.5686031  91.2229863
  68.5313001  96.4711069  91.1145670  68.4863338  95.3018214  92.0751016
  72.2309422  88.0868571  88.9027300  71.3226299  88.0183979  88.6086061
  72.1797018  88.5640516  89.7309126  63.8133058 102.3330351  84.1900831
  63.7357088 103.2838176  84.2689311  63.2094702 101.9876223  84.8475757
  66.3050288  89.5058216  96.8462198  65.5283622  90.0652136  96.8365062
  66.9440851  89.9914999  97.3677068  74.0971068  86.2885009  90.6805174
  73.4545449  86.5817542  90.0344969  73.5925997  86.1737929  91.4858371
  64.5596660  92.3143670  96.4080165  65.3011344  92.8528714  96.1314988
  63.8533646  92.9409958  96.5651716  70.0352000  94.4572810  95.0052326
  70.4435356  94.0155221  94.2606958  69.3129261  93.8825438  95.2586519
  70.3580814  95.0174001  88.7604615  69.7289677  95.1819715  88.0580683
  69.9706476  95.4315610  89.5315579  74.2370046  95.9528439  86.1148979
  73.5521084  96.3327340  85.5646012  74.3213896  96.5623765  86.8480927
  69.5382515  87.0549785  94.0367057  69.2943447  87.8091846  93.5001332
  69.8142446  87.4335133  94.8714304  71.4920978  93.5988398  92.7144322
  71.7037873  94.2420158  92.0378703  71.4450726  92.7650714  92.2466252
  65.9108776  94.7548409  86.0254700  66.3747122  95.0336112  85.2359323
  65.6465574  93.8531853  85.8427791  63.2958024  89.4683318  97.2095475
  62.6656684  90.1499599  97.4430871  63.1894112  89.3566399  96.2648613
  72.6066806  96.4760353  90.8866680  73.4284250  96.0740540  90.6049361
  72.6029209  96.3728587  91.8382795  80.6972799  92.8199102  87.2351651
  79.9436507  92.2506500  87.0795656  80.8320340  92.7861766  88.1822286
  66.0871427  97.6912504  82.9106370  65.9517102  98.5364040  83.3391218
  66.6281239  97.8931781  82.1472304  62.5738767  83.7704084  99.5720726
  62.1805712  83.2170282 100.2468370  63.3904907  84.0814662  99.9627243
  61.3495709  98.3253698  85.5657049  61.5262337  99.2471663  85.3778033
  62.1452543  98.0112117  85.9951429  65.4906728  85.1861963  97.1640982
  66.2316441  85.7869116  97.0845445  65.7224650  84.4439601  96.6059025
  67.7139903  98.3136070  97.0406713  67.2703757  97.5272449  96.7227617
  68.3757117  98.5015221  96.3750603  62.4727024  99.8431872  91.5667391
  63.0234450  99.7148935  90.7944385  61.6338500 100.1426761  91.2162284
  69.8121141  98.5938870  95.0688114  69.7939617  99.4147751  94.5768383
  70.7341061  98.4692945  95.2938255  66.2694195  96.1083000  95.9111622
  66.8022532  95.3471288  95.6810930  65.7408277  95.8156652  96.6535777
  69.4363890  81.2143066  91.4405264  69.0928160  82.1044707  91.3644375
  69.8042853  81.0244723  90.5774849  69.4014173  91.2051677  79.9477699
  68.8860797  91.9756281  80.1866086  69.1291482  90.5316813  80.5710760
  74.3748447  93.9584031  81.8830873  73.5977890  93.6195191  81.4386035
  75.0539928  93.9636655  81.2085838  67.6346908  95.2368992  83.4230434
  67.1068270  94.5021752  83.1103672  67.1334411  96.0143669  83.1770403
  72.6139754  93.4318013  88.5397481  71.9563429  94.1217274  88.6277609
  73.4180153  93.8214445  88.8831467  71.4245213  91.7862385  86.5901422
  71.9377095  92.4192377  87.0923132  72.0746437  91.1863581  86.2244782
  65.7799508  93.0549202  76.4265407  64.8726570  92.8238456  76.6256556
  66.2770540  92.2586822  76.6139389  68.6867587 101.7646710  79.3462093
  68.0129286 102.0678406  79.9547051  69.0733409 102.5675790  78.9967550
  66.9587742  93.1561797  80.9489397  66.0498961  92.8720830  81.0461867
  66.9882826  93.5760876  80.0892704  72.1907009  96.7668387  84.7180565
  71.7369336  95.9259297  84.7745755  71.5600976  97.4029785  85.0555345
  70.6339948  98.6044884  85.6530383  70.9262923  99.1649941  84.9342749
  71.1438569  98.8973445  86.4083542  66.6563830  94.6970541  78.2877476
  66.2183260  93.9806400  77.8283113  67.3974270  94.9246656  77.7262567
  65.5973574  99.3825235  86.7423836  65.5549752  99.6086081  85.8132368
  66.5136273  99.1488609  86.8909637  74.7736944  92.9727738  84.3453794
  74.6354843  93.1629334  83.4174984  74.4173163  93.7347121  84.8021846
  74.8006324  95.0404265  89.3565066  75.2342831  94.9479554  90.2048120
  75.5137905  95.0161766  88.7185082  68.5334219  98.6406359  90.8898167
  68.5871241  99.2097295  91.6575882  67.6649000  98.8108244  90.5252204
  75.6621874  95.0827966  91.8897951  75.8557764  95.9873776  92.1357226
  75.5622492  94.6235385  92.7236536  70.7236982  95.2334708  97.4638832
  70.5722489  95.0045260  96.5468916  70.7141662  96.1905310  97.4770177
  66.8858802 101.9326382  81.5609173  67.0610558 101.4614425  82.3754795
  66.1991590 102.5592148  81.7890433  67.8415866  96.2098888  87.6072474
  67.5065698  96.1699658  88.5030124  67.3419811  95.5443604  87.1342884
  70.7775057  93.5554923  77.8809533  70.1604228  92.8301751  77.7842586
  70.3091546  94.3164283  77.5376608  72.4329189  98.2653831  95.5415314
  72.3741735  97.5813051  94.8745897  72.8348707  99.0072821  95.0895940
  61.4519888 105.0815745  88.3349033  61.6916486 105.7134269  89.0128051
  60.6089084 104.7303785  88.6214392  72.4346596  96.2293415  93.7729294
  71.5473375  95.8919337  93.8955692  73.0045147  95.4976446  94.0098059
  65.9647750 100.8894867  90.7390537  65.8917921 101.6949839  91.2509841
  65.5225143 101.0886833  89.9138558  65.7537529 100.1266637  84.2493358
  64.9705051 100.6688318  84.3431583  66.4530274 100.6440617  84.6487599
  76.9163937  91.6401632  88.5345855  76.9053813  92.5226348  88.1639788
  76.0481316  91.2873183  88.3400392  68.4246433 100.7881701  92.8948695
  69.1374405 101.4229166  92.8224597  67.9336462 100.8845567  92.0788697
  70.1463960  94.6932954  84.4665987  69.2120239  94.8134416  84.2970691
  70.3240628  93.7905421  84.2025997  73.5336511  90.5350273  85.0016021
  73.9996964  91.3678265  84.9276324  73.9844012  90.0695255  85.7061280
  63.4758347  98.5376145  93.7154266  64.1767806  99.1712628  93.8683660
  63.0053462  98.8790876  92.9549905  71.6012742  96.8794095  82.0002173
  71.8772586  96.7650689  82.9096047  70.7317241  96.4811579  81.9614346
  71.5053174  82.9030860  89.0406923  70.5916254  83.1335087  89.2089129
  71.9346276  82.9869304  89.8920955  71.2759633  91.0920752  91.5406817
  70.6231083  91.3396660  90.8859269  71.6540012  90.2784890  91.2069294
  68.2366806 101.1280445  85.6434987  68.4189201 100.3102101  86.1062739
  69.0599792 101.3448138  85.2059877  68.5708972 100.0548631  82.9050035
  69.0996738  99.5441085  82.2920197  68.8337192  99.7391161  83.7695568
  67.3247206  91.8340563  98.0272854  66.6487843  91.7334693  98.6975229
  68.1474839  91.6779777  98.4908851  61.9264720 101.1063747  85.6647811
  61.2575095 101.5909875  85.1811851  61.7877590 101.3532968  86.5791190
  66.0669988 103.1407491  92.2630470  66.6188297 103.3039112  93.0279555
  66.4076182 103.7311929  91.5910494  70.9180863  97.9668748  98.1179124
  71.4620767  98.5798707  97.6234079  70.3367708  98.5248327  98.6346137
  69.2038376 101.0889466  89.2494152  69.0789515 100.2879206  88.7405097
  69.8617467 101.5835660  88.7608122  71.2673284  98.8898486  90.8773702
  70.3203620  98.7703838  90.8052029  71.6156057  98.0020984  90.9599963
  68.2719717  98.6851203  87.0778054  68.1244680  97.7567910  87.2585624
  69.0973211  98.7071293  86.5935129  71.8753839  99.5079761  88.1642927
  72.8000387  99.3022623  88.0267378  71.7069143  99.2596162  89.0732268
  71.6649155 100.0265429  83.5205018  71.8386033  99.4611851  82.7678871
  72.1578047 100.8266324  83.3384508  77.5188547  92.7901852  85.1395318
  77.9619693  92.0409177  84.7414441  76.6415057  92.7811988  84.7569050
  72.6524328  99.3432193  80.6201917  73.3475233  99.9638886  80.8389231
  72.9947478  98.4927544  80.8954294  74.5515751  96.7931899  82.1489247
  75.0767075  97.1319171  81.4238567  74.4638104  95.8578914  81.9652382
  66.2135800 100.7065972  94.2779124  66.5222926 100.4615119  95.1501824
  67.0111282 100.9112611  93.7897994  66.2356412 102.8603882  86.5084501
  65.7961402 102.3680261  87.2017357  66.9864529 102.3176850  86.2676576
  63.6830284  98.4041891  88.5806802  63.0610293  97.7412596  88.2809030
  64.3535151  98.4303023  87.8980450  63.7554811  86.8823679  98.1739308
  63.8042967  87.7585802  97.7917078  64.2977326  86.3401072  97.6010951
  74.2409657  97.4264802  97.4540445  73.4505201  97.4088941  96.9144945
  74.0043012  97.9653096  98.2089482  74.3607532  94.2757269  94.7673174
  74.4105537  94.1107276  95.7088697  74.2521456  93.4084528  94.3771055
  63.2443791  96.9545814  82.0565263  63.3931911  97.6381279  81.4031936
  64.0510234  96.9350904  82.5714719  71.6511295  90.2588197  96.0832481
  72.5521157  90.1194662  95.7916478  71.7259269  90.4242652  97.0230658
  65.9854100  87.6355052  94.9285667  65.1157409  87.9288618  94.6568255
  66.2213580  88.2195497  95.6492931  75.8625729  96.6954210  95.0115195
  75.5710537  97.0584191  95.8478656  75.2497860  95.9821219  94.8328527
  77.0621411  94.2607090  87.5317766  77.8968303  94.6996894  87.6955326
  77.1980540  93.7845743  86.7126011  74.1112917  91.8186825  93.4795253
  74.5867039  92.0114471  92.6714105  73.1878483  91.8746011  93.2338637
  66.7439196  99.4493945  79.5277010  66.1713164 100.0684132  79.0747482
  67.3171990  99.9993307  80.0616932  72.8114586  88.6952585  91.7123559
  73.7632009  88.7950683  91.7335783  72.6418037  87.9030854  92.2221643
  70.8328966  85.7808168  91.8982960  70.2378898  86.0613181  91.2029449
  70.5478662  86.2702069  92.6699701  69.9636456  99.7331095  80.6585592
  70.8967129  99.6676657  80.8618468  69.8759669 100.5687362  80.2000125
  72.5924473  99.0496965  77.6189540  72.5138104  98.7156829  78.5125298
  73.4134140  99.5418733  77.6181012  75.2902664  91.9158705  90.8265859
  75.2578984  90.9774705  91.0125542  75.9003288  91.9942741  90.0931684
  67.1285995  90.7854758  76.8693063  68.0745100  90.6560966  76.9381481
  66.7500240  90.0469420  77.3462491  75.4397153  88.7069748  90.8724142
  74.9236201  87.9228205  90.6854071  76.3237101  88.3788465  91.0370661
  81.1079214  92.9774711  89.9671895  81.8382602  92.7160000  90.5279599
  80.4986159  92.2403433  90.0073963  79.1894511  91.1182574  90.5646347
  78.4627675  90.9838539  89.9562838  78.7741798  91.4259403  91.3703065
  67.0124687  94.8372504  98.3293720  67.9327697  95.0151103  98.5233766
  66.9774271  93.8928549  98.1773419  65.3128912  88.7104734  76.8047948
  64.4060367  88.4137847  76.8810662  65.5904893  88.4134552  75.9382234
  64.8814625  88.3206744 100.3619250  64.7811352  89.2701101 100.2931341
  64.6636167  87.9924983  99.4895320  64.7445895  91.7503883  99.1784311
  64.2612977  92.5504243  99.3848200  64.8306834  91.7611828  98.2251755
  74.3699747  86.6266807  86.8605838  75.1460137  87.1163259  87.1330454
  73.6447882  87.0524861  87.3177707  76.8072306  87.3394426  87.9179778
  77.4016797  87.0990162  87.2073086  76.8798890  86.6201557  88.5453315
  59.0269462 101.1828037  88.2322943  58.8923930 100.4228438  87.6660941
  58.6101524 101.9068937  87.7651732  70.1628425  96.3664961  77.2399518
  70.8664275  96.5714963  77.8557174  69.4391073  96.9341723  77.5048602
  70.9926235  92.1174822  83.3601789  70.9361436  92.5743373  82.5209421
  71.5454577  91.3565507  83.1824631  74.8031041  87.9064554  84.1851908
  74.5467975  87.5061190  85.0160116  74.1783909  88.6208348  84.0602047
  79.1143379  90.6460627  86.6923199  78.5542937  90.7153816  87.4654761
  78.5086882  90.4701612  85.9722696  62.1838588 102.0797354  88.4441386
  62.0670972 103.0242787  88.3420076  61.3631034 101.7770916  88.8327185
  72.0715122  96.8047490  79.2897978  72.9060726  96.3728688  79.1075453
  71.9099465  96.6329504  80.2174873  71.7261014  93.3079603  80.6554318
  71.6709818  93.1423875  79.7142762  71.1007070  94.0155636  80.8116507
  69.0406921  95.6128515  99.9807880  69.9098081  95.7869167  99.6194515
  68.5613673  96.4322932  99.8583610  63.2093102 102.7325616  91.6597314
  64.1120348 102.7649226  91.9763809  62.9830472 101.8026067  91.6743650
  64.9646704 101.4856603  88.3207393  64.0142335 101.4858464  88.2071765
  65.2679190 100.7389337  87.8043427  60.8551020  85.6915285  98.5790754
  61.7182482  85.3352090  98.7894079  60.2816431  85.3529180  99.2666158
  80.6999397 107.3217141  89.3853155  81.3377807 107.2023888  88.6816495
  80.5820240 108.2697985  89.4441107  77.5089103 107.2744569  89.3214680
  77.1707615 107.1585634  88.4335215  78.3778872 106.8735734  89.3015686
  73.3675919 109.1280046  85.3111571  72.8040784 109.0369983  84.5427859
  73.2528314 108.3079950  85.7914063  77.9908886 108.4279421  95.2800885
  77.9797527 108.0332219  94.4081389  78.1529526 107.6945493  95.8734657
  70.9140351 110.6231237  88.1495791  71.7061643 110.2822062  87.7342091
  71.1537001 110.7326212  89.0697945  78.9475478 112.7951013  80.6226036
  78.2963458 113.3805094  80.2360049  79.7419841 113.3257208  80.6821073
  72.8731105 109.8840150  81.0213170  73.6461981 109.3369138  80.8826046
  73.2256504 110.7484400  81.2327631  74.7116148 111.2116533  94.2280069
  74.4206014 112.1162164  94.1126736  75.3473132 111.2533060  94.9424139
  75.6372354 108.5893381  90.8181429  76.2335927 108.3649404  90.1038392
  75.6947326 107.8478127  91.4206877  75.2097383 106.0432817  78.6531620
  75.4622904 105.5214338  77.8915083  74.2721942 105.8798962  78.7558304
  80.2540666 105.0468595  86.4606363  81.0403755 104.6288018  86.1096780
  80.5179370 105.9514687  86.6288012  80.4250743 110.4841445  81.1595020
  79.7896576 110.5576072  81.8715925  80.0948149 111.0735044  80.4814099
  85.6549093 104.9843828  87.3639342  86.3874265 104.4143045  87.5977171
  84.8988448 104.5965429  87.8045847  74.9293672 107.9460922  80.8555995
  74.8129930 107.2705826  81.5237079  75.0395931 107.4593296  80.0388148
  77.2725213 107.4071070  84.5602684  76.9083420 106.8801691  85.2715606
  78.1292328 107.0169539  84.3869170  83.1774513  98.6965402  91.8233950
  82.8457838  99.5660813  91.5995165  82.5820127  98.3801686  92.5027981
  76.9130699 102.4360969  79.5564033  77.0805102 103.3041206  79.9234504
  76.7227869 102.5988251  78.6325322  79.6706033 110.8977948  91.2229863
  79.3706756 111.8002987  91.1145670  79.3257092 110.6310131  92.0751016
  73.1218514 107.3491745  87.2566567  72.1969011 107.2167959  87.4644259
  73.3702927 108.1285964  87.7536510  83.0703176 103.4160488  88.9027300
  82.1620054 103.3475897  88.6086061  83.0190772 103.8932433  89.7309126
  76.8919920 104.8918627  80.5410700  76.7719546 105.3375678  81.3796180
  76.1972509 105.2403944  79.9824238  70.4827325 106.9925019  88.0910357
  70.6119706 107.2459498  89.0049768  69.8024776 107.5852727  87.7715012
  74.6526812 117.6622269  84.1900831  74.5750842 118.6130094  84.2689311
  74.0488456 117.3168141  84.8475757  77.1444042 104.8350134  96.8462198
  76.3677376 105.3944054  96.8365062  77.7834605 105.3206917  97.3677068
  84.9364823 101.6176927  90.6805174  84.2939203 101.9109460  90.0344969
  84.4319751 101.5029847  91.4858371  82.5904987 105.3640100  81.3691034
  83.5022843 105.5967487  81.1938731  82.0814634 105.9477144  80.8066112
  75.3990415 107.6435587  96.4080165  76.1405099 108.1820631  96.1314988
  74.6927400 108.2701876  96.5651716  80.8745754 109.7864728  95.0052326
  81.2829110 109.3447138  94.2606958  80.1523016 109.2117355  95.2586519
  77.2276824 104.7237335  92.3785883  78.0738019 105.1476748  92.5220532
  77.1675462 104.0670959  93.0724446  81.1974569 110.3465918  88.7604615
  80.5683431 110.5111633  88.0580683  80.8100231 110.7607528  89.5315579
  85.0763801 111.2820356  86.1148979  84.3914839 111.6619258  85.5646012
  85.1607650 111.8915683  86.8480927  80.3776270 102.3841703  94.0367057
  80.1337201 103.1383763  93.5001332  80.6536200 102.7627051  94.8714304
  82.3314732 108.9280315  92.7144322  82.5431628 109.5712075  92.0378703
  82.2844481 108.0942632  92.2466252  79.9340961 101.5398136  89.6180894
  79.0725440 101.8379390  89.9097632  79.9603396 101.7568535  88.6861927
  76.7502531 110.0840327  86.0254700  77.2140876 110.3628030  85.2359323
  76.4859329 109.1823771  85.8427791  73.6426612 109.6311808  88.9634463
  74.2127969 110.0599076  88.3251948  74.2334724 109.3494393  89.6618649
  75.6871417 106.2063479  82.8344265  76.3895460 106.6584523  83.3018192
  75.3552045 105.5647298  83.4624158  74.1351778 104.7975236  97.2095475
  73.5050439 105.4791516  97.4430871  74.0287866 104.6858317  96.2648613
  69.4296751 104.4647032  88.1361399  68.6395805 104.7204560  87.6601509
  69.9207998 105.2795369  88.2413439  83.4460560 111.8052271  90.8866680
  84.2678004 111.4032458  90.6049361  83.4422963 111.7020505  91.8382795
  71.3811496 104.8291611  85.0944876  70.5842659 104.9410305  85.6128371
  71.1537088 105.1678263  84.2285766  77.2117164 111.3536314  93.0427390
  77.2761596 111.8156721  93.8785562  76.5028088 110.7233679  93.1709700
  67.7134454 104.7177522  90.5676390  67.9642492 105.6024532  90.8333966
  68.2494002 104.5382124  89.7951481  91.5366553 108.1491019  87.2351651
  90.7830262 107.5798417  87.0795656  91.6714095 108.1153684  88.1822286
  76.9265181 113.0204422  82.9106370  76.7910856 113.8655957  83.3391218
  77.4674994 113.2223699  82.1472304  73.4132521  99.0996001  99.5720726
  73.0199467  98.5462200 100.2468370  74.2298661  99.4106580  99.9627243
  70.3794579 110.5379860  83.4834296  70.8919099 111.3323110  83.6339860
  71.0317292 109.8406150  83.4167897  72.1889463 113.6545616  85.5657049
  72.3656092 114.5763581  85.3778033  72.9846297 113.3404035  85.9951429
  76.3300482 100.5153880  97.1640982  77.0710195 101.1161034  97.0845445
  76.5618405  99.7731518  96.6059025  71.4741820 105.7010248  95.4419212
  71.3595335 104.7995505  95.7426311  70.6186338 105.9473944  95.0904028
  78.5533658 113.6427988  97.0406713  78.1097512 112.8564367  96.7227617
  79.2150871 113.8307139  96.3750603  73.3120779 115.1723790  91.5667391
  73.8628204 115.0440853  90.7944385  72.4732255 115.4718679  91.2162284
  80.6514896 113.9230788  95.0688114  80.6333371 114.7439669  94.5768383
  81.5734816 113.7984863  95.2938255  77.1087950 111.4374917  95.9111622
  77.6416287 110.6763206  95.6810930  76.5802031 111.1448569  96.6535777
  80.2757645  96.5434983  91.4405264  79.9321914  97.4336625  91.3644375
  80.6436608  96.3536641  90.5774849  68.3443496 108.8668514  84.2593866
  69.1818718 109.2765522  84.0427574  68.5221763 107.9267956  84.2294060
  80.2407928 106.5343594  79.9477699  79.7254551 107.3048199  80.1866086
  79.9685236 105.8608731  80.5710760  77.8255039 101.3793295  85.0062937
  76.9696635 100.9900146  84.8268576  78.2381990 101.4585256  84.1462723
  79.3554185  98.9139639  89.4054497  78.8518981  98.8769774  88.5922302
  79.6484792  99.8232381  89.4651154  75.5997071  98.9978368  88.4120679
  76.4650068  98.8021177  88.0526568  75.6674580  98.7688720  89.3390036
  85.2142202 109.2875949  81.8830873  84.4371645 108.9487109  81.4386035
  85.8933683 109.2928572  81.2085838  80.0294231 104.4070687  81.7737480
  79.7244366 104.7216836  82.6247623  80.9824673 104.4852106  81.8164813
  78.4740663 110.5660910  83.4230434  77.9462024 109.8313669  83.1103672
  77.9728165 111.3435586  83.1770403  83.4533509 108.7609930  88.5397481
  82.7957183 109.4509192  88.6277609  84.2573908 109.1506362  88.8831467
  73.2059390 101.2280576  85.7837046  73.7803142 101.0055758  85.0510239
  73.7930373 101.2969271  86.5365647  82.2638968 107.1154303  86.5901422
  82.7770849 107.7484295  87.0923132  82.9140191 106.5155499  86.2244782
  73.5328977 103.2585037  79.8032931  72.6966290 103.5959724  80.1242206
  73.3933747 103.1234017  78.8660068  75.5082058  98.1021825  84.5112115
  74.8546470  97.7870842  83.8868730  75.4662532  97.4797566  85.2371938
  76.6193263 108.3841120  76.4265407  75.7120325 108.1530374  76.6256556
  77.1164295 107.5878739  76.6139389  79.5261342 117.0938627  79.3462093
  78.8523041 117.3970324  79.9547051  79.9127164 117.8967708  78.9967550
  78.7419798 104.5903759  88.8359763  77.8242360 104.8118706  88.6781451
  79.1579942 104.6650069  87.9771470  79.5254846 105.9895174  83.9662443
  80.2726665 106.5016572  83.6569565  79.7946436 105.6679227  84.8266837
  77.7981496 108.4853715  80.9489397  76.8892716 108.2012748  81.0461867
  77.8276580 108.9052794  80.0892704  83.0300764 112.0960305  84.7180565
  82.5763091 111.2551214  84.7745755  82.3994730 112.7321703  85.0555345
  81.9733683 103.0252291  85.9481232  81.2356440 102.5129677  86.2791475
  82.2260457 102.5852672  85.1364509  81.4733703 113.9336801  85.6530383
  81.7656677 114.4941858  84.9342749  81.9832324 114.2265362  86.4083542
  82.0745311  95.8028543  86.5423002  82.3804187  94.9425906  86.2548917
  82.7997915  96.3946163  86.3421996  68.3669667 106.2059229  84.9304600
  68.1694067 105.6128590  84.2055666  67.8116331 105.9011439  85.6480538
  76.3466390 106.0982336  87.0499193  76.4015000 105.1456172  86.9741669
  75.5357592 106.2541775  87.5340491  77.4957584 110.0262459  78.2877476
  77.0577014 109.3098318  77.8283113  78.2368025 110.2538574  77.7262567
  74.2858750 104.7159395  84.8089572  73.4726616 105.0153566  85.2154764
  74.7817744 104.3215084  85.5264054  76.4367328 114.7117152  86.7423836
  76.3943507 114.9377999  85.8132368  77.3530027 114.4780527  86.8909637
  79.8832962 105.1801220  93.6404465  80.2382350 105.4072693  94.4998931
  80.5305093 105.5119597  93.0181721  85.6130699 108.3019656  84.3453794
  85.4748597 108.4921252  83.4174984  85.2566918 109.0639039  84.8021846
  73.7772825 102.2877751  90.4250807  74.4172204 102.1466510  89.7273770
  72.9450356 102.0012264  90.0489408  85.6400078 110.3696183  89.3565066
  86.0736585 110.2771472  90.2048120  86.3531659 110.3453683  88.7185082
  74.5533129 111.5880181  86.5385799  75.3473727 111.0930501  86.3368374
  73.8424821 111.0598044  86.1753505  79.3727973 113.9698277  90.8898167
  79.4264996 114.5389213  91.6575882  78.5042755 114.1400162  90.5252204
  70.8615892 105.7323263  82.6145552  69.9313480 105.6707719  82.8315514
  70.9573364 105.2099216  81.8182193  70.7801441 102.2578076  85.2023793
  71.0408259 103.1723409  85.0932954  71.6018614 101.7902518  85.3520406
  72.2526367 103.6715833  92.3722618  72.9249420 103.4633195  91.7235267
  71.4256153 103.4737919  91.9327850  86.5015628 110.4119883  91.8897951
  86.6951518 111.3165694  92.1357226  86.4016246 109.9527302  92.7236536
  78.1551939 100.2977774  94.3888279  77.5079854 100.9967724  94.2952755
  78.9252954 100.7313918  94.7564527  81.5630737 110.5626626  97.4638832
  81.4116243 110.3337178  96.5468916  81.5535416 111.5197228  97.4770177
  78.3316073 108.1358539  92.4485098  79.2608133 108.2869699  92.2754066
  77.9107103 108.2242560  91.5933745  77.1304405 112.1609203  90.2183636
  76.9915491 111.7927988  91.0909574  76.3419001 112.6756843  90.0467594
  77.7252557 117.2618300  81.5609173  77.9004313 116.7906343  82.3754795
  77.0385345 117.8884066  81.7890433  78.6809620 111.5390806  87.6072474
  78.3459453 111.4991576  88.5030124  78.1813566 110.8735522  87.1342884
  72.6553864 106.9458436  93.1325055  72.5173662 106.2138675  93.7336594
  73.5658787 106.8567336  92.8509243  81.6168812 108.8846840  77.8809533
  80.9997982 108.1593669  77.7842586  81.1485300 109.6456201  77.5376608
  75.2836165 106.6578395  92.6208735  75.9935783 106.0171588  92.5795353
  75.2405473 106.9091290  93.5434915  83.2722943 113.5945749  95.5415314
  83.2135490 112.9104969  94.8745897  83.6742462 114.3364739  95.0895940
  73.9965099 103.6443613  94.4404374  73.4602456 103.1934352  95.0925970
  73.4081807 103.7789522  93.6974838  72.2913642 120.4107663  88.3349033
  72.5310240 121.0426187  89.0128051  71.4482839 120.0595703  88.6214392
  73.4067358 103.1032265  77.0030838  72.5296824 102.9821065  76.6393084
  73.8825111 102.3118343  76.7509726  83.2740351 111.5585333  93.7729294
  82.3867129 111.2211254  93.8955692  83.8438902 110.8268364  94.0098059
  64.9269498 107.8909424  87.0972345  65.6140538 107.5771154  86.5093360
  64.7717626 108.7950789  86.8239596  69.7304220 102.7799621  91.5257369
  69.6462409 102.1725291  90.7907779  68.9086926 103.2708639  91.5266865
  76.8041504 116.2186785  90.7390537  76.7311676 117.0241756  91.2509841
  76.3618897 116.4178751  89.9138558  76.5931284 115.4558555  84.2493358
  75.8098806 115.9980235  84.3431583  77.2924029 115.9732535  84.6487599
  79.9027934 101.2653184  86.8927564  80.3996633 100.5123147  86.5728634
  79.1314915 101.3017501  86.3270773  87.7557691 106.9693550  88.5345855
  87.7447567 107.8518265  88.1639788  86.8875071 106.6165101  88.3400392
  79.2640188 116.1173619  92.8948695  79.9768160 116.7521084  92.8224597
  78.7730216 116.2137485  92.0788697  80.9857714 110.0224872  84.4665987
  80.0513993 110.1426334  84.2970691  81.1634383 109.1197338  84.2025997
  76.4862903 103.4070567  86.6199248  76.1160690 102.8541608  87.3080154
  76.9821995 102.8028701  86.0674248  84.3730266 105.8642191  85.0016021
  84.8390718 106.6970183  84.9276324  84.8237766 105.3987173  85.7061280
  74.3152101 113.8668062  93.7154266  75.0161561 114.5004545  93.8683660
  73.8447216 114.2082794  92.9549905  82.4406497 112.2086012  82.0002173
  82.7166341 112.0942607  82.9096047  81.5710996 111.8103497  81.9614346
  82.3446929  98.2322778  89.0406923  81.4310008  98.4627005  89.2089129
  82.7740030  98.3161222  89.8920955  82.1153387 106.4212670  91.5406817
  81.4624837 106.6688577  90.8859269  82.4933767 105.6076808  91.2069294
  79.0760561 116.4572363  85.6434987  79.2582955 115.6394019  86.1062739
  79.8993547 116.6740055  85.2059877  79.4102726 115.3840548  82.9050035
  79.9390493 114.8733003  82.2920197  79.6730946 115.0683078  83.7695568
  78.1640960 107.1632481  98.0272854  77.4881597 107.0626610  98.6975229
  78.9868594 107.0071695  98.4908851  69.9119819 113.4004418  90.6485369
  70.4973256 112.6548105  90.7813273  69.7144658 113.7108374  91.5322033
  72.7658474 116.4355665  85.6647811  72.0968850 116.9201793  85.1811851
  72.6271344 116.6824885  86.5791190  64.5037474 105.9710018  89.3689812
  64.5421573 105.4373608  90.1626930  63.9977767 105.4445223  88.7500789
  76.9063743 118.4699408  92.2630470  77.4582051 118.6331030  93.0279555
  77.2469936 119.0603846  91.5910494  71.8828236 100.8174558  92.8652354
  71.9469563 101.6789389  92.4529752  71.8195356 100.2048560  92.1324713
  71.3580509 102.8897691  96.5125389  71.9852548 102.5074768  97.1262913
  70.5008428 102.6711893  96.8781081  68.1346051 104.6974120  82.4443743
  68.4299493 103.7884798  82.3910797  67.2334087 104.6761859  82.1224746
  80.0432130 116.4181384  89.2494152  79.9183270 115.6171124  88.7405097
  80.7011221 116.9127577  88.7608122  71.6640298 102.7730116  88.4271292
  70.9426884 103.3866084  88.2878765  72.4533554 103.3087881  88.3487938
  82.1067039 114.2190404  90.8773702  81.1597374 114.0995755  90.8052029
  82.4549812 113.3312902  90.9599963  74.4666612 100.1084543  94.7011944
  74.9901014 100.3546840  95.4638253  74.2478945 100.9404578  94.2815081
  69.8633893 102.3788218  82.5683069  69.5346599 101.4985596  82.3858175
  70.2173264 102.3235886  83.4559458  79.1113472 114.0143120  87.0778054
  78.9638434 113.0859828  87.2585624  79.9366965 114.0363211  86.5935129
  72.9775716 102.6661187  82.9358546  73.3171789 103.1947109  82.2137155
  73.4247837 103.0041593  83.7117113  82.7147594 114.8371679  88.1642927
  83.6394141 114.6314540  88.0267378  82.5462897 114.5888080  89.0732268
  75.6719157 101.0498238  92.3861614  75.3315977 100.2506051  92.7882294
  74.9658163 101.3499949  91.8138448  76.3235629  98.1347550  90.8388937
  77.1461698  97.6608029  90.7167828  76.5673692  98.9138034  91.3387624
  74.9643863 101.1635809  81.1351839  75.6852226 101.5417062  80.6315556
  74.3409167 101.8824686  81.2386817  79.1074986 101.8680958  82.0710171
  79.3238601 102.7505596  81.7699000  78.6269053 101.4767171  81.3415813
  73.8474208 104.8266671  88.6480916  73.7018788 105.1406974  89.5405197
  73.3699411 105.4451571  88.0951815  75.7070591 101.8169219  88.6961806
  75.6932159 100.9210312  88.3594103  76.4243019 101.8239883  89.3300092
  77.5596721 102.2506559  90.7414933  77.3014499 103.1723630  90.7399263
  77.0281762 101.8536994  91.4315397  82.5042910 115.3557346  83.5205018
  82.6779788 114.7903769  82.7678871  82.9971801 116.1558241  83.3384508
  68.3219870 107.3672016  91.5868577  67.7773338 108.1431823  91.7188851
  69.1999220 107.7142820  91.4287699  75.1107486 100.6983599  83.9649376
  75.2323398  99.7700246  84.1640263  74.8209529 100.7122285  83.0527691
  77.9798677  98.3838510  87.1016095  78.0020374  98.4477843  86.1468075
  78.3966736  97.5443018  87.2956602  88.3582301 108.1193769  85.1395318
  88.8013447 107.3701095  84.7414441  87.4808811 108.1103906  84.7569050
  83.4918082 114.6724111  80.6201917  84.1868987 115.2930804  80.8389231
  83.8341233 113.8219462  80.8954294  69.1085892 106.4941912  94.4798734
  68.3667628 106.6424547  95.0663364  68.7878636 106.7550177  93.6165483
  85.3909506 112.1223816  82.1489247  85.9160830 112.4611089  81.4238567
  85.3031858 111.1870832  81.9652382  77.0529554 116.0357890  94.2779124
  77.3616681 115.7907037  95.1501824  77.8505036 116.2404528  93.7897994
  77.0750166 118.1895800  86.5084501  76.6355157 117.6972178  87.2017357
  77.8258283 117.6468767  86.2676576  69.5542505 114.3807341  86.5109129
  70.3800525 114.0811112  86.1307772  69.2036557 113.6114963  86.9598917
  74.5224038 113.7333809  88.5806802  73.9004048 113.0704514  88.2809030
  75.1928905 113.7594941  87.8980450  67.7551110 112.2993667  87.4698062
  66.9183019 111.8715841  87.2882063  67.7274756 112.4926110  88.4068853
  74.5948566 102.2115597  98.1739308  74.6436721 103.0877720  97.7917078
  75.1371080 101.6692990  97.6010951  85.2001287 109.6049186  94.7673174
  85.2499292 109.4399194  95.7088697  85.0915210 108.7376445  94.3771055
  74.0837545 112.2837732  82.0565263  74.2325666 112.9673196  81.4031936
  74.8903989 112.2642822  82.5714719  82.4905049 105.5880114  96.0832481
  83.3914912 105.4486579  95.7916478  82.5653024 105.7534569  97.0230658
  76.8247854 102.9646969  94.9285667  75.9551164 103.2580535  94.6568255
  77.0607335 103.5487414  95.6492931  86.7019484 112.0246128  95.0115195
  86.4104292 112.3876108  95.8478656  86.0891615 111.3113136  94.8328527
  87.9015166 109.5899008  87.5317766  88.7362057 110.0288812  87.6955326
  88.0374295 109.1137661  86.7126011  84.9506672 107.1478743  93.4795253
  85.4260793 107.3406389  92.6714105  84.0272237 107.2037928  93.2338637
  71.8390178 108.3102910  83.0626332  71.5936220 107.4065240  83.2606542
  72.0086093 108.3120060  82.1205810  79.5286888  99.1826586  92.4451087
  80.0468832  99.9187613  92.1197576  79.1742021  99.4890579  93.2797846
  71.1085826 104.0431267  80.5612493  70.4155071 104.1175622  79.9052529
  70.8637578 103.2791611  81.0834010  79.7799482  95.6026869  87.9651984
  80.0601236  94.9350058  88.5912410  80.5650089  95.7955964  87.4526648
  77.5832951 114.7785863  79.5277010  77.0106918 115.3976050  79.0747482
  78.1565745 115.3285224  80.0616932  83.6508341 104.0244503  91.7123559
  84.6025764 104.1242600  91.7335783  83.4811791 103.2322771  92.2221643
  81.6722720 101.1100086  91.8982960  81.0772652 101.3905099  91.2029449
  81.3872417 101.5993987  92.6699701  80.8030211 115.0623013  80.6585592
  81.7360884 114.9968574  80.8618468  80.7153424 115.8979280  80.2000125
  83.4318227 114.3788883  77.6189540  83.3531859 114.0448747  78.5125298
  84.2527894 114.8710651  77.6181012  86.1296419 107.2450622  90.8265859
  86.0972739 106.3066623  91.0125542  86.7397042 107.3234659  90.0931684
  77.9679749 106.1146675  76.8693063  78.9138854 105.9852883  76.9381481
  77.5893994 105.3761337  77.3462491  86.2790907 104.0361666  90.8724142
  85.7629956 103.2520122  90.6854071  87.1630856 103.7080382  91.0370661
  83.9401634  97.7802681  86.8319955  83.7426455  97.4717770  87.7163286
  84.5501340  98.5064320  86.9617884  91.9472968 108.3066629  89.9671895
  92.6776357 108.0451917  90.5279599  91.3379914 107.5695351  90.0073963
  90.0288266 106.4474492  90.5646347  89.3021429 106.3130457  89.9562838
  89.6135552 106.7551320  91.3703065  77.8518442 110.1664421  98.3293720
  78.7721451 110.3443020  98.5233766  77.8168025 109.2220467  98.1773419
  76.1522667 104.0396652  76.8047948  75.2454122 103.7429764  76.8810662
  76.4298648 103.7426470  75.9382234  67.0700607 105.3603015  87.2546994
  66.7503391 104.5068323  86.9621368  66.5234035 105.5751593  88.0104962
  70.8480515 108.0765456  90.9716501  71.0666524 109.0082564  90.9904535
  71.2606288 107.7173430  91.7571305  77.7684732  98.5833541  82.9592189
  76.9585461  98.2380626  83.3347435  78.4569149  98.2741085  83.5479801
  79.6975281  97.6611588  84.5816486  80.2506319  98.0807042  85.2406509
  79.9345367  96.7347336  84.6239442  75.7208380 103.6498662 100.3619250
  75.6205107 104.5993019 100.2931341  75.5029922 103.3216901  99.4895320
  74.9221451 100.8983587  76.9459927  75.7840615 101.2238485  77.2055744
  75.1071795 100.1115083  76.4332993  66.9388867 108.9805927  89.2240116
  66.2452338 108.5659879  88.7110070  67.6861858 109.0226463  88.6273535
  83.0754088  99.7712113  84.0895150  82.4952757 100.4296917  83.7073203
  82.8090020  98.9489458  83.6782568  81.5257654  99.1717171  86.2916470
  82.0257432  99.2833706  85.4830789  82.1693262  98.8678224  86.9317279
  75.5839650 107.0795801  99.1784311  75.1006732 107.8796161  99.3848200
  75.6700589 107.0903746  98.2251755  68.8525609 108.9124180  87.1006131
  68.8296298 109.0111868  86.1488014  69.1626246 109.7589331  87.4223297
  71.5112987 110.9700335  91.2152745  72.4656241 110.9384278  91.1482677
  71.3125511 110.5090959  92.0302971  72.1012369 109.5401451  93.7823543
  72.9205258 110.0345530  93.8058380  72.3749177 108.6233420  93.7541110
  81.8578966 101.9312204  83.1451498  80.9704821 102.2161854  82.9271693
  82.2732955 101.7705967  82.2978775  85.2093502 101.9558725  86.8605838
  85.9853892 102.4455177  87.1330454  84.4841636 102.3816779  87.3177707
  87.6466060 102.6686344  87.9179778  88.2410551 102.4282080  87.2073086
  87.7192644 101.9493475  88.5453315  69.8663216 116.5119955  88.2322943
  69.7317684 115.7520356  87.6660941  69.4495278 117.2360855  87.7651732
  81.0022179 111.6956878  77.2399518  81.7058029 111.9006881  77.8557174
  80.2784828 112.2633640  77.5048602  81.8319989 107.4466740  83.3601789
  81.7755191 107.9035291  82.5209421  82.3848332 106.6857424  83.1824631
  85.6424795 103.2356472  84.1851908  85.3861730 102.8353107  85.0160116
  85.0177663 103.9500265  84.0602047  89.9537133 105.9752545  86.6923199
  89.3936691 106.0445734  87.4654761  89.3480637 105.7993529  85.9722696
  73.0232342 117.4089272  88.4441386  72.9064726 118.3534704  88.3420076
  72.2024788 117.1062833  88.8327185  82.9108877 112.1339408  79.2897978
  83.7454480 111.7020606  79.1075453  82.7493219 111.9621421  80.2174873
  82.5654769 108.6371521  80.6554318  82.5103573 108.4715792  79.7142762
  81.9400824 109.3447554  80.8116507  67.3547284 103.8739585  94.4815740
  68.0006147 103.3638539  94.9702965  67.1464435 104.6108267  95.0559165
  75.8750894  98.1379630  80.2339636  75.8629564  99.0821470  80.3907907
  76.7674316  97.9549775  79.9399097  74.0486856 118.0617534  91.6597314
  74.9514103 118.0941144  91.9763809  73.8224226 117.1317985  91.6743650
  75.8040458 116.8148520  88.3207393  74.8536089 116.8150382  88.2071765
  76.1072944 116.0681255  87.8043427  79.6903014  94.7322407  84.4885573
  78.9235409  94.1780893  84.6342255  80.1013719  94.8044275  85.3499725
  71.6944775 101.0207202  98.5790754  72.5576236 100.6644007  98.7894079
  71.1210185 100.6821097  99.2666158  88.3482858 122.6036487  89.3214680
  88.0101369 122.4877552  88.4335215  89.2172626 122.2027652  89.3015686
  84.2069674 124.4571963  85.3111571  83.6434539 124.3661900  84.5427859
  84.0922069 123.6371868  85.7914063  81.7534106 125.9523155  88.1495791
  82.5455397 125.6113979  87.7342091  81.9930756 126.0618130  89.0697945
  83.7124859 125.2132068  81.0213170  84.4855735 124.6661055  80.8826046
  84.0650258 126.0776317  81.2327631  86.0491137 121.3724734  78.6531620
  86.3016658 120.8506255  77.8915083  85.1115696 121.2090880  78.7558304
  91.0934420 120.3760513  86.4606363  91.8797509 119.9579936  86.1096780
  91.3573124 121.2806605  86.6288012  91.2644497 125.8133363  81.1595020
  90.6290330 125.8867989  81.8715925  90.9341904 126.4026962  80.4814099
  96.4942847 120.3135746  87.3639342  97.2268019 119.7434963  87.5977171
  95.7382203 119.9257346  87.8045847  85.7687426 123.2752840  80.8555995
  85.6523684 122.5997744  81.5237079  85.8789686 122.7885214  80.0388148
  88.1118967 122.7362987  84.5602684  87.7477174 122.2093608  85.2715606
  88.9686083 122.3461456  84.3869170  94.0168268 114.0257320  91.8233950
  93.6851592 114.8952731  91.5995165  93.4213881 113.7093604  92.5027981
  87.7524454 117.7652887  79.5564033  87.9198856 118.6333123  79.9234504
  87.5621623 117.9280169  78.6325322  83.9612269 122.6783663  87.2566567
  83.0362765 122.5459877  87.4644259  84.2096682 123.4577882  87.7536510
  87.7313675 120.2210544  80.5410700  87.6113300 120.6667595  81.3796180
  87.0366263 120.5695862  79.9824238  81.3221080 122.3216936  88.0910357
  81.4513461 122.5751415  89.0049768  80.6418531 122.9144644  87.7715012
  93.4298741 120.6932018  81.3691034  94.3416597 120.9259404  81.1938731
  92.9208388 121.2769062  80.8066112  90.7734716 116.8690054  89.6180894
  89.9119195 117.1671307  89.9097632  90.7997150 117.0860453  88.6861927
  87.5896285 125.4132244  86.0254700  88.0534631 125.6919947  85.2359323
  87.3253083 124.5115689  85.8427791  84.4820366 124.9603726  88.9634463
  85.0521723 125.3890994  88.3251948  85.0728478 124.6786310  89.6618649
  86.5265171 121.5355397  82.8344265  87.2289215 121.9876440  83.3018192
  86.1945800 120.8939215  83.4624158  80.2690505 119.7938949  88.1361399
  79.4789559 120.0496478  87.6601509  80.7601753 120.6087287  88.2413439
  82.2205251 120.1583528  85.0944876  81.4236414 120.2702223  85.6128371
  81.9930843 120.4970181  84.2285766  78.5528208 120.0469440  90.5676390
  78.8036247 120.9316450  90.8333966  79.0887757 119.8674041  89.7951481
  87.7658936 128.3496339  82.9106370  87.6304611 129.1947875  83.3391218
  88.3068748 128.5515617  82.1472304  81.2188333 125.8671777  83.4834296
  81.7312854 126.6615027  83.6339860  81.8711046 125.1698068  83.4167897
  83.0283218 128.9837534  85.5657049  83.2049846 129.9055498  85.3778033
  83.8240051 128.6695953  85.9951429  91.1151399 111.8726901  91.4405264
  90.7715669 112.7628543  91.3644375  91.4830362 111.6828559  90.5774849
  79.1837250 124.1960432  84.2593866  80.0212472 124.6057440  84.0427574
  79.3615518 123.2559874  84.2294060  91.0801682 121.8635512  79.9477699
  90.5648306 122.6340117  80.1866086  90.8078991 121.1900648  80.5710760
  88.6648793 116.7085213  85.0062937  87.8090390 116.3192063  84.8268576
  89.0775745 116.7877174  84.1462723  90.1947940 114.2431556  89.4054497
  89.6912735 114.2061691  88.5922302  90.4878547 115.1524299  89.4651154
  86.4390826 114.3270286  88.4120679  87.3043822 114.1313095  88.0526568
  86.5068335 114.0980638  89.3390036  90.8687985 119.7362604  81.7737480
  90.5638121 120.0508753  82.6247623  91.8218427 119.8144024  81.8164813
  89.3134417 125.8952828  83.4230434  88.7855779 125.1605587  83.1103672
  88.8121920 126.6727504  83.1770403  84.0453145 116.5572494  85.7837046
  84.6196897 116.3347675  85.0510239  84.6324127 116.6261188  86.5365647
  93.1032722 122.4446221  86.5901422  93.6164604 123.0776213  87.0923132
  93.7533946 121.8447416  86.2244782  84.3722732 118.5876955  79.8032931
  83.5360044 118.9251641  80.1242206  84.2327502 118.4525935  78.8660068
  86.3475812 113.4313743  84.5112115  85.6940225 113.1162760  83.8868730
  86.3056287 112.8089483  85.2371938  87.4587017 123.7133038  76.4265407
  86.5514079 123.4822291  76.6256556  87.9558049 122.9170657  76.6139389
  89.5813553 119.9195676  88.8359763  88.6636114 120.1410623  88.6781451
  89.9973696 119.9941987  87.9771470  90.3648601 121.3187092  83.9662443
  91.1120420 121.8308489  83.6569565  90.6340190 120.9971145  84.8266837
  88.6375251 123.8145633  80.9489397  87.7286470 123.5304666  81.0461867
  88.6670335 124.2344711  80.0892704  92.8127438 118.3544208  85.9481232
  92.0750195 117.8421594  86.2791475  93.0654211 117.9144590  85.1364509
  92.9139065 111.1320460  86.5423002  93.2197942 110.2717824  86.2548917
  93.6391670 111.7238080  86.3421996  79.2063421 121.5351147  84.9304600
  79.0087821 120.9420508  84.2055666  78.6510085 121.2303357  85.6480538
  87.1860145 121.4274253  87.0499193  87.2408755 120.4748090  86.9741669
  86.3751347 121.5833692  87.5340491  88.3351339 125.3554376  78.2877476
  87.8970769 124.6390235  77.8283113  89.0761779 125.5830491  77.7262567
  85.1252505 120.0451313  84.8089572  84.3120370 120.3445484  85.2154764
  85.6211499 119.6507002  85.5264054  84.6166580 117.6169669  90.4250807
  85.2565959 117.4758428  89.7273770  83.7844110 117.3304182  90.0489408
  85.3926883 126.9172099  86.5385799  86.1867482 126.4222419  86.3368374
  84.6818576 126.3889962  86.1753505  81.7009647 121.0615181  82.6145552
  80.7707235 120.9999636  82.8315514  81.7967119 120.5391134  81.8182193
  81.6195196 117.5869994  85.2023793  81.8802013 118.5015327  85.0932954
  82.4412368 117.1194436  85.3520406  83.0920121 119.0007751  92.3722618
  83.7643175 118.7925113  91.7235267  82.2649908 118.8029837  91.9327850
  92.4562566 124.2138758  77.8809533  91.8391737 123.4885586  77.7842586
  91.9879055 124.9748118  77.5376608  84.2461112 118.4324182  77.0030838
  83.3690578 118.3112983  76.6393084  84.7218865 117.6410261  76.7509726
  75.7663252 123.2201342  87.0972345  76.4534292 122.9063072  86.5093360
  75.6111381 124.1242707  86.8239596  80.5697974 118.1091539  91.5257369
  80.4856163 117.5017208  90.7907779  79.7480681 118.6000557  91.5266865
  90.7421688 116.5945102  86.8927564  91.2390388 115.8415064  86.5728634
  89.9708670 116.6309419  86.3270773  91.8251469 125.3516789  84.4665987
  90.8907748 125.4718252  84.2970691  92.0028137 124.4489256  84.2025997
  87.3256657 118.7362485  86.6199248  86.9554445 118.1833526  87.3080154
  87.8215749 118.1320619  86.0674248  95.2124020 121.1934109  85.0016021
  95.6784473 122.0262100  84.9276324  95.6631521 120.7279090  85.7061280
  93.1840683 113.5614696  89.0406923  92.2703763 113.7918922  89.2089129
  93.6133785 113.6453140  89.8920955  75.3431228 121.3001935  89.3689812
  75.3815328 120.7665526  90.1626930  74.8371521 120.7737141  88.7500789
  82.7221991 116.1466476  92.8652354  82.7863317 117.0081307  92.4529752
  82.6589111 115.5340478  92.1324713  78.9739806 120.0266038  82.4443743
  79.2693247 119.1176716  82.3910797  78.0727842 120.0053777  82.1224746
  82.5034053 118.1022034  88.4271292  81.7820639 118.7158002  88.2878765
  83.2927309 118.6379799  88.3487938  80.7027648 117.7080135  82.5683069
  80.3740354 116.8277514  82.3858175  81.0567018 117.6527804  83.4559458
  83.8169471 117.9953105  82.9358546  84.1565543 118.5239026  82.2137155
  84.2641591 118.3333511  83.7117113  86.5112912 116.3790156  92.3861614
  86.1709732 115.5797969  92.7882294  85.8051918 116.6791867  91.8138448
  87.1629383 113.4639468  90.8388937  87.9855453 112.9899946  90.7167828
  87.4067447 114.2429952  91.3387624  85.8037618 116.4927727  81.1351839
  86.5245980 116.8708979  80.6315556  85.1802922 117.2116603  81.2386817
  89.9468741 117.1972876  82.0710171  90.1632355 118.0797513  81.7699000
  89.4662808 116.8059089  81.3415813  84.6867962 120.1558589  88.6480916
  84.5412543 120.4698892  89.5405197  84.2093166 120.7743489  88.0951815
  86.5464345 117.1461137  88.6961806  86.5325914 116.2502230  88.3594103
  87.2636773 117.1531801  89.3300092  88.3990476 117.5798477  90.7414933
  88.1408254 118.5015548  90.7399263  87.8675516 117.1828912  91.4315397
  79.1613624 122.6963933  91.5868577  78.6167092 123.4723741  91.7188851
  80.0392974 123.0434738  91.4287699  85.9501241 116.0275517  83.9649376
  86.0717152 115.0992163  84.1640263  85.6603283 116.0414203  83.0527691
  88.8192431 113.7130428  87.1016095  88.8414128 113.7769761  86.1468075
  89.2360490 112.8734936  87.2956602  80.3936260 129.7099258  86.5109129
  81.2194280 129.4103030  86.1307772  80.0430312 128.9406881  86.9598917
  78.5944865 127.6285585  87.4698062  77.7576773 127.2007759  87.2882063
  78.5668510 127.8218028  88.4068853  84.9231300 127.6129650  82.0565263
  85.0719420 128.2965114  81.4031936  85.7297743 127.5934740  82.5714719
  82.6783933 123.6394827  83.0626332  82.4329975 122.7357157  83.2606542
  82.8479847 123.6411978  82.1205810  90.3680643 114.5118504  92.4451087
  90.8862587 115.2479531  92.1197576  90.0135776 114.8182497  93.2797846
  81.9479580 119.3723185  80.5612493  81.2548825 119.4467540  79.9052529
  81.7031332 118.6083529  81.0834010  90.6193237 110.9318786  87.9651984
  90.8994991 110.2641975  88.5912410  91.4043844 111.1247882  87.4526648
  88.8073504 121.4438593  76.8693063  89.7532609 121.3144801  76.9381481
  88.4287749 120.7053255  77.3462491  94.7795388 113.1094599  86.8319955
  94.5820210 112.8009687  87.7163286  95.3895094 113.8356238  86.9617884
  86.9916421 119.3688569  76.8047948  86.0847876 119.0721682  76.8810662
  87.2692402 119.0718387  75.9382234  77.9094361 120.6894933  87.2546994
  77.5897146 119.8360241  86.9621368  77.3627790 120.9043511  88.0104962
  81.6874269 123.4057374  90.9716501  81.9060279 124.3374482  90.9904535
  82.1000043 123.0465348  91.7571305  88.6078487 113.9125459  82.9592189
  87.7979215 113.5672544  83.3347435  89.2962904 113.6033003  83.5479801
  90.5369035 112.9903506  84.5816486  91.0900074 113.4098959  85.2406509
  90.7739121 112.0639254  84.6239442  85.7615206 116.2275505  76.9459927
  86.6234370 116.5530403  77.2055744  85.9465550 115.4407000  76.4332993
  77.7782621 124.3097844  89.2240116  77.0846093 123.8951797  88.7110070
  78.5255612 124.3518381  88.6273535  93.9147842 115.1004031  84.0895150
  93.3346511 115.7588835  83.7073203  93.6483775 114.2781376  83.6782568
  92.3651409 114.5009089  86.2916470  92.8651187 114.6125623  85.4830789
  93.0087016 114.1970142  86.9317279  79.6919364 124.2416098  87.1006131
  79.6690052 124.3403785  86.1488014  80.0020000 125.0881249  87.4223297
  92.6972720 117.2604121  83.1451498  91.8098575 117.5453772  82.9271693
  93.1126709 117.0997885  82.2978775  96.0487256 117.2850642  86.8605838
  96.8247646 117.7747095  87.1330454  95.3235390 117.7108697  87.3177707
  98.4859815 117.9978262  87.9179778  99.0804306 117.7573998  87.2073086
  98.5586399 117.2785392  88.5453315  92.6713744 122.7758657  83.3601789
  92.6148945 123.2327209  82.5209421  93.2242086 122.0149342  83.1824631
  96.4818550 118.5648389  84.1851908  96.2255484 118.1645025  85.0160116
  95.8571418 119.2792183  84.0602047  93.4048523 123.9663439  80.6554318
  93.3497327 123.8007710  79.7142762  92.7794579 124.6739472  80.8116507
  78.1941038 119.2031503  94.4815740  78.8399902 118.6930457  94.9702965
  77.9858189 119.9400185  95.0559165  86.7144649 113.4671548  80.2339636
  86.7023319 114.4113388  80.3907907  87.6068071 113.2841693  79.9399097
  90.5296768 110.0614324  84.4885573  89.7629164 109.5072811  84.6342255
  90.9407473 110.1336193  85.3499725  26.5030626   7.6819675  76.1098462
  27.1409036   7.5626423  75.4061802  26.3851469   8.6300519  76.1686414
  23.3120332   7.6347103  76.0459987  22.9738844   7.5188168  75.1580521
  24.1810100   7.2338268  76.0260993  19.1707148   9.4882580  72.0356877
  18.6072013   9.3972517  71.2673165  19.0559543   8.6682484  72.5159370
  23.7940115   8.7881955  82.0046192  23.7828756   8.3934753  81.1326696
  23.9560755   8.0548028  82.5979963  16.7171580  10.9833771  74.8741098
  17.5092872  10.6424596  74.4587397  16.9568230  11.0928746  75.7943251
  24.7506707  13.1553547  67.3471342  24.0994686  13.7407628  66.9605356
  25.5451069  13.6859742  67.4066380  18.6762334  10.2442685  67.7458477
  19.4493210   9.6971672  67.6071353  19.0287733  11.1086934  67.9572938
  20.5147376  11.5719067  80.9525376  20.2237242  12.4764698  80.8372042
  21.1504361  11.6135595  81.6669446  21.4403583   8.9495915  77.5426736
  22.0367155   8.7251938  76.8283699  21.4978555   8.2080661  78.1452184
  21.0128612   6.4035351  65.3776927  21.2654132   5.8816872  64.6160390
  20.0753171   6.2401496  65.4803610  26.0571894   5.4071129  73.1851670
  26.8434984   4.9890552  72.8342087  26.3210599   6.3117221  73.3533318
  26.2281972  10.8443979  67.8840327  25.5927805  10.9178606  68.5961231
  25.8979378  11.4337578  67.2059406  31.4580322   5.3446362  74.0884648
  32.1905494   4.7745579  74.3222478  30.7019677   4.9567963  74.5291154
  20.7324900   8.3063457  67.5801302  20.6161158   7.6308360  68.2482386
  20.8427160   7.8195831  66.7633455  23.0756441   7.7673604  71.2847991
  22.7114649   7.2404225  71.9960912  23.9323557   7.3772073  71.1114476
  28.9805742  -0.9432064  78.5479257  28.6489067  -0.0736653  78.3240472
  28.3851355  -1.2595780  79.2273287  22.7161928   2.7963504  66.2809339
  22.8836331   3.6643740  66.6479810  22.5259097   2.9590785  65.3570629
  25.4737261  11.2580482  77.9475170  25.1737985  12.1605521  77.8390977
  25.1288321  10.9912666  78.7996323  18.9249743   7.7094279  73.9811874
  18.0000239   7.5770493  74.1889566  19.1734156   8.4888498  74.4781817
  28.8734405   3.7763023  75.6272607  27.9651283   3.7078431  75.3331368
  28.8222001   4.2534968  76.4554433  22.6951149   5.2521161  67.2656006
  22.5750774   5.6978212  68.1041486  22.0003738   5.6006479  66.7069544
  16.2858554   7.3527553  74.8155663  16.4150935   7.6062032  75.7295075
  15.6056005   7.9455261  74.4960318  20.4558041  18.0224803  70.9146137
  20.3782071  18.9732628  70.9934618  19.8519685  17.6770675  71.5721064
  22.9475271   5.1952668  83.5707504  22.1708605   5.7546588  83.5610369
  23.5865834   5.6809451  84.0922374  30.7396052   1.9779461  77.4050481
  30.0970432   2.2711994  76.7590276  30.2350980   1.8632381  78.2103678
  28.3936215   5.7242634  68.0936340  29.3054071   5.9570021  67.9184038
  27.8845862   6.3079678  67.5311419  21.2021643   8.0038122  83.1325471
  21.9436328   8.5423166  82.8560295  20.4958629   8.6304410  83.2897023
  26.6776983  10.1467262  81.7297633  27.0860339   9.7049673  80.9852265
  25.9554244   9.5719890  81.9831826  23.0308053   5.0839869  79.1031190
  23.8769248   5.5079282  79.2465839  22.9706691   4.4273493  79.7969753
  27.0005798  10.7068453  75.4849922  26.3714660  10.8714167  74.7825990
  26.6131460  11.1210062  76.2560886  30.8795030  11.6422890  72.8394285
  30.1946068  12.0221792  72.2891319  30.9638879  12.2518217  73.5726233
  26.1807498   2.7444237  80.7612363  25.9368430   3.4986298  80.2246639
  26.4567429   3.1229585  81.5959610  28.1345961   9.2882850  79.4389629
  28.3462856   9.9314609  78.7624010  28.0875709   8.4545166  78.9711559
  25.7372190   1.9000670  76.3426201  24.8756669   2.1981924  76.6342939
  25.7634625   2.1171069  75.4107234  22.5533760  10.4442861  72.7500007
  23.0172105  10.7230564  71.9604629  22.2890558   9.5426305  72.5673097
  19.4457841   9.9914342  75.6879770  20.0159198  10.4201611  75.0497255
  20.0365952   9.7096927  76.3863956  21.4902646   6.5666013  69.5589572
  22.1926689   7.0187057  70.0263498  21.1583274   5.9249832  70.1869465
  19.9383007   5.1577770  83.9340781  19.3081668   5.8394051  84.1676178
  19.8319095   5.0460851  82.9893920  29.2491789  12.1654805  77.6111986
  30.0709233  11.7634992  77.3294668  29.2454192  12.0623039  78.5628102
  23.0148393  11.7138848  79.7672697  23.0792825  12.1759255  80.6030869
  22.3059316  11.0836213  79.8955007  37.3397782   8.5093553  73.9596958
  36.5861491   7.9400951  73.8040962  37.4745323   8.4756218  74.9067592
  22.7296410  13.3806956  69.6351677  22.5942085  14.2258491  70.0636525
  23.2706223  13.5826233  68.8717611  16.1825808  10.8982394  70.2079602
  16.6950328  11.6925644  70.3585167  16.8348520  10.2008684  70.1413204
  17.9920692  14.0148150  72.2902355  18.1687321  14.9366115  72.1023339
  18.7877526  13.7006569  72.7196735  24.3564887  14.0030522  83.7652019
  23.9128741  13.2166901  83.4472924  25.0182100  14.1909673  83.0995910
  19.1152008  15.5326324  78.2912698  19.6659433  15.4043387  77.5189692
  18.2763484  15.8321213  77.9407591  26.4546125  14.2833322  81.7933420
  26.4364600  15.1042203  81.3013690  27.3766045  14.1587397  82.0183562
  22.9119179  11.7977452  82.6356929  23.4447516  11.0365740  82.4056237
  22.3833260  11.5051103  83.3781083  26.0439156   6.8946129  66.6723006
  25.5285780   7.6650733  66.9111393  25.7716465   6.2211265  67.2956067
  31.0173431   9.6478483  68.6076179  30.2402873   9.3089643  68.1631341
  31.6964912   9.6531107  67.9331144  25.8325460   4.7673221  68.4982787
  25.5275595   5.0819370  69.3492930  26.7855902   4.8454641  68.5410120
  24.2771891  10.9263444  70.1475741  23.7493253  10.1916204  69.8348978
  23.7759394  11.7038120  69.9015709  29.2564738   9.1212465  75.2642787
  28.5988412   9.8111726  75.3522916  30.0605137   9.5108897  75.6076774
  28.0670196   7.4756837  73.3146729  28.5802078   8.1086829  73.8168439
  28.7171420   6.8758033  72.9490089  22.4224492   8.7443654  63.1510714
  21.5151553   8.5132908  63.3501863  22.9195524   7.9481274  63.3384695
  25.3292571  17.4541162  66.0707400  24.6554269  17.7572858  66.6792358
  25.7158393  18.2570242  65.7212857  24.5451027   4.9506293  75.5605069
  23.6273589   5.1721240  75.4026757  24.9611171   5.0252603  74.7016777
  25.3286075   6.3497709  70.6907750  26.0757894   6.8619106  70.3814872
  25.5977664   6.0281761  71.5512143  23.6012725   8.8456249  67.6734704
  22.6923944   8.5615282  67.7707174  23.6307809   9.2655328  66.8138011
  28.8331993  12.4562839  71.4425872  28.3794320  11.6153749  71.4991062
  28.2025959  13.0924237  71.7800652  27.7764912   3.3854825  72.6726539
  27.0387669   2.8732211  73.0036782  28.0291686   2.9455206  71.8609816
  27.2764932  14.2939335  72.3775690  27.5687906  14.8544393  71.6588055
  27.7863552  14.5867896  73.1328849  22.1497619   6.4584870  73.7744499
  22.2046229   5.5058706  73.6986976  21.3388821   6.6144309  74.2585798
  23.2988813  10.3864993  65.0122783  22.8608243   9.6700852  64.5528420
  24.0399254  10.6141108  64.4507874  20.0889979   5.0761930  71.5334878
  19.2757845   5.3756100  71.9400070  20.5848973   4.6817618  72.2509360
  22.2398557  15.0719687  73.4669143  22.1974736  15.2980533  72.5377675
  23.1561256  14.8383061  73.6154944  25.6864191   5.5403754  80.3649772
  26.0413578   5.7675227  81.2244238  26.3336322   5.8722131  79.7427027
  31.4161928   8.6622190  71.0699101  31.2779826   8.8523786  70.1420290
  31.0598147   9.4241573  71.5267152  31.4431307  10.7298717  76.0810373
  31.8767814  10.6374006  76.9293427  32.1562888  10.7056217  75.4430389
  20.3564358  11.9482716  73.2631106  21.1504956  11.4533036  73.0613681
  19.6456050  11.4200579  72.8998811  25.1759202  14.3300811  77.6143473
  25.2296224  14.8991747  78.3821189  24.3073984  14.5002696  77.2497510
  32.3046857  10.7722418  78.6143258  32.4982747  11.6768228  78.8602533
  32.2047475  10.3129837  79.4481843  27.3661966  10.9229160  84.1884139
  27.2147472  10.6939712  83.2714222  27.3566645  11.8799762  84.2015484
  24.1347302   8.4961073  79.1730405  25.0639362   8.6472233  78.9999372
  23.7138332   8.5845094  78.3179052  22.9335634  12.5211738  76.9428943
  22.7946719  12.1530522  77.8154881  22.1450230  13.0359377  76.7712900
  23.5283786  17.6220834  68.2854479  23.7035541  17.1508877  69.1000102
  22.8416574  18.2486600  68.5135740  24.4840849  11.8993340  74.3317780
  24.1490681  11.8594110  75.2275430  23.9844795  11.2338056  73.8588191
  18.4585093   7.3060970  79.8570362  18.3204891   6.5741209  80.4581901
  19.3690016   7.2169870  79.5754549  27.4200041   9.2449375  64.6054840
  26.8029211   8.5196203  64.5087893  26.9516529  10.0058735  64.2621914
  21.0867393   7.0180930  79.3454041  21.7967012   6.3774122  79.3040660
  21.0436702   7.2693824  80.2680222  29.0754172  13.9548283  82.2660620
  29.0166718  13.2707503  81.5991204  29.4773691  14.6967273  81.8141246
  18.0944871  20.7710197  75.0594339  18.3341469  21.4028721  75.7373358
  17.2514067  20.4198237  75.3459699  29.0771579  11.9187867  80.4974600
  28.1898358  11.5813789  80.6200999  29.6470131  11.1870898  80.7343366
  22.6072733  16.5789319  77.4635843  22.5342904  17.3844291  77.9755148
  22.1650126  16.7781285  76.6383865  22.3962512  15.8161089  70.9738665
  21.6130034  16.3582769  71.0676889  23.0955258  16.3335069  71.3732906
  25.7059163   1.6255719  73.6172870  26.2027862   0.8725681  73.2973941
  24.9346144   1.6620035  73.0516080  33.5588920   7.3296084  75.2591162
  33.5478796   8.2120800  74.8885095  32.6906299   6.9767635  75.0645699
  25.0671416  16.4776153  79.6194002  25.7799389  17.1123618  79.5469903
  24.5761445  16.5740019  78.8034004  26.7888943  10.3827406  71.1911294
  25.8545222  10.5028868  71.0215998  26.9665612   9.4799873  70.9271304
  22.2894131   3.7673102  73.3444555  21.9191919   3.2144142  74.0325460
  22.7853224   3.1631235  72.7919555  30.1761495   6.2244725  71.7261328
  30.6421947   7.0572717  71.6521631  30.6268995   5.7589707  72.4306586
  20.1183330  14.2270597  80.4399573  20.8192789  14.8607080  80.5928967
  19.6478445  14.5685328  79.6795212  28.2437726  12.5688546  68.7247480
  28.5197570  12.4545141  69.6341354  27.3742224  12.1706031  68.6859653
  27.9184616   6.7815204  78.2652123  27.2656066   7.0291112  77.6104576
  28.2964996   5.9679342  77.9314600  24.8791790  16.8174897  72.3680294
  25.0614184  15.9996553  72.8308046  25.7024776  17.0342590  71.9305183
  25.2133955  15.7443082  69.6295342  25.7421722  15.2335537  69.0165504
  25.4762175  15.4285613  70.4940875  23.9672189   7.5235015  84.7518160
  23.2912826   7.4229145  85.4220536  24.7899823   7.3674229  85.2154158
  15.7151048  13.7606952  77.3730676  16.3004485  13.0150640  77.5058580
  15.5175886  14.0710908  78.2567339  18.5689703  16.7958199  72.3893118
  17.9000078  17.2804327  71.9057158  18.4302573  17.0427420  73.3036496
  22.7094972  18.8301943  78.9875776  23.2613280  18.9933564  79.7524862
  23.0501165  19.4206380  78.3155801  27.5605846  13.6563200  84.8424431
  28.1045750  14.2693158  84.3479386  26.9792691  14.2142779  85.3591444
  25.8463359  16.7783918  75.9739458  25.7214498  15.9773658  75.4650404
  26.5042450  17.2730112  75.4853428  27.9098267  14.5792938  77.6019009
  26.9628603  14.4598289  77.5297335  28.2581041  13.6915436  77.6845270
  24.9144701  14.3745654  73.8023361  24.7669663  13.4462362  73.9830931
  25.7398194  14.3965745  73.3180436  28.5178823  15.1974213  74.8888234
  29.4425370  14.9917075  74.7512685  28.3494126  14.9490614  75.7977575
  24.9106215   2.2283492  68.7955478  25.1269829   3.1108130  68.4944306
  24.4300282   1.8369706  68.0661120  19.6505436   5.1869205  75.3726223
  19.5050017   5.5009508  76.2650504  19.1730640   5.8054106  74.8197121
  28.3074139  15.7159881  70.2450325  28.4811016  15.1506303  69.4924177
  28.8003030  16.5160776  70.0629815  34.1613530   8.4796304  71.8640625
  34.6044676   7.7303629  71.4659748  33.2840040   8.4706440  71.4814357
  29.2949311  15.0326645  67.3447223  29.9900216  15.6533338  67.5634538
  29.6372461  14.1821996  67.6199601  31.1940734  12.4826351  68.8734554
  31.7192058  12.8213623  68.1483874  31.1063087  11.5473366  68.6897689
  22.8560783  16.3960424  81.0024431  23.1647910  16.1509571  81.8747130
  23.6536265  16.6007063  80.5143301  22.8781395  18.5498334  73.2329807
  22.4386385  18.0574713  73.9262664  23.6289512  18.0071302  72.9921882
  15.3573734  14.7409875  73.2354435  16.1831754  14.4413647  72.8553079
  15.0067786  13.9717497  73.6844224  20.3255267  14.0936343  75.3052109
  19.7035277  13.4307048  75.0054337  20.9960134  14.1197475  74.6225757
  13.5582339  12.6596201  74.1943369  12.7214247  12.2318376  74.0127370
  13.5305985  12.8528645  75.1314160  30.8834640  13.1159254  84.1785752
  30.0930184  13.0983393  83.6390251  30.6467995  13.6547548  84.9334789
  31.0032516   9.9651721  81.4918481  31.0530520   9.8001728  82.4334003
  30.8946439   9.0978980  81.1016361  19.8868774  12.6440266  68.7810569
  20.0356895  13.3275731  68.1277242  20.6935218  12.6245356  69.2960025
  28.2936278   5.9482649  82.8077787  29.1946141   5.8089113  82.5161785
  28.3684252   6.1137103  83.7475965  22.6279083   3.3249503  81.6530974
  21.7582393   3.6183069  81.3813562  22.8638564   3.9089948  82.3738237
  32.5050712  12.3848662  81.7360502  32.2135521  12.7478643  82.5723963
  31.8922844  11.6715670  81.5573834  33.7046395   9.9501542  74.2563072
  34.5393286  10.3891346  74.4200633  33.8405523   9.4740195  73.4371318
  30.7537901   7.5081277  80.2040560  31.2292022   7.7008923  79.3959411
  29.8303466   7.5640463  79.9583944  17.6421407   8.6705444  69.7871638
  17.3967449   7.7667774  69.9851848  17.8117322   8.6722594  68.8451116
  23.3864180  15.1388397  66.2522317  22.8138147  15.7578584  65.7992789
  23.9596973  15.6887758  66.7862239  29.4539570   4.3847037  78.4368866
  30.4056992   4.4845135  78.4581090  29.2843020   3.5925305  78.9466950
  27.4753949   1.4702620  78.6228267  26.8803881   1.7507633  77.9274755
  27.1903646   1.9596521  79.3945008  26.6061440  15.4225547  67.3830899
  27.5392113  15.3571109  67.5863775  26.5184652  16.2581814  66.9245432
  29.2349456  14.7391417  64.3434847  29.1563088  14.4051281  65.2370605
  30.0559123  15.2313185  64.3426319  31.9327647   7.6053157  77.5511165
  31.9003967   6.6669157  77.7370849  32.5428271   7.6837193  76.8176990
  23.7710978   6.4749210  63.5938369  24.7170083   6.3455418  63.6626787
  23.3925223   5.7363871  64.0707798  32.0822136   4.3964200  77.5969448
  31.5661184   3.6122657  77.4099377  32.9662084   4.0682917  77.7615968
  29.7432863  -1.8594784  73.5565261  29.5457684  -2.1679696  74.4408593
  30.3532568  -1.1333146  73.6863191  37.7504197   8.6669163  76.6917202
  38.4807586   8.4054452  77.2524905  37.1411143   7.9297885  76.7319270
  35.8319494   6.8077026  77.2891653  35.1052658   6.6732991  76.6808145
  35.4166781   7.1153855  78.0948371  23.6549671  10.5266956  85.0539026
  24.5752680  10.7045555  85.2479073  23.6199254   9.5823001  84.9018726
  21.9553895   4.3999186  63.5293255  21.0485351   4.1032299  63.6055968
  22.2329876   4.1029004  62.6627541  16.6511743   8.4367990  77.6961807
  16.8697753   9.3685098  77.7149841  17.0637517   8.0775965  78.4816611
  28.8785316   0.1314648  70.8140457  28.2983986   0.7899452  70.4318509
  28.6121249  -0.6908008  70.4027874  27.3288883  -0.4680295  73.0161777
  27.8288661  -0.3563760  72.2076096  27.9724491  -0.7719242  73.6562586
  21.3870879   7.4398335  85.9029618  20.9037960   8.2398695  86.1093507
  21.4731818   7.4506280  84.9497062  14.6556838   9.2726715  73.8251437
  14.6327526   9.3714402  72.8733321  14.9657475  10.1191865  74.1468604
  17.3144216  11.3302870  77.9398052  18.2687470  11.2986812  77.8727983
  17.1156740  10.8693493  78.7548278  17.9043598   9.9003986  80.5068850
  18.7236487  10.3948064  80.5303687  18.1780406   8.9835954  80.4786417
  27.6610194   2.2914738  69.8696805  26.7736050   2.5764389  69.6517000
  28.0764184   2.1308501  69.0224082  31.0124731   2.3161259  73.5851144
  31.7885121   2.8057711  73.8575761  30.2872865   2.7419313  74.0423014
  33.4497289   3.0288878  74.6425085  34.0441780   2.7884614  73.9318393
  33.5223873   2.3096009  75.2698621  15.6694445  16.8722489  74.9568250
  15.5348913  16.1122890  74.3906248  15.2526507  17.5963389  74.4897039
  26.8053408  12.0559413  63.9644825  27.5089258  12.2609415  64.5802481
  26.0816057  12.6236175  64.2293909  27.6351218   7.8069274  70.0847095
  27.5786420   8.2637825  69.2454728  28.1879561   7.0459958  69.9069938
  31.4456024   3.5959006  70.9097215  31.1892958   3.1955641  71.7405422
  30.8208892   4.3102800  70.7847354  35.7568362   6.3355079  73.4168506
  35.1967920   6.4048268  74.1900068  35.1511865   6.1596064  72.6968002
  18.8263571  17.7691806  75.1686692  18.7095955  18.7137239  75.0665383
  18.0056017  17.4665368  75.5572492  28.7140105  12.4941942  66.0143285
  29.5485709  12.0623140  65.8320760  28.5524448  12.3223956  66.9420180
  28.3685998   8.9974055  67.3799624  28.3134801   8.8318327  66.4388068
  27.7432053   9.7050088  67.5361814  25.6831905  11.3022967  86.7053187
  26.5523064  11.4763619  86.3439822  25.2038656  12.1217384  86.5828916
  19.8518085  18.4220068  78.3842621  20.7545332  18.4543678  78.7009116
  19.6255455  17.4920519  78.3988957  21.6071687  17.1751055  75.0452699
  20.6567318  17.1752916  74.9317072  21.9104173  16.4283789  74.5288734
  37.3424380  23.0111593  76.1098462  37.9802790  22.8918340  75.4061802
  37.2245223  23.9592437  76.1686414  34.1514087  22.9639021  76.0459987
  33.8132598  22.8480086  75.1580521  35.0203855  22.5630186  76.0260993
  30.0100902  24.8174497  72.0356877  29.4465768  24.7264434  71.2673165
  29.8953297  23.9974402  72.5159370  34.6333870  24.1173873  82.0046192
  34.6222510  23.7226671  81.1326696  34.7954509  23.3839945  82.5979963
  27.5565334  26.3125689  74.8741098  28.3486626  25.9716514  74.4587397
  27.7961985  26.4220664  75.7943251  35.5900461  28.4845465  67.3471342
  34.9388441  29.0699546  66.9605356  36.3844824  29.0151660  67.4066380
  29.5156088  25.5734602  67.7458477  30.2886964  25.0263589  67.6071353
  29.8681487  26.4378852  67.9572938  31.3541131  26.9010985  80.9525376
  31.0630997  27.8056615  80.8372042  31.9898115  26.9427512  81.6669446
  32.2797338  24.2787833  77.5426736  32.8760910  24.0543855  76.8283699
  32.3372309  23.5372579  78.1452184  31.8522366  21.7327268  65.3776927
  32.1047887  21.2108790  64.6160390  30.9146925  21.5693414  65.4803610
  36.8965649  20.7363047  73.1851670  37.6828738  20.3182470  72.8342087
  37.1604353  21.6409139  73.3533318  37.0675726  26.1735897  67.8840327
  36.4321559  26.2470524  68.5961231  36.7373133  26.7629496  67.2059406
  42.2974076  20.6738280  74.0884648  43.0299248  20.1037497  74.3222478
  41.5413432  20.2859880  74.5291154  31.5718655  23.6355374  67.5801302
  31.4554913  22.9600278  68.2482386  31.6820915  23.1487748  66.7633455
  33.9150196  23.0965521  71.2847991  33.5508403  22.5696142  71.9960912
  34.7717312  22.7063991  71.1114476  39.8199496  14.3859854  78.5479257
  39.4882821  15.2555265  78.3240472  39.2245110  14.0696138  79.2273287
  33.5555683  18.1255421  66.2809339  33.7230085  18.9935658  66.6479810
  33.3652852  18.2882703  65.3570629  36.3131016  26.5872400  77.9475170
  36.0131739  27.4897439  77.8390977  35.9682075  26.3204583  78.7996323
  29.7643497  23.0386197  73.9811874  28.8393994  22.9062411  74.1889566
  30.0127911  23.8180416  74.4781817  39.7128160  19.1054940  75.6272607
  38.8045037  19.0370349  75.3331368  39.6615756  19.5826885  76.4554433
  33.5344904  20.5813079  67.2656006  33.4144529  21.0270129  68.1041486
  32.8397492  20.9298396  66.7069544  27.1252308  22.6819470  74.8155663
  27.2544690  22.9353949  75.7295075  26.4449760  23.2747178  74.4960318
  31.2951796  33.3516720  70.9146137  31.2175825  34.3024546  70.9934618
  30.6913439  33.0062593  71.5721064  33.7869026  20.5244586  83.5707504
  33.0102360  21.0838506  83.5610369  34.4259589  21.0101369  84.0922374
  41.5789806  17.3071379  77.4050481  40.9364186  17.6003912  76.7590276
  41.0744735  17.1924299  78.2103678  39.2329970  21.0534552  68.0936340
  40.1447826  21.2861939  67.9184038  38.7239617  21.6371596  67.5311419
  32.0415398  23.3330039  83.1325471  32.7830082  23.8715083  82.8560295
  31.3352383  23.9596328  83.2897023  37.5170737  25.4759180  81.7297633
  37.9254094  25.0341590  80.9852265  36.7947999  24.9011807  81.9831826
  33.8701808  20.4131786  79.1031190  34.7163003  20.8371200  79.2465839
  33.8100445  19.7565411  79.7969753  37.8399552  26.0360370  75.4849922
  37.2108415  26.2006084  74.7825990  37.4525214  26.4501980  76.2560886
  41.7188784  26.9714808  72.8394285  41.0339822  27.3513710  72.2891319
  41.8032633  27.5810135  73.5726233  37.0201253  18.0736155  80.7612363
  36.7762185  18.8278215  80.2246639  37.2961183  18.4521502  81.5959610
  38.9739716  24.6174767  79.4389629  39.1856611  25.2606527  78.7624010
  38.9269464  23.7837084  78.9711559  36.5765945  17.2292588  76.3426201
  35.7150424  17.5273841  76.6342939  36.6028379  17.4462987  75.4107234
  33.3927514  25.7734778  72.7500007  33.8565860  26.0522481  71.9604629
  33.1284312  24.8718223  72.5673097  30.2851595  25.3206260  75.6879770
  30.8552952  25.7493528  75.0497255  30.8759707  25.0388845  76.3863956
  32.3296400  21.8957931  69.5589572  33.0320443  22.3478974  70.0263498
  31.9977029  21.2541750  70.1869465  30.7776762  20.4869687  83.9340781
  30.1475422  21.1685968  84.1676178  30.6712849  20.3752769  82.9893920
  26.0721734  20.1541483  74.8606705  25.2820788  20.4099012  74.3846816
  26.5632981  20.9689821  74.9658746  40.0885544  27.4946723  77.6111986
  40.9102987  27.0926910  77.3294668  40.0847946  27.3914957  78.5628102
  28.0236479  20.5186063  71.8190182  27.2267643  20.6304757  72.3373678
  27.7962072  20.8572715  70.9531073  33.8542147  27.0430766  79.7672697
  33.9186580  27.5051173  80.6030869  33.1453071  26.4128131  79.8955007
  24.3559437  20.4071974  77.2921696  24.6067475  21.2918984  77.5579272
  24.8918985  20.2276575  76.5196788  48.1791537  23.8385471  73.9596958
  47.4255245  23.2692869  73.8040962  48.3139078  23.8048136  74.9067592
  33.5690165  28.7098873  69.6351677  33.4335839  29.5550409  70.0636525
  34.1099977  28.9118151  68.8717611  30.0557504  14.7890453  86.2966032
  29.6624450  14.2356652  86.9713677  30.8723645  15.1001032  86.6872550
  27.0219562  26.2274311  70.2079602  27.5344083  27.0217562  70.3585167
  27.6742275  25.5300602  70.1413204  28.8314447  29.3440068  72.2902355
  29.0081075  30.2658032  72.1023339  29.6271280  29.0298487  72.7196735
  32.9725465  16.2048332  83.8886289  33.7135179  16.8055485  83.8090751
  33.2043388  15.4625970  83.3304331  28.1166803  21.3904700  82.1664519
  28.0020318  20.4889957  82.4671617  27.2611321  21.6368396  81.8149335
  35.1958641  29.3322440  83.7652019  34.7522495  28.5458818  83.4472924
  35.8575855  29.5201590  83.0995910  29.9545762  30.8618241  78.2912698
  30.5053187  30.7335305  77.5189692  29.1157238  31.1613131  77.9407591
  37.2939879  29.6125240  81.7933420  37.2758354  30.4334121  81.3013690
  38.2159799  29.4879315  82.0183562  33.7512933  27.1269369  82.6356929
  34.2841270  26.3657657  82.4056237  33.2227014  26.8343021  83.3781083
  36.9182628  12.2329435  78.1650571  36.5746898  13.1231077  78.0889681
  37.2861591  12.0431093  77.3020156  24.9868479  24.5562966  70.9839173
  25.8243701  24.9659974  70.7672880  25.1646747  23.6162408  70.9539367
  36.8832911  22.2238046  66.6723006  36.3679534  22.9942651  66.9111393
  36.6110219  21.5503183  67.2956067  34.4680022  17.0687747  71.7308244
  33.6121618  16.6794598  71.5513883  34.8806974  17.1479708  70.8708030
  35.9979169  14.6034090  76.1299804  35.4943964  14.5664226  75.3167609
  36.2909775  15.5126833  76.1896460  32.2422055  14.6872820  75.1365986
  33.1075051  14.4915629  74.7771875  32.3099563  14.4583172  76.0635342
  41.8567185  24.9770401  68.6076179  41.0796628  24.6381561  68.1631341
  42.5358666  24.9823024  67.9331144  36.6719214  20.0965138  68.4982787
  36.3669350  20.4111288  69.3492930  37.6249656  20.1746558  68.5410120
  35.1165646  26.2555362  70.1475741  34.5887008  25.5208121  69.8348978
  34.6153149  27.0330038  69.9015709  40.0958492  24.4504382  75.2642787
  39.4382166  25.1403644  75.3522916  40.8998891  24.8400814  75.6076774
  29.8484374  16.9175028  72.5082352  30.4228125  16.6950210  71.7755545
  30.4355356  16.9863723  73.2610954  38.9063951  22.8048755  73.3146729
  39.4195833  23.4378747  73.8168439  39.5565175  22.2049950  72.9490089
  30.1753961  18.9479489  66.5278238  29.3391273  19.2854176  66.8487512
  30.0358730  18.8128469  65.5905375  32.1507041  13.7916277  71.2357422
  31.4971454  13.4765294  70.6114037  32.1087515  13.1692017  71.9617245
  33.2618246  24.0735572  63.1510714  32.3545308  23.8424826  63.3501863
  33.7589278  23.2773191  63.3384695  36.1686325  32.7833079  66.0707400
  35.4948024  33.0864776  66.6792358  36.5552147  33.5862160  65.7212857
  35.3844782  20.2798211  75.5605069  34.4667343  20.5013158  75.4026757
  35.8004925  20.3544521  74.7016777  36.1679829  21.6789626  70.6907750
  36.9151648  22.1911023  70.3814872  36.4371419  21.3573679  71.5512143
  34.4406480  24.1748167  67.6734704  33.5317699  23.8907200  67.7707174
  34.4701563  24.5947245  66.8138011  39.6725747  27.7854756  71.4425872
  39.2188074  26.9445666  71.4991062  39.0419714  28.4216155  71.7800652
  38.6158667  18.7146742  72.6726539  37.8781423  18.2024129  73.0036782
  38.8685440  18.2747124  71.8609816  38.1158686  29.6231253  72.3775690
  38.4081661  30.1836310  71.6588055  38.6257307  29.9159814  73.1328849
  38.7170294  11.4922994  73.2668308  39.0229171  10.6320358  72.9794223
  39.4422899  12.0840615  73.0667302  25.0094650  21.8953681  71.6549906
  24.8119050  21.3023042  70.9300973  24.4541314  21.5905891  72.3725845
  32.9891374  21.7876788  73.7744499  33.0439983  20.8350624  73.6986976
  32.1782576  21.9436227  74.2585798  34.1382567  25.7156911  65.0122783
  33.7001997  24.9992770  64.5528420  34.8793008  25.9433025  64.4507874
  30.9283734  20.4053847  71.5334878  30.1151599  20.7048018  71.9400070
  31.4242728  20.0109536  72.2509360  33.0792311  30.4011604  73.4669143
  33.0368490  30.6272451  72.5377675  33.9955010  30.1674979  73.6154944
  36.5257945  20.8695672  80.3649772  36.8807333  21.0967145  81.2244238
  37.1730076  21.2014049  79.7427027  42.2555682  23.9914108  71.0699101
  42.1173581  24.1815704  70.1420290  41.8991901  24.7533490  71.5267152
  30.4197808  17.9772203  77.1496113  31.0597188  17.8360962  76.4519076
  29.5875339  17.6906716  76.7734715  42.2825062  26.0590635  76.0810373
  42.7161568  25.9665924  76.9293427  42.9956642  26.0348135  75.4430389
  31.1958112  27.2774633  73.2631106  31.9898711  26.7824953  73.0613681
  30.4849805  26.7492496  72.8998811  36.0152957  29.6592729  77.6143473
  36.0689979  30.2283665  78.3821189  35.1467738  29.8294614  77.2497510
  27.5040876  21.4217715  69.3390858  26.5738464  21.3602170  69.5560820
  27.5998348  20.8993668  68.5427500  27.4226425  17.9472528  71.9269100
  27.6833242  18.8617861  71.8178260  28.2443597  17.4796970  72.0765713
  28.8951350  19.3610285  79.0967924  29.5674403  19.1527647  78.4480573
  28.0681137  19.1632371  78.6573157  43.1440611  26.1014335  78.6143258
  43.3376501  27.0060146  78.8602533  43.0441230  25.6421754  79.4481843
  34.7976922  15.9872226  81.1133585  34.1504837  16.6862176  81.0198062
  35.5677937  16.4208370  81.4809834  38.2055720  26.2521078  84.1884139
  38.0541226  26.0231630  83.2714222  38.1960399  27.2091679  84.2015484
  34.9741056  23.8252991  79.1730405  35.9033116  23.9764150  78.9999372
  34.5532086  23.9137012  78.3179052  33.7729388  27.8503655  76.9428943
  33.6340474  27.4822440  77.8154881  32.9843984  28.3651295  76.7712900
  34.3677540  32.9512752  68.2854479  34.5429296  32.4800795  69.1000102
  33.6810328  33.5778518  68.5135740  35.3234603  27.2285258  74.3317780
  34.9884436  27.1886028  75.2275430  34.8238549  26.5629974  73.8588191
  29.2978847  22.6352888  79.8570362  29.1598645  21.9033127  80.4581901
  30.2083771  22.5461788  79.5754549  38.2593795  24.5741292  64.6054840
  37.6422966  23.8488120  64.5087893  37.7910283  25.3350653  64.2621914
  31.9261148  22.3472847  79.3454041  32.6360767  21.7066039  79.3040660
  31.8830456  22.5985742  80.2680222  39.9147927  29.2840201  82.2660620
  39.8560473  28.5999421  81.5991204  40.3167445  30.0259191  81.8141246
  30.6390082  19.3338065  81.1649681  30.1027439  18.8828804  81.8171277
  30.0506790  19.4683974  80.4220145  28.9338625  36.1002114  75.0594339
  29.1735224  36.7320639  75.7373358  28.0907822  35.7490154  75.3459699
  30.0492341  18.7926717  63.7276144  29.1721807  18.6715517  63.3638391
  30.5250094  18.0012795  63.4755033  39.9165334  27.2479785  80.4974600
  39.0292113  26.9105706  80.6200999  40.4863885  26.5162816  80.7343366
  21.5694481  23.5803876  73.8217652  22.2565521  23.2665606  73.2338667
  21.4142610  24.4845241  73.5484903  26.3729203  18.4694073  78.2502675
  26.2887392  17.8619742  77.5153085  25.5511910  18.9603091  78.2512172
  33.4466487  31.9081237  77.4635843  33.3736659  32.7136208  77.9755148
  33.0043880  32.1073203  76.6383865  33.2356267  31.1453007  70.9738665
  32.4523789  31.6874687  71.0676889  33.9349012  31.6626987  71.3732906
  36.5452917  16.9547636  73.6172870  37.0421617  16.2017599  73.2973941
  35.7739899  16.9911953  73.0516080  44.3982674  22.6588002  75.2591162
  44.3872551  23.5412717  74.8885095  43.5300054  22.3059553  75.0645699
  35.9065171  31.8068071  79.6194002  36.6193143  32.4415536  79.5469903
  35.4155199  31.9031937  78.8034004  37.6282698  25.7119324  71.1911294
  36.6938976  25.8320786  71.0215998  37.8059366  24.8091790  70.9271304
  33.1287886  19.0965019  73.3444555  32.7585673  18.5436060  74.0325460
  33.6246978  18.4923153  72.7919555  41.0155249  21.5536643  71.7261328
  41.4815701  22.3864634  71.6521631  41.4662750  21.0881624  72.4306586
  30.9577084  29.5562514  80.4399573  31.6586544  30.1898997  80.5928967
  30.4872199  29.8977246  79.6795212  39.0831480  27.8980464  68.7247480
  39.3591324  27.7837059  69.6341354  38.2135979  27.4997949  68.6859653
  38.9871912  13.9217230  75.7652229  38.0734992  14.1521457  75.9334436
  39.4165013  14.0055674  76.6166262  38.7578370  22.1107122  78.2652123
  38.1049821  22.3583029  77.6104576  39.1358750  21.2971260  77.9314600
  35.7185544  32.1466815  72.3680294  35.9007939  31.3288471  72.8308046
  36.5418530  32.3634507  71.9305183  36.0527710  31.0735000  69.6295342
  36.5815476  30.5627455  69.0165504  36.3155929  30.7577530  70.4940875
  34.8065943  22.8526933  84.7518160  34.1306580  22.7521062  85.4220536
  35.6293577  22.6966147  85.2154158  26.5544802  29.0898869  77.3730676
  27.1398239  28.3442557  77.5058580  26.3569641  29.4002826  78.2567339
  29.4083458  32.1250117  72.3893118  28.7393833  32.6096244  71.9057158
  29.2696327  32.3719337  73.3036496  21.1462457  21.6604470  76.0935119
  21.1846557  21.1268060  76.8872237  20.6402750  21.1339675  75.4746096
  33.5488726  34.1593860  78.9875776  34.1007034  34.3225482  79.7524862
  33.8894920  34.7498298  78.3155801  28.5253219  16.5069010  79.5897661
  28.5894546  17.3683841  79.1775059  28.4620340  15.8943012  78.8570020
  28.0005492  18.5792143  83.2370695  28.6277531  18.1969220  83.8508220
  27.1433411  18.3606345  83.6026388  38.3999601  28.9855118  84.8424431
  38.9439505  29.5985076  84.3479386  37.8186445  29.5434696  85.3591444
  24.7771035  20.3868572  69.1689050  25.0724476  19.4779250  69.1156104
  23.8759071  20.3656311  68.8470052  36.6857114  32.1075836  75.9739458
  36.5608253  31.3065576  75.4650404  37.3436205  32.6022029  75.4853428
  28.3065282  18.4624568  75.1516599  27.5851868  19.0760536  75.0124072
  29.0958538  18.9982333  75.0733245  38.7492022  29.9084856  77.6019009
  37.8022357  29.7890207  77.5297335  39.0974795  29.0207354  77.6845270
  31.1091595  15.7978995  81.4257250  31.6325997  16.0441291  82.1883560
  30.8903929  16.6299030  81.0060388  26.5058876  18.0682669  69.2928375
  26.1771583  17.1880048  69.1103481  26.8598247  18.0130338  70.1804764
  35.7538455  29.7037572  73.8023361  35.6063418  28.7754280  73.9830931
  36.5791949  29.7257663  73.3180436  29.6200700  18.3555639  69.6603853
  29.9596772  18.8841560  68.9382461  30.0672820  18.6936045  70.4362419
  39.3572577  30.5266131  74.8888234  40.2819125  30.3208992  74.7512685
  39.1887880  30.2782532  75.7977575  32.3144140  16.7392690  79.1106921
  31.9740961  15.9400503  79.5127601  31.6083147  17.0394401  78.5383754
  32.9660612  13.8242002  77.5634244  33.7886681  13.3502481  77.4413134
  33.2098676  14.6032486  78.0632930  31.6068847  16.8530261  67.8597146
  32.3277209  17.2311514  67.3560863  30.9834151  17.5719138  67.9632124
  35.7499970  17.5575410  68.7955478  35.9663584  18.4400048  68.4944306
  35.2694037  17.1661623  68.0661120  30.4899191  20.5161123  75.3726223
  30.3443772  20.8301426  76.2650504  30.0124395  21.1346023  74.8197121
  32.3495574  17.5063671  75.4207112  32.3357143  16.6104764  75.0839410
  33.0668002  17.5134335  76.0545398  34.2021705  17.9401011  77.4660240
  33.9439482  18.8618082  77.4644570  33.6706745  17.5431446  78.1560704
  39.1467893  31.0451798  70.2450325  39.3204771  30.4798221  69.4924177
  39.6396785  31.8452693  70.0629815  24.9644853  23.0566467  78.3113884
  24.4198321  23.8326275  78.4434158  25.8424203  23.4037272  78.1533005
  31.7532470  16.3878051  70.6894682  31.8748381  15.4594697  70.8885570
  31.4634512  16.4016737  69.7772998  34.6223660  14.0732962  73.8261402
  34.6445357  14.1372295  72.8713382  35.0391719  13.2337470  74.0201908
  45.0007284  23.8088221  71.8640625  45.4438430  23.0595546  71.4659748
  44.1233795  23.7998358  71.4814357  40.1343066  30.3618563  67.3447223
  40.8293970  30.9825255  67.5634538  40.4766216  29.5113914  67.6199601
  25.7510875  22.1836364  81.2044041  25.0092611  22.3318999  81.7908671
  25.4303619  22.4444629  80.3410790  42.0334489  27.8118268  68.8734554
  42.5585813  28.1505541  68.1483874  41.9456841  26.8765284  68.6897689
  33.6954538  31.7252342  81.0024431  34.0041664  31.4801489  81.8747130
  34.4930020  31.9298980  80.5143301  33.7175150  33.8790252  73.2329807
  33.2780140  33.3866630  73.9262664  34.4683267  33.3363219  72.9921882
  26.1967489  30.0701792  73.2354435  27.0225509  29.7705564  72.8553079
  25.8461541  29.3009415  73.6844224  31.1649022  29.4228261  75.3052109
  30.5429031  28.7598966  75.0054337  31.8353889  29.4489393  74.6225757
  24.3976094  27.9888119  74.1943369  23.5608002  27.5610293  74.0127370
  24.3699739  28.1820562  75.1314160  31.2373549  17.9010049  84.8984615
  31.2861705  18.7772171  84.5162385  31.7796063  17.3587442  84.3256258
  41.7228395  28.4451172  84.1785752  40.9323939  28.4275311  83.6390251
  41.4861750  28.9839466  84.9334789  41.8426270  25.2943638  81.4918481
  41.8924275  25.1293646  82.4334003  41.7340193  24.4270897  81.1016361
  30.7262529  27.9732184  68.7810569  30.8750649  28.6567648  68.1277242
  31.5328972  27.9537274  69.2960025  39.1330032  21.2774566  82.8077787
  40.0339895  21.1381031  82.5161785  39.2078007  21.4429021  83.7475965
  33.4672838  18.6541421  81.6530974  32.5976147  18.9474987  81.3813562
  33.7032318  19.2381866  82.3738237  43.3444467  27.7140580  81.7360502
  43.0529275  28.0770560  82.5723963  42.7316598  27.0007588  81.5573834
  44.5440149  25.2793460  74.2563072  45.3787041  25.7183264  74.4200633
  44.6799278  24.8032113  73.4371318  41.5931655  22.8373194  80.2040560
  42.0685777  23.0300841  79.3959411  40.6697220  22.8932380  79.9583944
  28.4815162  23.9997362  69.7871638  28.2361204  23.0959692  69.9851848
  28.6511076  24.0014512  68.8451116  36.1711872  14.8721038  79.1696394
  36.6893815  15.6082065  78.8442883  35.8167004  15.1785031  80.0043153
  27.7510809  19.7325719  67.2857800  27.0580054  19.8070074  66.6297836
  27.5062561  18.9686063  67.8079317  36.4224466  11.2921321  74.6897291
  36.7026219  10.6244510  75.3157717  37.2075073  11.4850416  74.1771954
  34.2257934  30.4680314  66.2522317  33.6531901  31.0870502  65.7992789
  34.7990728  31.0179676  66.7862239  40.2933324  19.7138955  78.4368866
  41.2450747  19.8137052  78.4581090  40.1236774  18.9217223  78.9466950
  38.3147704  16.7994538  78.6228267  37.7197636  17.0799550  77.9274755
  38.0297400  17.2888439  79.3945008  37.4455194  30.7517465  67.3830899
  38.3785867  30.6863026  67.5863775  37.3578407  31.5873731  66.9245432
  40.0743211  30.0683335  64.3434847  39.9956842  29.7343199  65.2370605
  40.8952877  30.5605103  64.3426319  42.7721402  22.9345074  77.5511165
  42.7397722  21.9961075  77.7370849  43.3822026  23.0129111  76.8176990
  34.6104733  21.8041127  63.5938369  35.5563837  21.6747335  63.6626787
  34.2318978  21.0655789  64.0707798  42.9215890  19.7256118  77.5969448
  42.4054939  18.9414574  77.4099377  43.8055839  19.3974834  77.7615968
  40.5826617  13.4697133  73.5565261  40.3851438  13.1612221  74.4408593
  41.1926323  14.1958772  73.6863191  48.5897952  23.9961081  76.6917202
  49.3201340  23.7346369  77.2524905  47.9804897  23.2589803  76.7319270
  46.6713249  22.1368944  77.2891653  45.9446412  22.0024909  76.6808145
  46.2560536  22.4445772  78.0948371  34.4943425  25.8558873  85.0539026
  35.4146435  26.0337472  85.2479073  34.4593008  24.9114919  84.9018726
  32.7947650  19.7291104  63.5293255  31.8879105  19.4324216  63.6055968
  33.0723631  19.4320922  62.6627541  23.7125590  21.0497467  73.9792301
  23.3928375  20.1962775  73.6866675  23.1659018  21.2646045  74.7350268
  27.4905498  23.7659908  77.6961807  27.7091508  24.6977016  77.7149841
  27.9031272  23.4067882  78.4816611  34.4109716  14.2727993  69.6837496
  33.6010444  13.9275078  70.0592742  35.0994133  13.9635537  70.2725107
  36.3400264  13.3506040  71.3061792  36.8931302  13.7701494  71.9651816
  36.5770350  12.4241788  71.3484749  32.3633363  19.3393114  87.0864556
  32.2630090  20.2887471  87.0176648  32.1454905  19.0111353  86.2140626
  31.5646434  16.5878039  63.6705234  32.4265598  16.9132937  63.9301051
  31.7496779  15.8009535  63.1578300  23.5813850  24.6700378  75.9485423
  22.8877322  24.2554331  75.4355377  24.3286841  24.7120915  75.3518841
  39.7179071  15.4606565  70.8140457  39.1377740  16.1191369  70.4318509
  39.4515004  14.6383910  70.4027874  38.1682637  14.8611623  73.0161777
  38.6682416  14.9728157  72.2076096  38.8118245  14.5572676  73.6562586
  32.2264633  22.7690253  85.9029618  31.7431715  23.5690613  86.1093507
  32.3125572  22.7798197  84.9497062  25.4950593  24.6018632  73.8251437
  25.4721281  24.7006320  72.8733321  25.8051229  25.4483783  74.1468604
  28.1537971  26.6594787  77.9398052  29.1081224  26.6278730  77.8727983
  27.9550494  26.1985411  78.7548278  28.7437353  25.2295903  80.5068850
  29.5630242  25.7239982  80.5303687  29.0174160  24.3127871  80.4786417
  38.5003949  17.6206656  69.8696805  37.6129804  17.9056306  69.6517000
  38.9157938  17.4600419  69.0224082  41.8518485  17.6453177  73.5851144
  42.6278875  18.1349629  73.8575761  41.1266619  18.0711231  74.0423014
  44.2891044  18.3580796  74.6425085  44.8835535  18.1176532  73.9318393
  44.3617627  17.6387926  75.2698621  26.5088199  32.2014407  74.9568250
  26.3742667  31.4414808  74.3906248  26.0920262  32.9255307  74.4897039
  37.6447162  27.3851330  63.9644825  38.3483013  27.5901333  64.5802481
  36.9209811  27.9528092  64.2293909  38.4744973  23.1361192  70.0847095
  38.4180174  23.5929743  69.2454728  39.0273315  22.3751876  69.9069938
  42.2849779  18.9250923  70.9097215  42.0286713  18.5247559  71.7405422
  41.6602647  19.6394717  70.7847354  46.5962116  21.6646997  73.4168506
  46.0361674  21.7340186  74.1900068  45.9905620  21.4887981  72.6968002
  29.6657325  33.0983724  75.1686692  29.5489709  34.0429156  75.0665383
  28.8449772  32.7957285  75.5572492  39.5533860  27.8233860  66.0143285
  40.3879464  27.3915058  65.8320760  39.3918203  27.6515873  66.9420180
  39.2079752  24.3265973  67.3799624  39.1528556  24.1610244  66.4388068
  38.5825807  25.0342006  67.5361814  23.9972267  19.5634037  81.2061047
  24.6431131  19.0532991  81.6948272  23.7889418  20.3002719  81.7804472
  36.5225659  26.6314885  86.7053187  37.3916819  26.8055537  86.3439822
  36.0432411  27.4509302  86.5828916  32.5175878  13.8274082  66.9584943
  32.5054547  14.7715922  67.1153214  33.4099299  13.6444227  66.6644404
  30.6911839  33.7511986  78.3842621  31.5939086  33.7835596  78.7009116
  30.4649210  32.8212437  78.3988957  32.4465441  32.5042972  75.0452699
  31.4961072  32.5044834  74.9317072  32.7497928  31.7575707  74.5288734
  36.3327997  10.4216858  71.2130880  35.5660393   9.8675345  71.3587562
  36.7438702  10.4938727  72.0745031  28.3369758  16.7101654  85.3036061
  29.2001220  16.3538459  85.5139385  27.7635169  16.3715549  85.9911465
  48.1818135  38.3403511  76.1098462  48.8196545  38.2210258  75.4061802
  48.0638978  39.2884355  76.1686414  44.9907841  38.2930939  76.0459987
  44.6526353  38.1772003  75.1580521  45.8597609  37.8922104  76.0260993
  45.4727624  39.4465790  82.0046192  45.4616265  39.0518589  81.1326696
  45.6348264  38.7131863  82.5979963  42.1934885  42.2302902  80.9525376
  41.9024751  43.1348533  80.8372042  42.8291870  42.2719430  81.6669446
  43.1191092  39.6079751  77.5426736  43.7154664  39.3835773  76.8283699
  43.1766064  38.8664496  78.1452184  42.6916121  37.0619186  65.3776927
  42.9441641  36.5400707  64.6160390  41.7540680  36.8985332  65.4803610
  47.7359403  36.0654964  73.1851670  48.5222493  35.6474388  72.8342087
  47.9998108  36.9701057  73.3533318  53.1367831  36.0030198  74.0884648
  53.8693003  35.4329414  74.3222478  52.3807186  35.6151798  74.5291154
  50.6593251  29.7151772  78.5479257  50.3276576  30.5847183  78.3240472
  50.0638864  29.3988056  79.2273287  44.3949437  33.4547339  66.2809339
  44.5623840  34.3227575  66.6479810  44.2046606  33.6174621  65.3570629
  47.1524770  41.9164318  77.9475170  46.8525494  42.8189357  77.8390977
  46.8075830  41.6496501  78.7996323  40.6037252  38.3678115  73.9811874
  39.6787748  38.2354329  74.1889566  40.8521665  39.1472334  74.4781817
  50.5521914  34.4346858  75.6272607  49.6438792  34.3662266  75.3331368
  50.5009510  34.9118803  76.4554433  44.3738658  35.9104996  67.2656006
  44.2538283  36.3562047  68.1041486  43.6791247  36.2590314  66.7069544
  37.9646063  38.0111388  74.8155663  38.0938444  38.2645867  75.7295075
  37.2843514  38.6039096  74.4960318  44.6262780  35.8536504  83.5707504
  43.8496114  36.4130424  83.5610369  45.2653343  36.3393287  84.0922374
  52.4183561  32.6363296  77.4050481  51.7757941  32.9295830  76.7590276
  51.9138489  32.5216217  78.2103678  50.0723724  36.3826470  68.0936340
  50.9841580  36.6153856  67.9184038  49.5633371  36.9663514  67.5311419
  42.8809152  38.6621957  83.1325471  43.6223837  39.2007001  82.8560295
  42.1746138  39.2888246  83.2897023  48.3564492  40.8051097  81.7297633
  48.7647848  40.3633508  80.9852265  47.6341753  40.2303725  81.9831826
  44.7095562  35.7423704  79.1031190  45.5556757  36.1663118  79.2465839
  44.6494200  35.0857328  79.7969753  47.8595007  33.4028072  80.7612363
  47.6155939  34.1570133  80.2246639  48.1354938  33.7813420  81.5959610
  49.8133470  39.9466685  79.4389629  50.0250365  40.5898445  78.7624010
  49.7663218  39.1129001  78.9711559  47.4159699  32.5584506  76.3426201
  46.5544178  32.8565759  76.6342939  47.4422134  32.7754904  75.4107234
  41.1245350  40.6498178  75.6879770  41.6946707  41.0785446  75.0497255
  41.7153461  40.3680762  76.3863956  43.1690155  37.2249848  69.5589572
  43.8714198  37.6770892  70.0263498  42.8370783  36.5833667  70.1869465
  41.6170516  35.8161605  83.9340781  40.9869177  36.4977886  84.1676178
  41.5106604  35.7044687  82.9893920  36.9115488  35.4833401  74.8606705
  36.1214542  35.7390930  74.3846816  37.4026736  36.2981739  74.9658746
  50.9279298  42.8238640  77.6111986  51.7496742  42.4218828  77.3294668
  50.9241701  42.7206874  78.5628102  38.8630234  35.8477980  71.8190182
  38.0661397  35.9596675  72.3373678  38.6355826  36.1864633  70.9531073
  44.6935902  42.3722684  79.7672697  44.7580334  42.8343091  80.6030869
  43.9846825  41.7420049  79.8955007  35.1953191  35.7363892  77.2921696
  35.4461230  36.6210901  77.5579272  35.7312740  35.5568493  76.5196788
  59.0185291  39.1677389  73.9596958  58.2648999  38.5984787  73.8040962
  59.1532832  39.1340053  74.9067592  40.8951259  30.1182371  86.2966032
  40.5018204  29.5648569  86.9713677  41.7117399  30.4292949  86.6872550
  43.8119220  31.5340250  83.8886289  44.5528933  32.1347403  83.8090751
  44.0437143  30.7917888  83.3304331  38.9560558  36.7196617  82.1664519
  38.8414073  35.8181875  82.4671617  38.1005076  36.9660314  81.8149335
  46.0352396  44.6614358  83.7652019  45.5916250  43.8750736  83.4472924
  46.6969609  44.8493508  83.0995910  48.1333634  44.9417158  81.7933420
  48.1152109  45.7626039  81.3013690  49.0553554  44.8171233  82.0183562
  44.5906688  42.4561287  82.6356929  45.1235025  41.6949575  82.4056237
  44.0620769  42.1634939  83.3781083  47.7576383  27.5621353  78.1650571
  47.4140652  28.4522995  78.0889681  48.1255345  27.3723011  77.3020156
  47.7226665  37.5529964  66.6723006  47.2073289  38.3234569  66.9111393
  47.4503974  36.8795100  67.2956067  45.3073776  32.3979665  71.7308244
  44.4515373  32.0086515  71.5513883  45.7200728  32.4771626  70.8708030
  46.8372923  29.9326008  76.1299804  46.3337719  29.8956143  75.3167609
  47.1303530  30.8418751  76.1896460  43.0815809  30.0164738  75.1365986
  43.9468806  29.8207547  74.7771875  43.1493318  29.7875090  76.0635342
  47.5112969  35.4257056  68.4982787  47.2063104  35.7403205  69.3492930
  48.4643411  35.5038476  68.5410120  50.9352246  39.7796300  75.2642787
  50.2775921  40.4695561  75.3522916  51.7392646  40.1692732  75.6076774
  40.6878128  32.2466946  72.5082352  41.2621880  32.0242127  71.7755545
  41.2749111  32.3155640  73.2610954  49.7457705  38.1340673  73.3146729
  50.2589587  38.7670664  73.8168439  50.3958929  37.5341868  72.9490089
  41.0147715  34.2771407  66.5278238  40.1785027  34.6146093  66.8487512
  40.8752485  34.1420387  65.5905375  42.9900796  29.1208195  71.2357422
  42.3365208  28.8057212  70.6114037  42.9481270  28.4983935  71.9617245
  44.1012001  39.4027490  63.1510714  43.1939062  39.1716743  63.3501863
  44.5983033  38.6065109  63.3384695  46.2238536  35.6090128  75.5605069
  45.3061098  35.8305075  75.4026757  46.6398680  35.6836439  74.7016777
  47.0073584  37.0081544  70.6907750  47.7545403  37.5202941  70.3814872
  47.2765173  36.6865597  71.5512143  49.4552421  34.0438660  72.6726539
  48.7175178  33.5316046  73.0036782  49.7079195  33.6039042  71.8609816
  49.5564048  26.8214912  73.2668308  49.8622925  25.9612276  72.9794223
  50.2816653  27.4132532  73.0667302  35.8488404  37.2245599  71.6549906
  35.6512804  36.6314959  70.9300973  35.2935068  36.9197809  72.3725845
  43.8285128  37.1168705  73.7744499  43.8833738  36.1642542  73.6986976
  43.0176330  37.2728144  74.2585798  41.7677488  35.7345765  71.5334878
  40.9545354  36.0339936  71.9400070  42.2636482  35.3401454  72.2509360
  47.3651700  36.1987589  80.3649772  47.7201087  36.4259063  81.2244238
  48.0123831  36.5305966  79.7427027  53.0949437  39.3206025  71.0699101
  52.9567335  39.5107621  70.1420290  52.7385655  40.0825408  71.5267152
  41.2591563  33.3064120  77.1496113  41.8990942  33.1652880  76.4519076
  40.4269093  33.0198634  76.7734715  53.1218816  41.3882552  76.0810373
  53.5555323  41.2957841  76.9293427  53.8350397  41.3640053  75.4430389
  46.8546711  44.9884646  77.6143473  46.9083733  45.5575583  78.3821189
  45.9861493  45.1586531  77.2497510  38.3434630  36.7509633  69.3390858
  37.4132218  36.6894088  69.5560820  38.4392102  36.2285585  68.5427500
  38.2620179  33.2764445  71.9269100  38.5226997  34.1909779  71.8178260
  39.0837352  32.8088888  72.0765713  39.7345105  34.6902203  79.0967924
  40.4068158  34.4819565  78.4480573  38.9074891  34.4924289  78.6573157
  53.9834366  41.4306253  78.6143258  54.1770256  42.3352063  78.8602533
  53.8834984  40.9713672  79.4481843  45.6370677  31.3164144  81.1133585
  44.9898592  32.0154093  81.0198062  46.4071692  31.7500287  81.4809834
  49.0449475  41.5812996  84.1884139  48.8934981  41.3523547  83.2714222
  49.0354154  42.5383597  84.2015484  45.8134811  39.1544908  79.1730405
  46.7426871  39.3056068  78.9999372  45.3925841  39.2428929  78.3179052
  44.6123143  43.1795573  76.9428943  44.4734228  42.8114357  77.8154881
  43.8237739  43.6943212  76.7712900  40.1372602  37.9644806  79.8570362
  39.9992400  37.2325044  80.4581901  41.0477525  37.8753706  79.5754549
  42.7654902  37.6764765  79.3454041  43.4754521  37.0357957  79.3040660
  42.7224211  37.9277660  80.2680222  50.7541681  44.6132118  82.2660620
  50.6954227  43.9291338  81.5991204  51.1561200  45.3551108  81.8141246
  41.4783836  34.6629983  81.1649681  40.9421193  34.2120721  81.8171277
  40.8900545  34.7975892  80.4220145  40.8886095  34.1218634  63.7276144
  40.0115562  34.0007435  63.3638391  41.3643848  33.3304713  63.4755033
  50.7559088  42.5771702  80.4974600  49.8685867  42.2397624  80.6200999
  51.3257639  41.8454733  80.7343366  32.4088236  38.9095794  73.8217652
  33.0959275  38.5957524  73.2338667  32.2536364  39.8137159  73.5484903
  37.2122958  33.7985991  78.2502675  37.1281146  33.1911660  77.5153085
  36.3905664  34.2895009  78.2512172  47.3846672  32.2839554  73.6172870
  47.8815371  31.5309516  73.2973941  46.6133653  32.3203871  73.0516080
  55.2376429  37.9879920  75.2591162  55.2266305  38.8704635  74.8885095
  54.3693808  37.6351470  75.0645699  46.7458925  47.1359989  79.6194002
  47.4586898  47.7707453  79.5469903  46.2548954  47.2323855  78.8034004
  43.9681640  34.4256937  73.3444555  43.5979428  33.8727977  74.0325460
  44.4640733  33.8215071  72.7919555  51.8549004  36.8828561  71.7261328
  52.3209456  37.7156552  71.6521631  52.3056504  36.4173542  72.4306586
  41.7970839  44.8854432  80.4399573  42.4980298  45.5190915  80.5928967
  41.3265954  45.2269164  79.6795212  49.8265666  29.2509148  75.7652229
  48.9128746  29.4813374  75.9334436  50.2558768  29.3347592  76.6166262
  49.5972125  37.4399040  78.2652123  48.9443575  37.6874947  77.6104576
  49.9752505  36.6263178  77.9314600  45.6459698  38.1818851  84.7518160
  44.9700335  38.0812980  85.4220536  46.4687332  38.0258064  85.2154158
  37.3938557  44.4190787  77.3730676  37.9791994  43.6734475  77.5058580
  37.1963395  44.7294744  78.2567339  31.9856212  36.9896387  76.0935119
  32.0240311  36.4559978  76.8872237  31.4796504  36.4631593  75.4746096
  39.3646974  31.8360928  79.5897661  39.4288300  32.6975759  79.1775059
  39.3014094  31.2234929  78.8570020  38.8399247  33.9084060  83.2370695
  39.4671285  33.5261138  83.8508220  37.9827165  33.6898262  83.6026388
  49.2393355  44.3147036  84.8424431  49.7833259  44.9276994  84.3479386
  48.6580200  44.8726614  85.3591444  35.6164789  35.7160489  69.1689050
  35.9118230  34.8071168  69.1156104  34.7152825  35.6948229  68.8470052
  39.1459036  33.7916486  75.1516599  38.4245622  34.4052454  75.0124072
  39.9352292  34.3274251  75.0733245  49.5885776  45.2376774  77.6019009
  48.6416112  45.1182125  77.5297335  49.9368550  44.3499272  77.6845270
  41.9485350  31.1270913  81.4257250  42.4719752  31.3733209  82.1883560
  41.7297683  31.9590947  81.0060388  37.3452631  33.3974587  69.2928375
  37.0165337  32.5171966  69.1103481  37.6992002  33.3422256  70.1804764
  40.4594454  33.6847557  69.6603853  40.7990527  34.2133478  68.9382461
  40.9066574  34.0227963  70.4362419  43.1537895  32.0684608  79.1106921
  42.8134715  31.2692421  79.5127601  42.4476901  32.3686318  78.5383754
  43.8054367  29.1533920  77.5634244  44.6280436  28.6794398  77.4413134
  44.0492430  29.9324404  78.0632930  42.4462601  32.1822179  67.8597146
  43.1670964  32.5603431  67.3560863  41.8227905  32.9011055  67.9632124
  46.5893724  32.8867327  68.7955478  46.8057338  33.7691965  68.4944306
  46.1087791  32.4953541  68.0661120  41.3292945  35.8453041  75.3726223
  41.1837526  36.1593344  76.2650504  40.8518149  36.4637941  74.8197121
  43.1889328  32.8355589  75.4207112  43.1750897  31.9396682  75.0839410
  43.9061756  32.8426252  76.0545398  45.0415459  33.2692929  77.4660240
  44.7833237  34.1910000  77.4644570  44.5100499  32.8723363  78.1560704
  35.8038608  38.3858385  78.3113884  35.2592076  39.1618193  78.4434158
  36.6817957  38.7329190  78.1533005  42.5926224  31.7169969  70.6894682
  42.7142135  30.7886615  70.8885570  42.3028267  31.7308655  69.7772998
  45.4617415  29.4024879  73.8261402  45.4839111  29.4664213  72.8713382
  45.8785474  28.5629388  74.0201908  55.8401039  39.1380139  71.8640625
  56.2832185  38.3887464  71.4659748  54.9627549  39.1290275  71.4814357
  36.5904629  37.5128281  81.2044041  35.8486365  37.6610917  81.7908671
  36.2697374  37.7736547  80.3410790  44.5348292  47.0544260  81.0024431
  44.8435419  46.8093406  81.8747130  45.3323774  47.2590898  80.5143301
  35.2369848  43.3180037  74.1943369  34.4001756  42.8902211  74.0127370
  35.2093494  43.5112480  75.1314160  42.0767304  33.2301966  84.8984615
  42.1255459  34.1064089  84.5162385  42.6189818  32.6879359  84.3256258
  52.5622149  43.7743090  84.1785752  51.7717693  43.7567228  83.6390251
  52.3255504  44.3131383  84.9334789  52.6820024  40.6235556  81.4918481
  52.7318029  40.4585563  82.4334003  52.5733948  39.7562815  81.1016361
  49.9723787  36.6066484  82.8077787  50.8733650  36.4672949  82.5161785
  50.0471761  36.7720939  83.7475965  44.3066592  33.9833339  81.6530974
  43.4369902  34.2766905  81.3813562  44.5426073  34.5673784  82.3738237
  52.4325410  38.1665112  80.2040560  52.9079531  38.3592758  79.3959411
  51.5090975  38.2224298  79.9583944  47.0105626  30.2012956  79.1696394
  47.5287570  30.9373983  78.8442883  46.6560759  30.5076949  80.0043153
  38.5904564  35.0617637  67.2857800  37.8973809  35.1361992  66.6297836
  38.3456316  34.2977981  67.8079317  47.2618220  26.6213238  74.6897291
  47.5419974  25.9536427  75.3157717  48.0468827  26.8142334  74.1771954
  51.1327079  35.0430872  78.4368866  52.0844501  35.1428970  78.4581090
  50.9630529  34.2509141  78.9466950  49.1541458  32.1286455  78.6228267
  48.5591390  32.4091468  77.9274755  48.8691155  32.6180356  79.3945008
  53.6115156  38.2636992  77.5511165  53.5791476  37.3252993  77.7370849
  54.2215780  38.3421029  76.8176990  45.4498487  37.1333045  63.5938369
  46.3957592  37.0039253  63.6626787  45.0712732  36.3947707  64.0707798
  53.7609645  35.0548035  77.5969448  53.2448693  34.2706492  77.4099377
  54.6449593  34.7266752  77.7615968  51.4220372  28.7989051  73.5565261
  51.2245193  28.4904139  74.4408593  52.0320077  29.5250690  73.6863191
  59.4291706  39.3252999  76.6917202  60.1595095  39.0638287  77.2524905
  58.8198652  38.5881721  76.7319270  57.5107003  37.4660861  77.2891653
  56.7840167  37.3316826  76.6808145  57.0954290  37.7737690  78.0948371
  45.3337180  41.1850791  85.0539026  46.2540189  41.3629390  85.2479073
  45.2986763  40.2406836  84.9018726  43.6341404  35.0583021  63.5293255
  42.7272860  34.7616134  63.6055968  43.9117385  34.7612839  62.6627541
  34.5519345  36.3789385  73.9792301  34.2322129  35.5254693  73.6866675
  34.0052773  36.5937963  74.7350268  38.3299252  39.0951826  77.6961807
  38.5485262  40.0268933  77.7149841  38.7425026  38.7359800  78.4816611
  45.2503470  29.6019911  69.6837496  44.4404198  29.2566996  70.0592742
  45.9387887  29.2927455  70.2725107  47.1794018  28.6797958  71.3061792
  47.7325057  29.0993411  71.9651816  47.4164105  27.7533706  71.3484749
  43.2027118  34.6685031  87.0864556  43.1023844  35.6179388  87.0176648
  42.9848660  34.3403270  86.2140626  42.4040189  31.9169956  63.6705234
  43.2659353  32.2424855  63.9301051  42.5890533  31.1301452  63.1578300
  34.4207605  39.9992296  75.9485423  33.7271076  39.5846249  75.4355377
  35.1680596  40.0412833  75.3518841  50.5572825  30.7898483  70.8140457
  49.9771495  31.4483287  70.4318509  50.2908758  29.9675828  70.4027874
  49.0076392  30.1903541  73.0161777  49.5076170  30.3020075  72.2076096
  49.6512000  29.8864593  73.6562586  43.0658388  38.0982170  85.9029618
  42.5825469  38.8982530  86.1093507  43.1519327  38.1090115  84.9497062
  36.3344347  39.9310550  73.8251437  36.3115035  40.0298237  72.8733321
  36.6444984  40.7775701  74.1468604  38.9931725  41.9886705  77.9398052
  39.9474979  41.9570647  77.8727983  38.7944249  41.5277329  78.7548278
  39.5831107  40.5587821  80.5068850  40.4023996  41.0531900  80.5303687
  39.8567915  39.6419789  80.4786417  49.3397703  32.9498573  69.8696805
  48.4523559  33.2348224  69.6517000  49.7551693  32.7892337  69.0224082
  52.6912240  32.9745094  73.5851144  53.4672630  33.4641547  73.8575761
  51.9660374  33.4003148  74.0423014  55.1284798  33.6872714  74.6425085
  55.7229289  33.4468449  73.9318393  55.2011382  32.9679844  75.2698621
  49.3138727  38.4653109  70.0847095  49.2573929  38.9221661  69.2454728
  49.8667070  37.7043794  69.9069938  53.1243533  34.2542841  70.9097215
  52.8680467  33.8539477  71.7405422  52.4996401  34.9686635  70.7847354
  57.4355871  36.9938914  73.4168506  56.8755429  37.0632104  74.1900068
  56.8299374  36.8179899  72.6968002  34.8366022  34.8925955  81.2061047
  35.4824885  34.3824909  81.6948272  34.6283173  35.6294637  81.7804472
  47.3619414  41.9606802  86.7053187  48.2310573  42.1347455  86.3439822
  46.8826165  42.7801219  86.5828916  43.3569632  29.1565999  66.9584943
  43.3448302  30.1007839  67.1153214  44.2493054  28.9736145  66.6644404
  47.1721751  25.7508776  71.2130880  46.4054147  25.1967263  71.3587562
  47.5832456  25.8230645  72.0745031  39.1763513  32.0393572  85.3036061
  40.0394974  31.6830377  85.5139385  38.6028923  31.7007467  85.9911465
  51.7345013  45.4474289  86.2966032  51.3411959  44.8940487  86.9713677
  52.5511154  45.7584867  86.6872550  55.4300442  57.7853205  82.6356929
  55.9628779  57.0241493  82.4056237  54.9014523  57.4926856  83.3781083
  58.5970137  42.8913271  78.1650571  58.2534407  43.7814912  78.0889681
  58.9649100  42.7014928  77.3020156  60.3957803  42.1506830  73.2668308
  60.7016680  41.2904193  72.9794223  61.1210408  42.7424450  73.0667302
  64.8228120  56.7598171  78.6143258  65.0164010  57.6643981  78.8602533
  64.7228738  56.3005590  79.4481843  59.8843229  56.9104913  84.1884139
  59.7328735  56.6815465  83.2714222  59.8747908  57.8675515  84.2015484
  61.5952843  57.9063620  80.4974600  60.7079622  57.5689542  80.6200999
  62.1651394  57.1746651  80.7343366  52.6364593  60.2146350  80.4399573
  53.3374053  60.8482833  80.5928967  52.1659708  60.5561081  79.6795212
  56.4853452  53.5110768  84.7518160  55.8094089  53.4104898  85.4220536
  57.3081086  53.3549982  85.2154158  49.6793001  49.2375978  83.2370695
  50.3065040  48.8553055  83.8508220  48.8220920  49.0190180  83.6026388
  52.9161058  48.5593884  84.8984615  52.9649214  49.4356007  84.5162385
  53.4583572  48.0171277  84.3256258  63.4015904  59.1035007  84.1785752
  62.6111448  59.0859146  83.6390251  63.1649258  59.6423301  84.9334789
  63.5213779  55.9527474  81.4918481  63.5711784  55.7877481  82.4334003
  63.4127702  55.0854733  81.1016361  65.0231976  58.3724415  81.7360502
  64.7316784  58.7354396  82.5723963  64.4104107  57.6591423  81.5573834
  70.2685461  54.6544916  76.6917202  70.9988849  54.3930205  77.2524905
  69.6592406  53.9173638  76.7319270  56.1730934  56.5142709  85.0539026
  57.0933944  56.6921308  85.2479073  56.1380517  55.5698754  84.9018726
  54.0420872  49.9976949  87.0864556  53.9417599  50.9471306  87.0176648
  53.8242414  49.6695188  86.2140626  53.9052142  53.4274088  85.9029618
  53.4219224  54.2274448  86.1093507  53.9913081  53.4382033  84.9497062
  58.2013168  57.2898720  86.7053187  59.0704328  57.4639372  86.3439822
  57.7219920  58.1093137  86.5828916  50.0157267  47.3685490  85.3036061
  50.8788729  47.0122294  85.5139385  49.4422678  47.0299384  85.9911465
  68.1081725  74.4721218  67.3471342  67.4569704  75.0575299  66.9605356
  68.9026087  75.0027413  67.4066380  63.8133059  79.3392473  70.9146137
  63.7357089  80.2900299  70.9934618  63.2094703  78.9938346  71.5721064
  74.2370047  72.9590561  72.8394285  73.5521086  73.3389463  72.2891319
  74.3213897  73.5685888  73.5726233  71.4920979  70.6050520  79.4389629
  71.7037874  71.2482280  78.7624010  71.4450727  69.7712837  78.9711559
  72.6066807  73.4822476  77.6111986  73.4284251  73.0802663  77.3294668
  72.6029210  73.3790710  78.5628102  80.6972800  69.8261224  73.9596958
  79.9436508  69.2568622  73.8040962  80.8320341  69.7923889  74.9067592
  66.0871428  74.6974626  69.6351677  65.9517103  75.5426162  70.0636525
  66.6281241  74.8993904  68.8717611  69.4363892  58.2205188  78.1650571
  69.0928161  59.1106830  78.0889681  69.8042854  58.0306846  77.3020156
  74.3748449  70.9646154  68.6076179  73.5977891  70.6257314  68.1631341
  75.0539930  70.9698777  67.9331144  68.6867589  78.7708832  66.0707400
  68.0129287  79.0740529  66.6792358  69.0733410  79.5737913  65.7212857
  72.1907010  73.7730509  71.4425872  71.7369338  72.9321419  71.4991062
  71.5600977  74.4091908  71.7800652  70.6339950  75.6107006  72.3775690
  70.9262924  76.1712063  71.6588055  71.1438570  75.9035567  73.1328849
  71.2351557  57.4798747  73.2668308  71.5410434  56.6196111  72.9794223
  71.9604162  58.0716368  73.0667302  69.0439209  66.8571425  80.3649772
  69.3988596  67.0842898  81.2244238  69.6911340  67.1889802  79.7427027
  74.7736946  69.9789861  71.0699101  74.6354844  70.1691457  70.1420290
  74.4173164  70.7409243  71.5267152  74.8006325  72.0466388  76.0810373
  75.2342832  71.9541677  76.9293427  75.5137906  72.0223888  75.4430389
  75.6621875  72.0890088  78.6143258  75.8557765  72.9935899  78.8602533
  75.5622493  71.6297507  79.4481843  66.8858804  78.9388505  68.2854479
  67.0610559  78.4676548  69.1000102  66.1991592  79.5654271  68.5135740
  65.7537530  77.1328760  70.9738665  64.9705052  77.6750440  71.0676889
  66.4530276  77.6502740  71.3732906  76.9163938  68.6463755  75.2591162
  76.9053814  69.5288470  74.8885095  76.0481317  68.2935306  75.0645699
  73.5336513  67.5412396  71.7261328  73.9996965  68.3740387  71.6521631
  73.9844013  67.0757377  72.4306586  71.6012744  73.8856217  68.7247480
  71.8772588  73.7712812  69.6341354  70.7317242  73.4873702  68.6859653
  71.2759634  68.0982875  78.2652123  70.6231084  68.3458782  77.6104576
  71.6540014  67.2847013  77.9314600  68.2366808  78.1342568  72.3680294
  68.4189202  77.3164224  72.8308046  69.0599794  78.3510260  71.9305183
  68.5708973  77.0610753  69.6295342  69.0996740  76.5503208  69.0165504
  68.8337193  76.7453283  70.4940875  61.9264721  78.1125870  72.3893118
  61.2575096  78.5971997  71.9057158  61.7877591  78.3595090  73.3036496
  71.8753841  76.5141884  74.8888234  72.8000388  76.3084745  74.7512685
  71.7069144  76.2658285  75.7977575  71.6649157  77.0327551  70.2450325
  71.8386034  76.4673974  69.4924177  72.1578048  77.8328446  70.0629815
  72.6524329  76.3494316  67.3447223  73.3475234  76.9701008  67.5634538
  72.9947479  75.4989667  67.6199601  74.5515752  73.7994021  68.8734554
  75.0767076  74.1381294  68.1483874  74.4638105  72.8641037  68.6897689
  77.0621413  71.2669213  74.2563072  77.8968304  71.7059017  74.4200633
  77.1980541  70.7907866  73.4371318  74.1112919  68.8248947  80.2040560
  74.5867040  69.0176594  79.3959411  73.1878484  68.8808133  79.9583944
  68.6893135  60.8596791  79.1696394  69.2075079  61.5957818  78.8442883
  68.3348268  61.1660784  80.0043153  66.7439198  76.4556067  66.2522317
  66.1713165  77.0746255  65.7992789  67.3171991  77.0055429  66.7862239
  70.8328967  62.7870291  78.6228267  70.2378899  63.0675303  77.9274755
  70.5478664  63.2764192  79.3945008  69.9636457  76.7393218  67.3830899
  70.8967131  76.6738779  67.5863775  69.8759670  77.5749484  66.9245432
  72.5924474  76.0559088  64.3434847  72.5138106  75.7218952  65.2370605
  73.4134141  76.5480856  64.3426319  75.2902665  68.9220827  77.5511165
  75.2578985  67.9836828  77.7370849  75.9003289  69.0004864  76.8176990
  81.1079215  69.9836834  76.6917202  81.8382604  69.7222122  77.2524905
  80.4986161  69.2465556  76.7319270  79.1894512  68.1244697  77.2891653
  78.4627676  67.9900662  76.6808145  78.7741799  68.4321525  78.0948371
  79.1143380  67.6522750  73.4168506  78.5542938  67.7215939  74.1900068
  78.5086883  67.4763734  72.6968002  72.0715123  73.8109613  66.0143285
  72.9060727  73.3790811  65.8320760  71.9099466  73.6391626  66.9420180
  80.6999398  84.3279264  76.1098462  81.3377808  84.2086011  75.4061802
  80.5820241  85.2760108  76.1686414  77.5089105  84.2806692  76.0459987
  77.1707616  84.1647756  75.1580521  78.3778873  83.8797857  76.0260993
  73.3675920  86.1342168  72.0356877  72.8040786  86.0432105  71.2673165
  73.2528315  85.3142073  72.5159370  77.9908888  85.4341543  82.0046192
  77.9797528  85.0394342  81.1326696  78.1529527  84.7007616  82.5979963
  70.9140352  87.6293360  74.8741098  71.7061644  87.2884184  74.4587397
  71.1537002  87.7388335  75.7943251  78.9475479  89.8013136  67.3471342
  78.2963459  90.3867216  66.9605356  79.7419842  90.3319331  67.4066380
  72.8731106  86.8902273  67.7458477  73.6461982  86.3431260  67.6071353
  73.2256505  87.7546522  67.9572938  74.7116149  88.2178655  80.9525376
  74.4206015  89.1224286  80.8372042  75.3473133  88.2595183  81.6669446
  75.6372356  85.5955504  77.5426736  76.2335928  85.3711526  76.8283699
  75.6947327  84.8540249  78.1452184  75.2097384  83.0494939  65.3776927
  75.4622905  82.5276460  64.6160390  74.2721943  82.8861085  65.4803610
  80.2540667  82.0530717  73.1851670  81.0403756  81.6350141  72.8342087
  80.5179371  82.9576810  73.3533318  80.4250744  87.4903568  67.8840327
  79.7896577  87.5638194  68.5961231  80.0948151  88.0797167  67.2059406
  85.6549094  81.9905951  74.0884648  86.3874266  81.4205168  74.3222478
  84.8988450  81.6027551  74.5291154  74.9293673  84.9523045  67.5801302
  74.8129931  84.2767948  68.2482386  75.0395933  84.4655419  66.7633455
  77.2725214  84.4133192  71.2847991  76.9083421  83.8863813  71.9960912
  78.1292330  84.0231661  71.1114476  83.1774514  75.7027525  78.5479257
  82.8457839  76.5722936  78.3240472  82.5820128  75.3863809  79.2273287
  76.9130701  79.4423092  66.2809339  77.0805103  80.3103328  66.6479810
  76.7227870  79.6050374  65.3570629  79.6706034  87.9040071  77.9475170
  79.3706757  88.8065110  77.8390977  79.3257093  87.6372254  78.7996323
  73.1218515  84.3553868  73.9811874  72.1969012  84.2230082  74.1889566
  73.3702929  85.1348087  74.4781817  83.0703178  80.4222611  75.6272607
  82.1620055  80.3538019  75.3331368  83.0190773  80.8994556  76.4554433
  76.8919922  81.8980749  67.2656006  76.7719547  82.3437800  68.1041486
  76.1972510  82.2466067  66.7069544  70.4827326  83.9987141  74.8155663
  70.6119708  84.2521620  75.7295075  69.8024778  84.5914849  74.4960318
  74.6526814  94.6684391  70.9146137  74.5750843  95.6192216  70.9934618
  74.0488457  94.3230264  71.5721064  77.1444043  81.8412257  83.5707504
  76.3677378  82.4006177  83.5610369  77.7834607  82.3269040  84.0922374
  84.9364824  78.6239049  77.4050481  84.2939204  78.9171583  76.7590276
  84.4319753  78.5091970  78.2103678  82.5904988  82.3702223  68.0936340
  83.5022844  82.6029609  67.9184038  82.0814635  82.9539267  67.5311419
  75.3990416  84.6497710  83.1325471  76.1405100  85.1882754  82.8560295
  74.6927401  85.2763999  83.2897023  80.8745755  86.7926850  81.7297633
  81.2829111  86.3509261  80.9852265  80.1523017  86.2179478  81.9831826
  77.2276825  81.7299457  79.1031190  78.0738021  82.1538871  79.2465839
  77.1675463  81.0733081  79.7969753  81.1974570  87.3528041  75.4849922
  80.5683433  87.5173755  74.7825990  80.8100232  87.7669651  76.2560886
  85.0763802  88.2882479  72.8394285  84.3914840  88.6681380  72.2891319
  85.1607651  88.8977806  73.5726233  80.3776271  79.3903826  80.7612363
  80.1337203  80.1445886  80.2246639  80.6536201  79.7689173  81.5959610
  82.3314734  85.9342438  79.4389629  82.5431629  86.5774198  78.7624010
  82.2844482  85.1004754  78.9711559  79.9340963  78.5460259  76.3426201
  79.0725442  78.8441512  76.6342939  79.9603397  78.7630657  75.4107234
  76.7502532  87.0902449  72.7500007  77.2140877  87.3690152  71.9604629
  76.4859330  86.1885894  72.5673097  73.6426613  86.6373931  75.6879770
  74.2127970  87.0661199  75.0497255  74.2334725  86.3556515  76.3863956
  75.6871418  83.2125601  69.5589572  76.3895461  83.6646645  70.0263498
  75.3552047  82.5709420  70.1869465  69.4296752  81.4709154  74.8606705
  68.6395806  81.7266683  74.3846816  69.9207999  82.2857492  74.9658746
  83.4460562  88.8114393  77.6111986  84.2678005  88.4094581  77.3294668
  83.4422964  88.7082627  78.5628102  71.3811497  81.8353733  71.8190182
  70.5842661  81.9472428  72.3373678  71.1537090  82.1740386  70.9531073
  77.2117165  88.3598437  79.7672697  77.2761597  88.8218844  80.6030869
  76.5028089  87.7295802  79.8955007  91.5366555  85.1553142  73.9596958
  90.7830263  84.5860540  73.8040962  91.6714096  85.1215806  74.9067592
  76.9265183  90.0266544  69.6351677  76.7910857  90.8718080  70.0636525
  77.4674995  90.2285822  68.8717611  70.3794580  87.5441982  70.2079602
  70.8919101  88.3385232  70.3585167  71.0317293  86.8468273  70.1413204
  72.1889465  90.6607738  72.2902355  72.3656093  91.5825703  72.1023339
  72.9846298  90.3466158  72.7196735  76.3300483  77.5216003  83.8886289
  77.0710197  78.1223156  83.8090751  76.5618406  76.7793641  83.3304331
  78.5533659  90.6490111  83.7652019  78.1097513  89.8626489  83.4472924
  79.2150873  90.8369261  83.0995910  73.3120780  92.1785912  78.2912698
  73.8628205  92.0502976  77.5189692  72.4732256  92.4780801  77.9407591
  80.6514897  90.9292911  81.7933420  80.6333372  91.7501792  81.3013690
  81.5734817  90.8046986  82.0183562  77.1087951  88.4437040  82.6356929
  77.6416288  87.6825328  82.4056237  76.5802032  88.1510692  83.3781083
  80.2757646  73.5497106  78.1650571  79.9321916  74.4398748  78.0889681
  80.6436609  73.3598764  77.3020156  68.3443497  85.8730636  70.9839173
  69.1818719  86.2827645  70.7672880  68.5221765  84.9330079  70.9539367
  80.2407929  83.5405717  66.6723006  79.7254552  84.3110322  66.9111393
  79.9685237  82.8670853  67.2956067  77.8255040  78.3855418  71.7308244
  76.9696636  77.9962268  71.5513883  78.2381992  78.4647379  70.8708030
  79.3554187  75.9201761  76.1299804  78.8518982  75.8831896  75.3167609
  79.6484793  76.8294504  76.1896460  75.5997072  76.0040491  75.1365986
  76.4650069  75.8083300  74.7771875  75.6674581  75.7750843  76.0635342
  85.2142203  86.2938072  68.6076179  84.4371646  85.9549231  68.1631341
  85.8933684  86.2990695  67.9331144  80.0294232  81.4132809  68.4982787
  79.7244368  81.7278958  69.3492930  80.9824674  81.4914229  68.5410120
  78.4740664  87.5723033  70.1475741  77.9462026  86.8375792  69.8348978
  77.9728167  88.3497709  69.9015709  83.4533510  85.7672053  75.2642787
  82.7957184  86.4571314  75.3522916  84.2573909  86.1568485  75.6076774
  73.2059392  78.2342699  72.5082352  73.7803143  78.0117880  71.7755545
  73.7930374  78.3031393  73.2610954  82.2638969  84.1216426  73.3146729
  82.7770851  84.7546418  73.8168439  82.9140193  83.5217621  72.9490089
  73.5328979  80.2647160  66.5278238  72.6966291  80.6021846  66.8487512
  73.3933748  80.1296140  65.5905375  75.5082059  75.1083948  71.2357422
  74.8546472  74.7932965  70.6114037  75.4662533  74.4859688  71.9617245
  76.6193264  85.3903243  63.1510714  75.7120326  85.1592496  63.3501863
  77.1164296  84.5940862  63.3384695  79.5261343  94.1000750  66.0707400
  78.8523042  94.4032447  66.6792358  79.9127165  94.9029830  65.7212857
  78.7419800  81.5965881  75.5605069  77.8242361  81.8180828  75.4026757
  79.1579943  81.6712192  74.7016777  79.5254847  82.9957297  70.6907750
  80.2726666  83.5078694  70.3814872  79.7946437  82.6741350  71.5512143
  77.7981498  85.4915838  67.6734704  76.8892717  85.2074870  67.7707174
  77.8276581  85.9114916  66.8138011  83.0300765  89.1022427  71.4425872
  82.5763092  88.2613337  71.4991062  82.3994732  89.7383826  71.7800652
  81.9733685  80.0314413  72.6726539  81.2356441  79.5191799  73.0036782
  82.2260458  79.5914795  71.8609816  81.4733704  90.9398924  72.3775690
  81.7656679  91.5003981  71.6588055  81.9832325  91.2327485  73.1328849
  82.0745312  72.8090665  73.2668308  82.3804189  71.9488029  72.9794223
  82.7997917  73.4008285  73.0667302  68.3669668  83.2121352  71.6549906
  68.1694068  82.6190712  70.9300973  67.8116332  82.9073562  72.3725845
  76.3466392  83.1044458  73.7744499  76.4015001  82.1518295  73.6986976
  75.5357594  83.2603897  74.2585798  77.4957585  87.0324581  65.0122783
  77.0577015  86.3160440  64.5528420  78.2368026  87.2600696  64.4507874
  74.2858752  81.7221518  71.5334878  73.4726617  82.0215689  71.9400070
  74.7817746  81.3277207  72.2509360  76.4367329  91.7179275  73.4669143
  76.3943508  91.9440121  72.5377675  77.3530028  91.4842649  73.6154944
  79.8832963  82.1863342  80.3649772  80.2382351  82.4134816  81.2244238
  80.5305094  82.5181719  79.7427027  85.6130700  85.3081778  71.0699101
  85.4748599  85.4983374  70.1420290  85.2566919  86.0701161  71.5267152
  73.7772826  79.2939874  77.1496113  74.4172206  79.1528633  76.4519076
  72.9450357  79.0074387  76.7734715  85.6400080  87.3758305  76.0810373
  86.0736586  87.2833594  76.9293427  86.3531660  87.3515806  75.4430389
  74.5533130  88.5942304  73.2631106  75.3473729  88.0992624  73.0613681
  73.8424823  88.0660167  72.8998811  79.3727975  90.9760399  77.6143473
  79.4264997  91.5451336  78.3821189  78.5042756  91.1462284  77.2497510
  70.8615894  82.7385386  69.3390858  69.9313482  82.6769841  69.5560820
  70.9573366  82.2161338  68.5427500  70.7801443  79.2640198  71.9269100
  71.0408260  80.1785532  71.8178260  71.6018615  78.7964641  72.0765713
  86.5015629  87.4182006  78.6143258  86.6951519  88.3227817  78.8602533
  86.4016247  86.9589425  79.4481843  78.1551940  77.3039897  81.1133585
  77.5079855  78.0029846  81.0198062  78.9252955  77.7376041  81.4809834
  81.5630738  87.5688749  84.1884139  81.4116244  87.3399300  83.2714222
  81.5535417  88.5259350  84.2015484  78.3316074  85.1420661  79.1730405
  79.2608134  85.2931821  78.9999372  77.9107104  85.2304682  78.3179052
  77.1304406  89.1671326  76.9428943  76.9915492  88.7990110  77.8154881
  76.3419002  89.6818965  76.7712900  77.7252558  94.2680422  68.2854479
  77.9004314  93.7968466  69.1000102  77.0385346  94.8946189  68.5135740
  78.6809621  88.5452929  74.3317780  78.3459454  88.5053699  75.2275430
  78.1813567  87.8797645  73.8588191  81.6168813  85.8908963  64.6054840
  80.9997984  85.1655791  64.5087893  81.1485301  86.6518323  64.2621914
  75.2836166  83.6640518  79.3454041  75.9935784  83.0233710  79.3040660
  75.2405474  83.9153413  80.2680222  83.2722945  90.6007871  82.2660620
  83.2135491  89.9167091  81.5991204  83.6742463  91.3426861  81.8141246
  72.2913643  97.4169785  75.0594339  72.5310242  98.0488309  75.7373358
  71.4482840  97.0657825  75.3459699  73.4067359  80.1094387  63.7276144
  72.5296825  79.9883188  63.3638391  73.8825112  79.3180466  63.4755033
  83.2740352  88.5647455  80.4974600  82.3867131  88.2273377  80.6200999
  83.8438903  87.8330486  80.7343366  64.9269499  84.8971547  73.8217652
  65.6140539  84.5833277  73.2338667  64.7717628  85.8012912  73.5484903
  76.8041505  93.2248908  77.4635843  76.7311677  94.0303879  77.9755148
  76.3618898  93.4240873  76.6383865  76.5931285  92.4620678  70.9738665
  75.8098807  93.0042358  71.0676889  77.2924030  92.9794657  71.3732906
  79.9027935  78.2715307  73.6172870  80.3996635  77.5185269  73.2973941
  79.1314917  78.3079624  73.0516080  87.7557692  83.9755673  75.2591162
  87.7447569  84.8580388  74.8885095  86.8875072  83.6227223  75.0645699
  79.2640189  93.1235742  79.6194002  79.9768161  93.7583206  79.5469903
  78.7730217  93.2199608  78.8034004  80.9857716  87.0286994  71.1911294
  80.0513994  87.1488457  71.0215998  81.1634384  86.1259461  70.9271304
  76.4862904  80.4132690  73.3444555  76.1160691  79.8603730  74.0325460
  76.9821996  79.8090824  72.7919555  84.3730267  82.8704314  71.7261328
  84.8390719  83.7032305  71.6521631  84.8237768  82.4049295  72.4306586
  74.3152102  90.8730185  80.4399573  75.0161562  91.5066668  80.5928967
  73.8447217  91.2144917  79.6795212  82.4406498  89.2148135  68.7247480
  82.7166342  89.1004729  69.6341354  81.5710997  88.8165620  68.6859653
  82.3446930  75.2384901  75.7652229  81.4310010  75.4689127  75.9334436
  82.7740031  75.3223345  76.6166262  82.1153388  83.4274793  78.2652123
  81.4624839  83.6750700  77.6104576  82.4933768  82.6138931  77.9314600
  79.0760562  93.4634486  72.3680294  79.2582957  92.6456142  72.8308046
  79.8993548  93.6802178  71.9305183  79.4102728  92.3902671  69.6295342
  79.9390494  91.8795125  69.0165504  79.6730947  92.0745201  70.4940875
  78.1640961  84.1694604  84.7518160  77.4881598  84.0688733  85.4220536
  78.9868595  84.0133817  85.2154158  69.9119820  90.4066540  77.3730676
  70.4973257  89.6610228  77.5058580  69.7144659  90.7170497  78.2567339
  72.7658476  93.4417788  72.3893118  72.0968851  93.9263915  71.9057158
  72.6271345  93.6887008  73.3036496  76.9063744  95.4761531  78.9875776
  77.4582052  95.6393153  79.7524862  77.2469938  96.0665969  78.3155801
  81.7574619  90.3022789  84.8424431  82.3014523  90.9152747  84.3479386
  81.1761463  90.8602367  85.3591444  68.1346053  81.7036242  69.1689050
  68.4299494  80.7946921  69.1156104  67.2334088  81.6823982  68.8470052
  80.0432131  93.4243507  75.9739458  79.9183271  92.6233246  75.4650404
  80.7011223  93.9189700  75.4853428  71.6640300  79.7792239  75.1516599
  70.9426885  80.3928207  75.0124072  72.4533555  80.3150004  75.0733245
  82.1067040  91.2252527  77.6019009  81.1597375  91.1057878  77.5297335
  82.4549813  90.3375025  77.6845270  74.4666613  77.1146666  81.4257250
  74.9901015  77.3608962  82.1883560  74.2478947  77.9466700  81.0060388
  69.8633894  79.3850340  69.2928375  69.5346600  78.5047719  69.1103481
  70.2173265  79.3298009  70.1804764  79.1113473  91.0205243  73.8023361
  78.9638436  90.0921950  73.9830931  79.9366967  91.0425334  73.3180436
  72.9775717  79.6723310  69.6603853  73.3171790  80.2009231  68.9382461
  73.4247838  80.0103716  70.4362419  82.7147595  91.8433802  74.8888234
  83.6394142  91.6376663  74.7512685  82.5462898  91.5950203  75.7977575
  75.6719158  78.0560361  79.1106921  75.3315979  77.2568174  79.5127601
  74.9658165  78.3562072  78.5383754  76.3235630  75.1409673  77.5634244
  77.1461699  74.6670151  77.4413134  76.5673694  75.9200157  78.0632930
  74.9643865  78.1697932  67.8597146  75.6852227  78.5479184  67.3560863
  74.3409169  78.8886808  67.9632124  79.1074987  78.8743081  68.7955478
  79.3238602  79.7567718  68.4944306  78.6269055  78.4829294  68.0661120
  73.8474209  81.8328794  75.3726223  73.7018790  82.1469097  76.2650504
  73.3699413  82.4513694  74.8197121  75.7070592  78.8231342  75.4207112
  75.6932161  77.9272435  75.0839410  76.4243020  78.8302005  76.0545398
  77.5596722  79.2568682  77.4660240  77.3014500  80.1785753  77.4644570
  77.0281763  78.8599116  78.1560704  82.5042911  92.3619469  70.2450325
  82.6779789  91.7965892  69.4924177  82.9971802  93.1620364  70.0629815
  75.1107488  77.7045722  70.6894682  75.2323399  76.7762368  70.8885570
  74.8209530  77.7184408  69.7772998  77.9798678  75.3900632  73.8261402
  78.0020375  75.4539966  72.8713382  78.3966737  74.5505141  74.0201908
  88.3582302  85.1255892  71.8640625  88.8013448  84.3763217  71.4659748
  87.4808813  85.1166028  71.4814357  83.4918084  91.6786233  67.3447223
  84.1868988  92.2992926  67.5634538  83.8341234  90.8281585  67.6199601
  85.3909507  89.1285939  68.8734554  85.9160831  89.4673212  68.1483874
  85.3031859  88.1932954  68.6897689  77.0529556  93.0420013  81.0024431
  77.3616682  92.7969159  81.8747130  77.8505038  93.2466651  80.5143301
  77.0750168  95.1957922  73.2329807  76.6355158  94.7034301  73.9262664
  77.8258285  94.6530890  72.9921882  69.5542507  91.3869463  73.2354435
  70.3800526  91.0873235  72.8553079  69.2036559  90.6177086  73.6844224
  74.5224040  90.7395931  75.3052109  73.9004049  90.0766636  75.0054337
  75.1928907  90.7657063  74.6225757  67.7551112  89.3055790  74.1943369
  66.9183020  88.8777964  74.0127370  67.7274757  89.4988233  75.1314160
  85.0803413  89.7618843  84.1785752  84.2898957  89.7442981  83.6390251
  84.8436767  90.3007136  84.9334789  85.2001288  86.6111309  81.4918481
  85.2499293  86.4461316  82.4334003  85.0915211  85.7438568  81.1016361
  74.0837547  89.2899855  68.7810569  74.2325667  89.9735319  68.1277242
  74.8903990  89.2704945  69.2960025  82.4905050  82.5942237  82.8077787
  83.3914913  82.4548702  82.5161785  82.5653025  82.7596692  83.7475965
  76.8247856  79.9709092  81.6530974  75.9551165  80.2642658  81.3813562
  77.0607336  80.5549537  82.3738237  86.7019485  89.0308251  81.7360502
  86.4104293  89.3938231  82.5723963  86.0891616  88.3175259  81.5573834
  87.9015167  86.5961130  74.2563072  88.7362058  87.0350934  74.4200633
  88.0374296  86.1199784  73.4371318  84.9506673  84.1540865  80.2040560
  85.4260795  84.3468511  79.3959411  84.0272238  84.2100051  79.9583944
  71.8390180  85.3165032  69.7871638  71.5936222  84.4127362  69.9851848
  72.0086094  85.3182183  68.8451116  79.5286890  76.1888709  79.1696394
  80.0468833  76.9249736  78.8442883  79.1742022  76.4952702  80.0043153
  71.1085827  81.0493390  67.2857800  70.4155072  81.1237745  66.6297836
  70.8637579  80.2853734  67.8079317  79.7799484  72.6088991  74.6897291
  80.0601237  71.9412180  75.3157717  80.5650091  72.8018087  74.1771954
  77.5832952  91.7847985  66.2522317  77.0106919  92.4038172  65.7992789
  78.1565746  92.3347347  66.7862239  83.6508342  81.0306625  78.4368866
  84.6025765  81.1304723  78.4581090  83.4811792  80.2384894  78.9466950
  81.6722721  78.1162208  78.6228267  81.0772654  78.3967221  77.9274755
  81.3872418  78.6056109  79.3945008  80.8030212  92.0685135  67.3830899
  81.7360885  92.0030697  67.5863775  80.7153425  92.9041402  66.9245432
  83.4318229  91.3851006  64.3434847  83.3531860  91.0510869  65.2370605
  84.2527895  91.8772774  64.3426319  86.1296420  84.2512745  77.5511165
  86.0972740  83.3128746  77.7370849  86.7397043  84.3296782  76.8176990
  77.9679751  83.1208798  63.5938369  78.9138855  82.9915006  63.6626787
  77.5893996  82.3823460  64.0707798  86.2790908  81.0423788  77.5969448
  85.7629957  80.2582245  77.4099377  87.1630857  80.7142505  77.7615968
  83.9401635  74.7864804  73.5565261  83.7426456  74.4779892  74.4408593
  84.5501341  75.5126443  73.6863191  91.9472970  85.3128752  76.6917202
  92.6776358  85.0514040  77.2524905  91.3379915  84.5757474  76.7319270
  90.0288267  83.4536614  77.2891653  89.3021430  83.3192579  76.6808145
  89.6135554  83.7613443  78.0948371  77.8518443  87.1726544  85.0539026
  78.7721453  87.3505143  85.2479073  77.8168026  86.2282589  84.9018726
  76.1522668  81.0458774  63.5293255  75.2454123  80.7491887  63.6055968
  76.4298649  80.7488592  62.6627541  70.8480516  85.0827579  77.6961807
  71.0666526  86.0144686  77.7149841  71.2606290  84.7235553  78.4816611
  77.7684734  75.5895664  69.6837496  76.9585462  75.2442749  70.0592742
  78.4569150  75.2803208  70.2725107  79.6975282  74.6673711  71.3061792
  80.2506320  75.0869164  71.9651816  79.9345368  73.7409459  71.3484749
  75.7208381  80.6560784  87.0864556  75.6205108  81.6055141  87.0176648
  75.5029923  80.3279023  86.2140626  74.9221452  77.9045709  63.6705234
  75.7840616  78.2300608  63.9301051  75.1071797  77.1177205  63.1578300
  66.9388868  85.9868049  75.9485423  66.2452340  85.5722002  75.4355377
  67.6861859  86.0288586  75.3518841  83.0754089  76.7774236  70.8140457
  82.4952758  77.4359040  70.4318509  82.8090022  75.9551581  70.4027874
  81.5257655  76.1779294  73.0161777  82.0257434  76.2895828  72.2076096
  82.1693263  75.8740347  73.6562586  75.5839651  84.0857923  85.9029618
  75.1006733  84.8858283  86.1093507  75.6700590  84.0965868  84.9497062
  68.8525611  85.9186303  73.8251437  68.8296299  86.0173990  72.8733321
  69.1626247  86.7651454  74.1468604  71.5112989  87.9762458  77.9398052
  72.4656242  87.9446400  77.8727983  71.3125512  87.5153082  78.7548278
  72.1012371  86.5463574  80.5068850  72.9205260  87.0407653  80.5303687
  72.3749178  85.6295542  80.4786417  81.8578967  78.9374326  69.8696805
  80.9704822  79.2223977  69.6517000  82.2732956  78.7768090  69.0224082
  85.2093503  78.9620847  73.5851144  85.9853893  79.4517300  73.8575761
  84.4841637  79.3878902  74.0423014  87.6466062  79.6748467  74.6425085
  88.2410553  79.4344202  73.9318393  87.7192645  78.9555597  75.2698621
  69.8663217  93.5182077  74.9568250  69.7317685  92.7582478  74.3906248
  69.4495280  94.2422977  74.4897039  81.0022180  88.7019001  63.9644825
  81.7058031  88.9069004  64.5802481  80.2784829  89.2695763  64.2293909
  81.8319991  84.4528862  70.0847095  81.7755192  84.9097414  69.2454728
  82.3848333  83.6919547  69.9069938  85.6424797  80.2418594  70.9097215
  85.3861731  79.8415230  71.7405422  85.0177665  80.9562388  70.7847354
  89.9537134  82.9814667  73.4168506  89.3936692  83.0507857  74.1900068
  89.3480638  82.8055652  72.6968002  73.0232343  94.4151395  75.1686692
  72.9064727  95.3596827  75.0665383  72.2024790  94.1124956  75.5572492
  82.9108878  89.1401530  66.0143285  83.7454482  88.7082729  65.8320760
  82.7493221  88.9683544  66.9420180  82.5654770  85.6433644  67.3799624
  82.5103574  85.4777915  66.4388068  81.9400825  86.3509676  67.5361814
  79.8800677  87.9482555  86.7053187  80.7491837  88.1223208  86.3439822
  79.4007429  88.7676972  86.5828916  75.8750895  75.1441753  66.9584943
  75.8629565  76.0883592  67.1153214  76.7674317  74.9611898  66.6644404
  74.0486857  95.0679656  78.3842621  74.9514104  95.1003267  78.7009116
  73.8224227  94.1380107  78.3988957  75.8040459  93.8210643  75.0452699
  74.8536090  93.8212505  74.9317072  76.1072946  93.0743378  74.5288734
  91.5393153  99.6571181  76.1098462  92.1771563  99.5377929  75.4061802
  91.4213996 100.6052025  76.1686414  88.3482859  99.6098609  76.0459987
  88.0101371  99.4939674  75.1580521  89.2172627  99.2089775  76.0260993
  84.2069675 101.4634086  72.0356877  83.6434540 101.3724023  71.2673165
  84.0922070 100.6433990  72.5159370  88.8302642 100.7633461  82.0046192
  88.8191283 100.3686259  81.1326696  88.9923282 100.0299534  82.5979963
  81.7534107 102.9585277  74.8741098  82.5455399 102.6176102  74.4587397
  81.9930757 103.0680252  75.7943251  89.7869234 105.1305054  67.3471342
  89.1357213 105.7159134  66.9605356  90.5813596 105.6611248  67.4066380
  83.7124861 102.2194191  67.7458477  84.4855737 101.6723178  67.6071353
  84.0650260 103.0838440  67.9572938  85.5509903 103.5470573  80.9525376
  85.2599769 104.4516204  80.8372042  86.1866888 103.5887101  81.6669446
  86.4766110 100.9247421  77.5426736  87.0729682 100.7003444  76.8283699
  86.5341082 100.1832167  78.1452184  86.0491139  98.3786857  65.3776927
  86.3016659  97.8568378  64.6160390  85.1115698  98.2153002  65.4803610
  91.0934421  97.3822635  73.1851670  91.8797511  96.9642058  72.8342087
  91.3573126  98.2868727  73.3533318  91.2644499 102.8195485  67.8840327
  90.6290332 102.8930112  68.5961231  90.9341905 103.4089084  67.2059406
  96.4942849  97.3197868  74.0884648  97.2268020  96.7497085  74.3222478
  95.7382204  96.9319469  74.5291154  85.7687427 100.2814963  67.5801302
  85.6523685  99.6059866  68.2482386  85.8789687  99.7947337  66.7633455
  88.1118968  99.7425110  71.2847991  87.7477175  99.2155731  71.9960912
  88.9686084  99.3523579  71.1114476  94.0168269  91.0319442  78.5479257
  93.6851594  91.9014853  78.3240472  93.4213882  90.7155726  79.2273287
  87.7524455  94.7715010  66.2809339  87.9198858  95.6395246  66.6479810
  87.5621624  94.9342291  65.3570629  90.5099788 103.2331988  77.9475170
  90.2100511 104.1357027  77.8390977  90.1650848 102.9664172  78.7996323
  83.9612270  99.6845785  73.9811874  83.0362766  99.5521999  74.1889566
  84.2096683 100.4640005  74.4781817  93.9096932  95.7514529  75.6272607
  93.0013810  95.6829937  75.3331368  93.8584528  96.2286474  76.4554433
  87.7313676  97.2272667  67.2656006  87.6113301  97.6729718  68.1041486
  87.0366264  97.5757985  66.7069544  81.3221081  99.3279059  74.8155663
  81.4513462  99.5813538  75.7295075  80.6418532  99.9206767  74.4960318
  85.4920568 109.9976309  70.9146137  85.4144598 110.9484134  70.9934618
  84.8882212 109.6522181  71.5721064  87.9837798  97.1704174  83.5707504
  87.2071132  97.7298094  83.5610369  88.6228361  97.6560957  84.0922374
  95.7758579  93.9530967  77.4050481  95.1332959  94.2463500  76.7590276
  95.2713507  93.8383887  78.2103678  93.4298742  97.6994140  68.0936340
  94.3416598  97.9321527  67.9184038  92.9208389  98.2831184  67.5311419
  86.2384170  99.9789628  83.1325471  86.9798855 100.5174672  82.8560295
  85.5321156 100.6055916  83.2897023  91.7139510 102.1218768  81.7297633
  92.1222866 101.6801179  80.9852265  90.9916771 101.5471396  81.9831826
  88.0670580  97.0591375  79.1031190  88.9131775  97.4830788  79.2465839
  88.0069218  96.4024999  79.7969753  92.0368325 102.6819959  75.4849922
  91.4077187 102.8465673  74.7825990  91.6493987 103.0961568  76.2560886
  95.9157556 103.6174397  72.8394285  95.2308595 103.9973298  72.2891319
  96.0001406 104.2269723  73.5726233  91.2170025  94.7195743  80.7612363
  90.9730957  95.4737804  80.2246639  91.4929956  95.0981091  81.5959610
  93.1708488 101.2634356  79.4389629  93.3825383 101.9066115  78.7624010
  93.1238236 100.4296672  78.9711559  90.7734717  93.8752176  76.3426201
  89.9119196  94.1733430  76.6342939  90.7997152  94.0922575  75.4107234
  87.5896286 102.4194367  72.7500007  88.0534632 102.6982070  71.9604629
  87.3253085 101.5177811  72.5673097  84.4820368 101.9665848  75.6879770
  85.0521725 102.3953117  75.0497255  85.0728479 101.6848433  76.3863956
  86.5265173  98.5417519  69.5589572  87.2289216  98.9938563  70.0263498
  86.1945801  97.9001338  70.1869465  84.9745534  97.1329276  83.9340781
  84.3444195  97.8145557  84.1676178  84.8681622  97.0212357  82.9893920
  80.2690506  96.8001072  74.8606705  79.4789560  97.0558600  74.3846816
  80.7601754  97.6149410  74.9658746  94.2854316 104.1406311  77.6111986
  95.1071760 103.7386498  77.3294668  94.2816719 104.0374545  78.5628102
  82.2205252  97.1645651  71.8190182  81.4236415  97.2764345  72.3373678
  81.9930844  97.5032303  70.9531073  88.0510919 103.6890354  79.7672697
  88.1155352 104.1510762  80.6030869  87.3421843 103.0587719  79.8955007
  78.5528209  97.0531562  77.2921696  78.8036248  97.9378572  77.5579272
  79.0887758  96.8736164  76.5196788 102.3760309 100.4845059  73.9596958
 101.6224017  99.9152458  73.8040962 102.5107850 100.4507724  74.9067592
  87.7658937 105.3558462  69.6351677  87.6304612 106.2009998  70.0636525
  88.3068750 105.5577739  68.8717611  84.2526277  91.4350042  86.2966032
  83.8593222  90.8816240  86.9713677  85.0692417  91.7460620  86.6872550
  81.2188335 102.8733900  70.2079602  81.7312855 103.6677150  70.3585167
  81.8711047 102.1760190  70.1413204  83.0283219 105.9899656  72.2902355
  83.2049848 106.9117621  72.1023339  83.8240053 105.6758075  72.7196735
  87.1694238  92.8507921  83.8886289  87.9103951  93.4515074  83.8090751
  87.4012161  92.1085559  83.3304331  82.3135576  98.0364288  82.1664519
  82.1989091  97.1349545  82.4671617  81.4580094  98.2827985  81.8149335
  89.3927414 105.9782028  83.7652019  88.9491268 105.1918407  83.4472924
  90.0544627 106.1661179  83.0995910  84.1514535 107.5077830  78.2912698
  84.7021960 107.3794893  77.5189692  83.3126011 107.8072719  77.9407591
  91.4908652 106.2584828  81.7933420  91.4727127 107.0793709  81.3013690
  92.4128572 106.1338903  82.0183562  87.9481706 103.7728958  82.6356929
  88.4810043 103.0117246  82.4056237  87.4195787 103.4802610  83.3781083
  91.1151401  88.8789024  78.1650571  90.7715670  89.7690665  78.0889681
  91.4830363  88.6890681  77.3020156  79.1837251 101.2022554  70.9839173
  80.0212473 101.6119562  70.7672880  79.3615519 100.2621996  70.9539367
  91.0801683  98.8697635  66.6723006  90.5648307  99.6402239  66.9111393
  90.8078992  98.1962771  67.2956067  88.6648794  93.7147336  71.7308244
  87.8090391  93.3254186  71.5513883  89.0775746  93.7939296  70.8708030
  90.1947941  91.2493679  76.1299804  89.6912737  91.2123814  75.3167609
  90.4878548  92.1586422  76.1896460  86.4390827  91.3332409  75.1365986
  87.3043824  91.1375217  74.7771875  86.5068336  91.1042760  76.0635342
  96.0535958 101.6229989  68.6076179  95.2765400 101.2841149  68.1631341
  96.7327439 101.6282613  67.9331144  90.8687987  96.7424727  68.4982787
  90.5638122  97.0570876  69.3492930  91.8218429  96.8206147  68.5410120
  89.3134418 102.9014950  70.1475741  88.7855780 102.1667710  69.8348978
  88.8121921 103.6789627  69.9015709  94.2927264 101.0963971  75.2642787
  93.6350939 101.7863232  75.3522916  95.0967664 101.4860403  75.6076774
  84.0453146  93.5634616  72.5082352  84.6196898  93.3409798  71.7755545
  84.6324128  93.6323311  73.2610954  93.1032723  99.4508343  73.3146729
  93.6164605 100.0838335  73.8168439  93.7533947  98.8509539  72.9490089
  84.3722733  95.5939077  66.5278238  83.5360045  95.9313764  66.8487512
  84.2327503  95.4588057  65.5905375  86.3475814  90.4375865  71.2357422
  85.6940226  90.1224883  70.6114037  86.3056288  89.8151606  71.9617245
  87.4587019 100.7195160  63.1510714  86.5514080 100.4884414  63.3501863
  87.9558051  99.9232780  63.3384695  90.3655097 109.4292668  66.0707400
  89.6916796 109.7324364  66.6792358  90.7520919 110.2321748  65.7212857
  89.5813554  96.9257799  75.5605069  88.6636115  97.1472746  75.4026757
  89.9973698  97.0004109  74.7016777  90.3648602  98.3249215  70.6907750
  91.1120421  98.8370612  70.3814872  90.6340191  98.0033267  71.5512143
  88.6375252 100.8207755  67.6734704  87.7286471 100.5366788  67.7707174
  88.6670336 101.2406834  66.8138011  93.8694519 104.4314345  71.4425872
  93.4156847 103.5905255  71.4991062  93.2388486 105.0675743  71.7800652
  92.8127439  95.3606331  72.6726539  92.0750196  94.8483717  73.0036782
  93.0654213  94.9206712  71.8609816  92.3127459 106.2690842  72.3775690
  92.6050433 106.8295899  71.6588055  92.8226079 106.5619402  73.1328849
  92.9139066  88.1382583  73.2668308  93.2197943  87.2779946  72.9794223
  93.6391671  88.7300203  73.0667302  79.2063422  98.5413269  71.6549906
  79.0087822  97.9482630  70.9300973  78.6510086  98.2365480  72.3725845
  87.1860146  98.4336376  73.7744499  87.2408756  97.4810212  73.6986976
  86.3751348  98.5895815  74.2585798  88.3351340 102.3616499  65.0122783
  87.8970770 101.6452358  64.5528420  89.0761781 102.5892614  64.4507874
  85.1252506  97.0513436  71.5334878  84.3120372  97.3507606  71.9400070
  85.6211500  96.6569124  72.2509360  87.2761084 107.0471193  73.4669143
  87.2337263 107.2732039  72.5377675  88.1923783 106.8134567  73.6154944
  90.7226718  97.5155260  80.3649772  91.0776105  97.7426733  81.2244238
  91.3698849  97.8473637  79.7427027  96.4524455 100.6373696  71.0699101
  96.3142353 100.8275292  70.1420290  96.0960673 101.3993079  71.5267152
  84.6166581  94.6231791  77.1496113  85.2565960  94.4820550  76.4519076
  83.7844111  94.3366305  76.7734715  96.4793834 102.7050223  76.0810373
  96.9130341 102.6125512  76.9293427  97.1925415 102.6807723  75.4430389
  85.3926885 103.9234222  73.2631106  86.1867483 103.4284542  73.0613681
  84.6818577 103.3952085  72.8998811  90.2121729 106.3052317  77.6143473
  90.2658751 106.8743253  78.3821189  89.3436511 106.4754202  77.2497510
  81.7009648  98.0677303  69.3390858  80.7707236  98.0061759  69.5560820
  81.7967120  97.5453256  68.5427500  81.6195197  94.5932116  71.9269100
  81.8802014  95.5077449  71.8178260  82.4412370  94.1256559  72.0765713
  83.0920123  96.0069873  79.0967924  83.7643176  95.7987235  78.4480573
  82.2649909  95.8091959  78.6573157  97.3409384 102.7473924  78.6143258
  97.5345274 103.6519734  78.8602533  97.2410002 102.2881343  79.4481843
  88.9945695  92.6331814  81.1133585  88.3473610  93.3321764  81.0198062
  89.7646710  93.0667958  81.4809834  92.4024492 102.8980666  84.1884139
  92.2509999 102.6691218  83.2714222  92.3929172 103.8551268  84.2015484
  89.1709829 100.4712579  79.1730405  90.1001889 100.6223739  78.9999372
  88.7500859 100.5596600  78.3179052  87.9698161 104.4963244  76.9428943
  87.8309246 104.1282028  77.8154881  87.1812757 105.0110883  76.7712900
  88.5646313 109.5972340  68.2854479  88.7398068 109.1260383  69.1000102
  87.8779101 110.2238106  68.5135740  89.5203376 103.8744846  74.3317780
  89.1853208 103.8345616  75.2275430  89.0207321 103.2089562  73.8588191
  83.4947620  99.2812476  79.8570362  83.3567418  98.5492715  80.4581901
  84.4052543  99.1921376  79.5754549  92.4562567 101.2200881  64.6054840
  91.8391738 100.4947709  64.5087893  91.9879056 101.9810241  64.2621914
  86.1229920  98.9932436  79.3454041  86.8329539  98.3525628  79.3040660
  86.0799229  99.2445330  80.2680222  94.1116699 105.9299789  82.2660620
  94.0529245 105.2459009  81.5991204  94.5136218 106.6718779  81.8141246
  84.8358854  95.9797654  81.1649681  84.2996211  95.5288392  81.8171277
  84.2475563  96.1143562  80.4220145  83.1307398 112.7461703  75.0594339
  83.3703996 113.3780227  75.7373358  82.2876594 112.3949743  75.3459699
  84.2461113  95.4386305  63.7276144  83.3690580  95.3175106  63.3638391
  84.7218866  94.6472383  63.4755033  94.1134106 103.8939373  80.4974600
  93.2260885 103.5565295  80.6200999  94.6832657 103.1622404  80.7343366
  75.7663254 100.2263465  73.8217652  76.4534293  99.9125195  73.2338667
  75.6111382 101.1304829  73.5484903  80.5697976  95.1153661  78.2502675
  80.4856164  94.5079331  77.5153085  79.7480682  95.6062680  78.2512172
  87.6435260 108.5540825  77.4635843  87.5705431 109.3595797  77.9755148
  87.2012653 108.7532791  76.6383865  87.4325039 107.7912595  70.9738665
  86.6492561 108.3334275  71.0676889  88.1317785 108.3086575  71.3732906
  90.7421690  93.6007225  73.6172870  91.2390389  92.8477187  73.2973941
  89.9708671  93.6371541  73.0516080  98.5951447  99.3047590  75.2591162
  98.5841323 100.1872306  74.8885095  97.7268826  98.9519141  75.0645699
  90.1033943 108.4527659  79.6194002  90.8161916 109.0875124  79.5469903
  89.6123972 108.5491525  78.8034004  91.8251470 102.3578912  71.1911294
  90.8907749 102.4780374  71.0215998  92.0028139 101.4551379  70.9271304
  87.3256658  95.7424608  73.3444555  86.9554446  95.1895648  74.0325460
  87.8215751  95.1382741  72.7919555  95.2124022  98.1996231  71.7261328
  95.6784474  99.0324223  71.6521631  95.6631522  97.7341213  72.4306586
  85.1545857 106.2022103  80.4399573  85.8555316 106.8358586  80.5928967
  84.6840972 106.5436834  79.6795212  93.2800253 104.5440053  68.7247480
  93.5560097 104.4296647  69.6341354  92.4104751 104.1457537  68.6859653
  93.1840684  90.5676818  75.7652229  92.2703764  90.7981045  75.9334436
  93.6133786  90.6515262  76.6166262  92.9547143  98.7566710  78.2652123
  92.3018593  99.0042618  77.6104576  93.3327523  97.9430848  77.9314600
  89.9154317 108.7926403  72.3680294  90.0976711 107.9748059  72.8308046
  90.7387303 109.0094096  71.9305183  90.2496482 107.7194589  69.6295342
  90.7784249 107.2087043  69.0165504  90.5124702 107.4037119  70.4940875
  89.0034716  99.4986521  84.7518160  88.3275353  99.3980651  85.4220536
  89.8262350  99.3425735  85.2154158  80.7513575 105.7358458  77.3730676
  81.3367012 104.9902146  77.5058580  80.5538413 106.0462415  78.2567339
  83.6052230 108.7709705  72.3893118  82.9362605 109.2555833  71.9057158
  83.4665100 109.0178926  73.3036496  75.3431230  98.3064058  76.0935119
  75.3815329  97.7727649  76.8872237  74.8371522  97.7799264  75.4746096
  87.7457499 110.8053449  78.9875776  88.2975807 110.9685070  79.7524862
  88.0863692 111.3957887  78.3155801  82.7221992  93.1528599  79.5897661
  82.7863318  94.0143429  79.1775059  82.6589112  92.5402600  78.8570020
  82.1974264  95.2251731  83.2370695  82.8246303  94.8428808  83.8508220
  81.3402183  95.0065933  83.6026388  92.5968373 105.6314706  84.8424431
  93.1408277 106.2444665  84.3479386  92.0155218 106.1894285  85.3591444
  78.9739807  97.0328160  69.1689050  79.2693248  96.1238839  69.1156104
  78.0727843  97.0115900  68.8470052  90.8825886 108.7535424  75.9739458
  90.7577025 107.9525164  75.4650404  91.5404977 109.2481618  75.4853428
  82.5034054  95.1084157  75.1516599  81.7820640  95.7220124  75.0124072
  83.2927310  95.6441922  75.0733245  92.9460794 106.5544444  77.6019009
  91.9991130 106.4349796  77.5297335  93.2943567 105.6666942  77.6845270
  85.3060368  92.4438583  81.4257250  85.8294770  92.6900880  82.1883560
  85.0872701  93.2758618  81.0060388  80.7027649  94.7142258  69.2928375
  80.3740355  93.8339637  69.1103481  81.0567019  94.6589927  70.1804764
  89.9507228 106.3497161  73.8023361  89.8032190 105.4213868  73.9830931
  90.7760721 106.3717251  73.3180436  83.8169472  95.0015228  69.6603853
  84.1565544  95.5301149  68.9382461  84.2641592  95.3395634  70.4362419
  93.5541350 107.1725719  74.8888234  94.4787897 106.9668581  74.7512685
  93.3856653 106.9242120  75.7977575  86.5112913  93.3852278  79.1106921
  86.1709733  92.5860091  79.5127601  85.8051919  93.6853989  78.5383754
  87.1629385  90.4701591  77.5634244  87.9855454  89.9962069  77.4413134
  87.4067448  91.2492075  78.0632930  85.8037619  93.4989849  67.8597146
  86.5245982  93.8771102  67.3560863  85.1802923  94.2178726  67.9632124
  89.9468742  94.2034998  68.7955478  90.1632356  95.0859636  68.4944306
  89.4662809  93.8121212  68.0661120  84.6867963  97.1620711  75.3726223
  84.5412544  97.4761014  76.2650504  84.2093167  97.7805612  74.8197121
  86.5464346  94.1523259  75.4207112  86.5325915  93.2564353  75.0839410
  87.2636774  94.1593923  76.0545398  88.3990477  94.5860600  77.4660240
  88.1408255  95.5077670  77.4644570  87.8675517  94.1891034  78.1560704
  93.3436666 107.6911387  70.2450325  93.5173543 107.1257809  69.4924177
  93.8365557 108.4912282  70.0629815  79.1613626  99.7026056  78.3113884
  78.6167094 100.4785864  78.4434158  80.0392975 100.0496860  78.1533005
  85.9501242  93.0337640  70.6894682  86.0717153  92.1054286  70.8885570
  85.6603285  93.0476326  69.7772998  88.8192433  90.7192550  73.8261402
  88.8414129  90.7831883  72.8713382  89.2360492  89.8797059  74.0201908
  99.1976057 100.4547810  71.8640625  99.6407203  99.7055135  71.4659748
  98.3202567 100.4457946  71.4814357  94.3311838 107.0078151  67.3447223
  95.0262743 107.6284844  67.5634538  94.6734988 106.1573502  67.6199601
  79.9479647  98.8295952  81.2044041  79.2061383  98.9778587  81.7908671
  79.6272392  99.0904218  80.3410790  96.2303261 104.4577857  68.8734554
  96.7554585 104.7965129  68.1483874  96.1425614 103.5224872  68.6897689
  87.8923310 108.3711930  81.0024431  88.2010436 108.1261077  81.8747130
  88.6898792 108.5758569  80.5143301  87.9143922 110.5249840  73.2329807
  87.4748912 110.0326219  73.9262664  88.6652039 109.9822808  72.9921882
  80.3936261 106.7161381  73.2354435  81.2194281 106.4165153  72.8553079
  80.0430313 105.9469003  73.6844224  85.3617794 106.0687849  75.3052109
  84.7397804 105.4058554  75.0054337  86.0322661 106.0948981  74.6225757
  78.5944866 104.6347707  74.1943369  77.7576774 104.2069882  74.0127370
  78.5668512 104.8280151  75.1314160  85.4342322  94.5469637  84.8984615
  85.4830477  95.4231760  84.5162385  85.9764836  94.0047030  84.3256258
  95.9197167 105.0910760  84.1785752  95.1292711 105.0734899  83.6390251
  95.6830522 105.6299054  84.9334789  96.0395042 101.9403227  81.4918481
  96.0893047 101.7753234  82.4334003  95.9308966 101.0730486  81.1016361
  84.9231301 104.6191772  68.7810569  85.0719422 105.3027237  68.1277242
  85.7297745 104.5996862  69.2960025  93.3298805  97.9234155  82.8077787
  94.2308668  97.7840620  82.5161785  93.4046779  98.0888610  83.7475965
  87.6641610  95.3001009  81.6530974  86.7944920  95.5934576  81.3813562
  87.9001091  95.8841454  82.3738237  97.5413239 104.3600168  81.7360502
  97.2498048 104.7230149  82.5723963  96.9285371 103.6467176  81.5573834
  98.7408922 101.9253048  74.2563072  99.5755813 102.3642852  74.4200633
  98.8768050 101.4491701  73.4371318  95.7900428  99.4832783  80.2040560
  96.2654549  99.6760429  79.3959411  94.8665993  99.5391969  79.9583944
  82.6783934 100.6456950  69.7871638  82.4329976  99.7419280  69.9851848
  82.8479849 100.6474100  68.8451116  90.3680644  91.5180626  79.1696394
  90.8862588  92.2541653  78.8442883  90.0135777  91.8244620  80.0043153
  81.9479582  96.3785308  67.2857800  81.2548827  96.4529663  66.6297836
  81.7031334  95.6145651  67.8079317  90.6193238  87.9380909  74.6897291
  90.8994992  87.2704098  75.3157717  91.4043845  88.1310005  74.1771954
  88.4226707 107.1139903  66.2522317  87.8500674 107.7330090  65.7992789
  88.9959500 107.6639265  66.7862239  94.4902097  96.3598543  78.4368866
  95.4419519  96.4596641  78.4581090  94.3205547  95.5676811  78.9466950
  92.5116476  93.4454126  78.6228267  91.9166408  93.7259139  77.9274755
  92.2266173  93.9348027  79.3945008  91.6423966 107.3977053  67.3830899
  92.5754640 107.3322615  67.5863775  91.5547179 108.2333320  66.9245432
  94.2711983 106.7142923  64.3434847  94.1925615 106.3802787  65.2370605
  95.0921650 107.2064691  64.3426319  96.9690174  99.5804663  77.5511165
  96.9366494  98.6420663  77.7370849  97.5790798  99.6588699  76.8176990
  88.8073505  98.4500716  63.5938369  89.7532610  98.3206924  63.6626787
  88.4287750  97.7115377  64.0707798  97.1184663  96.3715706  77.5969448
  96.6023711  95.5874163  77.4099377  98.0024611  96.0434423  77.7615968
  94.7795390  90.1156722  73.5565261  94.5820211  89.8071810  74.4408593
  95.3895095  90.8418361  73.6863191 102.7866724 100.6420669  76.6917202
 103.5170113 100.3805958  77.2524905 102.1773670  99.9049391  76.7319270
 100.8682021  98.7828532  77.2891653 100.1415185  98.6484497  76.6808145
 100.4529308  99.0905361  78.0948371  88.6912198 102.5018462  85.0539026
  89.6115207 102.6797061  85.2479073  88.6561781 101.5574507  84.9018726
  86.9916422  96.3750692  63.5293255  86.0847878  96.0783805  63.6055968
  87.2692403  96.0780510  62.6627541  77.9094363  97.6957055  73.9792301
  77.5897147  96.8422364  73.6866675  77.3627791  97.9105634  74.7350268
  81.6874270 100.4119496  77.6961807  81.9060280 101.3436604  77.7149841
  82.1000044 100.0527471  78.4816611  88.6078488  90.9187582  69.6837496
  87.7979216  90.5734667  70.0592742  89.2962905  90.6095125  70.2725107
  90.5369036  89.9965628  71.3061792  91.0900075  90.4161082  71.9651816
  90.7739123  89.0701377  71.3484749  86.5602136  95.9852702  87.0864556
  86.4598862  96.9347059  87.0176648  86.3423678  95.6570941  86.2140626
  85.7615207  93.2337627  63.6705234  86.6234371  93.5592525  63.9301051
  85.9465551  92.4469123  63.1578300  77.7782623 101.3159967  75.9485423
  77.0846094 100.9013920  75.4355377  78.5255614 101.3580503  75.3518841
  93.9147843  92.1066154  70.8140457  93.3346512  92.7650958  70.4318509
  93.6483776  91.2843498  70.4027874  92.3651410  91.5071211  73.0161777
  92.8651188  91.6187746  72.2076096  93.0087018  91.2032264  73.6562586
  86.4233406  99.4149841  85.9029618  85.9400487 100.2150201  86.1093507
  86.5094345  99.4257786  84.9497062  79.6919365 101.2478221  73.8251437
  79.6690053 101.3465908  72.8733321  80.0020002 102.0943371  74.1468604
  82.3506743 103.3054376  77.9398052  83.3049997 103.2738318  77.8727983
  82.1519267 102.8444999  78.7548278  82.9406125 101.8755492  80.5068850
  83.7599014 102.3699570  80.5303687  83.2142933 100.9587460  80.4786417
  92.6972721  94.2666244  69.8696805  91.8098576  94.5515895  69.6517000
  93.1126711  94.1060007  69.0224082  96.0487258  94.2912765  73.5851144
  96.8247648  94.7809217  73.8575761  95.3235392  94.7170819  74.0423014
  98.4859816  95.0040384  74.6425085  99.0804307  94.7636120  73.9318393
  98.5586400  94.2847515  75.2698621  80.7056972 108.8473995  74.9568250
  80.5711440 108.0874396  74.3906248  80.2889034 109.5714895  74.4897039
  91.8415935 104.0310919  63.9644825  92.5451785 104.2360921  64.5802481
  91.1178584 104.5987681  64.2293909  92.6713745  99.7820780  70.0847095
  92.6148947 100.2389331  69.2454728  93.2242088  99.0211465  69.9069938
  96.4818551  95.5710512  70.9097215  96.2255485  95.1707147  71.7405422
  95.8571419  96.2854306  70.7847354 100.7930889  98.3106585  73.4168506
 100.2330447  98.3799774  74.1900068 100.1874392  98.1347570  72.6968002
  83.8626098 109.7443312  75.1686692  83.7458482 110.6888745  75.0665383
  83.0418544 109.4416874  75.5572492  93.7502632 104.4693448  66.0143285
  94.5848236 104.0374646  65.8320760  93.5886975 104.2975462  66.9420180
  93.4048524 100.9725561  67.3799624  93.3497328 100.8069833  66.4388068
  92.7794580 101.6801594  67.5361814  78.1941039  96.2093626  81.2061047
  78.8399903  95.6992580  81.6948272  77.9858191  96.9462307  81.7804472
  90.7194432 103.2774473  86.7053187  91.5885591 103.4515125  86.3439822
  90.2401183 104.0968890  86.5828916  86.7144650  90.4733670  66.9584943
  86.7023320  91.4175510  67.1153214  87.6068072  90.2903816  66.6644404
  84.8880612 110.3971574  78.3842621  85.7907859 110.4295184  78.7009116
  84.6617982 109.4672025  78.3988957  86.6434214 109.1502561  75.0452699
  85.6929845 109.1504422  74.9317072  86.9466700 108.4035295  74.5288734
  90.5296769  87.0676447  71.2130880  89.7629165  86.5134934  71.3587562
  90.9407474  87.1398316  72.0745031  82.5338530  93.3561243  85.3036061
  83.3969992  92.9998048  85.5139385  81.9603941  93.0175137  85.9911465
 102.3786907 114.9863099  76.1098462 103.0165317 114.8669846  75.4061802
 102.2607750 115.9343943  76.1686414  99.1876614 114.9390527  76.0459987
  98.8495125 114.8231592  75.1580521 100.0566382 114.5381692  76.0260993
  95.0463429 116.7926004  72.0356877  94.4828295 116.7015940  71.2673165
  94.9315824 115.9725908  72.5159370  99.6696397 116.0925379  82.0046192
  99.6585037 115.6978177  81.1326696  99.8317036 115.3591451  82.5979963
  92.5927861 118.2877195  74.8741098  93.3849153 117.9468020  74.4587397
  92.8324511 118.3972170  75.7943251  94.5518615 117.5486108  67.7458477
  95.3249491 117.0015095  67.6071353  94.9044014 118.4130358  67.9572938
  96.3903658 118.8762491  80.9525376  96.0993524 119.7808121  80.8372042
  97.0260642 118.9179018  81.6669446  97.3159865 116.2539339  77.5426736
  97.9123437 116.0295362  76.8283699  97.3734836 115.5124085  78.1452184
  96.8884893 113.7078774  65.3776927  97.1410414 113.1860296  64.6160390
  95.9509452 113.5444920  65.4803610 101.9328176 112.7114553  73.1851670
 102.7191265 112.2933976  72.8342087 102.1966880 113.6160645  73.3533318
 102.1038253 118.1487403  67.8840327 101.4684086 118.2222030  68.5961231
 101.7735660 118.7381002  67.2059406 107.3336603 112.6489786  74.0884648
 108.0661775 112.0789003  74.3222478 106.5775959 112.2611386  74.5291154
  96.6081182 115.6106880  67.5801302  96.4917440 114.9351784  68.2482386
  96.7183442 115.1239254  66.7633455  98.9512723 115.0717028  71.2847991
  98.5870930 114.5447649  71.9960912  99.8079839 114.6815497  71.1114476
 104.8562023 106.3611360  78.5479257 104.5245348 107.2306771  78.3240472
 104.2607637 106.0447644  79.2273287  98.5918210 110.1006927  66.2809339
  98.7592612 110.9687164  66.6479810  98.4015379 110.2634209  65.3570629
 101.3493543 118.5623906  77.9475170 101.0494266 119.4648945  77.8390977
 101.0044602 118.2956089  78.7996323  94.8006024 115.0137703  73.9811874
  93.8756521 114.8813917  74.1889566  95.0490438 115.7931922  74.4781817
 104.7490687 111.0806446  75.6272607 103.8407564 111.0121855  75.3331368
 104.6978282 111.5578391  76.4554433  98.5707431 112.5564585  67.2656006
  98.4507056 113.0021636  68.1041486  97.8760019 112.9049902  66.7069544
  92.1614835 114.6570977  74.8155663  92.2907217 114.9105455  75.7295075
  91.4812287 115.2498685  74.4960318  98.8231552 112.4996092  83.5707504
  98.0464887 113.0590012  83.5610369  99.4622116 112.9852875  84.0922374
 106.6152333 109.2822885  77.4050481 105.9726713 109.5755418  76.7590276
 106.1107262 109.1675805  78.2103678 104.2692497 113.0286058  68.0936340
 105.1810353 113.2613445  67.9184038 103.7602144 113.6123102  67.5311419
  97.0777925 115.3081545  83.1325471  97.8192609 115.8466589  82.8560295
  96.3714910 115.9347834  83.2897023 102.5533264 117.4510686  81.7297633
 102.9616620 117.0093096  80.9852265 101.8310526 116.8763313  81.9831826
  98.9064334 112.3883293  79.1031190  99.7525530 112.8122706  79.2465839
  98.8462972 111.7316917  79.7969753 102.8762079 118.0111876  75.4849922
 102.2470942 118.1757591  74.7825990 102.4887741 118.4253486  76.2560886
 102.0563780 110.0487661  80.7612363 101.8124712 110.8029721  80.2246639
 102.3323710 110.4273008  81.5959610 104.0102243 116.5926273  79.4389629
 104.2219138 117.2358033  78.7624010 103.9631991 115.7588590  78.9711559
 101.6128472 109.2044094  76.3426201 100.7512951 109.5025347  76.6342939
 101.6390906 109.4214493  75.4107234  98.4290041 117.7486284  72.7500007
  98.8928386 118.0273987  71.9604629  98.1646839 116.8469729  72.5673097
  95.3214122 117.2957766  75.6879770  95.8915479 117.7245034  75.0497255
  95.9122234 117.0140351  76.3863956  97.3658927 113.8709437  69.5589572
  98.0682970 114.3230480  70.0263498  97.0339555 113.2293256  70.1869465
  95.8139289 112.4621193  83.9340781  95.1837949 113.1437474  84.1676178
  95.7075376 112.3504275  82.9893920  91.1084261 112.1292989  74.8606705
  90.3183315 112.3850518  74.3846816  91.5995508 112.9441327  74.9658746
  93.0599006 112.4937569  71.8190182  92.2630170 112.6056263  72.3373678
  92.8324599 112.8324221  70.9531073  98.8904674 119.0182272  79.7672697
  98.9549106 119.4802679  80.6030869  98.1815598 118.3879637  79.8955007
  89.3921964 112.3823480  77.2921696  89.6430002 113.2670490  77.5579272
  89.9281512 112.2028081  76.5196788  98.6052692 120.6850379  69.6351677
  98.4698366 121.5301915  70.0636525  99.1462504 120.8869657  68.8717611
  95.0920031 106.7641959  86.2966032  94.6986977 106.2108158  86.9713677
  95.9086172 107.0752538  86.6872550  92.0582089 118.2025817  70.2079602
  92.5706610 118.9969068  70.3585167  92.7104802 117.5052108  70.1413204
  93.8676974 121.3191574  72.2902355  94.0443602 122.2409538  72.1023339
  94.6633807 121.0049993  72.7196735  98.0087992 108.1799838  83.8886289
  98.7497706 108.7806992  83.8090751  98.2405915 107.4377476  83.3304331
  93.1529330 113.3656206  82.1664519  93.0382845 112.4641463  82.4671617
  92.2973848 113.6119902  81.8149335  94.9908289 122.8369748  78.2912698
  95.5415714 122.7086811  77.5189692  94.1519765 123.1364637  77.9407591
  98.7875460 119.1020875  82.6356929  99.3203797 118.3409164  82.4056237
  98.2589541 118.8094527  83.3781083 101.9545155 104.2080941  78.1650571
 101.6109425 105.0982583  78.0889681 102.3224118 104.0182599  77.3020156
  90.0231006 116.5314472  70.9839173  90.8606228 116.9411480  70.7672880
  90.2009273 115.5913914  70.9539367 101.9195438 114.1989552  66.6723006
 101.4042061 114.9694157  66.9111393 101.6472746 113.5254689  67.2956067
  99.5042549 109.0439253  71.7308244  98.6484145 108.6546104  71.5513883
  99.9169501 109.1231214  70.8708030 101.0341696 106.5785596  76.1299804
 100.5306491 106.5415732  75.3167609 101.3272302 107.4878339  76.1896460
  97.2784581 106.6624326  75.1365986  98.1437578 106.4667135  74.7771875
  97.3462090 106.4334678  76.0635342 101.7081741 112.0716645  68.4982787
 101.4031877 112.3862794  69.3492930 102.6612183 112.1498064  68.5410120
 100.1528173 118.2306868  70.1475741  99.6249534 117.4959627  69.8348978
  99.6515676 119.0081544  69.9015709  94.8846901 108.8926534  72.5082352
  95.4590652 108.6701716  71.7755545  95.4717883 108.9615229  73.2610954
 103.9426478 114.7800261  73.3146729 104.4558359 115.4130253  73.8168439
 104.5927702 114.1801457  72.9490089  95.2116488 110.9230995  66.5278238
  94.3753800 111.2605682  66.8487512  95.0721257 110.7879975  65.5905375
  97.1869568 105.7667783  71.2357422  96.5333981 105.4516800  70.6114037
  97.1450042 105.1443524  71.9617245  98.2980773 116.0487078  63.1510714
  97.3907835 115.8176332  63.3501863  98.7951805 115.2524697  63.3384695
 100.4207309 112.2549717  75.5605069  99.5029870 112.4764664  75.4026757
 100.8367452 112.3296027  74.7016777 101.2042356 113.6541132  70.6907750
 101.9514175 114.1662529  70.3814872 101.4733946 113.3325185  71.5512143
  99.4769007 116.1499673  67.6734704  98.5680226 115.8658706  67.7707174
  99.5064090 116.5698752  66.8138011 103.6521194 110.6898249  72.6726539
 102.9143950 110.1775635  73.0036782 103.9047967 110.2498630  71.8609816
 103.7532821 103.4674501  73.2668308 104.0591698 102.6071864  72.9794223
 104.4785426 104.0592121  73.0667302  90.0457177 113.8705187  71.6549906
  89.8481577 113.2774548  70.9300973  89.4903841 113.5657397  72.3725845
  98.0253901 113.7628294  73.7744499  98.0802510 112.8102130  73.6986976
  97.2145103 113.9187733  74.2585798  99.1745094 117.6908417  65.0122783
  98.7364524 116.9744276  64.5528420  99.9155535 117.9184531  64.4507874
  95.9646261 112.3805353  71.5334878  95.1514126 112.6799524  71.9400070
  96.4605255 111.9861042  72.2509360 101.5620472 112.8447178  80.3649772
 101.9169860 113.0718651  81.2244238 102.2092603 113.1765555  79.7427027
  95.4560335 109.9523709  77.1496113  96.0959715 109.8112468  76.4519076
  94.6237866 109.6658222  76.7734715  96.2320639 119.2526139  73.2631106
  97.0261238 118.7576459  73.0613681  95.5212332 118.7244002  72.8998811
  92.5403403 113.3969221  69.3390858  91.6100991 113.3353677  69.5560820
  92.6360875 112.8745174  68.5427500  92.4588952 109.9224034  71.9269100
  92.7195769 110.8369367  71.8178260  93.2806124 109.4548476  72.0765713
  93.9313877 111.3361791  79.0967924  94.6036930 111.1279153  78.4480573
  93.1043664 111.1383877  78.6573157  99.8339449 107.9623732  81.1133585
  99.1867364 108.6613682  81.0198062 100.6040464 108.3959876  81.4809834
 100.0103583 115.8004497  79.1730405 100.9395643 115.9515656  78.9999372
  99.5894613 115.8888518  78.3179052  98.8091915 119.8255161  76.9428943
  98.6703001 119.4573946  77.8154881  98.0206511 120.3402801  76.7712900
 100.3597130 119.2036764  74.3317780 100.0246963 119.1637534  75.2275430
  99.8601076 118.5381480  73.8588191  94.3341374 114.6104394  79.8570362
  94.1961172 113.8784633  80.4581901  95.2446298 114.5213294  79.5754549
 103.2956322 116.5492798  64.6054840 102.6785493 115.8239626  64.5087893
 102.8272810 117.3102159  64.2621914  96.9623675 114.3224353  79.3454041
  97.6723293 113.6817546  79.3040660  96.9192983 114.5737248  80.2680222
  95.6752609 111.3089571  81.1649681  95.1389966 110.8580310  81.8171277
  95.0869317 111.4435480  80.4220145  95.0854868 110.7678223  63.7276144
  94.2084334 110.6467023  63.3638391  95.5612621 109.9764301  63.4755033
  86.6057008 115.5555382  73.8217652  87.2928048 115.2417112  73.2338667
  86.4505137 116.4596747  73.5484903  91.4091730 110.4445579  78.2502675
  91.3249919 109.8371248  77.5153085  90.5874437 110.9354597  78.2512172
 101.5815444 108.9299142  73.6172870 102.0784144 108.1769105  73.2973941
 100.8102426 108.9663459  73.0516080 102.6645225 117.6870830  71.1911294
 101.7301503 117.8072292  71.0215998 102.8421893 116.7843296  70.9271304
  98.1650413 111.0716525  73.3444555  97.7948200 110.5187566  74.0325460
  98.6609505 110.4674659  72.7919555 106.0517776 113.5288149  71.7261328
 106.5178228 114.3616141  71.6521631 106.5025277 113.0633131  72.4306586
  95.9939611 121.5314020  80.4399573  96.6949071 122.1650503  80.5928967
  95.5234726 121.8728752  79.6795212 104.0234439 105.8968736  75.7652229
 103.1097519 106.1272963  75.9334436 104.4527540 105.9807180  76.6166262
 103.7940897 114.0858628  78.2652123 103.1412348 114.3334535  77.6104576
 104.1721277 113.2722766  77.9314600  99.8428470 114.8278439  84.7518160
  99.1669107 114.7272568  85.4220536 100.6656104 114.6717653  85.2154158
  91.5907329 121.0650375  77.3730676  92.1760766 120.3194063  77.5058580
  91.3932168 121.3754332  78.2567339  94.4445985 124.1001623  72.3893118
  93.7756360 124.5847751  71.9057158  94.3058854 124.3470843  73.3036496
  86.1824984 113.6355976  76.0935119  86.2209084 113.1019566  76.8872237
  85.6765277 113.1091181  75.4746096  93.5615746 108.4820516  79.5897661
  93.6257073 109.3435347  79.1775059  93.4982867 107.8694518  78.8570020
  93.0368019 110.5543649  83.2370695  93.6640058 110.1720726  83.8508220
  92.1795938 110.3357851  83.6026388  89.8133562 112.3620078  69.1689050
  90.1087003 111.4530756  69.1156104  88.9121597 112.3407817  68.8470052
  93.3427809 110.4376074  75.1516599  92.6214394 111.0512042  75.0124072
  94.1321064 110.9733839  75.0733245  96.1454122 107.7730501  81.4257250
  96.6688524 108.0192797  82.1883560  95.9266456 108.6050536  81.0060388
  91.5421403 110.0434176  69.2928375  91.2134109 109.1631554  69.1103481
  91.8960774 109.9881844  70.1804764  94.6563226 110.3307145  69.6603853
  94.9959299 110.8593067  68.9382461  95.1035347 110.6687551  70.4362419
  97.3506667 108.7144196  79.1106921  97.0103488 107.9152009  79.5127601
  96.6445674 109.0145907  78.5383754  98.0023139 105.7993508  77.5634244
  98.8249208 105.3253987  77.4413134  98.2461203 106.5783992  78.0632930
  96.6431374 108.8281767  67.8597146  97.3639736 109.2063020  67.3560863
  96.0196678 109.5470644  67.9632124 100.7862496 109.5326916  68.7955478
 101.0026111 110.4151554  68.4944306 100.3056564 109.1413129  68.0661120
  95.5261718 112.4912629  75.3726223  95.3806299 112.8052932  76.2650504
  95.0486921 113.1097529  74.8197121  97.3858101 109.4815177  75.4207112
  97.3719669 108.5856270  75.0839410  98.1030529 109.4885841  76.0545398
  99.2384231 109.9152517  77.4660240  98.9802009 110.8369588  77.4644570
  98.7069272 109.5182952  78.1560704  90.0007380 115.0317973  78.3113884
  89.4560848 115.8077781  78.4434158  90.8786730 115.3788778  78.1533005
  96.7894997 108.3629557  70.6894682  96.9110908 107.4346204  70.8885570
  96.4997039 108.3768243  69.7772998  99.6586187 106.0484468  73.8261402
  99.6807884 106.1123801  72.8713382 100.0754246 105.2088976  74.0201908
  90.7873402 114.1587870  81.2044041  90.0455138 114.3070505  81.7908671
  90.4666146 114.4196135  80.3410790  91.2330016 122.0453298  73.2354435
  92.0588035 121.7457070  72.8553079  90.8824068 121.2760921  73.6844224
  96.2011549 121.3979767  75.3052109  95.5791558 120.7350472  75.0054337
  96.8716416 121.4240899  74.6225757  89.4338621 119.9639625  74.1943369
  88.5970529 119.5361799  74.0127370  89.4062266 120.1572068  75.1314160
  96.2736076 109.8761555  84.8984615  96.3224232 110.7523678  84.5162385
  96.8158590 109.3338948  84.3256258  95.7625056 119.9483690  68.7810569
  95.9113176 120.6319154  68.1277242  96.5691499 119.9288780  69.2960025
 104.1692559 113.2526072  82.8077787 105.0702422 113.1132537  82.5161785
 104.2440534 113.4180527  83.7475965  98.5035365 110.6292927  81.6530974
  97.6338674 110.9226493  81.3813562  98.7394845 111.2133372  82.3738237
 106.6294182 114.8124700  80.2040560 107.1048304 115.0052347  79.3959411
 105.7059747 114.8683886  79.9583944  93.5177689 115.9748868  69.7871638
  93.2723731 115.0711198  69.9851848  93.6873603 115.9766018  68.8451116
 101.2074398 106.8472544  79.1696394 101.7256342 107.5833571  78.8442883
 100.8529531 107.1536537  80.0043153  92.7873336 111.7077225  67.2857800
  92.0942581 111.7821580  66.6297836  92.5425088 110.9437569  67.8079317
 101.4586993 103.2672827  74.6897291 101.7388746 102.5996016  75.3157717
 102.2437600 103.4601922  74.1771954 105.3295851 111.6890461  78.4368866
 106.2813274 111.7888558  78.4581090 105.1599301 110.8968729  78.9466950
 103.3510230 108.7746044  78.6228267 102.7560163 109.0551057  77.9274755
 103.0659927 109.2639945  79.3945008  99.6467260 113.7792633  63.5938369
 100.5926364 113.6498841  63.6626787  99.2681505 113.0407295  64.0707798
 107.9578417 111.7007624  77.5969448 107.4417466 110.9166080  77.4099377
 108.8418366 111.3726340  77.7615968 105.6189144 105.4448639  73.5565261
 105.4213965 105.1363727  74.4408593 106.2288850 106.1710278  73.6863191
  99.5305952 117.8310379  85.0539026 100.4508962 118.0088978  85.2479073
  99.4955535 116.8866425  84.9018726  97.8310177 111.7042610  63.5293255
  96.9241632 111.4075722  63.6055968  98.1086158 111.4072428  62.6627541
  88.7488117 113.0248973  73.9792301  88.4290902 112.1714281  73.6866675
  88.2021545 113.2397551  74.7350268  92.5268025 115.7411414  77.6961807
  92.7454035 116.6728522  77.7149841  92.9393799 115.3819388  78.4816611
  99.4472243 106.2479499  69.6837496  98.6372971 105.9026584  70.0592742
 100.1356659 105.9387043  70.2725107 101.3762791 105.3257546  71.3061792
 101.9293829 105.7453000  71.9651816 101.6132877 104.3993294  71.3484749
  97.3995890 111.3144620  87.0864556  97.2992617 112.2638977  87.0176648
  97.1817432 110.9862859  86.2140626  96.6008961 108.5629545  63.6705234
  97.4628125 108.8884443  63.9301051  96.7859306 107.7761041  63.1578300
  88.6176377 116.6451885  75.9485423  87.9239849 116.2305837  75.4355377
  89.3649368 116.6872421  75.3518841 104.7541598 107.4358071  70.8140457
 104.1740267 108.0942875  70.4318509 104.4877531 106.6135416  70.4027874
 103.2045164 106.8363129  73.0161777 103.7044943 106.9479664  72.2076096
 103.8480772 106.5324182  73.6562586  97.2627160 114.7441759  85.9029618
  96.7794242 115.5442119  86.1093507  97.3488099 114.7549704  84.9497062
  90.5313120 116.5770138  73.8251437  90.5083808 116.6757826  72.8733321
  90.8413756 117.4235289  74.1468604  93.1900498 118.6346293  77.9398052
  94.1443751 118.6030236  77.8727983  92.9913021 118.1736917  78.7548278
  93.7799880 117.2047409  80.5068850  94.5992769 117.6991488  80.5303687
  94.0536687 116.2879378  80.4786417 103.5366476 109.5958162  69.8696805
 102.6492331 109.8807812  69.6517000 103.9520465 109.4351925  69.0224082
 106.8881012 109.6204683  73.5851144 107.6641402 110.1101135  73.8575761
 106.1629146 110.0462737  74.0423014 109.3253571 110.3332302  74.6425085
 109.9198061 110.0928038  73.9318393 109.3980154 109.6139432  75.2698621
  91.5450726 124.1765913  74.9568250  91.4105194 123.4166314  74.3906248
  91.1282789 124.9006813  74.4897039 103.5107500 115.1112698  70.0847095
 103.4542701 115.5681249  69.2454728 104.0635842 114.3503382  69.9069938
 107.3212306 110.9002429  70.9097215 107.0649240 110.4999065  71.7405422
 106.6965174 111.6146223  70.7847354 104.2442279 116.3017479  67.3799624
 104.1891083 116.1361750  66.4388068 103.6188334 117.0093512  67.5361814
  89.0334794 111.5385543  81.2061047  89.6793658 111.0284497  81.6948272
  88.8251945 112.2754225  81.7804472  97.5538404 105.8025588  66.9584943
  97.5417074 106.7467428  67.1153214  98.4461826 105.6195733  66.6644404
 101.3690524 102.3968365  71.2130880 100.6022920 101.8426851  71.3587562
 101.7801229 102.4690233  72.0745031  93.3732285 108.6853160  85.3036061
  94.2363747 108.3289965  85.5139385  92.7997696 108.3467055  85.9911465
  37.3424382   0.0173716  62.8343768  37.9802792  -0.1019537  62.1307109
  37.2245225   0.9654559  62.8931721  34.1514088  -0.0298856  62.7705293
  33.8132600  -0.1457792  61.8825828  35.0203856  -0.4307691  62.7506299
  30.0100904   1.8236620  58.7602184  29.4465769   1.7326557  57.9918472
  29.8953299   1.0036525  59.2404677  34.6333871   1.1235995  68.7291499
  34.6222512   0.7288794  67.8572002  34.7954510   0.3902068  69.3225270
  27.5565336   3.3187812  61.5986405  28.3486628   2.9778636  61.1832704
  27.7961986   3.4282787  62.5188558  35.5900462   5.4907588  54.0716649
  34.9388442   6.0761668  53.6850663  36.3844825   6.0213783  54.1311686
  29.5156090   2.5796725  54.4703783  30.2886966   2.0325712  54.3316659
  29.8681488   3.4440974  54.6818245  31.3541132   3.9073107  67.6770683
  31.0630998   4.8118738  67.5617349  31.9898116   3.9489635  68.3914752
  32.2797339   1.2849956  64.2672042  32.8760911   1.0605978  63.5529005
  32.3372311   0.5434701  64.8697490  31.8522367  -1.2610609  52.1022233
  32.1047888  -1.7829088  51.3405696  30.9146926  -1.4244464  52.2048917
  36.8965650  -2.2574831  59.9096976  37.6828739  -2.6755407  59.5587393
  37.1604355  -1.3528738  60.0778625  37.0675728   3.1798020  54.6085633
  36.4321561   3.2532646  55.3206538  36.7373134   3.7691619  53.9304713
  42.2974077  -2.3199597  60.8129955  43.0299249  -2.8900381  61.0467784
  41.5413433  -2.7077997  61.2536461  31.5718656   0.6417497  54.3046608
  31.4554914  -0.0337600  54.9727693  31.6820916   0.1549871  53.4878761
  33.9150197   0.1027644  58.0093297  33.5508404  -0.4241735  58.7206219
  34.7717313  -0.2873887  57.8359783  39.8199498  -8.6078023  65.2724564
  39.4882822  -7.7382612  65.0485779  39.2245111  -8.9241739  65.9518594
  33.5555684  -4.8682456  53.0054646  33.7230086  -4.0002220  53.3725117
  33.3652853  -4.7055175  52.0815935  36.3131017   3.5934523  64.6720476
  36.0131740   4.4959561  64.5636284  35.9682077   3.3266706  65.5241629
  29.7643499   0.0448320  60.7057181  28.8393995  -0.0875466  60.9134873
  30.0127912   0.8242539  61.2027123  39.7128161  -3.8882937  62.3517914
  38.8045038  -3.9567529  62.0576675  39.6615757  -3.4110992  63.1799739
  33.5344905  -2.4124799  53.9901313  33.4144530  -1.9667748  54.8286793
  32.8397493  -2.0639481  53.4314851  27.1252310  -0.3118407  61.5400970
  27.2544691  -0.0583928  62.4540382  26.4449761   0.2809301  61.2205625
  31.2951797  10.3578843  57.6391444  31.2175827  11.3086668  57.7179925
  30.6913441  10.0124716  58.2966370  33.7869027  -2.4693292  70.2952811
  33.0102361  -1.9099371  70.2855676  34.4259590  -1.9836509  70.8167681
  41.5789807  -5.6866499  64.1295788  40.9364188  -5.3933966  63.4835582
  41.0744736  -5.8013578  64.9348984  39.2329971  -1.9403326  54.8181647
  40.1447827  -1.7075939  54.6429344  38.7239618  -1.3566281  54.2556725
  32.0415399   0.3392162  69.8570778  32.7830083   0.8777206  69.5805602
  31.3352385   0.9658451  70.0142330  37.5170739   2.4821302  68.4542939
  37.9254095   2.0403713  67.7097572  36.7948000   1.9073930  68.7077132
  33.8701809  -2.5806091  65.8276496  34.7163004  -2.1566677  65.9711145
  33.8100446  -3.2372467  66.5215059  37.8399553   3.0422493  62.2095228
  37.2108416   3.2068207  61.5071296  37.4525215   3.4564102  62.9806192
  41.7188785   3.9776931  59.5639592  41.0339823   4.3575832  59.0136625
  41.8032635   4.5872257  60.2971540  37.0201254  -4.9201723  67.4857670
  36.7762186  -4.1659662  66.9491946  37.2961185  -4.5416375  68.3204917
  38.9739717   1.6236890  66.1634936  39.1856612   2.2668650  65.4869317
  38.9269465   0.7899206  65.6956866  36.5765946  -5.7645290  63.0671508
  35.7150425  -5.4664036  63.3588245  36.6028380  -5.5474891  62.1352540
  33.3927515   2.7796901  59.4745313  33.8565861   3.0584604  58.6849936
  33.1284313   1.8780346  59.2918404  30.2851596   2.3268383  62.4125077
  30.8552953   2.7555651  61.7742561  30.8759708   2.0450967  63.1109262
  32.3296401  -1.0979947  56.2834879  33.0320445  -0.6458903  56.7508805
  31.9977030  -1.7396128  56.9114772  30.7776763  -2.5068190  70.6586088
  30.1475423  -1.8251909  70.8921485  30.6712851  -2.6185108  69.7139226
  40.0885545   4.5008845  64.3357293  40.9102989   4.0989032  64.0539975
  40.0847948   4.3977079  65.2873409  33.8542148   4.0492889  66.4918003
  33.9186581   4.5113296  67.3276175  33.1453072   3.4190253  66.6200313
  48.1791538   0.8447594  60.6842264  47.4255246   0.2754992  60.5286269
  48.3139079   0.8110258  61.6312899  33.5690166   5.7160996  56.3596984
  33.4335841   6.5612532  56.7881832  34.1099978   5.9180274  55.5962918
  27.0219563   3.2336434  56.9324909  27.5344084   4.0279684  57.0830474
  27.6742276   2.5362724  56.8658510  28.8314448   6.3502190  59.0147662
  29.0081076   7.2720155  58.8268646  29.6271282   6.0360610  59.4442042
  35.1958642   6.3384563  70.4897326  34.7522496   5.5520941  70.1718230
  35.8575856   6.5263713  69.8241217  29.9545763   7.8680364  65.0158004
  30.5053189   7.7397427  64.2434998  29.1157239   8.1675253  64.6652897
  37.2939880   6.6187362  68.5178727  37.2758356   7.4396243  68.0258996
  38.2159800   6.4941438  68.7428868  33.7512935   4.1331492  69.3602235
  34.2841271   3.3719780  69.1301543  33.2227016   3.8405144  70.1026390
  36.8832912  -0.7699831  53.3968312  36.3679536   0.0004774  53.6356700
  36.6110221  -1.4434695  54.0201374  41.8567186   1.9832524  55.3321486
  41.0796629   1.6443683  54.8876648  42.5358667   1.9885147  54.6576451
  36.6719215  -2.8972739  55.2228093  36.3669351  -2.5826590  56.0738237
  37.6249658  -2.8191319  55.2655426  35.1165647   3.2617484  56.8721047
  34.5887009   2.5270244  56.5594285  34.6153150   4.0392161  56.6261016
  40.0958493   1.4566505  61.9888094  39.4382168   2.1465766  62.0768222
  40.8998892   1.8462937  62.3322080  38.9063952  -0.1889122  60.0392036
  39.4195834   0.4440869  60.5413745  39.5565176  -0.7887927  59.6735396
  33.2618247   1.0797695  49.8756021  32.3545309   0.8486948  50.0747169
  33.7589279   0.2835314  50.0630002  36.1686326   9.7895202  52.7952707
  35.4948025  10.0926899  53.4037665  36.5552148  10.5924282  52.4458164
  35.3844783  -2.7139667  62.2850376  34.4667344  -2.4924720  62.1272064
  35.8004927  -2.6393356  61.4262083  36.1679831  -1.3148251  57.4153056
  36.9151650  -0.8026854  57.1060178  36.4371420  -1.6364198  58.2757450
  34.4406481   1.1810290  54.3980011  33.5317700   0.8969322  54.4952480
  34.4701565   1.6009368  53.5383317  39.6725748   4.7916879  58.1671178
  39.2188075   3.9507789  58.2236369  39.0419715   5.4278277  58.5045958
  38.6158668  -4.2791135  59.3971846  37.8781425  -4.7913749  59.7282088
  38.8685441  -4.7190753  58.5855122  38.1158688   6.6293376  59.1020996
  38.4081662   7.1898433  58.3833362  38.6257308   6.9221937  59.8574155
  32.9891375  -1.2061090  60.4989806  33.0439985  -2.1587253  60.4232283
  32.1782577  -1.0501651  60.9831104  34.1382569   2.7219033  51.7368089
  33.7001999   2.0054892  51.2773727  34.8793010   2.9495148  51.1753181
  30.9283735  -2.5884030  58.2580185  30.1151600  -2.2889860  58.6645377
  31.4242729  -2.9828341  58.9754667  33.0792313   7.4073727  60.1914450
  33.0368491   7.6334573  59.2622982  33.9955012   7.1737101  60.3400251
  36.5257947  -2.1242206  67.0895079  36.8807334  -1.8970733  67.9489544
  37.1730078  -1.7923829  66.4672334  42.2555683   0.9976230  57.7944408
  42.1173582   1.1877826  56.8665597  41.8991902   1.7595613  58.2512459
  42.2825063   3.0652757  62.8055679  42.7161570   2.9728046  63.6538733
  42.9956644   3.0410258  62.1675695  31.1958113   4.2836756  59.9876412
  31.9898712   3.7887076  59.7858987  30.4849806   3.7554619  59.6244118
  36.0152958   6.6654851  64.3388780  36.0689980   7.2345788  65.1066496
  35.1467739   6.8356736  63.9742817  43.1440613   3.1076458  65.3388565
  43.3376503   4.0122268  65.5847840  43.0441231   2.6483877  66.1727150
  38.2055721   3.2583201  70.9129445  38.0541228   3.0293752  69.9959529
  38.1960401   4.2153802  70.9260790  34.9741058   0.8315113  65.8975712
  35.9033118   0.9826273  65.7244679  34.5532088   0.9199134  65.0424358
  33.7729389   4.8565778  63.6674249  33.6340475   4.4884562  64.5400187
  32.9843986   5.3713417  63.4958207  34.3677541   9.9574874  55.0099786
  34.5429297   9.4862917  55.8245409  33.6810329  10.5840640  55.2381047
  35.3234605   4.2347380  61.0563087  34.9884437   4.1948150  61.9520737
  34.8238550   3.5692096  60.5833497  29.2978849  -0.3584989  66.5815668
  29.1598647  -1.0904751  67.1827207  30.2083772  -0.4476089  66.2999856
  38.2593796   1.5803415  51.3300147  37.6422967   0.8550243  51.2333199
  37.7910285   2.3412775  50.9867221  31.9261149  -0.6465030  66.0699348
  32.6360768  -1.2871838  66.0285966  31.8830457  -0.3952135  66.9925529
  39.9147928   6.2902323  68.9905927  39.8560474   5.6061543  68.3236510
  40.3167446   7.0321313  68.5386553  28.9338627  13.1064237  61.7839646
  29.1735225  13.7382761  62.4618665  28.0907823  12.7552277  62.0705005
  39.9165335   4.2541907  67.2219907  39.0292114   3.9167829  67.3446306
  40.4863886   3.5224938  67.4588672  33.4466489   8.9143359  64.1881150
  33.3736660   9.7198331  64.7000455  33.0043882   9.1135325  63.3629171
  33.2356268   8.1515130  57.6983972  32.4523790   8.6936810  57.7922196
  33.9349013   8.6689109  58.0978213  36.5452918  -6.0390241  60.3418177
  37.0421618  -6.7920279  60.0219247  35.7739900  -6.0025924  59.7761386
  44.3982676  -0.3349876  61.9836468  44.3872552   0.5474840  61.6130402
  43.5300055  -0.6878325  61.7891006  35.9065172   8.8130194  66.3439309
  36.6193144   9.4477658  66.2715210  35.4155201   8.9094059  65.5279311
  37.6282699   2.7181446  57.9156600  36.6938978   2.8382909  57.7461305
  37.8059367   1.8153913  57.6516610  33.1287887  -3.8972858  60.0689862
  32.7585675  -4.4501818  60.7570767  33.6246980  -4.5014725  59.5164862
  41.0155250  -1.4401235  58.4506634  41.4815703  -0.6073243  58.3766937
  41.4662751  -1.9056253  59.1551893  30.9577086   6.5624637  67.1644879
  31.6586545   7.1961120  67.3174274  30.4872201   6.9039369  66.4040519
  39.0831481   4.9042587  55.4492787  39.3591325   4.7899181  56.3586661
  38.2135980   4.5060072  55.4104960  38.7578372  -0.8830756  64.9897430
  38.1049822  -0.6354848  64.3349883  39.1358752  -1.6966617  64.6559907
  35.7185545   9.1528938  59.0925600  35.9007940   8.3350594  59.5553352
  36.5418532   9.3696630  58.6550490  36.0527711   8.0797123  56.3540649
  36.5815477   7.5689577  55.7410811  36.3155931   7.7639653  57.2186182
  34.8065945  -0.1410945  71.4763467  34.1306582  -0.2416815  72.1465842
  35.6293579  -0.2971731  71.9399464  26.5544804   6.0960992  64.0975982
  27.1398241   5.3504680  64.2303886  26.3569642   6.4064949  64.9812646
  29.4083459   9.1312239  59.1138425  28.7393834   9.6158367  58.6302465
  29.2696329   9.3781460  60.0281803  33.5488728  11.1655983  65.7121083
  34.1007036  11.3287604  66.4770168  33.8894921  11.7560421  65.0401108
  38.3999602   5.9917240  71.5669737  38.9439506   6.6047199  71.0724692
  37.8186447   6.5496819  72.0836750  36.6857115   9.1137958  62.6984765
  36.5608254   8.3127698  62.1895711  37.3436206   9.6084152  62.2098735
  38.7492023   6.9146979  64.3264315  37.8022359   6.7952330  64.2542642
  39.0974796   6.0269477  64.4090577  35.7538456   6.7099695  60.5268667
  35.6063419   5.7816402  60.7076237  36.5791950   6.7319785  60.0425743
  39.3572578   7.5328253  61.6133540  40.2819126   7.3271115  61.4757991
  39.1887882   7.2844655  62.5222882  35.7499971  -5.4362468  55.5200785
  35.9663585  -4.5537830  55.2189613  35.2694038  -5.8276254  54.7906427
  30.4899192  -2.4776754  62.0971529  30.3443773  -2.1636451  62.9895811
  30.0124396  -1.8591854  61.5442428  39.1467895   8.0513921  56.9695632
  39.3204772   7.4860343  56.2169484  39.6396786   8.8514816  56.7875122
  45.0007286   0.8150344  58.5885931  45.4438432   0.0657669  58.1905055
  44.1233796   0.8060480  58.2059663  40.1343067   7.3680685  54.0692530
  40.8293972   7.9887378  54.2879845  40.4766217   6.5176037  54.3444908
  42.0334490   4.8180391  55.5979861  42.5585814   5.1567664  54.8729181
  41.9456843   3.8827406  55.4142995  33.6954539   8.7314465  67.7269737
  34.0041665   8.4863611  68.5992437  34.4930021   8.9361103  67.2388608
  33.7175151  10.8852374  59.9575114  33.2780141  10.3928753  60.6507971
  34.4683268  10.3425342  59.7167189  26.1967490   7.0763915  59.9599742
  27.0225510   6.7767687  59.5798385  25.8461542   6.3071537  60.4089531
  31.1649023   6.4290383  62.0297416  30.5429032   5.7661088  61.7299643
  31.8353890   6.4551515  61.3471063  24.3976095   4.9950241  60.9188676
  23.5608003   4.5672416  60.7372677  24.3699740   5.1882685  61.8559467
  41.7228396   5.4513295  70.9031059  40.9323940   5.4337433  70.3635558
  41.4861751   5.9901588  71.6580095  41.8426271   2.3005761  68.2163787
  41.8924276   2.1355768  69.1579310  41.7340195   1.4333020  67.8261668
  30.7262530   4.9794307  55.5055876  30.8750650   5.6629771  54.8522549
  31.5328973   4.9599397  56.0205332  39.1330034  -1.7163311  69.5323094
  40.0339896  -1.8556846  69.2407092  39.2078008  -1.5508856  70.4721271
  33.4672839  -4.3396456  68.3776280  32.5976148  -4.0462890  68.1058869
  33.7032319  -3.7556011  69.0983544  43.3444468   4.7202702  68.4605809
  43.0529276   5.0832683  69.2969270  42.7316599   4.0069711  68.2819141
  44.5440150   2.2855582  60.9808379  45.3787042   2.7245386  61.1445939
  44.6799279   1.8094235  60.1616625  41.5931656  -0.1564683  66.9285867
  42.0685778   0.0362963  66.1204718  40.6697222  -0.1005497  66.6829250
  28.4815163   1.0059484  56.5116945  28.2361205   0.1021814  56.7097155
  28.6511077   1.0076635  55.5696423  34.2257935   7.4742437  52.9767623
  33.6531903   8.0932624  52.5238095  34.7990729   8.0241799  53.5107545
  40.2933325  -3.2798923  65.1614172  41.2450748  -3.1800825  65.1826396
  40.1236776  -4.0720654  65.6712257  38.3147705  -6.1943340  65.3473573
  37.7197637  -5.9138327  64.6520062  38.0297401  -5.7049439  66.1190314
  37.4455195   7.7579587  54.1076206  38.3785868   7.6925149  54.3109081
  37.3578408   8.5935854  53.6490738  40.0743212   7.0745458  51.0680153
  39.9956843   6.7405321  51.9615911  40.8952879   7.5667225  51.0671626
  42.7721403  -0.0592803  64.2756472  42.7397723  -0.9976802  64.4616156
  43.3822027   0.0191234  63.5422297  34.6104734  -1.1896750  50.3183676
  35.5563839  -1.3190542  50.3872094  34.2318979  -1.9282088  50.7953104
  42.9215892  -3.2681760  64.3214755  42.4054940  -4.0523303  64.1344684
  43.8055840  -3.5963043  64.4861275  40.5826619  -9.5240744  60.2810568
  40.3851440  -9.8325656  61.1653900  41.1926324  -8.7979105  60.4108498
  48.5897953   1.0023204  63.4162509  49.3201341   0.7408492  63.9770212
  47.9804898   0.2651926  63.4564577  46.6713250  -0.8568934  64.0136960
  45.9446414  -0.9912969  63.4053452  46.2560537  -0.5492105  64.8193678
  34.4943427   2.8620996  71.7784333  35.4146436   3.0399595  71.9724379
  34.4593010   1.9177041  71.6264032  32.7947651  -3.2646774  50.2538561
  31.8879107  -3.5613661  50.3301275  33.0723632  -3.5616956  49.3872847
  27.4905499   0.7722031  64.4207114  27.7091509   1.7039138  64.4395148
  27.9031273   0.4130005  65.2061918  32.3633364  -3.6544764  73.8109863
  32.2630091  -2.7050407  73.7421954  32.1454906  -3.9826525  72.9385933
  39.7179072  -7.5331312  57.5385763  39.1377741  -6.8746508  57.1563816
  39.4515005  -8.3553968  57.1273181  38.1682639  -8.1326254  59.7407084
  38.6682417  -8.0209720  58.9321403  38.8118247  -8.4365202  60.3807892
  32.2264634  -0.2247625  72.6274925  31.7431716   0.5752735  72.8338814
  32.3125573  -0.2139680  71.6742369  25.4950594   1.6080755  60.5496744
  25.4721282   1.7068442  59.5978627  25.8051231   2.4545906  60.8713910
  28.1537972   3.6656910  64.6643358  29.1081225   3.6340852  64.5973290
  27.9550495   3.2047534  65.4793584  28.7437354   2.2358026  67.2314156
  29.5630243   2.7302105  67.2548993  29.0174162   1.3189994  67.2031724
  38.5003950  -5.3731222  56.5942112  37.6129805  -5.0881571  56.3762306
  38.9157939  -5.5337458  55.7469389  41.8518486  -5.3484701  60.3096451
  42.6278876  -4.8588248  60.5821068  41.1266621  -4.9226647  60.7668320
  44.2891045  -4.6357082  61.3670392  44.8835536  -4.8761346  60.6563700
  44.3617629  -5.3549951  61.9943928  26.5088201   9.2076529  61.6813556
  26.3742669   8.4476930  61.1151554  26.0920263   9.9317429  61.2142345
  37.6447164   4.3913453  50.6890132  38.3483014   4.5963455  51.3047787
  36.9209812   4.9590215  50.9539215  38.4744974   0.1423314  56.8092402
  38.4180175   0.5991866  55.9700034  39.0273316  -0.6186001  56.6315245
  42.2849780  -4.0686954  57.6342521  42.0286714  -4.4690318  58.4650729
  41.6602648  -3.3543160  57.5092660  46.5962118  -1.3290881  60.1413813
  46.0361676  -1.2597691  60.9145375  45.9905621  -1.5049896  59.4213309
  29.6657327  10.1045846  61.8931999  29.5489711  11.0491279  61.7910689
  28.8449773   9.8019408  62.2817798  39.5533861   4.8295982  52.7388592
  40.3879465   4.3977181  52.5566066  39.3918204   4.6577996  53.6665486
  39.2079753   1.3328095  54.1044931  39.1528557   1.1672367  53.1633375
  38.5825809   2.0404128  54.2607121  36.5225660   3.6377007  73.4298494
  37.3916820   3.8117660  73.0685129  36.0432412   4.4571424  73.3074223
  30.6911841  10.7574108  65.1087927  31.5939087  10.7897719  65.4254422
  30.4649211   9.8274559  65.1234263  32.4465443   9.5105095  61.7698006
  31.4961074   9.5106956  61.6562378  32.7497929   8.7637829  61.2534041
  48.1818136  15.3465633  62.8343768  48.8196546  15.2272381  62.1307109
  48.0638979  16.2946477  62.8931721  44.9907842  15.2993061  62.7705293
  44.6526354  15.1834126  61.8825828  45.8597611  14.8984226  62.7506299
  40.8494658  17.1528538  58.7602184  40.2859523  17.0618475  57.9918472
  40.7347053  16.3328442  59.2404677  45.4727625  16.4527913  68.7291499
  45.4616266  16.0580711  67.8572002  45.6348265  15.7193986  69.3225270
  38.3959090  18.6479729  61.5986405  39.1880382  18.3070554  61.1832704
  38.6355740  18.7574704  62.5188558  46.4294217  20.8199505  54.0716649
  45.7782197  21.4053586  53.6850663  47.2238580  21.3505700  54.1311686
  40.3549844  17.9088643  54.4703783  41.1280720  17.3617630  54.3316659
  40.7075243  18.7732892  54.6818245  42.1934887  19.2365025  67.6770683
  41.9024753  20.1410656  67.5617349  42.8291871  19.2781552  68.3914752
  43.1191093  16.6141873  64.2672042  43.7154666  16.3897896  63.5529005
  43.1766065  15.8726619  64.8697490  42.6916122  14.0681309  52.1022233
  42.9441643  13.5462830  51.3405696  41.7540681  13.9047454  52.2048917
  47.7359405  13.0717087  59.9096976  48.5222494  12.6536510  59.5587393
  47.9998109  13.9763179  60.0778625  47.9069482  18.5089937  54.6085633
  47.2715315  18.5824564  55.3206538  47.5766888  19.0983536  53.9304713
  53.1367832  13.0092320  60.8129955  53.8693004  12.4391537  61.0467784
  52.3807188  12.6213921  61.2536461  42.4112411  15.9709415  54.3046608
  42.2948669  15.2954318  54.9727693  42.5214671  15.4841789  53.4878761
  44.7543952  15.4319562  58.0093297  44.3902159  14.9050183  58.7206219
  45.6111067  15.0418031  57.8359783  50.6593252   6.7213894  65.2724564
  50.3276577   7.5909305  65.0485779  50.0638866   6.4050178  65.9518594
  44.3949439  10.4609461  53.0054646  44.5623841  11.3289698  53.3725117
  44.2046608  10.6236743  52.0815935  47.1524772  18.9226440  64.6720476
  46.8525495  19.8251479  64.5636284  46.8075831  18.6558624  65.5241629
  40.6037253  15.3740237  60.7057181  39.6787750  15.2416451  60.9134873
  40.8521666  16.1534456  61.2027123  50.5521916  11.4408981  62.3517914
  49.6438793  11.3724389  62.0576675  50.5009511  11.9180925  63.1799739
  44.3738659  12.9167119  53.9901313  44.2538285  13.3624170  54.8286793
  43.6791248  13.2652437  53.4314851  37.9646064  15.0173511  61.5400970
  38.0938445  15.2707990  62.4540382  37.2843516  15.6101219  61.2205625
  42.1345552  25.6870761  57.6391444  42.0569581  26.6378586  57.7179925
  41.5307195  25.3416633  58.2966370  44.6262781  12.8598626  70.2952811
  43.8496115  13.4192546  70.2855676  45.2653344  13.3455409  70.8167681
  52.4183562   9.6425419  64.1295788  51.7757942   9.9357952  63.4835582
  51.9138490   9.5278339  64.9348984  50.0723726  13.3888592  54.8181647
  50.9841582  13.6215979  54.6429344  49.5633373  13.9725636  54.2556725
  42.8809154  15.6684080  69.8570778  43.6223838  16.2069123  69.5805602
  42.1746139  16.2950368  70.0142330  48.3564493  17.8113220  68.4542939
  48.7647849  17.3695630  67.7097572  47.6341755  17.2365847  68.7077132
  44.7095563  12.7485827  65.8276496  45.5556758  13.1725240  65.9711145
  44.6494201  12.0919451  66.5215059  48.6793308  18.3714411  62.2095228
  48.0502170  18.5360125  61.5071296  48.2918970  18.7856020  62.9806192
  52.5582540  19.3068848  59.5639592  51.8733578  19.6867750  59.0136625
  52.6426389  19.9164175  60.2971540  47.8595009  10.4090195  67.4857670
  47.6155940  11.1632256  66.9491946  48.1354939  10.7875543  68.3204917
  49.8133471  16.9528807  66.1634936  50.0250367  17.5960567  65.4869317
  49.7663220  16.1191124  65.6956866  47.4159700   9.5646628  63.0671508
  46.5544179   9.8627882  63.3588245  47.4422135   9.7817027  62.1352540
  44.2321270  18.1088819  59.4745313  44.6959615  18.3876522  58.6849936
  43.9678068  17.2072263  59.2918404  41.1245351  17.6560300  62.4125077
  41.6946708  18.0847569  61.7742561  41.7153463  17.3742885  63.1109262
  43.1690156  14.2311971  56.2834879  43.8714199  14.6833015  56.7508805
  42.8370784  13.5895790  56.9114772  41.6170517  12.8223728  70.6586088
  40.9869178  13.5040009  70.8921485  41.5106605  12.7106809  69.7139226
  36.9115490  12.4895524  61.5852012  36.1214544  12.7453052  61.1092123
  37.4026737  13.3043862  61.6904053  50.9279299  19.8300763  64.3357293
  51.7496743  19.4280950  64.0539975  50.9241702  19.7268997  65.2873409
  38.8630235  12.8540103  58.5435489  38.0661398  12.9658797  59.0618984
  38.6355827  13.1926755  57.6776379  44.6935903  19.3784806  66.4918003
  44.7580335  19.8405213  67.3276175  43.9846827  18.7482171  66.6200313
  35.1953193  12.7426014  64.0167003  35.4461231  13.6273024  64.2824579
  35.7312741  12.5630616  63.2442095  59.0185292  16.1739511  60.6842264
  58.2649001  15.6046909  60.5286269  59.1532834  16.1402176  61.6312899
  44.4083920  21.0452914  56.3596984  44.2729595  21.8904449  56.7881832
  44.9493733  21.2472191  55.5962918  40.8951260   7.1244494  73.0211339
  40.5018206   6.5710692  73.6958983  41.7117400   7.4355072  73.4117856
  37.8613318  18.5628352  56.9324909  38.3737838  19.3571602  57.0830474
  38.5136031  17.8654642  56.8658510  39.6708203  21.6794108  59.0147662
  39.8474831  22.6012073  58.8268646  40.4665036  21.3652527  59.4442042
  43.8119221   8.5402373  70.6131596  44.5528934   9.1409526  70.5336058
  44.0437144   7.7980010  70.0549638  38.9560559  13.7258740  68.8909825
  38.8414074  12.8243997  69.1916924  38.1005077  13.9722437  68.5394642
  46.0352397  21.6676480  70.4897326  45.5916251  20.8812859  70.1718230
  46.6969610  21.8555631  69.8241217  40.7939518  23.1972282  65.0158004
  41.3446943  23.0689345  64.2434998  39.9550994  23.4967171  64.6652897
  48.1333635  21.9479280  68.5178727  48.1152110  22.7688161  68.0258996
  49.0553555  21.8233355  68.7428868  44.5906689  19.4623410  69.3602235
  45.1235026  18.7011698  69.1301543  44.0620770  19.1697061  70.1026390
  47.7576384   4.5683476  64.8895877  47.4140653   5.4585117  64.8134988
  48.1255347   4.3785133  64.0265462  35.8262235  16.8917006  57.7084479
  36.6637457  17.3014014  57.4918187  36.0040502  15.9516448  57.6784673
  47.7226667  14.5592087  53.3968312  47.2073290  15.3296691  53.6356700
  47.4503975  13.8857223  54.0201374  45.3073778   9.4041787  58.4553551
  44.4515374   9.0148638  58.2759189  45.7200730   9.4833748  57.5953336
  46.8372924   6.9388131  62.8545110  46.3337720   6.9018266  62.0412916
  47.1303531   7.8480873  62.9141767  43.0815810   7.0226860  61.8611292
  43.9468807   6.8269669  61.5017182  43.1493319   6.7937212  62.7880649
  52.6960941  17.3124441  55.3321486  51.9190384  16.9735601  54.8876648
  53.3752422  17.3177064  54.6576451  47.5112970  12.4319179  55.2228093
  47.2063105  12.7465328  56.0738237  48.4643412  12.5100599  55.2655426
  45.9559402  18.5909402  56.8721047  45.4280763  17.8562162  56.5594285
  45.4546904  19.3684078  56.6261016  50.9352248  16.7858423  61.9888094
  50.2775922  17.4757684  62.0768222  51.7392647  17.1754854  62.3322080
  40.6878129   9.2529068  59.2327659  41.2621881   9.0304250  58.5000852
  41.2749112   9.3217763  59.9856260  49.7457707  15.1402795  60.0392036
  50.2589588  15.7732787  60.5413745  50.3958930  14.5403991  59.6735396
  41.0147716  11.2833529  53.2523544  40.1785029  11.6208216  53.5732819
  40.8752486  11.1482509  52.3150681  42.9900797   6.1270317  57.9602728
  42.3365209   5.8119334  57.3359343  42.9481271   5.5046058  58.6862551
  44.1012002  16.4089612  49.8756021  43.1939064  16.1778866  50.0747169
  44.5983034  15.6127232  50.0630002  47.0080081  25.1187120  52.7952707
  46.3341780  25.4218816  53.4037665  47.3945903  25.9216200  52.4458164
  46.2238537  12.6152251  62.2850376  45.3061099  12.8367198  62.1272064
  46.6398681  12.6898561  61.4262083  47.0073585  14.0143666  57.4153056
  47.7545404  14.5265064  57.1060178  47.2765175  13.6927719  58.2757450
  45.2800235  16.5102207  54.3980011  44.3711455  16.2261240  54.4952480
  45.3095319  16.9301286  53.5383317  50.5119503  20.1208797  58.1671178
  50.0581830  19.2799707  58.2236369  49.8813469  20.7570195  58.5045958
  49.4552422  11.0500783  59.3971846  48.7175179  10.5378169  59.7282088
  49.7079196  10.6101164  58.5855122  48.9552442  21.9585293  59.1020996
  49.2475416  22.5190350  58.3833362  49.4651063  22.2513854  59.8574155
  49.5564050   3.8277035  59.9913615  49.8622926   2.9674398  59.7039530
  50.2816654   4.4194655  59.7912609  35.8488406  14.2307721  58.3795213
  35.6512806  13.6377082  57.6546279  35.2935070  13.9259932  59.0971152
  43.8285129  14.1230828  60.4989806  43.8833739  13.1704664  60.4232283
  43.0176331  14.2790267  60.9831104  44.9776323  18.0510951  51.7368089
  44.5395753  17.3346810  51.2773727  45.7186764  18.2787066  51.1753181
  41.7677489  12.7407888  58.2580185  40.9545355  13.0402058  58.6645377
  42.2636483  12.3463576  58.9754667  43.9186067  22.7365644  60.1914450
  43.8762246  22.9626491  59.2622982  44.8348766  22.5029019  60.3400251
  47.3651701  13.2049712  67.0895079  47.7201089  13.4321185  67.9489544
  48.0123832  13.5368089  66.4672334  53.0949438  16.3268148  57.7944408
  52.9567337  16.5169744  56.8665597  52.7385657  17.0887531  58.2512459
  41.2591564  10.3126243  63.8741420  41.8990943  10.1715002  63.1764383
  40.4269095  10.0260756  63.4980022  53.1218818  18.3944675  62.8055679
  53.5555324  18.3019964  63.6538733  53.8350398  18.3702175  62.1675695
  42.0351868  19.6128673  59.9876412  42.8292466  19.1178994  59.7858987
  41.3243560  19.0846537  59.6244118  46.8546712  21.9946769  64.3388780
  46.9083735  22.5637705  65.1066496  45.9861494  22.1648654  63.9742817
  38.3434631  13.7571755  56.0636165  37.4132220  13.6956211  56.2806127
  38.4392103  13.2347708  55.2672806  38.2620180  10.2826568  58.6514407
  38.5226998  11.1971901  58.5423567  39.0837353   9.8151011  58.8011019
  39.7345106  11.6964325  65.8213231  40.4068159  11.4881687  65.1725880
  38.9074892  11.4986411  65.3818463  53.9834367  18.4368376  65.3388565
  54.1770257  19.3414186  65.5847840  53.8834985  17.9775795  66.1727150
  45.6370678   8.3226266  67.8378892  44.9898593   9.0216216  67.7443368
  46.4071693   8.7562410  68.2055140  49.0449476  18.5875118  70.9129445
  48.8934982  18.3585670  69.9959529  49.0354155  19.5445720  70.9260790
  45.8134812  16.1607031  65.8975712  46.7426872  16.3118191  65.7244679
  45.3925842  16.2491052  65.0424358  44.6123144  20.1857695  63.6674249
  44.4734230  19.8176480  64.5400187  43.8237740  20.7005335  63.4958207
  45.2071296  25.2866792  55.0099786  45.3823052  24.8154835  55.8245409
  44.5204084  25.9132558  55.2381047  46.1628359  19.5639298  61.0563087
  45.8278192  19.5240068  61.9520737  45.6632305  18.8984014  60.5833497
  40.1372603  14.9706928  66.5815668  39.9992401  14.2387167  67.1827207
  41.0477527  14.8815828  66.2999856  49.0987551  16.9095333  51.3300147
  48.4816721  16.1842161  51.2333199  48.6304039  17.6704693  50.9867221
  42.7654904  14.6826888  66.0699348  43.4754522  14.0420080  66.0285966
  42.7224212  14.9339782  66.9925529  50.7541682  21.6194241  68.9905927
  50.6954229  20.9353461  68.3236510  51.1561201  22.3613231  68.5386553
  41.4783838  11.6692105  67.8894987  40.9421195  11.2182844  68.5416584
  40.8900546  11.8038014  67.1465452  39.7732381  28.4356155  61.7839646
  40.0128979  29.0674679  62.4618665  38.9301578  28.0844195  62.0705005
  40.8886097  11.1280757  50.4521451  40.0115563  11.0069558  50.0883698
  41.3643850  10.3366835  50.2000340  50.7559090  19.5833825  67.2219907
  49.8685868  19.2459747  67.3446306  51.3257641  18.8516856  67.4588672
  32.4088237  15.9157917  60.5462958  33.0959277  15.6019647  59.9583974
  32.2536365  16.8199281  60.2730210  37.2122959  10.8048113  64.9747982
  37.1281148  10.1973783  64.2398392  36.3905665  11.2957131  64.9757478
  44.2860243  24.2435277  64.1881150  44.2130415  25.0490249  64.7000455
  43.8437636  24.4427243  63.3629171  44.0750023  23.4807047  57.6983972
  43.2917545  24.0228727  57.7922196  44.7742768  23.9981027  58.0978213
  47.3846673   9.2901677  60.3418177  47.8815372   8.5371639  60.0219247
  46.6133654   9.3265993  59.7761386  55.2376430  14.9942042  61.9836468
  55.2266306  15.8766758  61.6130402  54.3693810  14.6413593  61.7891006
  46.7458927  24.1422111  66.3439309  47.4586899  24.7769576  66.2715210
  46.2548955  24.2385977  65.5279311  48.4676454  18.0473364  57.9156600
  47.5332732  18.1674826  57.7461305  48.6453122  17.1445831  57.6516610
  43.9681642  11.4319060  60.0689862  43.5979429  10.8790100  60.7570767
  44.4640734  10.8277193  59.5164862  51.8549005  13.8890683  58.4506634
  52.3209457  14.7218675  58.3766937  52.3056505  13.4235665  59.1551893
  41.7970840  21.8916555  67.1644879  42.4980300  22.5253038  67.3174274
  41.3265955  22.2331286  66.4040519  49.9225236  20.2334504  55.4492787
  50.1985080  20.1191099  56.3586661  49.0529735  19.8351989  55.4104960
  49.8265668   6.2571270  62.4897536  48.9128747   6.4875497  62.6579743
  50.2558769   6.3409714  63.3411568  49.5972126  14.4461162  64.9897430
  48.9443576  14.6937070  64.3349883  49.9752506  13.6325300  64.6559907
  46.5579300  24.4820855  59.0925600  46.7401695  23.6642511  59.5553352
  47.3812286  24.6988548  58.6550490  46.8921465  23.4089040  56.3540649
  47.4209232  22.8981495  55.7410811  47.1549685  23.0931571  57.2186182
  45.6459699  15.1880973  71.4763467  44.9700336  15.0875102  72.1465842
  46.4687333  15.0320187  71.9399464  37.3938558  21.4252910  64.0975982
  37.9791995  20.6796598  64.2303886  37.1963397  21.7356866  64.9812646
  40.2477213  24.4604157  59.1138425  39.5787589  24.9450285  58.6302465
  40.1090083  24.7073378  60.0281803  31.9856213  13.9958510  62.8180425
  32.0240312  13.4622101  63.6117543  31.4796506  13.4693715  62.1991403
  44.3882482  26.4947901  65.7121083  44.9400790  26.6579522  66.4770168
  44.7288675  27.0852338  65.0401108  39.3646975   8.8423050  66.3142968
  39.4288302   9.7037881  65.9020365  39.3014095   8.2297052  65.5815326
  38.8399248  10.9146183  69.9616002  39.4671287  10.5323260  70.5753526
  37.9827167  10.6960385  70.3271694  49.2393356  21.3209158  71.5669737
  49.7833260  21.9339116  71.0724692  48.6580201  21.8788737  72.0836750
  35.6164791  12.7222612  55.8934357  35.9118232  11.8133290  55.8401410
  34.7152826  12.7010352  55.5715359  47.5250869  24.4429876  62.6984765
  47.4002009  23.6419616  62.1895711  48.1829960  24.9376070  62.2098735
  39.1459038  10.7978609  61.8761905  38.4245623  11.4114576  61.7369379
  39.9352293  11.3336373  61.7978551  49.5885778  22.2438896  64.3264315
  48.6416113  22.1244247  64.2542642  49.9368551  21.3561394  64.4090577
  41.9485351   8.1333035  68.1502557  42.4719753   8.3795332  68.9128866
  41.7297684   8.9653070  67.7305694  37.3452632  10.4036710  56.0173682
  37.0165338   9.5234089  55.8348788  37.6992003  10.3484378  56.9050071
  46.5932211  22.0391612  60.5268667  46.4457173  21.1108320  60.7076237
  47.4185704  22.0611703  60.0425743  40.4594455  10.6909680  56.3849160
  40.7990528  11.2195601  55.6627768  40.9066576  11.0290086  57.1607726
  50.1966333  22.8620171  61.6133540  51.1212880  22.6563033  61.4757991
  50.0281636  22.6136572  62.5222882  43.1537896   9.0746730  65.8352228
  42.8134716   8.2754543  66.2372907  42.4476902   9.3748441  65.2629061
  43.8054368   6.1596043  64.2879551  44.6280437   5.6856521  64.1658441
  44.0492431   6.9386526  64.7878237  42.4462602   9.1884301  54.5842452
  43.1670965   9.5665554  54.0806169  41.8227907   9.9073178  54.6877430
  46.5893725   9.8929450  55.5200785  46.8057340  10.7754088  55.2189613
  46.1087792   9.5015663  54.7906427  41.3292947  12.8515163  62.0971529
  41.1837527  13.1655466  62.9895811  40.8518150  13.4700064  61.5442428
  43.1889330   9.8417711  62.1452419  43.1750898   8.9458805  61.8084717
  43.9061758   9.8488375  62.7790705  45.0415460  10.2755051  64.1905546
  44.7833238  11.1972122  64.1889877  44.5100501   9.8785486  64.8806010
  49.9861649  23.3805839  56.9695632  50.1598527  22.8152261  56.2169484
  50.4790540  24.1806734  56.7875122  35.8038609  15.3920508  65.0359190
  35.2592077  16.1680316  65.1679465  36.6817959  15.7391312  64.8778312
  42.5926225   8.7232092  57.4139989  42.7142137   7.7948738  57.6130876
  42.3028268   8.7370778  56.5018304  45.4617416   6.4087002  60.5506709
  45.4839113   6.4726335  59.5958688  45.8785475   5.5691511  60.7447215
  55.8401040  16.1442262  58.5885931  56.2832186  15.3949587  58.1905055
  54.9627550  16.1352398  58.2059663  50.9736822  22.6972603  54.0692530
  51.6687726  23.3179296  54.2879845  51.3159972  21.8467954  54.3444908
  36.5904631  14.5190404  67.9289347  35.8486367  14.6673039  68.5153978
  36.2697375  14.7798670  67.0656097  52.8728245  20.1472309  55.5979861
  53.3979569  20.4859581  54.8729181  52.7850597  19.2119324  55.4142995
  44.5348293  24.0606382  67.7269737  44.8435420  23.8155529  68.5992437
  45.3323775  24.2653021  67.2388608  44.5568905  26.2144292  59.9575114
  44.1173896  25.7220671  60.6507971  45.3077022  25.6717259  59.7167189
  37.0361244  22.4055833  59.9599742  37.8619264  22.1059605  59.5798385
  36.6855296  21.6363455  60.4089531  42.0042778  21.7582301  62.0297416
  41.3822787  21.0953006  61.7299643  42.6747644  21.7843433  61.3471063
  35.2369849  20.3242159  60.9188676  34.4001758  19.8964334  60.7372677
  35.2093495  20.5174602  61.8559467  42.0767305  10.2364089  71.6229922
  42.1255460  11.1126212  71.2407691  42.6189819   9.6941482  71.0501565
  52.5622151  20.7805212  70.9031059  51.7717694  20.7629351  70.3635558
  52.3255505  21.3193506  71.6580095  52.6820026  17.6297679  68.2163787
  52.7318031  17.4647686  69.1579310  52.5733949  16.7624938  67.8261668
  41.5656284  20.3086224  55.5055876  41.7144405  20.9921689  54.8522549
  42.3722728  20.2891314  56.0205332  49.9723788  13.6128607  69.5323094
  50.8733651  13.4735071  69.2407092  50.0471763  13.7783061  70.4721271
  44.3066593  10.9895461  68.3776280  43.4369903  11.2829027  68.1058869
  44.5426074  11.5735906  69.0983544  54.1838223  20.0494620  68.4605809
  53.8923031  20.4124601  69.2969270  53.5710354  19.3361628  68.2819141
  55.3833905  17.6147500  60.9808379  56.2180796  18.0537304  61.1445939
  55.5193034  17.1386153  60.1616625  52.4325411  15.1727235  66.9285867
  52.9079532  15.3654881  66.1204718  51.5090976  15.2286421  66.6829250
  39.3208917  16.3351402  56.5116945  39.0754959  15.4313732  56.7097155
  39.4904832  16.3368552  55.5696423  47.0105627   7.2075078  65.8941701
  47.5287571   7.9436105  65.5688189  46.6560760   7.5139072  66.7288460
  38.5904565  12.0679759  54.0103106  37.8973810  12.1424114  53.3543142
  38.3456317  11.3040103  54.5324623  47.2618221   3.6275361  61.4142597
  47.5419975   2.9598550  62.0403024  48.0468828   3.8204456  60.9017261
  45.0651690  22.8034355  52.9767623  44.4925657  23.4224542  52.5238095
  45.6384484  23.3533716  53.5107545  51.1327080  12.0492995  65.1614172
  52.0844503  12.1491092  65.1826396  50.9630530  11.2571263  65.6712257
  49.1541459   9.1348578  65.3473573  48.5591391   9.4153591  64.6520062
  48.8691156   9.6242479  66.1190314  48.2848950  23.0871505  54.1076206
  49.2179623  23.0217067  54.3109081  48.1972163  23.9227772  53.6490738
  50.9136966  22.4037375  51.0680153  50.8350598  22.0697239  51.9615911
  51.7346633  22.8959143  51.0671626  53.6115158  15.2699114  64.2756472
  53.5791478  14.3315115  64.4616156  54.2215781  15.3483151  63.5422297
  45.4498488  14.1395167  50.3183676  46.3957593  14.0101376  50.3872094
  45.0712733  13.4009829  50.7953104  53.7609646  12.0610158  64.3214755
  53.2448695  11.2768615  64.1344684  54.6449595  11.7328875  64.4861275
  51.4220373   5.8051173  60.2810568  51.2245194   5.4966262  61.1653900
  52.0320079   6.5312812  60.4108498  59.4291707  16.3315121  63.4162509
  60.1595096  16.0700409  63.9770212  58.8198653  15.5943843  63.4564577
  57.5107005  14.4722984  64.0136960  56.7840168  14.3378949  63.4053452
  57.0954291  14.7799813  64.8193678  45.3337181  18.1912914  71.7784333
  46.2540190  18.3691513  71.9724379  45.2986764  17.2468959  71.6264032
  43.6341406  12.0645144  50.2538561  42.7272861  11.7678257  50.3301275
  43.9117387  11.7674962  49.3872847  34.5519346  13.3851507  60.7037608
  34.2322130  12.5316815  60.4111982  34.0052774  13.6000085  61.4595575
  38.3299254  16.1013948  64.4207114  38.5485263  17.0331056  64.4395148
  38.7425027  15.7421923  65.2061918  45.2503471   6.6082034  56.4082802
  44.4404200   6.2629119  56.7838049  45.9387888   6.2989577  56.9970414
  47.1794020   5.6860080  58.0307099  47.7325058   6.1055534  58.6897122
  47.4164106   4.7595828  58.0730055  43.2027119  11.6747154  73.8109863
  43.1023846  12.6241511  73.7421954  42.9848661  11.3465393  72.9385933
  42.4040190   8.9232079  50.3950540  43.2659354   9.2486977  50.6546358
  42.5890534   8.1363575  49.8823606  34.4207606  17.0054419  62.6730729
  33.7271077  16.5908372  62.1600684  35.1680597  17.0474955  62.0764148
  50.5572827   7.7960606  57.5385763  49.9771496   8.4545410  57.1563816
  50.2908759   6.9737950  57.1273181  49.0076393   7.1965663  59.7407084
  49.5076171   7.3082198  58.9321403  49.6512001   6.8926716  60.3807892
  43.0658389  15.1044293  72.6274925  42.5825471  15.9044653  72.8338814
  43.1519328  15.1152238  71.6742369  36.3344349  16.9372673  60.5496744
  36.3115037  17.0360360  59.5978627  36.6444985  17.7837823  60.8713910
  38.9931726  18.9948828  64.6643358  39.9474980  18.9632770  64.5973290
  38.7944250  18.5339451  65.4793584  39.5831109  17.5649944  67.2314156
  40.4023998  18.0594022  67.2548993  39.8567916  16.6481912  67.2031724
  49.3397705   9.9560696  56.5942112  48.4523560  10.2410347  56.3762306
  49.7551694   9.7954459  55.7469389  52.6912241   9.9807217  60.3096451
  53.4672631  10.4703669  60.5821068  51.9660375  10.4065271  60.7668320
  55.1284799  10.6934836  61.3670392  55.7229290  10.4530572  60.6563700
  55.2011383   9.9741967  61.9943928  37.3481955  24.5368447  61.6813556
  37.2136423  23.7768848  61.1151554  36.9314017  25.2609347  61.2142345
  48.4840918  19.7205371  50.6890132  49.1876768  19.9255373  51.3047787
  47.7603567  20.2882132  50.9539215  49.3138728  15.4715232  56.8092402
  49.2573930  15.9283783  55.9700034  49.8667071  14.7105916  56.6315245
  53.1243534  11.2604964  57.6342521  52.8680469  10.8601599  58.4650729
  52.4996402  11.9748758  57.5092660  57.4355872  14.0001037  60.1413813
  56.8755430  14.0694226  60.9145375  56.8299376  13.8242022  59.4213309
  40.5051081  25.4337764  61.8931999  40.3883465  26.3783197  61.7910689
  39.6843527  25.1311326  62.2817798  50.3927616  20.1587900  52.7388592
  51.2273220  19.7269098  52.5566066  50.2311959  19.9869913  53.6665486
  50.0473508  16.6620013  54.1044931  49.9922312  16.4964285  53.1633375
  49.4219563  17.3696046  54.2607121  34.8366023  11.8988077  67.9306353
  35.4824886  11.3887031  68.4193578  34.6283174  12.6356759  68.5049778
  47.3619415  18.9668925  73.4298494  48.2310575  19.1409577  73.0685129
  46.8826166  19.7863342  73.3074223  43.3569633   6.1628122  53.6830249
  43.3448303   7.1069962  53.8398520  44.2493055   5.9798268  53.3889711
  41.5305595  26.0866026  65.1087927  42.4332842  26.1189636  65.4254422
  41.3042965  25.1566477  65.1234263  43.2859197  24.8397013  61.7698006
  42.3354828  24.8398874  61.6562378  43.5891683  24.0929747  61.2534041
  47.1721753   2.7570899  57.9376186  46.4054149   2.2029385  58.0832869
  47.5832458   2.8292767  58.7990338  39.1763514   9.0455695  72.0281367
  40.0394975   8.6892499  72.2384692  38.6028924   8.7069589  72.7156772
  59.0211891  30.6757551  62.8343768  59.6590301  30.5564298  62.1307109
  58.9032734  31.6238395  62.8931721  55.8301597  30.6284979  62.7705293
  55.4920109  30.5126044  61.8825828  56.6991365  30.2276144  62.7506299
  51.6888413  32.4820455  58.7602184  51.1253278  32.3910392  57.9918472
  51.5740808  31.6620360  59.2404677  56.3121380  31.7819831  68.7291499
  56.3010021  31.3872629  67.8572002  56.4742019  31.0485903  69.3225270
  49.2352845  33.9771647  61.5986405  50.0274137  33.6362472  61.1832704
  49.4749495  34.0866622  62.5188558  57.2687971  36.1491423  54.0716649
  56.6175951  36.7345504  53.6850663  58.0632334  36.6797618  54.1311686
  51.1943599  33.2380560  54.4703783  51.9674475  32.6909547  54.3316659
  51.5468997  34.1024810  54.6818245  53.0328641  34.5656943  67.6770683
  52.7418507  35.4702573  67.5617349  53.6685625  34.6073470  68.3914752
  53.9584848  31.9433791  64.2672042  54.5548420  31.7189813  63.5529005
  54.0159819  31.2018537  64.8697490  53.5309876  29.3973226  52.1022233
  53.7835397  28.8754748  51.3405696  52.5934435  29.2339372  52.2048917
  58.5753159  28.4009005  59.9096976  59.3616248  27.9828428  59.5587393
  58.8391864  29.3055097  60.0778625  58.7463237  33.8381855  54.6085633
  58.1109070  33.9116482  55.3206538  58.4160643  34.4275454  53.9304713
  63.9761586  28.3384238  60.8129955  64.7086758  27.7683455  61.0467784
  63.2200942  27.9505838  61.2536461  53.2506165  31.3001332  54.3046608
  53.1342423  30.6246236  54.9727693  53.3608425  30.8133706  53.4878761
  55.5937706  30.7611479  58.0093297  55.2295913  30.2342100  58.7206219
  56.4504822  30.3709948  57.8359783  61.4987007  22.0505812  65.2724564
  61.1670331  22.9201223  65.0485779  60.9032620  21.7342096  65.9518594
  55.2343193  25.7901379  53.0054646  55.4017595  26.6581616  53.3725117
  55.0440362  25.9528661  52.0815935  57.9918526  34.2518358  64.6720476
  57.6919249  35.1543397  64.5636284  57.6469586  33.9850541  65.5241629
  51.4431008  30.7032155  60.7057181  50.5181504  30.5708369  60.9134873
  51.6915421  31.4826374  61.2027123  61.3915670  26.7700898  62.3517914
  60.4832547  26.7016307  62.0576675  61.3403266  27.2472843  63.1799739
  55.2132414  28.2459037  53.9901313  55.0932039  28.6916087  54.8286793
  54.5185002  28.5944354  53.4314851  48.8039819  30.3465428  61.5400970
  48.9332200  30.5999907  62.4540382  48.1237270  30.9393136  61.2205625
  52.9739306  41.0162678  57.6391444  52.8963336  41.9670503  57.7179925
  52.3700950  40.6708551  58.2966370  55.4656536  28.1890544  70.2952811
  54.6889870  28.7484464  70.2855676  56.1047099  28.6747327  70.8167681
  63.2577316  24.9717337  64.1295788  62.6151697  25.2649870  63.4835582
  62.7532245  24.8570257  64.9348984  60.9117480  28.7180510  54.8181647
  61.8235336  28.9507897  54.6429344  60.4027127  29.3017554  54.2556725
  53.7202908  30.9975997  69.8570778  54.4617592  31.5361041  69.5805602
  53.0139894  31.6242286  70.0142330  59.1958248  33.1405138  68.4542939
  59.6041604  32.6987548  67.7097572  58.4735509  32.5657765  68.7077132
  55.5489318  28.0777744  65.8276496  56.3950513  28.5017158  65.9711145
  55.4887955  27.4211369  66.5215059  59.5187062  33.7006328  62.2095228
  58.8895925  33.8652042  61.5071296  59.1312724  34.1147938  62.9806192
  63.3976294  34.6360766  59.5639592  62.7127332  35.0159667  59.0136625
  63.4820144  35.2456093  60.2971540  58.6988763  25.7382113  67.4857670
  58.4549695  26.4924173  66.9491946  58.9748694  26.1167460  68.3204917
  60.6527226  32.2820725  66.1634936  60.8644121  32.9252485  65.4869317
  60.6056974  31.4483042  65.6956866  58.2553455  24.8938546  63.0671508
  57.3937934  25.1919799  63.3588245  58.2815889  25.1108945  62.1352540
  55.0715024  33.4380736  59.4745313  55.5353370  33.7168439  58.6849936
  54.8071822  32.5364181  59.2918404  51.9639105  32.9852218  62.4125077
  52.5340462  33.4139486  61.7742561  52.5547217  32.7034803  63.1109262
  54.0083910  29.5603889  56.2834879  54.7107954  30.0124932  56.7508805
  53.6764539  28.9187708  56.9114772  52.4564272  28.1515645  70.6586088
  51.8262932  28.8331926  70.8921485  52.3500360  28.0398727  69.7139226
  47.7509244  27.8187441  61.5852012  46.9608298  28.0744970  61.1092123
  48.2420492  28.6335779  61.6904053  61.7673054  35.1592681  64.3357293
  62.5890498  34.7572868  64.0539975  61.7635457  35.0560915  65.2873409
  49.7023990  28.1832021  58.5435489  48.9055153  28.2950715  59.0618984
  49.4749582  28.5218673  57.6776379  55.5329657  34.7076724  66.4918003
  55.5974090  35.1697131  67.3276175  54.8240581  34.0774089  66.6200313
  46.0346947  28.0717932  64.0167003  46.2854986  28.9564942  64.2824579
  46.5706496  27.8922533  63.2442095  55.2477675  36.3744831  56.3596984
  55.1123350  37.2196367  56.7881832  55.7887487  36.5764109  55.5962918
  51.7345015  22.4536411  73.0211339  51.3411960  21.9002610  73.6958983
  52.5511155  22.7646990  73.4117856  48.7007072  33.8920269  56.9324909
  49.2131593  34.6863520  57.0830474  49.3529785  33.1946560  56.8658510
  50.5101957  37.0086026  59.0147662  50.6868585  37.9303990  58.8268646
  51.3058791  36.6944445  59.4442042  54.6512976  23.8694290  70.6131596
  55.3922689  24.4701443  70.5336058  54.8830898  23.1271928  70.0549638
  49.7954314  29.0550658  68.8909825  49.6807829  28.1535915  69.1916924
  48.9398831  29.3014354  68.5394642  56.8746151  36.9968398  70.4897326
  56.4310005  36.2104776  70.1718230  57.5363365  37.1847548  69.8241217
  58.9727389  37.2771198  68.5178727  58.9545865  38.0980079  68.0258996
  59.8947309  37.1525273  68.7428868  55.4300444  34.7915327  69.3602235
  55.9628780  34.0303615  69.1301543  54.9014525  34.4988979  70.1026390
  58.5970138  19.8975393  64.8895877  58.2534408  20.7877035  64.8134988
  58.9649101  19.7077051  64.0265462  46.6655989  32.2208924  57.7084479
  47.5031211  32.6305932  57.4918187  46.8434257  31.2808366  57.6784673
  58.5620421  29.8884004  53.3968312  58.0467045  30.6588609  53.6356700
  58.2897730  29.2149140  54.0201374  56.1467532  24.7333705  58.4553551
  55.2909129  24.3440556  58.2759189  56.5594484  24.8125666  57.5953336
  57.6766679  22.2680048  62.8545110  57.1731474  22.2310184  62.0412916
  57.9697286  23.1772791  62.9141767  53.9209565  22.3518778  61.8611292
  54.7862562  22.1561587  61.5017182  53.9887074  22.1229130  62.7880649
  58.3506724  27.7611096  55.2228093  58.0456860  28.0757246  56.0738237
  59.3037166  27.8392516  55.2655426  56.7953156  33.9201320  56.8721047
  56.2674518  33.1854079  56.5594285  56.2940659  34.6975996  56.6261016
  61.7746002  32.1150340  61.9888094  61.1169677  32.8049602  62.0768222
  62.5786401  32.5046772  62.3322080  51.5271884  24.5820986  59.2327659
  52.1015636  24.3596168  58.5000852  52.1142866  24.6509681  59.9856260
  60.5851461  30.4694713  60.0392036  61.0983343  31.1024705  60.5413745
  61.2352685  29.8695908  59.6735396  51.8541471  26.6125447  53.2523544
  51.0178783  26.9500134  53.5732819  51.7146241  26.4774427  52.3150681
  53.8294552  21.4562235  57.9602728  53.1758964  21.1411252  57.3359343
  53.7875026  20.8337975  58.6862551  54.9405756  31.7381530  49.8756021
  54.0332818  31.5070783  50.0747169  55.4376788  30.9419149  50.0630002
  57.8473835  40.4479037  52.7952707  57.1735534  40.7510734  53.4037665
  58.2339657  41.2508118  52.4458164  57.0632292  27.9444168  62.2850376
  56.1454853  28.1659115  62.1272064  57.4792436  28.0190479  61.4262083
  57.8467340  29.3435584  57.4153056  58.5939159  29.8556981  57.1060178
  58.1158929  29.0219637  58.2757450  56.1193990  31.8394125  54.3980011
  55.2105209  31.5553158  54.4952480  56.1489074  32.2593203  53.5383317
  61.3513257  35.4500714  58.1671178  60.8975584  34.6091624  58.2236369
  60.7207224  36.0862113  58.5045958  60.2946177  26.3792700  59.3971846
  59.5568934  25.8670087  59.7282088  60.5472950  25.9393082  58.5855122
  59.7946196  37.2877211  59.1020996  60.0869171  37.8482268  58.3833362
  60.3044817  37.5805772  59.8574155  60.3957804  19.1568952  59.9913615
  60.7016681  18.2966316  59.7039530  61.1210409  19.7486573  59.7912609
  46.6882160  29.5599639  58.3795213  46.4906560  28.9669000  57.6546279
  46.1328824  29.2551849  59.0971152  54.6678884  29.4522745  60.4989806
  54.7227494  28.4996582  60.4232283  53.8570086  29.6082185  60.9831104
  55.8170078  33.3802869  51.7368089  55.3789508  32.6638727  51.2773727
  56.5580519  33.6078983  51.1753181  52.6071244  28.0699805  58.2580185
  51.7939109  28.3693976  58.6645377  53.1030238  27.6755494  58.9754667
  54.7579822  38.0657562  60.1914450  54.7156000  38.2918408  59.2622982
  55.6742521  37.8320937  60.3400251  58.2045455  28.5341630  67.0895079
  58.5594843  28.7613103  67.9489544  58.8517587  28.8660006  66.4672334
  52.0985319  25.6418161  63.8741420  52.7384698  25.5006920  63.1764383
  51.2662849  25.3552674  63.4980022  52.8745622  34.9420591  59.9876412
  53.6686221  34.4470911  59.7858987  52.1637315  34.4138454  59.6244118
  57.6940467  37.3238687  64.3388780  57.7477489  37.8929623  65.1066496
  56.8255248  37.4940572  63.9742817  49.1828386  29.0863673  56.0636165
  48.2525974  29.0248128  56.2806127  49.2785858  28.5639626  55.2672806
  49.1013935  25.6118486  58.6514407  49.3620752  26.5263819  58.5423567
  49.9231107  25.1442928  58.8011019  50.5738860  27.0256243  65.8213231
  51.2461914  26.8173605  65.1725880  49.7468647  26.8278329  65.3818463
  56.4764432  23.6518184  67.8378892  55.8292347  24.3508133  67.7443368
  57.2465448  24.0854328  68.2055140  59.8843230  33.9167036  70.9129445
  59.7328737  33.6877588  69.9959529  59.8747910  34.8737637  70.9260790
  56.6528567  31.4898949  65.8975712  57.5820627  31.6410108  65.7244679
  56.2319597  31.5782970  65.0424358  55.4516898  35.5149613  63.6674249
  55.3127984  35.1468398  64.5400187  54.6631495  36.0297253  63.4958207
  56.0465050  40.6158710  55.0099786  56.2216806  40.1446753  55.8245409
  55.3597838  41.2424476  55.2381047  57.0022114  34.8931216  61.0563087
  56.6671946  34.8531986  61.9520737  56.5026059  34.2275932  60.5833497
  50.9766358  30.2998846  66.5815668  50.8386156  29.5679085  67.1827207
  51.8871281  30.2107746  66.2999856  59.9381305  32.2387250  51.3300147
  59.3210476  31.5134078  51.2333199  59.4697794  32.9996610  50.9867221
  53.6048658  30.0118805  66.0699348  54.3148277  29.3711997  66.0285966
  53.5617966  30.2631700  66.9925529  61.5935437  36.9486159  68.9905927
  61.5347983  36.2645379  68.3236510  61.9954955  37.6905149  68.5386553
  52.3177592  26.9984023  67.8894987  51.7814949  26.5474762  68.5416584
  51.7294301  27.1329932  67.1465452  51.7279851  26.4572675  50.4521451
  50.8509317  26.3361475  50.0883698  52.2037604  25.6658753  50.2000340
  61.5952844  34.9125742  67.2219907  60.7079623  34.5751664  67.3446306
  62.1651395  34.1808774  67.4588672  43.2481991  31.2449834  60.5462958
  43.9353031  30.9311564  59.9583974  43.0930120  32.1491199  60.2730210
  48.0516713  26.1340031  64.9747982  47.9674902  25.5265700  64.2398392
  47.2299420  26.6249049  64.9757478  54.9143777  38.8098965  57.6983972
  54.1311299  39.3520645  57.7922196  55.6136522  39.3272944  58.0978213
  58.2240427  24.6193594  60.3418177  58.7209127  23.8663557  60.0219247
  57.4527409  24.6557911  59.7761386  59.3070208  33.3765282  57.9156600
  58.3726487  33.4966744  57.7461305  59.4846876  32.4737748  57.6516610
  54.8075396  26.7610977  60.0689862  54.4373184  26.2082018  60.7570767
  55.3034489  26.1569111  59.5164862  60.6659422  21.5863188  62.4897536
  59.7522502  21.8167415  62.6579743  61.0952524  21.6701632  63.3411568
  60.4365881  29.7753080  64.9897430  59.7837331  30.0228987  64.3349883
  60.8146260  28.9617218  64.6559907  57.3973054  39.8112773  59.0925600
  57.5795449  38.9934429  59.5553352  58.2206040  40.0280465  58.6550490
  57.7315220  38.7380958  56.3540649  58.2602986  38.2273413  55.7410811
  57.9943440  38.4223488  57.2186182  56.4853454  30.5172891  71.4763467
  55.8094091  30.4167020  72.1465842  57.3081088  30.3612105  71.9399464
  48.2332313  36.7544827  64.0975982  48.8185750  36.0088515  64.2303886
  48.0357151  37.0648784  64.9812646  51.0870968  39.7896075  59.1138425
  50.4181343  40.2742202  58.6302465  50.9483838  40.0365295  60.0281803
  42.8249967  29.3250428  62.8180425  42.8634067  28.7914018  63.6117543
  42.3190260  28.7985633  62.1991403  50.2040730  24.1714968  66.3142968
  50.2682056  25.0329799  65.9020365  50.1407850  23.5588970  65.5815326
  49.6793002  26.2438101  69.9616002  50.3065041  25.8615178  70.5753526
  48.8220921  26.0252303  70.3271694  60.0787111  36.6501076  71.5669737
  60.6227015  37.2631034  71.0724692  59.4973956  37.2080654  72.0836750
  46.4558545  28.0514530  55.8934357  46.7511986  27.1425208  55.8401410
  45.5546581  28.0302269  55.5715359  58.3644624  39.7721794  62.6984765
  58.2395763  38.9711534  62.1895711  59.0223715  40.2667987  62.2098735
  49.9852792  26.1270526  61.8761905  49.2639378  26.7406494  61.7369379
  50.7746048  26.6628291  61.7978551  60.4279532  37.5730814  64.3264315
  59.4809868  37.4536165  64.2542642  60.7762305  36.6853312  64.4090577
  52.7879106  23.4624953  68.1502557  53.3113507  23.7087249  68.9128866
  52.5691439  24.2944988  67.7305694  48.1846387  25.7328627  56.0173682
  47.8559093  24.8526006  55.8348788  48.5385757  25.6776296  56.9050071
  57.4325965  37.3683530  60.5268667  57.2850928  36.4400238  60.7076237
  58.2579459  37.3903621  60.0425743  51.2988210  26.0201597  56.3849160
  51.6384282  26.5487518  55.6627768  51.7460330  26.3582003  57.1607726
  61.0360087  38.1912089  61.6133540  61.9606635  37.9854950  61.4757991
  60.8675391  37.9428490  62.5222882  53.9931651  24.4038648  65.8352228
  53.6528471  23.6046461  66.2372907  53.2870657  24.7040359  65.2629061
  54.6448122  21.4887960  64.2879551  55.4674192  21.0148439  64.1658441
  54.8886186  22.2678444  64.7878237  53.2856357  24.5176219  54.5842452
  54.0064719  24.8957472  54.0806169  52.6621661  25.2365096  54.6877430
  57.4287480  25.2221368  55.5200785  57.6451094  26.1046006  55.2189613
  56.9481547  24.8307581  54.7906427  52.1686701  28.1807081  62.0971529
  52.0231282  28.4947384  62.9895811  51.6911905  28.7991981  61.5442428
  54.0283084  25.1709629  62.1452419  54.0144653  24.2750722  61.8084717
  54.7455512  25.1780293  62.7790705  55.8809215  25.6046969  64.1905546
  55.6226993  26.5264040  64.1889877  55.3494255  25.2077404  64.8806010
  60.8255404  38.7097756  56.9695632  60.9992281  38.1444179  56.2169484
  61.3184295  39.5098651  56.7875122  46.6432363  30.7212425  65.0359190
  46.0985831  31.4972233  65.1679465  47.5211713  31.0683230  64.8778312
  53.4319980  24.0524009  57.4139989  53.5535891  23.1240655  57.6130876
  53.1422022  24.0662695  56.5018304  56.3011170  21.7378920  60.5506709
  56.3232867  21.8018253  59.5958688  56.7179229  20.8983428  60.7447215
  61.8130576  38.0264521  54.0692530  62.5081481  38.6471213  54.2879845
  62.1553726  37.1759872  54.3444908  47.4298385  29.8482322  67.9289347
  46.6880121  29.9964957  68.5153978  47.1091129  30.1090587  67.0656097
  55.3962660  41.5436210  59.9575114  54.9567650  41.0512588  60.6507971
  56.1470777  41.0009177  59.7167189  47.8754999  37.7347750  59.9599742
  48.7013019  37.4351522  59.5798385  47.5249051  36.9655373  60.4089531
  46.0763604  35.6534077  60.9188676  45.2395512  35.2256251  60.7372677
  46.0487249  35.8466520  61.8559467  52.9161060  25.5656007  71.6229922
  52.9649215  26.4418129  71.2407691  53.4583574  25.0233400  71.0501565
  52.4050039  35.6378142  55.5055876  52.5538159  36.3213606  54.8522549
  53.2116482  35.6183232  56.0205332  60.8117543  28.9420524  69.5323094
  61.7127405  28.8026989  69.2407092  60.8865517  29.1074979  70.4721271
  55.1460348  26.3187379  68.3776280  54.2763657  26.6120945  68.1058869
  55.3819828  26.9027824  69.0983544  63.2719165  30.5019152  66.9285867
  63.7473287  30.6946799  66.1204718  62.3484731  30.5578338  66.6829250
  50.1602672  31.6643320  56.5116945  49.9148714  30.7605650  56.7097155
  50.3298586  31.6660470  55.5696423  57.8499382  22.5366996  65.8941701
  58.3681326  23.2728023  65.5688189  57.4954515  22.8430989  66.7288460
  49.4298319  27.3971677  54.0103106  48.7367564  27.4716032  53.3543142
  49.1850071  26.6332021  54.5324623  58.1011976  18.9567278  61.4142597
  58.3813730  18.2890468  62.0403024  58.8862583  19.1496374  60.9017261
  55.9045444  38.1326272  52.9767623  55.3319412  38.7516460  52.5238095
  56.4778238  38.6825634  53.5107545  61.9720834  27.3784912  65.1614172
  62.9238257  27.4783010  65.1826396  61.8024285  26.5863181  65.6712257
  59.9935214  24.4640496  65.3473573  59.3985146  24.7445508  64.6520062
  59.7084910  24.9534397  66.1190314  59.1242704  38.4163423  54.1076206
  60.0573377  38.3508984  54.3109081  59.0365917  39.2519689  53.6490738
  61.7530721  37.7329293  51.0680153  61.6744352  37.3989156  51.9615911
  62.5740388  38.2251061  51.0671626  64.4508912  30.5991032  64.2756472
  64.4185232  29.6607033  64.4616156  65.0609536  30.6775069  63.5422297
  56.2892243  29.4687085  50.3183676  57.2351348  29.3393293  50.3872094
  55.9106488  28.7301747  50.7953104  64.6003401  27.3902076  64.3214755
  64.0842449  26.6060532  64.1344684  65.4843349  27.0620792  64.4861275
  62.2614127  21.1343091  60.2810568  62.0638949  20.8258179  61.1653900
  62.8713833  21.8604730  60.4108498  56.1730935  33.5204831  71.7784333
  57.0933945  33.6983430  71.9724379  56.1380519  32.5760877  71.6264032
  54.4735160  27.3937062  50.2538561  53.5666615  27.0970174  50.3301275
  54.7511141  27.0966880  49.3872847  45.3913100  28.7143425  60.7037608
  45.0715885  27.8608733  60.4111982  44.8446529  28.9292003  61.4595575
  49.1693008  31.4305866  64.4207114  49.3879018  32.3622974  64.4395148
  49.5818782  31.0713840  65.2061918  56.0897226  21.9373951  56.4082802
  55.2797954  21.5921036  56.7838049  56.7781643  21.6281495  56.9970414
  58.0187774  21.0151998  58.0307099  58.5718813  21.4347451  58.6897122
  58.2557860  20.0887746  58.0730055  54.0420873  27.0039072  73.8109863
  53.9417600  27.9533429  73.7421954  53.8242415  26.6757311  72.9385933
  53.2433945  24.2523997  50.3950540  54.1053109  24.5778895  50.6546358
  53.4284289  23.4655493  49.8823606  45.2601360  32.3346336  62.6730729
  44.5664832  31.9200289  62.1600684  46.0074351  32.3766873  62.0764148
  61.3966581  23.1252523  57.5385763  60.8165250  23.7837327  57.1563816
  61.1302514  22.3029868  57.1273181  59.8470148  22.5257581  59.7407084
  60.3469926  22.6374115  58.9321403  60.4905755  22.2218634  60.3807892
  53.9052143  30.4336211  72.6274925  53.4219225  31.2336571  72.8338814
  53.9913082  30.4444155  71.6742369  47.1738103  32.2664590  60.5496744
  47.1508791  32.3652277  59.5978627  47.4838740  33.1129741  60.8713910
  49.8325481  34.3240745  64.6643358  50.7868734  34.2924688  64.5973290
  49.6338004  33.8631369  65.4793584  50.4224863  32.8941861  67.2314156
  51.2417752  33.3885940  67.2548993  50.6961671  31.9773829  67.2031724
  60.1791459  25.2852614  56.5942112  59.2917314  25.5702264  56.3762306
  60.5945448  25.1246377  55.7469389  63.5305995  25.3099135  60.3096451
  64.3066385  25.7995587  60.5821068  62.8054130  25.7357189  60.7668320
  65.9678554  26.0226754  61.3670392  66.5623045  25.7822490  60.6563700
  66.0405138  25.3033884  61.9943928  48.1875710  39.8660365  61.6813556
  48.0530178  39.1060766  61.1151554  47.7707772  40.5901265  61.2142345
  59.3234673  35.0497288  50.6890132  60.0270523  35.2547291  51.3047787
  58.5997321  35.6174050  50.9539215  60.1532483  30.8007150  56.8092402
  60.0967684  31.2575701  55.9700034  60.7060825  30.0397834  56.6315245
  63.9637289  26.5896881  57.6342521  63.7074223  26.1893517  58.4650729
  63.3390157  27.3040675  57.5092660  45.6759777  27.2279995  67.9306353
  46.3218641  26.7178949  68.4193578  45.4676928  27.9648677  68.5049778
  58.2013169  34.2960843  73.4298494  59.0704329  34.4701495  73.0685129
  57.7219921  35.1155259  73.3074223  54.1963388  21.4920040  53.6830249
  54.1842058  22.4361880  53.8398520  55.0886810  21.3090185  53.3889711
  58.0115507  18.0862816  57.9376186  57.2447903  17.5321303  58.0832869
  58.4226212  18.1584685  58.7990338  50.0157268  24.3747612  72.0281367
  50.8788730  24.0184417  72.2384692  49.4422679  24.0361507  72.7156772
  62.0337353  48.5672478  54.4703783  62.8068229  48.0201465  54.3316659
  62.3862752  49.4316727  54.6818245  64.3703631  44.7265144  52.1022233
  64.6229152  44.2046665  51.3405696  63.4328190  44.5631290  52.2048917
  64.0899920  46.6293250  54.3046608  63.9736178  45.9538153  54.9727693
  64.2002179  46.1425624  53.4878761  64.8477665  44.8895806  56.2834879
  65.5501708  45.3416850  56.7508805  64.5158293  44.2479625  56.9114772
  60.5417744  43.5123938  58.5435489  59.7448907  43.6242633  59.0618984
  60.3143336  43.8510591  57.6776379  62.5738769  37.7828329  73.0211339
  62.1805715  37.2294527  73.6958983  63.3904909  38.0938907  73.4117856
  62.3665638  39.9112904  59.2327659  62.9409390  39.6888085  58.5000852
  62.9536621  39.9801598  59.9856260  63.4464998  43.3991723  58.2580185
  62.6332864  43.6985893  58.6645377  63.9423992  43.0047412  58.9754667
  60.0222140  44.4155591  56.0636165  59.0919729  44.3540046  56.2806127
  60.1179612  43.8931543  55.2672806  59.9407689  40.9410403  58.6514407
  60.2014507  41.8555737  58.5423567  60.7624862  40.4734846  58.8011019
  70.7236985  49.2458954  70.9129445  70.5722491  49.0169505  69.9959529
  70.7141664  50.2029555  70.9260790  66.8858805  55.9450627  55.0099786
  67.0610561  55.4738670  55.8245409  66.1991593  56.5716393  55.2381047
  65.6469151  42.0902895  60.0689862  65.2766938  41.5373935  60.7570767
  66.1428243  41.4861028  59.5164862  61.0434484  39.5006886  66.3142968
  61.1075811  40.3621717  65.9020365  60.9801604  38.8880887  65.5815326
  57.2952300  43.3806447  55.8934357  57.5905741  42.4717126  55.8401410
  56.3940335  43.3594187  55.5715359  63.6272860  38.7916870  68.1502557
  64.1507262  39.0379167  68.9128866  63.4085193  39.6236905  67.7305694
  59.0240141  41.0620545  56.0173682  58.6952847  40.1817924  55.8348788
  59.3779512  41.0068214  56.9050071  62.1381964  41.3493515  56.3849160
  62.4778037  41.8779436  55.6627768  62.5854085  41.6873921  57.1607726
  64.8325405  39.7330566  65.8352228  64.4922225  38.9338379  66.2372907
  64.1264411  40.0332276  65.2629061  64.8676839  40.5001547  62.1452419
  64.8538407  39.6042640  61.8084717  65.5849267  40.5072210  62.7790705
  64.2713734  39.3815927  57.4139989  64.3929646  38.4532573  57.6130876
  63.9815777  39.3954613  56.5018304  63.7554814  40.8947924  71.6229922
  63.8042969  41.7710047  71.2407691  64.2977328  40.3525317  71.0501565
  71.6511297  44.2712442  69.5323094  72.5521160  44.1318907  69.2407092
  71.7259272  44.4366897  70.4721271  60.2692074  42.7263595  54.0103106
  59.5761319  42.8007950  53.3543142  60.0243826  41.9623938  54.5324623
  64.8814628  42.3330989  73.8109863  64.7811355  43.2825346  73.7421954
  64.6636170  42.0049228  72.9385933  60.8551023  39.7039530  72.0281367
  61.7182484  39.3476335  72.2384692  60.2816433  39.3653425  72.7156772
  73.4132524  53.1120247  73.0211339  73.0199469  52.5586445  73.6958983
  74.2298664  53.4230825  73.4117856  72.2913645  74.4231908  61.7839646
  72.5310243  75.0550432  62.4618665  71.4482841  74.0719948  62.0705005
  91.5393154  76.6633304  62.8343768  92.1771564  76.5440051  62.1307109
  91.4213997  77.6114148  62.8931721  88.3482860  76.6160732  62.7705293
  88.0101372  76.5001797  61.8825828  89.2172629  76.2151897  62.7506299
  84.2069676  78.4696208  58.7602184  83.6434541  78.3786145  57.9918472
  84.0922071  77.6496113  59.2404677  88.8302643  77.7695584  68.7291499
  88.8191284  77.3748382  67.8572002  88.9923283  77.0361656  69.3225270
  81.7534108  79.9647400  61.5986405  82.5455400  79.6238225  61.1832704
  81.9930758  80.0742375  62.5188558  89.7869235  82.1367176  54.0716649
  89.1357215  82.7221257  53.6850663  90.5813598  82.6673371  54.1311686
  83.7124862  79.2256313  54.4703783  84.4855738  78.6785300  54.3316659
  84.0650261  80.0900563  54.6818245  85.5509905  80.5532696  67.6770683
  85.2599771  81.4578326  67.5617349  86.1866889  80.5949223  68.3914752
  86.4766111  77.9309544  64.2672042  87.0729684  77.7065566  63.5529005
  86.5341083  77.1894290  64.8697490  86.0491140  75.3848979  52.1022233
  86.3016661  74.8630501  51.3405696  85.1115699  75.2215125  52.2048917
  91.0934423  74.3884758  59.9096976  91.8797512  73.9704181  59.5587393
  91.3573127  75.2930850  60.0778625  91.2644500  79.8257608  54.6085633
  90.6290333  79.8992235  55.3206538  90.9341906  80.4151207  53.9304713
  96.4942850  74.3259991  60.8129955  97.2268022  73.7559208  61.0467784
  95.7382205  73.9381591  61.2536461  85.7687429  77.2877085  54.3046608
  85.6523687  76.6121989  54.9727693  85.8789688  76.8009459  53.4878761
  88.1118970  76.7487232  58.0093297  87.7477177  76.2217853  58.7206219
  88.9686085  76.3585702  57.8359783  90.5099790  80.2394111  64.6720476
  90.2100513  81.1419150  64.5636284  90.1650849  79.9726294  65.5241629
  83.9612271  76.6907908  60.7057181  83.0362768  76.5584122  60.9134873
  84.2096684  77.4702127  61.2027123  93.9096933  72.7576651  62.3517914
  93.0013811  72.6892060  62.0576675  93.8584529  73.2348596  63.1799739
  87.7313677  74.2334790  53.9901313  87.6113303  74.6791840  54.8286793
  87.0366266  74.5820107  53.4314851  81.3221082  76.3341181  61.5400970
  81.4513463  76.5875660  62.4540382  80.6418533  76.9268889  61.2205625
  85.4920569  87.0038431  57.6391444  85.4144599  87.9546257  57.7179925
  84.8882213  86.6584304  58.2966370  87.9837799  74.1766297  70.2952811
  87.2071133  74.7360217  70.2855676  88.6228362  74.6623080  70.8167681
  95.7758580  70.9593090  64.1295788  95.1332960  71.2525623  63.4835582
  95.2713508  70.8446010  64.9348984  93.4298744  74.7056263  54.8181647
  94.3416600  74.9383650  54.6429344  92.9208391  75.2893307  54.2556725
  86.2384172  76.9851750  69.8570778  86.9798856  77.5236794  69.5805602
  85.5321157  77.6118039  70.0142330  91.7139511  79.1280891  68.4542939
  92.1222867  78.6863301  67.7097572  90.9916773  78.5533518  68.7077132
  88.0670581  74.0653497  65.8276496  88.9131776  74.4892911  65.9711145
  88.0069219  73.4087122  66.5215059  92.0368326  79.6882081  62.2095228
  91.4077188  79.8527795  61.5071296  91.6493988  80.1023691  62.9806192
  95.9157558  80.6236519  59.5639592  95.2308596  81.0035421  59.0136625
  96.0001407  81.2331846  60.2971540  91.2170027  71.7257866  67.4857670
  90.9730958  72.4799926  66.9491946  91.4929957  72.1043213  68.3204917
  93.1708489  78.2696478  66.1634936  93.3825385  78.9128238  65.4869317
  93.1238238  77.4358795  65.6956866  90.7734718  70.8814299  63.0671508
  89.9119197  71.1795552  63.3588245  90.7997153  71.0984698  62.1352540
  87.5896288  79.4256489  59.4745313  88.0534633  79.7044192  58.6849936
  87.3253086  78.5239934  59.2918404  84.4820369  78.9727971  62.4125077
  85.0521726  79.4015239  61.7742561  85.0728481  78.6910556  63.1109262
  86.5265174  75.5479642  56.2834879  87.2289217  76.0000685  56.7508805
  86.1945802  74.9063461  56.9114772  84.9745535  74.1391398  70.6586088
  84.3444196  74.8207679  70.8921485  84.8681623  74.0274480  69.7139226
  80.2690508  73.8063194  61.5852012  79.4789562  74.0620723  61.1092123
  80.7601755  74.6211532  61.6904053  94.2854317  81.1468434  64.3357293
  95.1071761  80.7448621  64.0539975  94.2816720  81.0436668  65.2873409
  88.0510921  80.6952477  66.4918003  88.1155353  81.1572884  67.3276175
  87.3421845  80.0649842  66.6200313  78.5528211  74.0593685  64.0167003
  78.8036249  74.9440695  64.2824579  79.0887759  73.8798286  63.2442095
 102.3760310  77.4907182  60.6842264 101.6224019  76.9214580  60.5286269
 102.5107852  77.4569847  61.6312899  87.7658938  82.3620584  56.3596984
  87.6304613  83.2072120  56.7881832  88.3068751  82.5639862  55.5962918
  84.2526278  68.4412164  73.0211339  83.8593224  67.8878363  73.6958983
  85.0692418  68.7522743  73.4117856  83.0283220  82.9961779  59.0147662
  83.2049849  83.9179743  58.8268646  83.8240054  82.6820198  59.4442042
  82.3135577  75.0426411  68.8909825  82.1989092  74.1411668  69.1916924
  81.4580095  75.2890107  68.5394642  89.3927415  82.9844151  70.4897326
  88.9491269  82.1980529  70.1718230  90.0544628  83.1723301  69.8241217
  84.1514536  84.5139952  65.0158004  84.7021961  84.3857016  64.2434998
  83.3126012  84.8134841  64.6652897  91.4908653  83.2646951  68.5178727
  91.4727128  84.0855832  68.0258996  92.4128573  83.1401026  68.7428868
  87.9481707  80.7791080  69.3602235  88.4810044  80.0179368  69.1301543
  87.4195788  80.4864732  70.1026390  91.0801685  75.8759757  53.3968312
  90.5648308  76.6464362  53.6356700  90.8078993  75.2024894  54.0201374
  88.6648796  70.7209458  58.4553551  87.8090392  70.3316309  58.2759189
  89.0775747  70.8001419  57.5953336  96.0535959  78.6292112  55.3321486
  95.2765402  78.2903272  54.8876648  96.7327440  78.6344735  54.6576451
  90.8687988  73.7486849  55.2228093  90.5638123  74.0632999  56.0738237
  91.8218430  73.8268269  55.2655426  89.3134420  79.9077073  56.8721047
  88.7855781  79.1729832  56.5594285  88.8121922  80.6851749  56.6261016
  94.2927266  78.1026093  61.9888094  93.6350940  78.7925355  62.0768222
  95.0967665  78.4922525  62.3322080  93.1032725  76.4570466  60.0392036
  93.6164606  77.0900458  60.5413745  93.7533948  75.8571661  59.6735396
  87.4587020  77.7257283  49.8756021  86.5514082  77.4946536  50.0747169
  87.9558052  76.9294902  50.0630002  90.3655099  86.4354790  52.7952707
  89.6916798  86.7386487  53.4037665  90.7520921  87.2383871  52.4458164
  89.5813555  73.9319922  62.2850376  88.6636117  74.1534869  62.1272064
  89.9973699  74.0066232  61.4262083  90.3648603  75.3311337  57.4153056
  91.1120422  75.8432734  57.1060178  90.6340193  75.0095390  58.2757450
  88.6375253  77.8269878  54.3980011  87.7286473  77.5428911  54.4952480
  88.6670337  78.2468956  53.5383317  93.8694521  81.4376467  58.1671178
  93.4156848  80.5967377  58.2236369  93.2388487  82.0737866  58.5045958
  92.8127440  72.3668453  59.3971846  92.0750197  71.8545840  59.7282088
  93.0654214  71.9268835  58.5855122  92.3127460  83.2752964  59.1020996
  92.6050434  83.8358021  58.3833362  92.8226081  83.5681525  59.8574155
  87.1860147  75.4398499  60.4989806  87.2408757  74.4872335  60.4232283
  86.3751349  75.5957938  60.9831104  88.3351341  79.3678622  51.7368089
  87.8970771  78.6514481  51.2773727  89.0761782  79.5954736  51.1753181
  85.1252507  74.0575558  58.2580185  84.3120373  74.3569729  58.6645377
  85.6211501  73.6631247  58.9754667  87.2761085  84.0533315  60.1914450
  87.2337264  84.2794161  59.2622982  88.1923784  83.8196690  60.3400251
  90.7226719  74.5217383  67.0895079  91.0776107  74.7488856  67.9489544
  91.3698850  74.8535760  66.4672334  96.4524456  77.6435819  57.7944408
  96.3142354  77.8337415  56.8665597  96.0960675  78.4055201  58.2512459
  84.6166582  71.6293914  63.8741420  85.2565961  71.4882673  63.1764383
  83.7844113  71.3428427  63.4980022  96.4793835  79.7112346  62.8055679
  96.9130342  79.6187635  63.6538733  97.1925416  79.6869846  62.1675695
  85.3926886  80.9296344  59.9876412  86.1867484  80.4346664  59.7858987
  84.6818578  80.4014207  59.6244118  90.2121730  83.3114440  64.3388780
  90.2658753  83.8805376  65.1066496  89.3436512  83.4816325  63.9742817
  83.0920124  73.0131996  65.8213231  83.7643177  72.8049358  65.1725880
  82.2649910  72.8154082  65.3818463  97.3409385  79.7536046  65.3388565
  97.5345275  80.6581857  65.5847840  97.2410003  79.2943465  66.1727150
  92.4024494  79.9042789  70.9129445  92.2510000  79.6753341  69.9959529
  92.3929173  80.8613390  70.9260790  89.1709830  77.4774702  65.8975712
  90.1001890  77.6285861  65.7244679  88.7500860  77.5658723  65.0424358
  87.9698162  81.5025366  63.6674249  87.8309248  81.1344151  64.5400187
  87.1812758  82.0173006  63.4958207  88.5646314  86.6034463  55.0099786
  88.7398070  86.1322506  55.8245409  87.8779102  87.2300229  55.2381047
  89.5203377  80.8806969  61.0563087  89.1853210  80.8407739  61.9520737
  89.0207323  80.2151685  60.5833497  83.4947621  76.2874599  66.5815668
  83.3567419  75.5554838  67.1827207  84.4052545  76.1983499  66.2999856
  92.4562569  78.2263003  51.3300147  91.8391739  77.5009831  51.2333199
  91.9879057  78.9872363  50.9867221  86.1229922  75.9994558  66.0699348
  86.8329540  75.3587750  66.0285966  86.0799230  76.2507453  66.9925529
  94.1116700  82.9361912  68.9905927  94.0529247  82.2521132  68.3236510
  94.5136219  83.6780902  68.5386553  84.8358856  72.9859776  67.8894987
  84.2996213  72.5350515  68.5416584  84.2475564  73.1205685  67.1465452
  83.1307399  89.7523825  61.7839646  83.3703997  90.3842350  62.4618665
  82.2876596  89.4011865  62.0705005  94.1134108  80.9001496  67.2219907
  93.2260886  80.5627417  67.3446306  94.6832659  80.1684527  67.4588672
  75.7663255  77.2325587  60.5462958  76.4534295  76.9187317  59.9583974
  75.6111383  78.1366952  60.2730210  87.6435261  85.5602948  64.1881150
  87.5705433  86.3657919  64.7000455  87.2012654  85.7594914  63.3629171
  87.4325041  84.7974718  57.6983972  86.6492563  85.3396398  57.7922196
  88.1317786  85.3148698  58.0978213  90.7421691  70.6069347  60.3418177
  91.2390390  69.8539310  60.0219247  89.9708672  70.6433664  59.7761386
  98.5951448  76.3109713  61.9836468  98.5841324  77.1934428  61.6130402
  97.7268828  75.9581264  61.7891006  90.1033945  85.4589782  66.3439309
  90.8161917  86.0937247  66.2715210  89.6123973  85.5553648  65.5279311
  91.8251471  79.3641035  57.9156600  90.8907750  79.4842497  57.7461305
  92.0028140  78.4613501  57.6516610  87.3256660  72.7486730  60.0689862
  86.9554447  72.1957771  60.7570767  87.8215752  72.1444864  59.5164862
  95.2124023  75.2058354  58.4506634  95.6784475  76.0386345  58.3766937
  95.6631523  74.7403335  59.1551893  85.1545858  83.2084225  67.1644879
  85.8555318  83.8420708  67.3174274  84.6840973  83.5498957  66.4040519
  93.2800254  81.5502175  55.4492787  93.5560098  81.4358770  56.3586661
  92.4104753  81.1519660  55.4104960  92.9547144  75.7628833  64.9897430
  92.3018594  76.0104740  64.3349883  93.3327524  74.9492971  64.6559907
  89.9154318  85.7988526  59.0925600  90.0976712  84.9810182  59.5553352
  90.7387304  86.0156218  58.6550490  90.2496483  84.7256711  56.3540649
  90.7784250  84.2149166  55.7410811  90.5124703  84.4099241  57.2186182
  89.0034717  76.5048644  71.4763467  88.3275354  76.4042773  72.1465842
  89.8262351  76.3487858  71.9399464  80.7513576  82.7420580  64.0975982
  81.3367013  81.9964268  64.2303886  80.5538415  83.0524537  64.9812646
  83.6052231  85.7771828  59.1138425  82.9362607  86.2617955  58.6302465
  83.4665101  86.0241048  60.0281803  75.3431231  75.3126181  62.8180425
  75.3815330  74.7789771  63.6117543  74.8371524  74.7861386  62.1991403
  87.7457500  87.8115571  65.7121083  88.2975808  87.9747193  66.4770168
  88.0863693  88.4020009  65.0401108  92.5968374  82.6376829  71.5669737
  93.1408278  83.2506787  71.0724692  92.0155219  83.1956407  72.0836750
  90.8825887  85.7597547  62.6984765  90.7577027  84.9587287  62.1895711
  91.5404978  86.2543740  62.2098735  82.5034055  72.1146279  61.8761905
  81.7820641  72.7282247  61.7369379  83.2927311  72.6504044  61.7978551
  92.9460796  83.5606567  64.3264315  91.9991131  83.4411918  64.2542642
  93.2943569  82.6729065  64.4090577  89.9507229  83.3559283  60.5268667
  89.8032191  82.4275991  60.7076237  90.7760722  83.3779374  60.0425743
  93.5541351  84.1787842  61.6133540  94.4787898  83.9730703  61.4757991
  93.3856654  83.9304243  62.5222882  84.6867965  74.1682834  62.0971529
  84.5412545  74.4823137  62.9895811  84.2093168  74.7867734  61.5442428
  86.5464348  71.1585382  62.1452419  86.5325916  70.2626475  61.8084717
  87.2636776  71.1656046  62.7790705  88.3990478  71.5922722  64.1905546
  88.1408256  72.5139793  64.1889877  87.8675519  71.1953157  64.8806010
  93.3436667  84.6973509  56.9695632  93.5173545  84.1319932  56.2169484
  93.8365558  85.4974404  56.7875122  79.1613627  76.7088178  65.0359190
  78.6167095  77.4847986  65.1679465  80.0392977  77.0558983  64.8778312
  99.1976058  77.4609932  58.5885931  99.6407204  76.7117257  58.1905055
  98.3202568  77.4520069  58.2059663  94.3311839  84.0140274  54.0692530
  95.0262744  84.6346966  54.2879845  94.6734990  83.1635625  54.3444908
  79.9479649  75.8358075  67.9289347  79.2061385  75.9840710  68.5153978
  79.6272393  76.0966340  67.0656097  96.2303263  81.4639979  55.5979861
  96.7554587  81.8027252  54.8729181  96.1425615  80.5286995  55.4142995
  87.8923311  85.3774053  67.7269737  88.2010438  85.1323200  68.5992437
  88.6898793  85.5820691  67.2388608  87.9143923  87.5311963  59.9575114
  87.4748914  87.0388341  60.6507971  88.6652040  86.9884930  59.7167189
  80.3936262  83.7223503  59.9599742  81.2194282  83.4227275  59.5798385
  80.0430314  82.9531126  60.4089531  85.3617795  83.0749972  62.0297416
  84.7397805  82.4120677  61.7299643  86.0322662  83.1011104  61.3471063
  78.5944867  81.6409830  60.9188676  77.7576776  81.2132004  60.7372677
  78.5668513  81.8342273  61.8559467  85.4342323  71.5531760  71.6229922
  85.4830478  72.4293882  71.2407691  85.9764837  71.0109153  71.0501565
  95.9197169  82.0972883  70.9031059  95.1292712  82.0797022  70.3635558
  95.6830523  82.6361177  71.6580095  96.0395044  78.9465349  68.2163787
  96.0893049  78.7815357  69.1579310  95.9308967  78.0792608  67.8261668
  84.9231302  81.6253895  55.5055876  85.0719423  82.3089359  54.8522549
  85.7297746  81.6058985  56.0205332  93.3298806  74.9296277  69.5323094
  94.2308669  74.7902742  69.2407092  93.4046781  75.0950732  70.4721271
  87.6641611  72.3063132  68.3776280  86.7944921  72.5996698  68.1058869
  87.9001092  72.8903577  69.0983544  97.5413241  81.3662291  68.4605809
  97.2498049  81.7292271  69.2969270  96.9285372  80.6529299  68.2819141
  98.7408923  78.9315171  60.9808379  99.5755814  79.3704975  61.1445939
  98.8768052  78.4553824  60.1616625  95.7900429  76.4894905  66.9285867
  96.2654550  76.6822552  66.1204718  94.8665994  76.5454091  66.6829250
  88.4226708  84.1202025  52.9767623  87.8500675  84.7392213  52.5238095
  88.9959502  84.6701387  53.5107545  94.4902098  73.3660665  65.1614172
  95.4419521  73.4658763  65.1826396  94.3205548  72.5738934  65.6712257
  92.5116477  70.4516249  65.3473573  91.9166409  70.7321261  64.6520062
  92.2266174  70.9410150  66.1190314  91.6423968  84.4039176  54.1076206
  92.5754641  84.3384737  54.3109081  91.5547181  85.2395442  53.6490738
  94.2711984  83.7205046  51.0680153  94.1925616  83.3864909  51.9615911
  95.0921651  84.2126814  51.0671626  96.9690176  76.5866785  64.2756472
  96.9366496  75.6482786  64.4616156  97.5790799  76.6650822  63.5422297
  88.8073506  75.4562838  50.3183676  89.7532611  75.3269046  50.3872094
  88.4287751  74.7177500  50.7953104  97.1184664  73.3777829  64.3214755
  96.6023713  72.5936285  64.1344684  98.0024613  73.0496545  64.4861275
 102.7866725  77.6482792  63.4162509 103.5170114  77.3868080  63.9770212
 102.1773671  76.9111514  63.4564577 100.8682023  75.7890655  64.0136960
 100.1415186  75.6546620  63.4053452 100.4529309  76.0967483  64.8193678
  88.6912199  79.5080584  71.7784333  89.6115208  79.6859183  71.9724379
  88.6561782  78.5636630  71.6264032  81.6874272  77.4181619  64.4207114
  81.9060281  78.3498727  64.4395148  82.1000045  77.0589593  65.2061918
  86.5602137  72.9914825  73.8109863  86.4598864  73.9409182  73.7421954
  86.3423679  72.6633064  72.9385933  77.7782624  78.3222089  62.6730729
  77.0846095  77.9076042  62.1600684  78.5255615  78.3642626  62.0764148
  93.9147845  69.1128276  57.5385763  93.3346514  69.7713080  57.1563816
  93.6483777  68.2905621  57.1273181  92.3651411  68.5133334  59.7407084
  92.8651189  68.6249868  58.9321403  93.0087019  68.2094387  60.3807892
  86.4233407  76.4211964  72.6274925  85.9400489  77.2212324  72.8338814
  86.5094346  76.4319908  71.6742369  82.3506744  80.3116498  64.6643358
  83.3049998  80.2800441  64.5973290  82.1519268  79.8507122  65.4793584
  82.9406126  78.8817614  67.2314156  83.7599015  79.3761693  67.2548993
  83.2142934  77.9649582  67.2031724  92.6972723  71.2728367  56.5942112
  91.8098578  71.5578017  56.3762306  93.1126712  71.1122130  55.7469389
  96.0487259  71.2974888  60.3096451  96.8247649  71.7871340  60.5821068
  95.3235393  71.7232942  60.7668320  98.4859817  72.0102507  61.3670392
  99.0804308  71.7698243  60.6563700  98.5586401  71.2909637  61.9943928
  80.7056973  85.8536118  61.6813556  80.5711441  85.0936519  61.1151554
  80.2889035  86.5777018  61.2142345  91.8415936  81.0373041  50.6890132
  92.5451786  81.2423044  51.3047787  91.1178585  81.6049803  50.9539215
  92.6713746  76.7882903  56.8092402  92.6148948  77.2451454  55.9700034
  93.2242089  76.0273587  56.6315245  96.4818552  72.5772634  57.6342521
  96.2255487  72.1769270  58.4650729  95.8571420  73.2916428  57.5092660
 100.7930890  75.3168708  60.1413813 100.2330448  75.3861897  60.9145375
 100.1874394  75.1409692  59.4213309  83.8626099  86.7505435  61.8931999
  83.7458483  87.6950867  61.7910689  83.0418545  86.4478996  62.2817798
  93.7502634  81.4755570  52.7388592  94.5848237  81.0436769  52.5566066
  93.5886976  81.3037584  53.6665486  93.4048526  77.9787684  54.1044931
  93.3497330  77.8131955  53.1633375  92.7794581  78.6863717  54.2607121
  78.1941041  73.2155748  67.9306353  78.8399904  72.7054702  68.4193578
  77.9858192  73.9524430  68.5049778  90.7194433  80.2836596  73.4298494
  91.5885593  80.4577248  73.0685129  90.2401184  81.1031012  73.3074223
  84.8880613  87.4033697  65.1087927  85.7907860  87.4357307  65.4254422
  84.6617983  86.4734148  65.1234263  86.6434215  86.1564683  61.7698006
  85.6929846  86.1566545  61.6562378  86.9466701  85.4097418  61.2534041
 102.3786909  91.9925222  62.8343768 103.0165319  91.8731969  62.1307109
 102.2607752  92.9406066  62.8931721  99.1876615  91.9452650  62.7705293
  98.8495126  91.8293714  61.8825828 100.0566383  91.5443815  62.7506299
  95.0463431  93.7988126  58.7602184  94.4828296  93.7078063  57.9918472
  94.9315826  92.9788031  59.2404677  99.6696398  93.0987501  68.7291499
  99.6585039  92.7040300  67.8572002  99.8317037  92.3653574  69.3225270
  92.5927863  95.2939318  61.5986405  93.3849154  94.9530142  61.1832704
  92.8324513  95.4034293  62.5188558 100.6262989  97.4659094  54.0716649
  99.9750969  98.0513174  53.6850663 101.4207352  97.9965289  54.1311686
  94.5518617  94.5548231  54.4703783  95.3249493  94.0077218  54.3316659
  94.9044015  95.4192480  54.6818245  96.3903659  95.8824613  67.6770683
  96.0993525  96.7870244  67.5617349  97.0260643  95.9241141  68.3914752
  97.3159866  93.2601462  64.2672042  97.9123438  93.0357484  63.5529005
  97.3734837  92.5186207  64.8697490  96.8884894  90.7140897  52.1022233
  97.1410415  90.1922418  51.3405696  95.9509453  90.5507043  52.2048917
 101.9328177  89.7176675  59.9096976 102.7191266  89.2996099  59.5587393
 102.1966881  90.6222768  60.0778625 102.1038254  95.1549526  54.6085633
 101.4684087  95.2284152  55.3206538 101.7735661  95.7443125  53.9304713
 107.3336604  89.6551909  60.8129955 108.0661776  89.0851125  61.0467784
 106.5775960  89.2673509  61.2536461  96.6081183  92.6169003  54.3046608
  96.4917441  91.9413906  54.9727693  96.7183443  92.1301377  53.4878761
  98.9512724  92.0779150  58.0093297  98.5870931  91.5509771  58.7206219
  99.8079840  91.6877619  57.8359783 104.8562025  83.3673483  65.2724564
 104.5245349  84.2368894  65.0485779 104.2607638  83.0509767  65.9518594
  98.5918211  87.1069050  53.0054646  98.7592613  87.9749286  53.3725117
  98.4015380  87.2696332  52.0815935 101.3493544  95.5686029  64.6720476
 101.0494267  96.4711068  64.5636284 101.0044604  95.3018212  65.5241629
  94.8006026  92.0199826  60.7057181  93.8756522  91.8876040  60.9134873
  95.0490439  92.7994045  61.2027123 104.7490688  88.0868569  62.3517914
 103.8407565  88.0183977  62.0576675 104.6978284  88.5640514  63.1799739
  98.5707432  89.5626707  53.9901313  98.4507057  90.0083758  54.8286793
  97.8760020  89.9112025  53.4314851  92.1614837  91.6633099  61.5400970
  92.2907218  91.9167578  62.4540382  91.4812288  92.2560807  61.2205625
  96.3314324 102.3330349  57.6391444  96.2538354 103.2838174  57.7179925
  95.7275968 101.9876222  58.2966370  98.8231554  89.5058215  70.2952811
  98.0464888  90.0652135  70.2855676  99.4622117  89.9914997  70.8167681
 106.6152334  86.2885007  64.1295788 105.9726715  86.5817540  63.4835582
 106.1107263  86.1737928  64.9348984 104.2692498  90.0348181  54.8181647
 105.1810354  90.2675567  54.6429344 103.7602145  90.6185225  54.2556725
  97.0777926  92.3143668  69.8570778  97.8192610  92.8528712  69.5805602
  96.3714912  92.9409957  70.0142330 102.5533266  94.4572808  68.4542939
 102.9616622  94.0155219  67.7097572 101.8310527  93.8825436  68.7077132
  98.9064336  89.3945415  65.8276496  99.7525531  89.8184829  65.9711145
  98.8462973  88.7379039  66.5215059 102.8762080  95.0173999  62.2095228
 102.2470943  95.1819713  61.5071296 102.4887742  95.4315609  62.9806192
 106.7551312  95.9528437  59.5639592 106.0702350  96.3327338  59.0136625
 106.8395162  96.5623763  60.2971540 102.0563781  87.0549783  67.4857670
 101.8124713  87.8091844  66.9491946 102.3323712  87.4335131  68.3204917
 104.0102244  93.5988396  66.1634936 104.2219139  94.2420156  65.4869317
 103.9631992  92.7650712  65.6956866 101.6128473  86.2106216  63.0671508
 100.7512952  86.5087470  63.3588245 101.6390907  86.4276615  62.1352540
  98.4290042  94.7548407  59.4745313  98.8928388  95.0336110  58.6849936
  98.1646840  93.8531852  59.2918404  95.3214123  94.3019889  62.4125077
  95.8915480  94.7307157  61.7742561  95.9122235  94.0202473  63.1109262
  97.3658928  90.8771559  56.2834879  98.0682972  91.3292603  56.7508805
  97.0339557  90.2355378  56.9114772  95.8139290  89.4683316  70.6586088
  95.1837950  90.1499597  70.8921485  95.7075378  89.3566398  69.7139226
  91.1084262  89.1355112  61.5852012  90.3183316  89.3912641  61.1092123
  91.5995510  89.9503450  61.6904053 105.1248072  96.4760351  64.3357293
 105.9465515  96.0740539  64.0539975 105.1210475  96.3728585  65.2873409
  93.0599008  89.4999691  58.5435489  92.2630171  89.6118386  59.0618984
  92.8324600  89.8386344  57.6776379  98.8904675  96.0244395  66.4918003
  98.9549108  96.4864802  67.3276175  98.1815599  95.3941759  66.6200313
  89.3921965  89.3885603  64.0167003  89.6430004  90.2732612  64.2824579
  89.9281514  89.2090204  63.2442095 113.2154065  92.8199100  60.6842264
 112.4617773  92.2506498  60.5286269 113.3501606  92.7861764  61.6312899
  98.6052693  97.6912502  56.3596984  98.4698368  98.5364038  56.7881832
  99.1462505  97.8931780  55.5962918  95.0920033  83.7704082  73.0211339
  94.6986978  83.2170280  73.6958983  95.9086173  84.0814660  73.4117856
  92.0582090  95.2087940  56.9324909  92.5706611  96.0031190  57.0830474
  92.7104803  94.5114231  56.8658510  93.8676975  98.3253696  59.0147662
  94.0443603  99.2471661  58.8268646  94.6633808  98.0112116  59.4442042
  98.0087994  85.1861961  70.6131596  98.7497707  85.7869114  70.5336058
  98.2405916  84.4439599  70.0549638  93.1529332  90.3718328  68.8909825
  93.0382847  89.4703585  69.1916924  92.2973849  90.6182025  68.5394642
 100.2321169  98.3136069  70.4897326  99.7885023  97.5272447  70.1718230
 100.8938383  98.5015219  69.8241217  94.9908290  99.8431870  65.0158004
  95.5415716  99.7148934  64.2434998  94.1519766 100.1426759  64.6652897
 102.3302407  98.5938868  68.5178727 102.3120883  99.4147750  68.0258996
 103.2522327  98.4692944  68.7428868  98.7875461  96.1082998  69.3602235
  99.3203798  95.3471286  69.1301543  98.2589543  95.8156650  70.1026390
 101.9545156  81.2143064  64.8895877 101.6109426  82.1044706  64.8134988
 102.3224119  81.0244722  64.0265462  90.0231007  93.5376594  57.7084479
  90.8606229  93.9473603  57.4918187  90.2009275  92.5976037  57.6784673
 101.9195439  91.2051675  53.3968312 101.4042063  91.9756280  53.6356700
 101.6472748  90.5316811  54.0201374  99.5042550  86.0501376  58.4553551
  98.6484147  85.6608226  58.2759189  99.9169502  86.1293337  57.5953336
 101.0341697  83.5847719  62.8545110 100.5306492  83.5477854  62.0412916
 101.3272304  84.4940462  62.9141767  97.2784583  83.6686449  61.8611292
  98.1437579  83.4729257  61.5017182  97.3462092  83.4396801  62.7880649
 106.8929713  93.9584030  55.3321486 106.1159156  93.6195189  54.8876648
 107.5721194  93.9636653  54.6576451 101.7081742  89.0778767  55.2228093
 101.4031878  89.3924916  56.0738237 102.6612184  89.1560187  55.2655426
 100.1528174  95.2368990  56.8721047  99.6249536  94.5021750  56.5594285
  99.6515677  96.0143667  56.6261016 105.1321020  93.4318011  61.9888094
 104.4744695  94.1217272  62.0768222 105.9361419  93.8214443  62.3322080
  94.8846902  85.8988657  59.2327659  95.4590654  85.6763838  58.5000852
  95.4717884  85.9677351  59.9856260 103.9426479  91.7862384  60.0392036
 104.4558361  92.4192375  60.5413745 104.5927703  91.1863579  59.6735396
  95.2116489  87.9293118  53.2523544  94.3753801  88.2667804  53.5732819
  95.0721259  87.7942098  52.3150681  97.1869570  82.7729906  57.9602728
  96.5333982  82.4578923  57.3359343  97.1450044  82.1505646  58.6862551
  98.2980774  93.0549201  49.8756021  97.3907836  92.8238454  50.0747169
  98.7951806  92.2586820  50.0630002 101.2048853 101.7646708  52.7952707
 100.5310552 102.0678405  53.4037665 101.5914675 102.5675788  52.4458164
 100.4207310  89.2611839  62.2850376  99.5029871  89.4826786  62.1272064
 100.8367453  89.3358150  61.4262083 101.2042358  90.6603255  57.4153056
 101.9514177  91.1724652  57.1060178 101.4733947  90.3387308  58.2757450
  99.4769008  93.1561796  54.3980011  98.5680227  92.8720828  54.4952480
  99.5064092  93.5760874  53.5383317 104.7088275  96.7668385  58.1671178
 104.2550602  95.9259295  58.2236369 104.0782242  97.4029783  58.5045958
 103.6521195  87.6960371  59.3971846 102.9143952  87.1837757  59.7282088
 103.9047968  87.2560753  58.5855122 103.1521214  98.6044882  59.1020996
 103.4444189  99.1649939  58.3833362 103.6619835  98.8973443  59.8574155
 103.7532822  80.4736623  59.9913615 104.0591699  79.6133987  59.7039530
 104.4785427  81.0654243  59.7912609  90.0457178  90.8767310  58.3795213
  89.8481578  90.2836670  57.6546279  89.4903842  90.5719520  59.0971152
  98.0253902  90.7690416  60.4989806  98.0802512  89.8164253  60.4232283
  97.2145104  90.9249855  60.9831104  99.1745096  94.6970539  51.7368089
  98.7364526  93.9806398  51.2773727  99.9155536  94.9246654  51.1753181
  95.9646262  89.3867476  58.2580185  95.1514127  89.6861646  58.6645377
  96.4605256  88.9923165  58.9754667  98.1154840  99.3825233  60.1914450
  98.0731018  99.6086079  59.2622982  99.0317539  99.1488607  60.3400251
 101.5620473  89.8509300  67.0895079 101.9169861  90.0780774  67.9489544
 102.2092605  90.1827677  66.4672334 107.2918210  92.9727736  57.7944408
 107.1536109  93.1629332  56.8665597 106.9354429  93.7347119  58.2512459
  95.4560337  86.9585831  63.8741420  96.0959716  86.8174591  63.1764383
  94.6237867  86.6720345  63.4980022 107.3187590  95.0404263  62.8055679
 107.7524097  94.9479552  63.6538733 108.0319171  95.0161764  62.1675695
  96.2320640  96.2588262  59.9876412  97.0261239  95.7638582  59.7858987
  95.5212333  95.7306125  59.6244118 101.0515485  98.6406357  64.3388780
 101.1052507  99.2097294  65.1066496 100.1830266  98.8108242  63.9742817
  92.5403404  90.4031344  56.0636165  91.6100992  90.3415799  56.2806127
  92.6360876  89.8807296  55.2672806  92.4588953  86.9286156  58.6514407
  92.7195770  87.8431490  58.5423567  93.2806125  86.4610599  58.8011019
  93.9313878  88.3423914  65.8213231  94.6036932  88.1341276  65.1725880
  93.1043665  88.1446000  65.3818463 108.1803140  95.0827964  65.3388565
 108.3739030  95.9873774  65.5847840 108.0803758  94.6235383  66.1727150
  99.8339450  84.9685855  67.8378892  99.1867365  85.6675804  67.7443368
 100.6040466  85.4021998  68.2055140 103.2418248  95.2334707  70.9129445
 103.0903755  95.0045258  69.9959529 103.2322928  96.1905308  70.9260790
 100.0103585  92.8066619  65.8975712 100.9395645  92.9577779  65.7244679
  99.5894615  92.8950640  65.0424358  98.8091916  96.8317284  63.6674249
  98.6703002  96.4636068  64.5400187  98.0206513  97.3464923  63.4958207
  99.4040068 101.9326380  55.0099786  99.5791824 101.4614424  55.8245409
  98.7172856 102.5592147  55.2381047 100.3597132  96.2098887  61.0563087
 100.0246964  96.1699657  61.9520737  99.8601077  95.5443602  60.5833497
  94.3341376  91.6166517  66.5815668  94.1961173  90.8846755  67.1827207
  95.2446299  91.5275417  66.2999856 103.2956323  93.5554921  51.3300147
 102.6785494  92.8301749  51.2333199 102.8272812  94.3164281  50.9867221
  96.9623676  91.3286476  66.0699348  97.6723295  90.6879668  66.0285966
  96.9192984  91.5799371  66.9925529 104.9510455  98.2653829  68.9905927
 104.8923001  97.5813049  68.3236510 105.3529973  99.0072819  68.5386553
  95.6752610  88.3151694  67.8894987  95.1389967  87.8642432  68.5416584
  95.0869319  88.4497603  67.1465452  93.9701154 105.0815743  61.7839646
  94.2097752 105.7134267  62.4618665  93.1270350 104.7303783  62.0705005
  95.0854869  87.7740345  50.4521451  94.2084335  87.6529146  50.0883698
  95.5612622  86.9826424  50.2000340 104.9527862  96.2293413  67.2219907
 104.0654641  95.8919335  67.3446306 105.5226413  95.4976444  67.4588672
  86.6057009  92.5617505  60.5462958  87.2928049  92.2479235  59.9583974
  86.4505138  93.4658870  60.2730210  91.4091731  87.4507701  64.9747982
  91.3249920  86.8433371  64.2398392  90.5874438  87.9416720  64.9757478
  98.4829016 100.8894866  64.1881150  98.4099187 101.6949837  64.7000455
  98.0406409 101.0886831  63.3629171  98.2718795 100.1266636  57.6983972
  97.4886317 100.6688316  57.7922196  98.9711540 100.6440615  58.0978213
 101.5815445  85.9361265  60.3418177 102.0784145  85.1831227  60.0219247
 100.8102427  85.9725582  59.7761386 109.4345203  91.6401631  61.9836468
 109.4235079  92.5226346  61.6130402 108.5662582  91.2873181  61.7891006
 100.9427699 100.7881700  66.3439309 101.6555671 101.4229164  66.2715210
 100.4517728 100.8845566  65.5279311 102.6645226  94.6932952  57.9156600
 101.7301505  94.8134415  57.7461305 102.8421894  93.7905419  57.6516610
  98.1650414  88.0778648  60.0689862  97.7948202  87.5249688  60.7570767
  98.6609506  87.4736781  59.5164862 106.0517777  90.5350272  58.4506634
 106.5178230  91.3678263  58.3766937 106.5025278  90.0695253  59.1551893
  95.9939613  98.5376143  67.1644879  96.6949072  99.1712626  67.3174274
  95.5234728  98.8790875  66.4040519 104.1194008  96.8794093  55.4492787
 104.3953852  96.7650687  56.3586661 103.2498507  96.4811578  55.4104960
 104.0234440  82.9030859  62.4897536 103.1097520  83.1335085  62.6579743
 104.4527542  82.9869303  63.3411568 103.7940899  91.0920750  64.9897430
 103.1412349  91.3396658  64.3349883 104.1721278  90.2784889  64.6559907
 100.7548072 101.1280444  59.0925600 100.9370467 100.3102100  59.5553352
 101.5781058 101.3448136  58.6550490 101.0890238 100.0548629  56.3540649
 101.6178004  99.5441083  55.7410811 101.3518458  99.7391159  57.2186182
  99.8428472  91.8340562  71.4763467  99.1669109  91.7334691  72.1465842
 100.6656105  91.6779775  71.9399464  91.5907331  98.0712498  64.0975982
  92.1760767  97.3256186  64.2303886  91.3932169  98.3816455  64.9812646
  94.4445986 101.1063745  59.1138425  93.7756361 101.5909873  58.6302465
  94.3058856 101.3532966  60.0281803  86.1824985  90.6418098  62.8180425
  86.2209085  90.1081689  63.6117543  85.6765278  90.1153304  62.1991403
  98.5851254 103.1407489  65.7121083  99.1369562 103.3039110  66.4770168
  98.9257448 103.7311927  65.0401108  93.5615748  85.4882639  66.3142968
  93.6257074  86.3497470  65.9020365  93.4982868  84.8756640  65.5815326
  93.0368020  87.5605771  69.9616002  93.6640059  87.1782849  70.5753526
  92.1795939  87.3419973  70.3271694 103.4362129  97.9668746  71.5669737
 103.9802033  98.5798705  71.0724692 102.8548974  98.5248325  72.0836750
  89.8133563  89.3682200  55.8934357  90.1087004  88.4592879  55.8401410
  88.9121599  89.3469940  55.5715359 101.7219642 101.0889465  62.6984765
 101.5970781 100.2879204  62.1895711 102.3798733 101.5835658  62.2098735
  93.3427810  87.4438197  61.8761905  92.6214396  88.0574165  61.7369379
  94.1321066  87.9795962  61.7978551 103.7854550  98.8898485  64.3264315
 102.8384886  98.7703836  64.2542642 104.1337323  98.0020983  64.4090577
  96.1454123  84.7792624  68.1502557  96.6688525  85.0254920  68.9128866
  95.9266457  85.6112658  67.7305694  91.5421405  87.0496298  56.0173682
  91.2134111  86.1693677  55.8348788  91.8960775  86.9943967  56.9050071
 100.7900983  98.6851201  60.5268667 100.6425946  97.7567908  60.7076237
 101.6154477  98.7071292  60.0425743  94.6563228  87.3369268  56.3849160
  94.9959300  87.8655189  55.6627768  95.1035348  87.6749674  57.1607726
 104.3935105  99.5079760  61.6133540 105.3181653  99.3022621  61.4757991
 104.2250409  99.2596161  62.5222882  97.3506669  85.7206319  65.8352228
  97.0103489  84.9214132  66.2372907  96.6445675  86.0208029  65.2629061
  98.0023140  82.8055631  64.2879551  98.8249210  82.3316109  64.1658441
  98.2461204  83.5846115  64.7878237  96.6431375  85.8343889  54.5842452
  97.3639737  86.2125142  54.0806169  96.0196679  86.5532766  54.6877430
 100.7862498  86.5389038  55.5200785 101.0026112  87.4213676  55.2189613
 100.3056565  86.1475252  54.7906427  95.5261719  89.4974752  62.0971529
  95.3806300  89.8115055  62.9895811  95.0486923  90.1159652  61.5442428
  97.3858102  86.4877300  62.1452419  97.3719671  85.5918393  61.8084717
  98.1030530  86.4947963  62.7790705  99.2384233  86.9214640  64.1905546
  98.9802011  87.8431711  64.1889877  98.7069273  86.5245074  64.8806010
 104.1830421 100.0265427  56.9695632 104.3567299  99.4611849  56.2169484
 104.6759313 100.8266322  56.7875122  90.0007381  92.0380096  65.0359190
  89.4560849  92.8139904  65.1679465  90.8786731  92.3850901  64.8778312
  96.7894998  85.3691680  57.4139989  96.9110909  84.4408326  57.6130876
  96.4997040  85.3830366  56.5018304  99.6586188  83.0546590  60.5506709
  99.6807885  83.1185923  59.5958688 100.0754247  82.2151099  60.7447215
 110.0369813  92.7901850  58.5885931 110.4800959  92.0409175  58.1905055
 109.1596323  92.7811986  58.2059663 105.1705594  99.3432191  54.0692530
 105.8656499  99.9638884  54.2879845 105.5128744  98.4927543  54.3444908
  90.7873403  91.1649992  67.9289347  90.0455139  91.3132628  68.5153978
  90.4666147  91.4258258  67.0656097 107.0697017  96.7931897  55.5979861
 107.5948341  97.1319170  54.8729181 106.9819370  95.8578912  55.4142995
  98.7317066 100.7065971  67.7269737  99.0404192 100.4615117  68.5992437
  99.5292548 100.9112609  67.2388608  98.7537678 102.8603880  59.9575114
  98.3142668 102.3680259  60.6507971  99.5045795 102.3176848  59.7167189
  91.2330017  99.0515421  59.9599742  92.0588037  98.7519193  59.5798385
  90.8824069  98.2823044  60.4089531  96.2011550  98.4041889  62.0297416
  95.5791559  97.7412594  61.7299643  96.8716417  98.4303021  61.3471063
  89.4338622  96.9701748  60.9188676  88.5970530  96.5423922  60.7372677
  89.4062267  97.1634191  61.8559467  96.2736077  86.8823677  71.6229922
  96.3224233  87.7585800  71.2407691  96.8158592  86.3401070  71.0501565
 106.7590923  97.4264801  70.9031059 105.9686467  97.4088939  70.3635558
 106.5224278  97.9653094  71.6580095 106.8788798  94.2757267  68.2163787
 106.9286803  94.1107274  69.1579310 106.7702722  93.4084526  67.8261668
  95.7625057  96.9545813  55.5055876  95.9113177  97.6381277  54.8522549
  96.5691500  96.9350903  56.0205332 104.1692561  90.2588195  69.5323094
 105.0702423  90.1194660  69.2407092 104.2440535  90.4242650  70.4721271
  98.5035366  87.6355050  68.3776280  97.6338675  87.9288616  68.1058869
  98.7394846  88.2195495  69.0983544 108.3806995  96.6954208  68.4605809
 108.0891803  97.0584189  69.2969270 107.7679126  95.9821217  68.2819141
 109.5802677  94.2607088  60.9808379 110.4149569  94.6996892  61.1445939
 109.7161806  93.7845741  60.1616625 106.6294183  91.8186823  66.9285867
 107.1048305  92.0114469  66.1204718 105.7059749  91.8746009  66.6829250
  93.5177690  92.9810990  56.5116945  93.2723732  92.0773320  56.7097155
  93.6873604  92.9828141  55.5696423 101.2074400  83.8534667  65.8941701
 101.7256344  84.5895694  65.5688189 100.8529533  84.1598660  66.7288460
  92.7873337  88.7139348  54.0103106  92.0942582  88.7883703  53.3543142
  92.5425089  87.9499691  54.5324623 101.4586994  80.2734949  61.4142597
 101.7388748  79.6058138  62.0403024 102.2437601  80.4664045  60.9017261
  99.2620462  99.4493943  52.9767623  98.6894430 100.0684130  52.5238095
  99.8353256  99.9993305  53.5107545 105.3295852  88.6952583  65.1614172
 106.2813275  88.7950681  65.1826396 105.1599303  87.9030852  65.6712257
 103.3510232  85.7808166  65.3473573 102.7560164  86.0613179  64.6520062
 103.0659928  86.2702067  66.1190314 102.4817722  99.7331093  54.1076206
 103.4148395  99.6676655  54.3109081 102.3940935 100.5687360  53.6490738
 105.1105739  99.0496964  51.0680153 105.0319370  98.7156827  51.9615911
 105.9315406  99.5418731  51.0671626 107.8083930  91.9158703  64.2756472
 107.7760250  90.9774704  64.4616156 108.4184554  91.9942740  63.5422297
  99.6467261  90.7854756  50.3183676 100.5926366  90.6560964  50.3872094
  99.2681506  90.0469418  50.7953104 107.9578419  88.7069746  64.3214755
 107.4417467  87.9228203  64.1344684 108.8418367  88.3788463  64.4861275
 105.6189145  82.4510762  60.2810568 105.4213967  82.1425850  61.1653900
 106.2288851  83.1772401  60.4108498 113.6260480  92.9774710  63.4162509
 114.3563868  92.7159998  63.9770212 113.0167425  92.2403432  63.4564577
 111.7075777  91.1182572  64.0136960 110.9808941  90.9838537  63.4053452
 111.2923064  91.4259401  64.8193678  99.5305953  94.8372502  71.7784333
 100.4508963  95.0151101  71.9724379  99.4955536  93.8928547  71.6264032
  97.8310178  88.7104732  50.2538561  96.9241633  88.4137845  50.3301275
  98.1086159  88.4134550  49.3872847  88.7488118  90.0311096  60.7037608
  88.4290903  89.1776404  60.4111982  88.2021547  90.2459674  61.4595575
  92.5268026  92.7473537  64.4207114  92.7454036  93.6790644  64.4395148
  92.9393800  92.3881511  65.2061918  99.4472244  83.2541622  56.4082802
  98.6372972  82.9088707  56.7838049 100.1356661  82.9449166  56.9970414
 101.3762792  82.3319669  58.0307099 101.9293831  82.7515122  58.6897122
 101.6132878  81.4055417  58.0730055  97.3995891  88.3206742  73.8109863
  97.2992618  89.2701099  73.7421954  97.1817433  87.9924981  72.9385933
  96.6008963  85.5691667  50.3950540  97.4628127  85.8946566  50.6546358
  96.7859307  84.7823163  49.8823606  88.6176378  93.6514007  62.6730729
  87.9239850  93.2367960  62.1600684  89.3649369  93.6934544  62.0764148
 104.7541599  84.4420194  57.5385763 104.1740268  85.1004998  57.1563816
 104.4877532  83.6197539  57.1273181 103.2045166  83.8425252  59.7407084
 103.7044944  83.9541786  58.9321403 103.8480773  83.5386304  60.3807892
  97.2627161  91.7503881  72.6274925  96.7794243  92.5504241  72.8338814
  97.3488100  91.7611826  71.6742369  90.5313121  93.5832261  60.5496744
  90.5083809  93.6819948  59.5978627  90.8413757  94.4297412  60.8713910
  93.1900499  95.6408416  64.6643358  94.1443752  95.6092358  64.5973290
  92.9913022  95.1799040  65.4793584  93.7799881  94.2109532  67.2314156
  94.5992770  94.7053611  67.2548993  94.0536689  93.2941500  67.2031724
 103.5366477  86.6020284  56.5942112 102.6492332  86.8869935  56.3762306
 103.9520466  86.4414048  55.7469389 106.8881013  86.6266805  60.3096451
 107.6641403  87.1163258  60.5821068 106.1629147  87.0524859  60.7668320
 109.3253572  87.3394424  61.3670392 109.9198063  87.0990160  60.6563700
 109.3980156  86.6201555  61.9943928  91.5450728 101.1828035  61.6813556
  91.4105196 100.4228436  61.1151554  91.1282790 101.9068935  61.2142345
 102.6809691  96.3664959  50.6890132 103.3845541  96.5714961  51.3047787
 101.9572339  96.9341721  50.9539215 103.5107501  92.1174820  56.8092402
 103.4542702  92.5743372  55.9700034 104.0635843  91.3565505  56.6315245
 107.3212307  87.9064552  57.6342521 107.0649241  87.5061188  58.4650729
 106.6965175  88.6208346  57.5092660 111.6324645  90.6460625  60.1413813
 111.0724203  90.7153815  60.9145375 111.0268148  90.4701610  59.4213309
  94.7019854 102.0797352  61.8931999  94.5852238 103.0242785  61.7910689
  93.8812300 101.7770914  62.2817798 104.5896388  96.8047488  52.7388592
 105.4241992  96.3728687  52.5566066 104.4280731  96.6329502  53.6665486
 104.2442280  93.3079601  54.1044931 104.1891084  93.1423873  53.1633375
 103.6188336  94.0155634  54.2607121  89.0334795  88.5447666  67.9306353
  89.6793659  88.0346620  68.4193578  88.8251946  89.2816347  68.5049778
 101.5588187  95.6128513  73.4298494 102.4279347  95.7869166  73.0685129
 101.0794939  96.4322930  73.3074223  97.5538406  82.8087710  53.6830249
  97.5417076  83.7529550  53.8398520  98.4461828  82.6257856  53.3889711
  95.7274368 102.7325614  65.1087927  96.6301614 102.7649225  65.4254422
  95.5011738 101.8026065  65.1234263  97.4827970 101.4856601  61.7698006
  96.5323601 101.4858462  61.6562378  97.7860456 100.7389335  61.2534041
 101.3690525  79.4030487  57.9376186 100.6022921  78.8488974  58.0832869
 101.7801230  79.4752356  58.7990338  93.3732286  85.6915283  72.0281367
  94.2363748  85.3352088  72.2384692  92.7997697  85.3529178  72.7156772
 113.2180663 107.3217139  62.8343768 113.8559073 107.2023887  62.1307109
 113.1001506 108.2697983  62.8931721 110.0270369 107.2744567  62.7705293
 109.6888881 107.1585632  61.8825828 110.8960138 106.8735732  62.7506299
 105.8857185 109.1280044  58.7602184 105.3222050 109.0369981  57.9918472
 105.7709580 108.3079948  59.2404677 110.5090152 108.4279419  68.7291499
 110.4978793 108.0332217  67.8572002 110.6710792 107.6945492  69.3225270
 103.4321617 110.6231235  61.5986405 104.2242909 110.2822060  61.1832704
 103.6718267 110.7326210  62.5188558 105.3912371 109.8840149  54.4703783
 106.1643247 109.3369136  54.3316659 105.7437770 110.7484398  54.6818245
 107.2297414 111.2116531  67.6770683 106.9387280 112.1162162  67.5617349
 107.8654398 111.2533059  68.3914752 108.1553620 108.5893379  64.2672042
 108.7517193 108.3649402  63.5529005 108.2128592 107.8478125  64.8697490
 107.7278649 106.0432815  52.1022233 107.9804169 105.5214336  51.3405696
 106.7903208 105.8798960  52.2048917 112.7721932 105.0468593  59.9096976
 113.5585021 104.6288016  59.5587393 113.0360636 105.9514685  60.0778625
 112.9432009 110.4841443  54.6085633 112.3077842 110.5576070  55.3206538
 112.6129415 111.0735042  53.9304713 118.1730359 104.9843826  60.8129955
 118.9055531 104.4143043  61.0467784 117.4169714 104.5965427  61.2536461
 107.4474938 107.9460921  54.3046608 107.3311196 107.2705824  54.9727693
 107.5577197 107.4593295  53.4878761 109.7906478 107.4071068  58.0093297
 109.4264686 106.8801689  58.7206219 110.6473594 107.0169537  57.8359783
 115.6955779  98.6965400  65.2724564 115.3639104  99.5660811  65.0485779
 115.1001393  98.3801684  65.9518594 109.4311965 102.4360968  53.0054646
 109.5986368 103.3041204  53.3725117 109.2409135 102.5988249  52.0815935
 112.1887299 110.8977946  64.6720476 111.8888022 111.8002985  64.5636284
 111.8438358 110.6310130  65.5241629 105.6399780 107.3491743  60.7057181
 104.7150277 107.2167957  60.9134873 105.8884193 108.1285963  61.2027123
 115.5884442 103.4160487  62.3517914 114.6801320 103.3475895  62.0576675
 115.5372038 103.8932432  63.1799739 109.4101186 104.8918625  53.9901313
 109.2900812 105.3375676  54.8286793 108.7153775 105.2403943  53.4314851
 103.0008591 106.9925017  61.5400970 103.1300972 107.2459496  62.4540382
 102.3206042 107.5852725  61.2205625 109.6625308 104.8350132  70.2952811
 108.8858642 105.3944052  70.2855676 110.3015871 105.3206915  70.8167681
 117.4546089 101.6176925  64.1295788 116.8120469 101.9109458  63.4835582
 116.9501017 101.5029845  64.9348984 115.1086253 105.3640098  54.8181647
 116.0204109 105.5967485  54.6429344 114.5995900 105.9477142  54.2556725
 107.9171681 107.6435586  69.8570778 108.6586365 108.1820630  69.5805602
 107.2108666 108.2701874  70.0142330 113.3927020 109.7864726  68.4542939
 113.8010376 109.3447137  67.7097572 112.6704282 109.2117354  68.7077132
 109.7458090 104.7237333  65.8276496 110.5919285 105.1476746  65.9711145
 109.6856728 104.0670957  66.5215059 113.7155835 110.3465917  62.2095228
 113.0864697 110.5111631  61.5071296 113.3281497 110.7607526  62.9806192
 112.8957536 102.3841701  67.4857670 112.6518467 103.1383762  66.9491946
 113.1717466 102.7627049  68.3204917 114.8495998 108.9280314  66.1634936
 115.0612894 109.5712073  65.4869317 114.8025747 108.0942630  65.6956866
 112.4522227 101.5398134  63.0671508 111.5906706 101.8379388  63.3588245
 112.4784662 101.7568533  62.1352540 109.2683797 110.0840325  59.4745313
 109.7322142 110.3628028  58.6849936 109.0040595 109.1823769  59.2918404
 106.1607878 109.6311806  62.4125077 106.7309235 110.0599075  61.7742561
 106.7515990 109.3494391  63.1109262 108.2052683 106.2063477  56.2834879
 108.9076726 106.6584521  56.7508805 107.8733311 105.5647296  56.9114772
 106.6533044 104.7975234  70.6586088 106.0231705 105.4791515  70.8921485
 106.5469132 104.6858315  69.7139226 101.9478017 104.4647030  61.5852012
 101.1577071 104.7204558  61.1092123 102.4389264 105.2795368  61.6904053
 103.8992762 104.8291609  58.5435489 103.1023925 104.9410303  59.0618984
 103.6718354 105.1678261  57.6776379 109.7298430 111.3536312  66.4918003
 109.7942862 111.8156719  67.3276175 109.0209354 110.7233677  66.6200313
 100.2315720 104.7177520  64.0167003 100.4823758 105.6024530  64.2824579
 100.7675268 104.5382122  63.2442095 109.4446447 113.0204420  56.3596984
 109.3092122 113.8655955  56.7881832 109.9856260 113.2223697  55.5962918
 105.9313787  99.0996000  73.0211339 105.5380733  98.5462198  73.6958983
 106.7479927  99.4106578  73.4117856 102.8975845 110.5379858  56.9324909
 103.4100365 111.3323108  57.0830474 103.5498558 109.8406148  56.8658510
 104.7070729 113.6545614  59.0147662 104.8837358 114.5763579  58.8268646
 105.5027563 113.3404033  59.4442042 108.8481748 100.5153879  70.6131596
 109.5891461 101.1161032  70.5336058 109.0799671  99.7731516  70.0549638
 103.9923086 105.7010246  68.8909825 103.8776601 104.7995503  69.1916924
 103.1367604 105.9473943  68.5394642 105.8302045 115.1723788  65.0158004
 106.3809470 115.0440851  64.2434998 104.9913521 115.4718677  64.6652897
 109.6269216 111.4374916  69.3602235 110.1597553 110.6763204  69.1301543
 109.0983297 111.1448567  70.1026390 112.7938911  96.5434982  64.8895877
 112.4503180  97.4336623  64.8134988 113.1617874  96.3536639  64.0265462
 100.8624762 108.8668512  57.7084479 101.6999984 109.2765520  57.4918187
 101.0403029 107.9267954  57.6784673 112.7589194 106.5343593  53.3968312
 112.2435817 107.3048197  53.6356700 112.4866502 105.8608729  54.0201374
 110.3436305 101.3793293  58.4553551 109.4877901 100.9900144  58.2759189
 110.7563256 101.4585254  57.5953336 111.8735451  98.9139637  62.8545110
 111.3700247  98.8769772  62.0412916 112.1666058  99.8232379  62.9141767
 108.1178337  98.9978366  61.8611292 108.9831334  98.8021175  61.5017182
 108.1855846  98.7688718  62.7880649 112.5475497 104.4070685  55.2228093
 112.2425632 104.7216834  56.0738237 113.5005939 104.4852105  55.2655426
 110.9921929 110.5660908  56.8721047 110.4643290 109.8313668  56.5594285
 110.4909431 111.3435584  56.6261016 105.7240656 101.2280574  59.2327659
 106.2984408 101.0055756  58.5000852 106.3111639 101.2969269  59.9856260
 114.7820233 107.1154301  60.0392036 115.2952115 107.7484293  60.5413745
 115.4321457 106.5155497  59.6735396 106.0510243 103.2585035  53.2523544
 105.2147556 103.5959722  53.5732819 105.9115013 103.1234015  52.3150681
 108.0263324  98.1021823  57.9602728 107.3727736  97.7870840  57.3359343
 107.9843798  97.4797564  58.6862551 109.1374529 108.3841118  49.8756021
 108.2301591 108.1530372  50.0747169 109.6345561 107.5878738  50.0630002
 111.2601064 104.5903757  62.2850376 110.3423626 104.8118704  62.1272064
 111.6761208 104.6650067  61.4262083 112.0436112 105.9895173  57.4153056
 112.7907931 106.5016570  57.1060178 112.3127702 105.6679225  58.2757450
 110.3162762 108.4853713  54.3980011 109.4073982 108.2012746  54.4952480
 110.3457846 108.9052792  53.5383317 114.4914949 103.0252289  59.3971846
 113.7537706 102.5129675  59.7282088 114.7441723 102.5852670  58.5855122
 114.5926577  95.8028541  59.9913615 114.8985453  94.9425904  59.7039530
 115.3179181  96.3946161  59.7912609 100.8850933 106.2059227  58.3795213
 100.6875332 105.6128588  57.6546279 100.3297597 105.9011438  59.0971152
 108.8647656 106.0982334  60.4989806 108.9196266 105.1456170  60.4232283
 108.0538858 106.2541773  60.9831104 110.0138850 110.0262457  51.7368089
 109.5758280 109.3098316  51.2773727 110.7549291 110.2538572  51.1753181
 106.8040016 104.7159394  58.2580185 105.9907882 105.0153564  58.6645377
 107.2999010 104.3215082  58.9754667 112.4014228 105.1801218  67.0895079
 112.7563616 105.4072691  67.9489544 113.0486359 105.5119595  66.4672334
 106.2954091 102.2877749  63.8741420 106.9353470 102.1466508  63.1764383
 105.4631622 102.0012263  63.4980022 107.0714395 111.5880180  59.9876412
 107.8654993 111.0930500  59.7858987 106.3606087 111.0598043  59.6244118
 103.3797158 105.7323261  56.0636165 102.4494746 105.6707717  56.2806127
 103.4754630 105.2099214  55.2672806 103.2982707 102.2578074  58.6514407
 103.5589525 103.1723407  58.5423567 104.1199880 101.7902517  58.8011019
 104.7707633 103.6715831  65.8213231 105.4430686 103.4633193  65.1725880
 103.9437419 103.4737917  65.3818463 110.6733205 100.2977772  67.8378892
 110.0261120 100.9967722  67.7443368 111.4434220 100.7313916  68.2055140
 110.8497339 108.1358537  65.8975712 111.7789399 108.2869697  65.7244679
 110.4288369 108.2242558  65.0424358 109.6485671 112.1609202  63.6674249
 109.5096757 111.7927986  64.5400187 108.8600267 112.6756841  63.4958207
 111.1990886 111.5390804  61.0563087 110.8640719 111.4991574  61.9520737
 110.6994832 110.8735520  60.5833497 105.1735130 106.9458434  66.5815668
 105.0354928 106.2138673  67.1827207 106.0840053 106.8567334  66.2999856
 114.1350078 108.8846839  51.3300147 113.5179248 108.1593667  51.2333199
 113.6666566 109.6456199  50.9867221 107.8017431 106.6578394  66.0699348
 108.5117049 106.0171586  66.0285966 107.7586739 106.9091288  66.9925529
 106.5146365 103.6443611  67.8894987 105.9783722 103.1934350  68.5416584
 105.9263073 103.7789520  67.1465452 105.9248624 103.1032263  50.4521451
 105.0478090 102.9821064  50.0883698 106.4006377 102.3118341  50.2000340
  97.4450764 107.8909423  60.5462958  98.1321804 107.5771153  59.9583974
  97.2898892 108.7950787  60.2730210 102.2485486 102.7799619  64.9747982
 102.1643675 102.1725289  64.2398392 101.4268192 103.2708637  64.9757478
 112.4209200 101.2653183  60.3418177 112.9177899 100.5123145  60.0219247
 111.6496181 101.3017499  59.7761386 113.5038980 110.0224870  57.9156600
 112.5695259 110.1426332  57.7461305 113.6815649 109.1197337  57.6516610
 109.0044169 103.4070566  60.0689862 108.6341956 102.8541606  60.7570767
 109.5003261 102.8028699  59.5164862 116.8911532 105.8642189  58.4506634
 117.3571984 106.6970181  58.3766937 117.3419032 105.3987171  59.1551893
 106.8333367 113.8668061  67.1644879 107.5342827 114.5004544  67.3174274
 106.3628482 114.2082792  66.4040519 114.8628195  98.2322776  62.4897536
 113.9491274  98.4627003  62.6579743 115.2921296  98.3161220  63.3411568
 114.6334653 106.4212668  64.9897430 113.9806103 106.6688576  64.3349883
 115.0115033 105.6076806  64.6559907 110.6822226 107.1632479  71.4763467
 110.0062863 107.0626609  72.1465842 111.5049860 107.0071693  71.9399464
 102.4301085 113.4004416  64.0975982 103.0154522 112.6548104  64.2303886
 102.2325924 113.7108372  64.9812646 105.2839740 116.4355663  59.1138425
 104.6150116 116.9201791  58.6302465 105.1452610 116.6824884  60.0281803
  97.0218740 105.9710016  62.8180425  97.0602839 105.4373607  63.6117543
  96.5159033 105.4445221  62.1991403 104.4009502 100.8174556  66.3142968
 104.4650829 101.6789387  65.9020365 104.3376622 100.2048558  65.5815326
 103.8761775 102.8897689  69.9616002 104.5033814 102.5074766  70.5753526
 103.0189694 102.6711891  70.3271694 100.6527317 104.6974118  55.8934357
 100.9480759 103.7884797  55.8401410  99.7515353 104.6761858  55.5715359
 104.1821564 102.7730115  61.8761905 103.4608150 103.3866082  61.7369379
 104.9714820 103.3087880  61.7978551 106.9847878 100.1084541  68.1502557
 107.5082280 100.3546838  68.9128866 106.7660211 100.9404576  67.7305694
 102.3815159 102.3788216  56.0173682 102.0527865 101.4985595  55.8348788
 102.7354530 102.3235884  56.9050071 105.4956982 102.6661186  56.3849160
 105.8353055 103.1947107  55.6627768 105.9429103 103.0041592  57.1607726
 108.1900423 101.0498236  65.8352228 107.8497243 100.2506049  66.2372907
 107.4839429 101.3499947  65.2629061 108.8416895  98.1347549  64.2879551
 109.6642964  97.6608027  64.1658441 109.0854958  98.9138032  64.7878237
 107.4825129 101.1635807  54.5842452 108.2033492 101.5417060  54.0806169
 106.8590433 101.8824684  54.6877430 111.6256252 101.8680956  55.5200785
 111.8419867 102.7505594  55.2189613 111.1450319 101.4767170  54.7906427
 106.3655474 104.8266669  62.0971529 106.2200054 105.1406972  62.9895811
 105.8880677 105.4451570  61.5442428 108.2251856 101.8169217  62.1452419
 108.2113425 100.9210311  61.8084717 108.9424285 101.8239881  62.7790705
 110.0777987 102.2506558  64.1905546 109.8195765 103.1723628  64.1889877
 109.5463028 101.8536992  64.8806010 100.8401136 107.3672014  65.0359190
 100.2954604 108.1431822  65.1679465 101.7180486 107.7142818  64.8778312
 107.6288752 100.6983598  57.4139989 107.7504664  99.7700244  57.6130876
 107.3390795 100.7122284  56.5018304 110.4979943  98.3838508  60.5506709
 110.5201640  98.4477841  59.5958688 110.9148002  97.5443017  60.7447215
 101.6267158 106.4941910  67.9289347 100.8848894 106.6424545  68.5153978
 101.3059902 106.7550176  67.0656097 102.0723771 114.3807339  59.9599742
 102.8981791 114.0811111  59.5798385 101.7217823 113.6114961  60.4089531
 107.0405304 113.7333807  62.0297416 106.4185314 113.0704512  61.7299643
 107.7110171 113.7594939  61.3471063 100.2732376 112.2993665  60.9188676
  99.4364285 111.8715840  60.7372677 100.2456022 112.4926109  61.8559467
 107.1129832 102.2115595  71.6229922 107.1617987 103.0877718  71.2407691
 107.6552346 101.6692988  71.0501565 106.6018811 112.2837730  55.5055876
 106.7506932 112.9673195  54.8522549 107.4085255 112.2642820  56.0205332
 115.0086315 105.5880113  69.5323094 115.9096178 105.4486578  69.2407092
 115.0834290 105.7534567  70.4721271 109.3429120 102.9646967  68.3776280
 108.4732430 103.2580533  68.1058869 109.5788601 103.5487412  69.0983544
 117.4687938 107.1478741  66.9285867 117.9442059 107.3406387  66.1204718
 116.5453503 107.2037927  66.6829250 104.3571444 108.3102908  56.5116945
 104.1117486 107.4065238  56.7097155 104.5267359 108.3120058  55.5696423
 112.0468154  99.1826584  65.8941701 112.5650098  99.9187611  65.5688189
 111.6923287  99.4890578  66.7288460 103.6267092 104.0431266  54.0103106
 102.9336337 104.1175621  53.3543142 103.3818844 103.2791609  54.5324623
 112.2980748  95.6026867  61.4142597 112.5782502  94.9350056  62.0403024
 113.0831355  95.7955962  60.9017261 116.1689607 104.0244501  65.1614172
 117.1207030 104.1242599  65.1826396 115.9993057 103.2322769  65.6712257
 114.1903986 101.1100084  65.3473573 113.5953918 101.3905097  64.6520062
 113.9053683 101.5993985  66.1190314 110.4861015 106.1146674  50.3183676
 111.4320120 105.9852882  50.3872094 110.1075260 105.3761335  50.7953104
 118.7972173 104.0361664  64.3214755 118.2811222 103.2520121  64.1344684
 119.6812122 103.7080381  64.4861275 116.4582900  97.7802680  60.2810568
 116.2607721  97.4717768  61.1653900 117.0682606  98.5064318  60.4108498
 110.3699708 110.1664420  71.7784333 111.2902717 110.3443019  71.9724379
 110.3349291 109.2220465  71.6264032 108.6703933 104.0396650  50.2538561
 107.7635388 103.7429763  50.3301275 108.9479914 103.7426468  49.3872847
  99.5881873 105.3603013  60.7037608  99.2684657 104.5068322  60.4111982
  99.0415301 105.5751591  61.4595575 103.3661780 108.0765454  64.4207114
 103.5847790 109.0082562  64.4395148 103.7787554 107.7173429  65.2061918
 110.2865998  98.5833540  56.4082802 109.4766727  98.2380625  56.7838049
 110.9750415  98.2741083  56.9970414 112.2156547  97.6611586  58.0307099
 112.7687585  98.0807040  58.6897122 112.4526633  96.7347335  58.0730055
 108.2389646 103.6498660  73.8109863 108.1386373 104.5993017  73.7421954
 108.0211188 103.3216899  72.9385933 107.4402717 100.8983585  50.3950540
 108.3021881 101.2238483  50.6546358 107.6253061 100.1115081  49.8823606
  99.4570133 108.9805925  62.6730729  98.7633604 108.5659878  62.1600684
 100.2043124 109.0226461  62.0764148 115.5935354  99.7712112  57.5385763
 115.0134023 100.4296916  57.1563816 115.3271286  98.9489456  57.1273181
 114.0438920  99.1717169  59.7407084 114.5438698  99.2833704  58.9321403
 114.6874528  98.8678222  60.3807892 108.1020916 107.0795799  72.6274925
 107.6187998 107.8796159  72.8338814 108.1881855 107.0903744  71.6742369
 101.3706875 108.9124179  60.5496744 101.3477564 109.0111866  59.5978627
 101.6807512 109.7589329  60.8713910 104.0294253 110.9700334  64.6643358
 104.9837507 110.9384276  64.5973290 103.8306777 110.5090957  65.4793584
 104.6193635 109.5401450  67.2314156 105.4386524 110.0345528  67.2548993
 104.8930443 108.6233418  67.2031724 114.3760232 101.9312202  56.5942112
 113.4886087 102.2161853  56.3762306 114.7914221 101.7705965  55.7469389
 117.7274768 101.9558723  60.3096451 118.5035158 102.4455175  60.5821068
 117.0022902 102.3816777  60.7668320 120.1647326 102.6686342  61.3670392
 120.7591817 102.4282078  60.6563700 120.2373910 101.9493473  61.9943928
 102.3844482 116.5119953  61.6813556 102.2498950 115.7520354  61.1151554
 101.9676544 117.2360853  61.2142345 114.3501255 107.4466738  56.8092402
 114.2936457 107.9035289  55.9700034 114.9029598 106.6857422  56.6315245
 118.1606061 103.2356470  57.6342521 117.9042996 102.8353105  58.4650729
 117.5358929 103.9500264  57.5092660 115.0836035 108.6371519  54.1044931
 115.0284839 108.4715791  53.1633375 114.4582090 109.3447552  54.2607121
  99.8728550 103.8739584  67.9306353 100.5187413 103.3638538  68.4193578
  99.6645701 104.6108265  68.5049778 108.3932160  98.1379628  53.6830249
 108.3810830  99.0821468  53.8398520 109.2855582  97.9549774  53.3889711
 112.2084280  94.7322405  57.9376186 111.4416675  94.1780891  58.0832869
 112.6194985  94.8044274  58.7990338 104.2126041 101.0207201  72.0281367
 105.0757502 100.6644005  72.2384692 103.6391451 100.6821095  72.7156772
  44.9907844  -7.6944816  49.4950600  44.6526355  -7.8103751  48.6071135
  45.8597612  -8.0953651  49.4751606  40.8494659  -5.8409340  45.4847491
  40.2859525  -5.9319403  44.7163778  40.7347054  -6.6609435  45.9649983
  45.4727627  -6.5409964  55.4536805  45.4616268  -6.9357166  54.5817309
  45.6348266  -7.2743892  56.0470577  38.3959091  -4.3458148  48.3231711
  39.1880383  -4.6867323  47.9078010  38.6355742  -4.2363173  49.2433864
  46.4294218  -2.1738372  40.7961956  45.7782198  -1.5884292  40.4095969
  47.2238581  -1.6432177  40.8556993  40.3549845  -5.0849235  41.1949090
  41.1280721  -5.6320248  41.0561966  40.7075244  -4.2204985  41.4063551
  42.1934888  -3.7572853  54.4015989  41.9024754  -2.8527222  54.2862656
  42.8291872  -3.7156325  55.1160059  43.1191095  -6.3796004  50.9917349
  43.7154667  -6.6039982  50.2774312  43.1766066  -7.1211259  51.5942797
  42.6916123  -8.9256569  38.8267540  42.9441644  -9.4475047  38.0651003
  41.7540682  -9.0890423  38.9294223  47.9069483  -4.4847940  41.3330940
  47.2715316  -4.4113314  42.0451845  47.5766890  -3.8954341  40.6550019
  42.4112412  -7.0228463  41.0291915  42.2948670  -7.6983559  41.6972999
  42.5214672  -7.5096089  40.2124068  44.7543953  -7.5618316  44.7338604
  44.3902160  -8.0887695  45.4451526  45.6111069  -7.9519847  44.5605089
  47.1524773  -4.0711437  51.3965783  46.8525496  -3.1686398  51.2881590
  46.8075832  -4.3379254  52.2486936  40.6037254  -7.6197640  47.4302487
  39.6787751  -7.7521426  47.6380179  40.8521668  -6.8403421  47.9272430
  37.9646065  -7.9764367  48.2646276  38.0938447  -7.7229888  49.1785688
  37.2843517  -7.3836659  47.9450932  42.1345553   2.6932883  44.3636751
  42.0569582   3.6440708  44.4425231  41.5307196   2.3478756  45.0211677
  42.8809155  -7.3253798  56.5816085  43.6223839  -6.7868754  56.3050908
  42.1746140  -6.6987509  56.7387636  48.3564494  -5.1824657  55.1788246
  48.7647851  -5.6242247  54.4342878  47.6341756  -5.7572030  55.4322439
  48.6793309  -4.6223467  48.9340535  48.0502172  -4.4577753  48.2316603
  48.2918971  -4.2081857  49.7051499  52.5582541  -3.6869029  46.2884899
  51.8733579  -3.3070128  45.7381932  52.6426390  -3.0773702  47.0216846
  49.8133473  -6.0409070  52.8880242  50.0250368  -5.3977310  52.2114623
  49.7663221  -6.8746753  52.4202172  44.2321271  -4.8849059  46.1990620
  44.6959617  -4.6061356  45.4095243  43.9678069  -5.7865614  46.0163711
  41.1245352  -5.3377577  49.1370383  41.6946709  -4.9090309  48.4987868
  41.7153464  -5.6194992  49.8354569  43.1690157  -8.7625906  43.0080185
  43.8714200  -8.3104863  43.4754112  42.8370786  -9.4042087  43.6360078
  41.6170519 -10.1714150  57.3831395  40.9869179  -9.4897869  57.6166791
  41.5106606 -10.2831068  56.4384533  50.9279301  -3.1637115  51.0602600
  51.7496744  -3.5656927  50.7785281  50.9241703  -3.2668880  52.0118715
  44.6935904  -3.6153071  53.2163310  44.7580337  -3.1532664  54.0521482
  43.9846828  -4.2455706  53.3445620  44.4083922  -1.9484964  43.0842290
  44.2729596  -1.1033428  43.5127138  44.9493734  -1.7465686  42.3208224
  37.8613319  -4.4309526  43.6570215  38.3737840  -3.6366275  43.8075780
  38.5136032  -5.1283235  43.5903817  39.6708204  -1.3143769  45.7392969
  39.8474832  -0.3925805  45.5513953  40.4665037  -1.6285350  46.1687348
  46.0352398  -1.3261397  57.2142632  45.5916252  -2.1125019  56.8963537
  46.6969612  -1.1382247  56.5486523  40.7939519   0.2034404  51.7403311
  41.3446944   0.0751468  50.9680305  39.9550995   0.5029293  51.3898204
  48.1333636  -1.0458597  55.2424034  48.1152111  -0.2249716  54.7504303
  49.0553556  -1.1704522  55.4674175  44.5906690  -3.5314468  56.0847542
  45.1235027  -4.2926180  55.8546850  44.0620771  -3.8240816  56.8271697
  52.6960942  -5.6813436  42.0566792  51.9190385  -6.0202277  41.6121955
  53.3752423  -5.6760813  41.3821757  45.9559403  -4.4028475  43.5966354
  45.4280765  -5.1375716  43.2839592  45.4546906  -3.6253799  43.3506322
  50.9352249  -6.2079455  48.7133400  50.2775923  -5.5180193  48.8013529
  51.7392648  -5.8183023  49.0567387  44.1012003  -6.5848265  36.6001327
  43.1939065  -6.8159012  36.7992476  44.5983035  -7.3810646  36.7875309
  47.0080082   2.1249242  39.5198013  46.3341781   2.4280939  40.1282971
  47.3945904   2.9278322  39.1703470  45.2800237  -6.4835670  41.1225317
  44.3711456  -6.7676637  41.2197787  45.3095320  -6.0636592  40.2628624
  50.5119504  -2.8729081  44.8916485  50.0581831  -3.7138171  44.9481675
  49.8813471  -2.2367682  45.2291265  48.9552443  -1.0352584  45.8266303
  49.2475418  -0.4747527  45.1078669  49.4651064  -0.7424023  46.5819462
  44.9776324  -4.9426927  38.4613396  44.5395754  -5.6591068  38.0019033
  45.7186765  -4.7150812  37.8998487  43.9186068  -0.2572233  46.9159756
  43.8762247  -0.0311387  45.9868288  44.8348767  -0.4908858  47.0645557
  53.1218819  -4.5993202  49.5300986  53.5555325  -4.6917913  50.3784040
  53.8350399  -4.6235702  48.8921002  42.0351869  -3.3809204  46.7121719
  42.8292468  -3.8758884  46.5104294  41.3243562  -3.9091341  46.3489424
  46.8546714  -0.9991108  51.0634086  46.9083736  -0.4300172  51.8311802
  45.9861495  -0.8289223  50.6988124  53.9834368  -4.5569502  52.0633871
  54.1770258  -3.6523691  52.3093146  53.8834987  -5.0162083  52.8972456
  49.0449477  -4.4062759  57.6374752  48.8934983  -4.6352207  56.7204836
  49.0354156  -3.4492158  57.6506097  45.8134813  -6.8330846  52.6221018
  46.7426873  -6.6819687  52.4489986  45.3925843  -6.7446826  51.7669665
  44.6123145  -2.8080182  50.3919556  44.4734231  -3.1761398  51.2645494
  43.8237741  -2.2932542  50.2203514  45.2071297   2.2928915  41.7345092
  45.3823053   1.8216958  42.5490715  44.5204085   2.9194681  41.9626353
  46.1628360  -3.4298579  47.7808394  45.8278193  -3.4697809  48.6766044
  45.6632306  -4.0953863  47.3078804  40.1372604  -8.0230949  53.3060975
  39.9992402  -8.7550710  53.9072514  41.0477528  -8.1122049  53.0245163
  49.0987552  -6.0842545  38.0545453  48.4816723  -6.8095717  37.9578506
  48.6304040  -5.3233185  37.7112528  42.7654905  -8.3110990  52.7944655
  43.4754524  -8.9517798  52.7531273  42.7224213  -8.0598095  53.7170835
  50.7541684  -1.3743637  55.7151234  50.6954230  -2.0584416  55.0481817
  51.1561202  -0.6324647  55.2631860  39.7732382   5.4418277  48.5084953
  40.0128981   6.0736801  49.1863971  38.9301579   5.0906317  48.7950312
  50.7559091  -3.4104053  53.9465213  49.8685870  -3.7478131  54.0691612
  51.3257642  -4.1421021  54.1833979  44.2860244   1.2497400  50.9126457
  44.2130416   2.0552371  51.4245761  43.8437637   1.4489366  50.0874478
  44.0750024   0.4869170  44.4229278  43.2917546   1.0290850  44.5167503
  44.7742769   1.0043149  44.8223519  46.7458928   1.1484234  53.0684615
  47.4586900   1.7831699  52.9960517  46.2548957   1.2448100  52.2524617
  48.4676455  -4.9464514  44.6401907  47.5332734  -4.8263051  44.4706611
  48.6453123  -5.8492047  44.3761917  41.7970841  -1.1021323  53.8890186
  42.4980301  -0.4684840  54.0419580  41.3265956  -0.7606591  53.1285825
  49.9225237  -2.7603373  42.1738093  50.1985081  -2.8746778  43.0831967
  49.0529736  -3.1585888  42.1350266  46.5579301   1.4882978  45.8170907
  46.7401696   0.6704634  46.2798659  47.3812287   1.7050670  45.3795797
  46.8921467   0.4151163  43.0785955  47.4209233  -0.0956382  42.4656117
  47.1549686   0.0993693  43.9431488  45.6459700  -7.8056904  58.2008774
  44.9700337  -7.9062775  58.8711149  46.4687334  -7.9617691  58.6644771
  37.3938559  -1.5684968  50.8221289  37.9791996  -2.3141280  50.9549193
  37.1963398  -1.2581011  51.7057953  40.2477215   1.4666280  45.8383731
  39.5787590   1.9512407  45.3547771  40.1090084   1.7135500  46.7527110
  44.3882483   3.5010023  52.4366390  44.9400791   3.6641645  53.2015475
  44.7288677   4.0914461  51.7646414  49.2393358  -1.6728719  58.2915044
  49.7833262  -1.0598761  57.7969999  48.6580202  -1.1149141  58.8082057
  47.5250871   1.4491999  49.4230072  47.4002010   0.6481739  48.9141017
  48.1829962   1.9438192  48.9344042  49.5885779  -0.7498981  51.0509622
  48.6416114  -0.8693630  50.9787949  49.9368552  -1.6376483  51.1335883
  46.5932212  -0.9546265  47.2513974  46.4457175  -1.8829558  47.4321544
  47.4185706  -0.9326174  46.7671049  50.1966334  -0.1317706  48.3378847
  51.1212882  -0.3374845  48.2003298  50.0281637  -0.3801305  49.2468188
  41.3292948 -10.1422714  48.8216836  41.1837529  -9.8282411  49.7141117
  40.8518152  -9.5237814  48.2687735  49.9861650   0.3867961  43.6940938
  50.1598528  -0.1785616  42.9414791  50.4790542   1.1868856  43.5120428
  50.9736823  -0.2965274  40.7937837  51.6687727   0.3241418  41.0125151
  51.3159973  -1.1469923  41.0690214  52.8728246  -2.8465569  42.3225167
  53.3979570  -2.5078296  41.5974487  52.7850598  -3.7818554  42.1388302
  44.5348295   1.0668505  54.4515044  44.8435421   0.8217652  55.3237744
  45.3323777   1.2715143  53.9633914  44.5568907   3.2206414  46.6820420
  44.1173897   2.7282793  47.3753277  45.3077024   2.6779382  46.4412496
  37.0361246  -0.5882045  46.6845049  37.8619266  -0.8878273  46.3043692
  36.6855298  -1.3574422  47.1334837  42.0042779  -1.2355576  48.7542722
  41.3822788  -1.8984871  48.4544950  42.6747646  -1.2094445  48.0716370
  35.2369851  -2.6695718  47.6433982  34.4001759  -3.0973544  47.4617983
  35.2093496  -2.4763275  48.5804773  52.5622152  -2.2132665  57.6276365
  51.7717696  -2.2308526  57.0880865  52.3255507  -1.6744372  58.3825402
  52.6820027  -5.3640199  54.9409094  52.7318032  -5.5290191  55.8824617
  52.5733950  -6.2312940  54.5506975  41.5656286  -2.6851653  42.2301183
  41.7144406  -2.0016189  41.5767855  42.3722729  -2.7046563  42.7450638
  54.1838224  -2.9443257  55.1851115  53.8923032  -2.5813277  56.0214576
  53.5710355  -3.6576249  55.0064447  39.3208919  -6.6586476  43.2362252
  39.0754961  -7.5624146  43.4342462  39.4904833  -6.6569325  42.2941730
  45.0651691  -0.1903523  39.7012930  44.4925658   0.4286664  39.2483402
  45.6384485   0.3595839  40.2352852  48.2848951   0.0933627  40.8321512
  49.2179624   0.0279189  41.0354388  48.1972164   0.9289894  40.3736045
  50.9136968  -0.5900502  37.7925460  50.8350599  -0.9240639  38.6861218
  51.7346634  -0.0978734  37.7916932  45.3337182  -4.8024964  58.5029640
  46.2540192  -4.6246365  58.6969686  45.2986765  -5.7468918  58.3509339
  38.3299255  -6.8923929  51.1452421  38.5485265  -5.9606821  51.1640455
  38.7425029  -7.2515955  51.9307225  43.0658390  -7.8893585  59.3520231
  42.5825472  -7.0893224  59.5584120  43.1519329  -7.8785640  58.3987675
  36.3344350  -6.0565205  47.2742051  36.3115038  -5.9577518  46.3223934
  36.6444986  -5.2100054  47.5959217  38.9931728  -3.9989050  51.3888665
  39.9474981  -4.0305108  51.3218597  38.7944251  -4.4598426  52.2038891
  39.5831110  -5.4287934  53.9559463  40.4023999  -4.9343855  53.9794300
  39.8567917  -6.3455966  53.9277030  37.3481956   1.5430570  48.4058863
  37.2136424   0.7830971  47.8396861  36.9314019   2.2671470  47.9387652
  48.4840919  -3.2732507  37.4135438  49.1876770  -3.0682504  38.0293094
  47.7603568  -2.7055745  37.6784522  40.5051082   2.4399887  48.6177306
  40.3883466   3.3845319  48.5155996  39.6843529   2.1373448  49.0063105
  50.3927617  -2.8349978  39.4633898  51.2273221  -3.2668779  39.2811373
  50.2311960  -3.0067964  40.3910793  50.0473509  -6.3317864  40.8290238
  49.9922313  -6.4973593  39.8878682  49.4219564  -5.6241831  40.9852427
  47.3619416  -4.0268952  60.1543800  48.2310576  -3.8528300  59.7930435
  46.8826168  -3.2074536  60.0319530  41.5305596   3.0928149  51.8333234
  42.4332843   3.1251759  52.1499729  41.3042967   2.1628600  51.8479570
  43.2859198   1.8459135  48.4943313  42.3354829   1.8460997  48.3807685
  43.5891685   1.0991870  47.9779347  59.0211892   7.6819673  49.5589075
  59.6590302   7.5626421  48.8552415  58.9032735   8.6300517  49.6177027
  55.8301598   7.6347102  49.4950600  55.4920110   7.5188166  48.6071135
  56.6991366   7.2338267  49.4751606  51.6888414   9.4882578  45.4847491
  51.1253279   9.3972515  44.7163778  51.5740809   8.6682482  45.9649983
  56.3121381   8.7881953  55.4536805  56.3010022   8.3934752  54.5817309
  56.4742021   8.0548026  56.0470577  49.2352846  10.9833770  48.3231711
  50.0274138  10.6424594  47.9078010  49.4749496  11.0928745  49.2433864
  57.2687973  13.1553546  40.7961956  56.6175952  13.7407626  40.4095969
  58.0632335  13.6859741  40.8556993  51.1943600  10.2442683  41.1949090
  51.9674476   9.6971670  41.0561966  51.5468999  11.1086932  41.4063551
  53.0328642  11.5719065  54.4015989  52.7418508  12.4764696  54.2862656
  53.6685627  11.6135593  55.1160059  53.9584849   8.9495914  50.9917349
  54.5548421   8.7251936  50.2774312  54.0159821   8.2080659  51.5942797
  53.5309878   6.4035349  38.8267540  53.7835398   5.8816870  38.0651003
  52.5934437   6.2401494  38.9294223  58.5753160   5.4071127  46.6342283
  59.3616250   4.9890551  46.2832700  58.8391865   6.3117220  46.8023931
  58.7463238  10.8443978  41.3330940  58.1109071  10.9178604  42.0451845
  58.4160644  11.4337576  40.6550019  63.9761588   5.3446361  47.5375262
  64.7086760   4.7745577  47.7713091  63.2200943   4.9567961  47.9781767
  53.2506166   8.3063455  41.0291915  53.1342424   7.6308358  41.6972999
  53.3608426   7.8195829  40.2124068  55.5937707   7.7673602  44.7338604
  55.2295915   7.2404223  45.4451526  56.4504823   7.3772071  44.5605089
  61.4987008  -0.9432065  51.9969870  61.1670333  -0.0736654  51.7731085
  60.9032621  -1.2595781  52.6763901  55.2343194   2.7963502  39.7299953
  55.4017597   3.6643738  40.0970424  55.0440363   2.9590783  38.8061242
  57.9918527  11.2580481  51.3965783  57.6919251  12.1605519  51.2881590
  57.6469587  10.9912664  52.2486936  51.4431009   7.7094277  47.4302487
  50.5181505   7.5770492  47.6380179  51.6915422   8.4888497  47.9272430
  61.3915671   3.7763021  49.0763220  60.4832549   3.7078429  48.7821981
  61.3403267   4.2534966  49.9045046  55.2132415   5.2521159  40.7146619
  55.0932040   5.6978210  41.5532100  54.5185004   5.6006477  40.1560158
  48.8039820   7.3527551  48.2646276  48.9332201   7.6062030  49.1785688
  48.1237271   7.9455259  47.9450932  52.9739307  18.0224801  44.3636751
  52.8963337  18.9732626  44.4425231  52.3700951  17.6770673  45.0211677
  55.4656537   5.1952666  57.0198118  54.6889871   5.7546587  57.0100982
  56.1047100   5.6809449  57.5412988  63.2577318   1.9779459  50.8541094
  62.6151698   2.2711992  50.2080889  62.7532246   1.8632380  51.6594291
  60.9117481   5.7242632  41.5426953  61.8235337   5.9570019  41.3674651
  60.4027128   6.3079677  40.9802032  53.7202909   8.0038120  56.5816085
  54.4617594   8.5423164  56.3050908  53.0139895   8.6304409  56.7387636
  59.1958249  10.1467260  55.1788246  59.6041605   9.7049671  54.4342878
  58.4735510   9.5719888  55.4322439  55.5489319   5.0839867  52.5521803
  56.3950514   5.5079281  52.6956452  55.4887957   4.4273491  53.2460366
  59.5187064  10.7068451  48.9340535  58.8895926  10.8714165  48.2316603
  59.1312726  11.1210060  49.7051499  63.3976296  11.6422889  46.2884899
  62.7127334  12.0221790  45.7381932  63.4820145  12.2518215  47.0216846
  58.6988764   2.7444235  54.2102977  58.4549696   3.4986296  53.6737252
  58.9748695   3.1229583  55.0450224  60.6527227   9.2882848  52.8880242
  60.8644122   9.9314608  52.2114623  60.6056975   8.4545164  52.4202172
  58.2553456   1.9000668  49.7916814  57.3937935   2.1981922  50.0833552
  58.2815891   2.1171067  48.8597847  55.0715025  10.4442859  46.1990620
  55.5353371  10.7230562  45.4095243  54.8071824   9.5426304  46.0163711
  51.9639107   9.9914340  49.1370383  52.5340464  10.4201609  48.4987868
  52.5547218   9.7096925  49.8354569  54.0083912   6.5666011  43.0080185
  54.7107955   7.0187055  43.4754112  53.6764540   5.9249830  43.6360078
  52.4564273   5.1577768  57.3831395  51.8262934   5.8394049  57.6166791
  52.3500361   5.0460850  56.4384533  47.7509246   4.8249564  48.3097319
  46.9608299   5.0807093  47.8337429  48.2420493   5.6397902  48.4149359
  61.7673055  12.1654803  51.0602600  62.5890499  11.7634990  50.7785281
  61.7635458  12.0623037  52.0118715  49.7023991   5.1894143  45.2680795
  48.9055154   5.3012837  45.7864291  49.4749583   5.5280795  44.4021686
  55.5329659  11.7138846  53.2163310  55.5974091  12.1759254  54.0521482
  54.8240582  11.0836211  53.3445620  46.0346948   5.0780054  50.7412310
  46.2854987   5.9627064  51.0069885  46.5706497   4.8984656  49.9687401
  69.8579048   8.5093552  47.4087571  69.1042757   7.9400950  47.2531575
  69.9926589   8.4756216  48.3558206  55.2477676  13.3806954  43.0842290
  55.1123351  14.2258490  43.5127138  55.7887489  13.5826232  42.3208224
  51.7345016  -0.5401466  59.7456646  51.3411961  -1.0935268  60.4204290
  52.5511156  -0.2290888  60.1363163  48.7007074  10.8982392  43.6570215
  49.2131594  11.6925642  43.8075780  49.3529786  10.2008682  43.5903817
  50.5101958  14.0148148  45.7392969  50.6868587  14.9366113  45.5513953
  51.3058792  13.7006567  46.1687348  54.6512977   0.8756413  57.3376902
  55.3922690   1.4763566  57.2581365  54.8830900   0.1334051  56.7794945
  49.7954315   6.0612780  55.6155132  49.6807830   5.1598037  55.9162231
  48.9398833   6.3076477  55.2639948  56.8746153  14.0030520  57.2142632
  56.4310007  13.2166899  56.8963537  57.5363366  14.1909671  56.5486523
  51.6333274  15.5326322  51.7403311  52.1840699  15.4043385  50.9680305
  50.7944750  15.8321211  51.3898204  58.9727391  14.2833320  55.2424034
  58.9545866  15.1042201  54.7504303  59.8947311  14.1587396  55.4674175
  55.4300445  11.7977450  56.0847542  55.9628782  11.0365738  55.8546850
  54.9014526  11.5051102  56.8271697  58.5970140  -3.0962484  51.6141184
  58.2534409  -2.2060842  51.5380294  58.9649102  -3.2860827  50.7510769
  46.6655990   9.2271046  44.4329786  47.5031212   9.6368055  44.2163494
  46.8434258   8.2870488  44.4029980  58.5620422   6.8946127  40.1213619
  58.0467046   7.6650732  40.3602006  58.2897731   6.2211263  40.7446680
  56.1467533   1.7395828  45.1798857  55.2909130   1.3502678  45.0004496
  56.5594485   1.8187789  44.3198643  57.6766680  -0.7257829  49.5790417
  57.1731476  -0.7627694  48.7658222  57.9697287   0.1834914  49.6387074
  53.9209566  -0.6419099  48.5856599  54.7862563  -0.8376291  48.2262488
  53.9887075  -0.8708748  49.5125956  63.5354697   9.6478482  42.0566792
  62.7584139   9.3089641  41.6121955  64.2146178   9.6531105  41.3821757
  58.3506726   4.7673219  41.9473400  58.0456861   5.0819368  42.7983543
  59.3037168   4.8454639  41.9900733  56.7953157  10.9263442  43.5966354
  56.2674519  10.1916202  43.2839592  56.2940660  11.7038119  43.3506322
  61.7746003   9.1212463  48.7133400  61.1169678   9.8111724  48.8013529
  62.5786403   9.5108895  49.0567387  51.5271885   1.5883109  45.9572966
  52.1015637   1.3658290  45.2246159  52.1142868   1.6571803  46.7101567
  60.5851462   7.4756836  46.7637342  61.0983344   8.1086827  47.2659052
  61.2352686   6.8758031  46.3980702  51.8541472   3.6187570  39.9768851
  51.0178784   3.9562256  40.2978126  51.7146242   3.4836549  39.0395988
  53.8294553  -1.5375642  44.6848035  53.1758965  -1.8526625  44.0604650
  53.7875027  -2.1599902  45.4107858  54.9405758   8.7443653  36.6001327
  54.0332819   8.5132906  36.7992476  55.4376790   7.9481272  36.7875309
  57.8473837  17.4541160  39.5198013  57.1735535  17.7572857  40.1282971
  58.2339659  18.2570240  39.1703470  57.0632293   4.9506291  49.0095683
  56.1454855   5.1721238  48.8517371  57.4792437   5.0252602  48.1507390
  57.8467341   6.3497707  44.1398363  58.5939160   6.8619104  43.8305485
  58.1158930   6.0281759  45.0002757  56.1193991   8.8456247  41.1225317
  55.2105210   8.5615280  41.2197787  56.1489075   9.2655326  40.2628624
  61.3513259  12.4562837  44.8916485  60.8975586  11.6153747  44.9481675
  60.7207225  13.0924235  45.2291265  60.2946178   3.3854823  46.1217152
  59.5568935   2.8732209  46.4527395  60.5472952   2.9455205  45.3100429
  59.7946198  14.2939334  45.8266303  60.0869172  14.8544391  45.1078669
  60.3044818  14.5867895  46.5819462  46.6882161   6.5661762  45.1040519
  46.4906561   5.9731122  44.3791586  46.1328825   6.2613972  45.8216458
  54.6678885   6.4584868  47.2235113  54.7227495   5.5058704  47.1477589
  53.8570087   6.6144307  47.7076411  55.8170079  10.3864991  38.4613396
  55.3789509   9.6700850  38.0019033  56.5580520  10.6141106  37.8998487
  52.6071245   5.0761928  44.9825491  51.7939111   5.3756098  45.3890684
  53.1030239   4.6817617  45.6999974  54.7579823  15.0719685  46.9159756
  54.7156002  15.2980531  45.9868288  55.6742522  14.8383059  47.0645557
  58.2045457   5.5403752  53.8140385  58.5594844   5.7675225  54.6734851
  58.8517588   5.8722129  53.1917641  63.9343194   8.6622188  44.5189714
  63.7961092   8.8523784  43.5910904  63.5779412   9.4241571  44.9757766
  52.0985320   2.6480283  50.5986726  52.7384699   2.5069042  49.9009690
  51.2662850   2.3614797  50.2225328  63.9612573  10.7298715  49.5300986
  64.3949080  10.6374004  50.3784040  64.6744154  10.7056216  48.8921002
  52.8745624  11.9482714  46.7121719  53.6686222  11.4533034  46.5104294
  52.1637316  11.4200577  46.3489424  57.6940468  14.3300809  51.0634086
  57.7477490  14.8991746  51.8311802  56.8255250  14.5002694  50.6988124
  49.1828387   6.0925796  42.7881472  48.2525975   6.0310251  43.0051434
  49.2785859   5.5701748  41.9918113  49.1013936   2.6180608  45.3759713
  49.3620754   3.5325942  45.2668874  49.9231109   2.1505051  45.5256326
  50.5738862   4.0318366  52.5458538  51.2461915   3.8235728  51.8971187
  49.7468648   3.8340451  52.1063770  64.8228123  10.7722416  52.0633871
  65.0164013  11.6768226  52.3093146  64.7228741  10.3129835  52.8972456
  56.4764434   0.6580306  54.5624199  55.8292349   1.3570256  54.4688675
  57.2465449   1.0916450  54.9300447  59.8843232  10.9229159  57.6374752
  59.7328738  10.6939710  56.7204836  59.8747911  11.8799760  57.6506097
  56.6528568   8.4961071  52.6221018  57.5820628   8.6472231  52.4489986
  56.2319598   8.5845092  51.7669665  55.4516900  12.5211736  50.3919556
  55.3127985  12.1530520  51.2645494  54.6631496  13.0359375  50.2203514
  56.0465052  17.6220832  41.7345092  56.2216807  17.1508875  42.5490715
  55.3597840  18.2486598  41.9626353  57.0022115  11.8993338  47.7808394
  56.6671947  11.8594108  48.6766044  56.5026061  11.2338054  47.3078804
  50.9766359   7.3060968  53.3060975  50.8386157   6.5741207  53.9072514
  51.8871282   7.2169869  53.0245163  59.9381307   9.2449373  38.0545453
  59.3210477   8.5196201  37.9578506  59.4697795  10.0058733  37.7112528
  53.6048659   7.0180928  52.7944655  54.3148278   6.3774120  52.7531273
  53.5617968   7.2693823  53.7170835  61.5935438  13.9548281  55.7151234
  61.5347984  13.2707501  55.0481817  61.9954957  14.6967271  55.2631860
  52.3177593   4.0046146  54.6140294  51.7814950   3.5536884  55.2661890
  51.7294302   4.1392055  53.8710758  50.6126137  20.7710195  48.5084953
  50.8522735  21.4028719  49.1863971  49.7695333  20.4198235  48.7950312
  51.7279852   3.4634797  37.1766758  50.8509319   3.3423598  36.8129004
  52.2037605   2.6720875  36.9245646  61.5952845  11.9187865  53.9465213
  60.7079624  11.5813787  54.0691612  62.1651396  11.1870896  54.1833979
  43.2481993   8.2511957  47.2708265  43.9353032   7.9373687  46.6829280
  43.0930121   9.1553321  46.9975516  48.0516715   3.1402153  51.6993289
  47.9674903   2.5327823  50.9643698  47.2299421   3.6311172  51.7002785
  55.1253999  16.5789317  50.9126457  55.0524170  17.3844289  51.4245761
  54.6831392  16.7781283  50.0874478  54.9143778  15.8161087  44.4229278
  54.1311300  16.3582768  44.5167503  55.6136524  16.3335067  44.8223519
  58.2240429   1.6255717  47.0663484  58.7209128   0.8725679  46.7464554
  57.4527410   1.6620034  46.5006693  66.0770186   7.3296082  48.7081775
  66.0660062   8.2120798  48.3375708  65.2087565   6.9767633  48.5136312
  57.5852682  16.4776151  53.0684615  58.2980655  17.1123616  52.9960517
  57.0942711  16.5740017  52.2524617  59.3070209  10.3827404  44.6401907
  58.3726488  10.5028867  44.4706611  59.4846878   9.4799871  44.3761917
  54.8075397   3.7673100  46.7935168  54.4373185   3.2144140  47.4816074
  55.3034490   3.1631233  46.2410168  62.6942761   6.2244723  45.1751941
  63.1603213   7.0572715  45.1012244  63.1450261   5.7589705  45.8797200
  52.6364596  14.2270595  53.8890186  53.3374055  14.8607078  54.0419580
  52.1659711  14.5685326  53.1285825  60.7618992  12.5688545  42.1738093
  61.0378836  12.4545139  43.0831967  59.8923490  12.1706030  42.1350266
  60.6659423  -1.4074690  49.2142842  59.7522503  -1.1770463  49.3825049
  61.0952525  -1.3236246  50.0656875  60.4365882   6.7815202  51.7142736
  59.7837332   7.0291110  51.0595189  60.8146262   5.9679341  51.3805214
  57.3973056  16.8174896  45.8170907  57.5795450  15.9996551  46.2798659
  58.2206042  17.0342588  45.3795797  57.7315221  15.7443081  43.0785955
  58.2602988  15.2335535  42.4656117  57.9943441  15.4285611  43.9431488
  56.4853455   7.5235013  58.2008774  55.8094092   7.4229143  58.8711149
  57.3081089   7.3674227  58.6644771  48.2332314  13.7606950  50.8221289
  48.8185751  13.0150638  50.9549193  48.0357152  14.0710907  51.7057953
  51.0870969  16.7958197  45.8383731  50.4181344  17.2804325  45.3547771
  50.9483839  17.0427418  46.7527110  42.8249969   6.3312550  49.5425732
  42.8634068   5.7976141  50.3362850  42.3190262   5.8047756  48.9236709
  55.2276238  18.8301941  52.4366390  55.7794546  18.9933562  53.2015475
  55.5682431  19.4206379  51.7646414  50.2040731   1.1777091  53.0388274
  50.2682057   2.0391922  52.6265672  50.1407851   0.5651092  52.3060633
  49.6793004   3.2500223  56.6861309  50.3065042   2.8677301  57.2998833
  48.8220922   3.0314425  57.0517001  60.0787112  13.6563198  58.2915044
  60.6227016  14.2693157  57.7969999  59.4973957  14.2142777  58.8082057
  46.4558546   5.0576652  42.6179663  46.7511987   4.1487331  42.5646717
  45.5546582   5.0364392  42.2960666  58.3644625  16.7783916  49.4230072
  58.2395764  15.9773656  48.9141017  59.0223716  17.2730110  48.9344042
  49.9852793   3.1332649  48.6007212  49.2639379   3.7468617  48.4614685
  50.7746049   3.6690414  48.5223858  60.4279533  14.5792936  51.0509622
  59.4809869  14.4598288  50.9787949  60.7762307  13.6915435  51.1335883
  52.7879107   0.4687075  54.8747864  53.3113509   0.7149372  55.6374173
  52.5691440   1.3007110  54.4551001  48.1846388   2.7390750  42.7418988
  47.8559094   1.8588129  42.5594094  48.5385759   2.6838419  43.6295378
  57.4325967  14.3745653  47.2513974  57.2850929  13.4462360  47.4321544
  58.2579460  14.3965743  46.7671049  51.2988211   3.0263720  43.1094466
  51.6384284   3.5549641  42.3873075  51.7460331   3.3644126  43.8853033
  61.0360089  15.1974211  48.3378847  61.9606636  14.9917073  48.2003298
  60.8675392  14.9490613  49.2468188  53.9931652   1.4100771  52.5597534
  53.6528472   0.6108584  52.9618214  53.2870658   1.7102481  51.9874367
  54.6448124  -1.5049917  51.0124857  55.4674193  -1.9789439  50.8903748
  54.8886187  -0.7259433  51.5123544  53.2856358   1.5238341  41.3087759
  54.0064721   1.9019594  40.8051476  52.6621662   2.2427218  41.4122737
  57.4287481   2.2283490  42.2446091  57.6451095   3.1108128  41.9434919
  56.9481548   1.8369704  41.5151733  52.1686702   5.1869204  48.8216836
  52.0231283   5.5009507  49.7141117  51.6911906   5.8054104  48.2687735
  54.0283085   2.1771752  48.8697725  54.0144654   1.2812845  48.5330023
  54.7455513   2.1842415  49.5036011  55.8809216   2.6109092  50.9150853
  55.6226994   3.5326162  50.9135183  55.3494256   2.2139526  51.6051317
  60.8255405  15.7159879  43.6940938  60.9992282  15.1506301  42.9414791
  61.3184296  16.5160774  43.5120428  46.6432365   7.7274548  51.7604497
  46.0985833   8.5034356  51.8924771  47.5211714   8.0745352  51.6023618
  53.4319981   1.0586132  44.1385296  53.5535892   0.1302778  44.3376183
  53.1422024   1.0724818  43.2263611  56.3011172  -1.2558958  47.2752015
  56.3232868  -1.1919625  46.3203995  56.7179231  -2.0954449  47.4692522
  66.6794796   8.4796302  45.3131238  67.1225942   7.7303627  44.9150361
  65.8021306   8.4706438  44.9304970  61.8130577  15.0326643  40.7937837
  62.5081482  15.6533336  41.0125151  62.1553727  14.1821995  41.0690214
  47.4298386   6.8544444  54.6534654  46.6880122   7.0027080  55.2399284
  47.1091131   7.1152710  53.7901403  63.7122000  12.4826349  42.3225167
  64.2373324  12.8213622  41.5974487  63.6244353  11.5473364  42.1388302
  55.3742049  16.3960422  54.4515044  55.6829176  16.1509569  55.3237744
  56.1717531  16.6007061  53.9633914  55.3962661  18.5498332  46.6820420
  54.9567651  18.0574711  47.3753277  56.1470778  18.0071300  46.4412496
  47.8755000  14.7409873  46.6845049  48.7013020  14.4413645  46.3043692
  47.5249052  13.9717495  47.1334837  52.8436533  14.0936341  48.7542722
  52.2216543  13.4307046  48.4544950  53.5141400  14.1197473  48.0716370
  46.0763605  12.6596199  47.6433982  45.2395513  12.2318374  47.4617983
  46.0487251  12.8528643  48.5804773  52.9161061   2.5718129  58.3475228
  52.9649216   3.4480252  57.9652998  53.4583575   2.0295522  57.7746871
  63.4015906  13.1159252  57.6276365  62.6111450  13.0983391  57.0880865
  63.1649261  13.6547546  58.3825402  63.5213781   9.9651719  54.9409094
  63.5711786   9.8001726  55.8824617  63.4127705   9.0978978  54.5506975
  52.4050040  12.6440265  42.2301183  52.5538161  13.3275729  41.5767855
  53.2116484  12.6245355  42.7450638  60.8117544   5.9482647  56.2568400
  61.7127407   5.8089112  55.9652398  60.8865518   6.1137102  57.1966578
  55.1460349   3.3249502  55.1021587  54.2763659   3.6183068  54.8304175
  55.3819830   3.9089947  55.8228850  65.0231978  12.3848660  55.1851115
  64.7316787  12.7478641  56.0214576  64.4104110  11.6715669  55.0064447
  66.2227661   9.9501540  47.7053686  67.0574552  10.3891344  47.8691246
  66.3586789   9.4740193  46.8861931  63.2719167   7.5081275  53.6531173
  63.7473288   7.7008921  52.8450025  62.3484732   7.5640461  53.4074557
  50.1602673   8.6705442  43.2362252  49.9148715   7.7667772  43.4342462
  50.3298588   8.6722593  42.2941730  57.8499383  -0.4570881  52.6187007
  58.3681327   0.2790145  52.2933496  57.4954516  -0.1506888  53.4533766
  49.4298321   4.4033800  40.7348413  48.7367566   4.4778155  40.0788449
  49.1850073   3.6394143  41.2569930  55.9045446  15.1388395  39.7012930
  55.3319413  15.7578582  39.2483402  56.4778239  15.6887757  40.2352852
  61.9720836   4.3847035  51.8859479  62.9238258   4.4845133  51.9071703
  61.8024286   3.5925304  52.3957563  59.9935215   1.4702618  52.0718880
  59.3985147   1.7507631  51.3765368  59.7084912   1.9596519  52.8435621
  59.1242705  15.4225545  40.8321512  60.0573379  15.3571107  41.0354388
  59.0365918  16.2581812  40.3736045  61.7530722  14.7391415  37.7925460
  61.6744354  14.4051279  38.6861218  62.5740389  15.2313183  37.7916932
  64.4508913   7.6053155  51.0001779  64.4185233   6.6669155  51.1861462
  65.0609537   7.6837191  50.2667603  56.2892244   6.4749208  37.0428983
  57.2351349   6.3455416  37.1117401  55.9106489   5.7363870  37.5198411
  64.6003402   4.3964198  51.0460062  64.0842450   3.6122655  50.8589991
  65.4843350   4.0682915  51.2106581  62.2614129  -1.8594786  47.0055874
  62.0638950  -2.1679698  47.8899206  62.8713834  -1.1333147  47.1353804
  70.2685463   8.6669162  50.1407815  70.9988852   8.4054450  50.7015519
  69.6592409   7.9297884  50.1809883  68.3500760   6.8077024  50.7382267
  67.6233924   6.6732989  50.1298758  67.9348047   7.1153853  51.5438985
  56.1730937  10.5266954  58.5029640  57.0933946  10.7045553  58.6969686
  56.1380520   9.5822999  58.3509339  54.4735161   4.3999184  36.9783868
  53.5666617   4.1032297  37.0546581  54.7511142   4.1029002  36.1118154
  45.3913102   5.7205548  47.4282914  45.0715886   4.8670856  47.1357288
  44.8446530   5.9354126  48.1840882  49.1693009   8.4367989  51.1452421
  49.3879019   9.3685096  51.1640455  49.5818783   8.0775963  51.9307225
  56.0897227  -1.0563926  43.1328109  55.2797955  -1.4016841  43.5083355
  56.7781644  -1.3656382  43.7215721  58.0187775  -1.9785879  44.7552406
  58.5718814  -1.5590426  45.4142429  58.2557862  -2.9050131  44.7975362
  54.0420875   4.0101194  60.5355170  53.9417602   4.9595551  60.4667261
  53.8242417   3.6819433  59.6631240  53.2433946   1.2586119  37.1195847
  54.1053110   1.5841018  37.3791664  53.4284290   0.4717615  36.6068913
  45.2601362   9.3408459  49.3976036  44.5664833   8.9262412  48.8845990
  46.0074353   9.3828996  48.8009455  61.3966582   0.1314646  44.2631070
  60.8165252   0.7899450  43.8809122  61.1302515  -0.6908010  43.8518488
  59.8470149  -0.4680296  46.4652390  60.3469927  -0.3563762  45.6566709
  60.4905757  -0.7719244  47.1053199  53.9052145   7.4398333  59.3520231
  53.4219226   8.2398693  59.5584120  53.9913084   7.4506278  58.3987675
  47.1738104   9.2726713  47.2742051  47.1508792   9.3714400  46.3223934
  47.4838741  10.1191864  47.5959217  49.8325482  11.3302868  51.3888665
  50.7868736  11.2986810  51.3218597  49.6338006  10.8693492  52.2038891
  50.4224864   9.9003984  53.9559463  51.2417753  10.3948063  53.9794300
  50.6961672   8.9835952  53.9277030  60.1791460   2.2914736  43.3187418
  59.2917316   2.5764387  43.1007613  60.5945450   2.1308500  42.4714695
  63.5305997   2.3161257  47.0341758  64.3066387   2.8057710  47.3066374
  62.8054131   2.7419311  47.4913627  65.9678555   3.0288876  48.0915698
  66.5623046   2.7884612  47.3809006  66.0405139   2.3096007  48.7189234
  48.1875711  16.8722487  48.4058863  48.0530179  16.1122888  47.8396861
  47.7707773  17.5963387  47.9387652  59.3234674  12.0559411  37.4135438
  60.0270524  12.2609413  38.0293094  58.5997323  12.6236173  37.6784522
  60.1532484   7.8069272  43.5337708  60.0967686   8.2637824  42.6945341
  60.7060827   7.0459957  43.3560551  63.9637290   3.5959004  44.3587828
  63.7074224   3.1955640  45.1896036  63.3390158   4.3102798  44.2337967
  68.2749628   6.3355077  46.8659119  67.7149186   6.4048267  47.6390681
  67.6693131   6.1596062  46.1458616  51.3444837  17.7691804  48.6177306
  51.2277221  18.7137237  48.5155996  50.5237283  17.4665366  49.0063105
  61.2321371  12.4941940  39.4633898  62.0666975  12.0623139  39.2811373
  61.0705714  12.3223954  40.3910793  60.8867264   8.9974053  40.8290238
  60.8316067   8.8318325  39.8878682  60.2613319   9.7050086  40.9852427
  45.6759779   4.2342118  54.6551660  46.3218642   3.7241072  55.1438885
  45.4676930   4.9710799  55.2295085  58.2013171  11.3022965  60.1543800
  59.0704330  11.4763618  59.7930435  57.7219922  12.1217382  60.0319530
  54.1963389  -1.5017838  40.4075556  54.1842059  -0.5575998  40.5643827
  55.0886811  -1.6847692  40.1135017  52.3699351  18.4220066  51.8333234
  53.2726598  18.4543677  52.1499729  52.1436721  17.4920517  51.8479570
  54.1252953  17.1751053  48.4943313  53.1748584  17.1752914  48.3807685
  54.4285439  16.4283787  47.9779347  50.0157270   1.3809735  58.7526674
  50.8788731   1.0246540  58.9629999  49.4422680   1.0423630  59.4402078
  69.8605646  23.0111591  49.5589075  70.4984056  22.8918339  48.8552415
  69.7426489  23.9592435  49.6177027  66.6695353  22.9639019  49.4950600
  66.3313864  22.8480084  48.6071135  67.5385121  22.5630184  49.4751606
  67.1515136  24.1173871  55.4536805  67.1403776  23.7226669  54.5817309
  67.3135775  23.3839944  56.0470577  60.0746600  26.3125687  48.3231711
  60.8667892  25.9716512  47.9078010  60.3143251  26.4220662  49.2433864
  63.8722397  26.9010983  54.4015989  63.5812263  27.8056614  54.2862656
  64.5079381  26.9427510  55.1160059  64.7978604  24.2787831  50.9917349
  65.3942176  24.0543854  50.2774312  64.8553575  23.5372577  51.5942797
  69.4146915  20.7363045  46.6342283  70.2010004  20.3182468  46.2832700
  69.6785619  21.6409137  46.8023931  74.8155342  20.6738278  47.5375262
  75.5480514  20.1037495  47.7713091  74.0594698  20.2859879  47.9781767
  72.3380762  14.3859852  51.9969870  72.0064087  15.2555263  51.7731085
  71.7426376  14.0696136  52.6763901  66.0736949  18.1255419  39.7299953
  66.2411351  18.9935656  40.0970424  65.8834118  18.2882701  38.8061242
  62.2824763  23.0386195  47.4302487  61.3575260  22.9062409  47.6380179
  62.5309177  23.8180414  47.9272430  72.2309426  19.1054939  49.0763220
  71.3226303  19.0370347  48.7821981  72.1797022  19.5826883  49.9045046
  66.0526170  20.5813077  40.7146619  65.9325795  21.0270128  41.5532100
  65.3578758  20.9298395  40.1560158  59.6433574  22.6819469  48.2646276
  59.7725956  22.9353948  49.1785688  58.9631026  23.2747177  47.9450932
  66.3050292  20.5244584  57.0198118  65.5283626  21.0838504  57.0100982
  66.9440855  21.0101367  57.5412988  74.0971072  17.3071377  50.8541094
  73.4545452  17.6003910  50.2080889  73.5926001  17.1924297  51.6594291
  71.7511236  21.0534550  41.5426953  72.6629092  21.2861937  41.3674651
  71.2420883  21.6371594  40.9802032  64.5596664  23.3330037  56.5816085
  65.3011348  23.8715081  56.3050908  63.8533649  23.9596326  56.7387636
  66.3883074  20.4131785  52.5521803  67.2344269  20.8371198  52.6956452
  66.3281711  19.7565409  53.2460366  69.5382519  18.0736153  54.2102977
  69.2943451  18.8278214  53.6737252  69.8142449  18.4521501  55.0450224
  69.0947211  17.2292586  49.7916814  68.2331690  17.5273840  50.0833552
  69.1209645  17.4462985  48.8597847  62.8032861  25.3206258  49.1370383
  63.3734218  25.7493527  48.4987868  63.3940973  25.0388843  49.8354569
  64.8477666  21.8957929  43.0080185  65.5501709  22.3478973  43.4754112
  64.5158295  21.2541748  43.6360078  63.2958028  20.4869686  57.3831395
  62.6656688  21.1685966  57.6166791  63.1894115  20.3752767  56.4384533
  58.5903000  20.1541482  48.3097319  57.8002054  20.4099010  47.8337429
  59.0814247  20.9689820  48.4149359  60.5417745  20.5186061  45.2680795
  59.7448909  20.6304755  45.7864291  60.3143338  20.8572713  44.4021686
  66.3723413  27.0430764  53.2163310  66.4367846  27.5051171  54.0521482
  65.6634337  26.4128129  53.3445620  56.8740703  20.4071972  50.7412310
  57.1248741  21.2918982  51.0069885  57.4100251  20.2276574  49.9687401
  62.5738770  14.7890451  59.7456646  62.1805716  14.2356650  60.4204290
  63.3904911  15.1001030  60.1363163  65.4906731  16.2048331  57.3376902
  66.2316445  16.8055484  57.2581365  65.7224654  15.4625968  56.7794945
  60.6348069  21.3904698  55.6155132  60.5201584  20.4889955  55.9162231
  59.7792587  21.6368395  55.2639948  69.4363894  12.2329434  51.6141184
  69.0928164  13.1231075  51.5380294  69.8042857  12.0431091  50.7510769
  69.4014177  22.2238045  40.1213619  68.8860800  22.9942649  40.3602006
  69.1291485  21.5503181  40.7446680  66.9861288  17.0687745  45.1798857
  66.1302884  16.6794596  45.0004496  67.3988240  17.1479706  44.3198643
  68.5160435  14.6034089  49.5790417  68.0125230  14.5664224  48.7658222
  68.8091041  15.5126831  49.6387074  64.7603320  14.6872818  48.5856599
  65.6256317  14.4915627  48.2262488  64.8280829  14.4583170  49.5125956
  74.3748451  24.9770399  42.0566792  73.5977894  24.6381559  41.6121955
  75.0539932  24.9823022  41.3821757  69.1900480  20.0965137  41.9473400
  68.8850616  20.4111286  42.7983543  70.1430922  20.1746557  41.9900733
  62.3665640  16.9175026  45.9572966  62.9409391  16.6950208  45.2246159
  62.9536622  16.9863721  46.7101567  71.4245217  22.8048753  46.7637342
  71.9377099  23.4378745  47.2659052  72.0746441  22.2049949  46.3980702
  62.6935227  18.9479487  39.9768851  61.8572539  19.2854174  40.2978126
  62.5539996  18.8128467  39.0395988  64.6688307  13.7916275  44.6848035
  64.0152720  13.4765292  44.0604650  64.6268781  13.1692016  45.4107858
  67.9026048  20.2798209  49.0095683  66.9848609  20.5013156  48.8517371
  68.3186191  20.3544519  48.1507390  68.6861095  21.6789624  44.1398363
  69.4332914  22.1911022  43.8305485  68.9552685  21.3573677  45.0002757
  72.1907013  27.7854755  44.8916485  71.7369340  26.9445665  44.9481675
  71.5600980  28.4216153  45.2291265  71.1339933  18.7146741  46.1217152
  70.3962689  18.2024127  46.4527395  71.3866706  18.2747122  45.3100429
  71.2351560  11.4922993  46.7158922  71.5410437  10.6320356  46.4284837
  71.9604165  12.0840613  46.5157915  57.5275916  21.8953679  45.1040519
  57.3300316  21.3023040  44.3791586  56.9722580  21.5905889  45.8216458
  65.5072640  21.7876786  47.2235113  65.5621249  20.8350622  47.1477589
  64.6963842  21.9436225  47.7076411  63.4465000  20.4053845  44.9825491
  62.6332865  20.7048016  45.3890684  63.9423994  20.0109534  45.6999974
  69.0439211  20.8695670  53.8140385  69.3988599  21.0967143  54.6734851
  69.6911342  21.2014047  53.1917641  62.9379074  17.9772201  50.5986726
  63.5778454  17.8360960  49.9009690  62.1056605  17.6906714  50.2225328
  60.0222142  21.4217713  42.7881472  59.0919730  21.3602169  43.0051434
  60.1179614  20.8993666  41.9918113  59.9407691  17.9472526  45.3759713
  60.2014508  18.8617859  45.2668874  60.7624863  17.4796969  45.5256326
  61.4132616  19.3610283  52.5458538  62.0855669  19.1527645  51.8971187
  60.5862403  19.1632369  52.1063770  67.3158188  15.9872224  54.5624199
  66.6686103  16.6862174  54.4688675  68.0859203  16.4208368  54.9300447
  67.4922322  23.8252989  52.6221018  68.4214382  23.9764149  52.4489986
  67.0713352  23.9137010  51.7669665  67.8415869  27.2285256  47.7808394
  67.5065702  27.1886026  48.6766044  67.3419815  26.5629972  47.3078804
  61.8160113  22.6352886  53.3060975  61.6779911  21.9033125  53.9072514
  62.7265037  22.5461786  53.0245163  70.7775061  24.5741290  38.0545453
  70.1604232  23.8488119  37.9578506  70.3091549  25.3350651  37.7112528
  64.4442414  22.3472845  52.7944655  65.1542033  21.7066038  52.7531273
  64.4011722  22.5985740  53.7170835  63.1571348  19.3338063  54.6140294
  62.6208705  18.8828802  55.2661890  62.5688056  19.4683972  53.8710758
  61.4519891  36.1002113  48.5084953  61.6916490  36.7320637  49.1863971
  60.6089088  35.7490153  48.7950312  62.5673607  18.7926715  37.1766758
  61.6903073  18.6715516  36.8129004  63.0431360  18.0012793  36.9245646
  54.0875747  23.5803874  47.2708265  54.7746787  23.2665605  46.6829280
  53.9323876  24.4845239  46.9975516  58.8910469  18.4694071  51.6993289
  58.8068658  17.8619741  50.9643698  58.0693176  18.9603089  51.7002785
  69.0634183  16.9547635  47.0663484  69.5602883  16.2017597  46.7464554
  68.2921165  16.9911951  46.5006693  70.1463964  25.7119322  44.6401907
  69.2120242  25.8320784  44.4706611  70.3240632  24.8091789  44.3761917
  65.6469152  19.0965018  46.7935168  65.2766939  18.5436058  47.4816074
  66.1428244  18.4923151  46.2410168  73.5336515  21.5536641  45.1751941
  73.9996967  22.3864633  45.1012244  73.9844016  21.0881623  45.8797200
  71.5053178  13.9217228  49.2142842  70.5916258  14.1521455  49.3825049
  71.9346279  14.0055672  50.0656875  71.2759636  22.1107120  51.7142736
  70.6231087  22.3583027  51.0595189  71.6540016  21.2971258  51.3805214
  67.3247209  22.8526931  58.2008774  66.6487846  22.7521060  58.8711149
  68.1474843  22.6966145  58.6644771  59.0726068  29.0898868  50.8221289
  59.6579505  28.3442556  50.9549193  58.8750907  29.4002824  51.7057953
  53.6643723  21.6604468  49.5425732  53.7027823  21.1268059  50.3362850
  53.1584016  21.1339673  48.9236709  61.0434485  16.5069008  53.0388274
  61.1075812  17.3683839  52.6265672  60.9801606  15.8943010  52.3060633
  60.5186758  18.5792141  56.6861309  61.1458797  18.1969218  57.2998833
  59.6614677  18.3606343  57.0517001  57.2952301  20.3868570  42.6179663
  57.5905742  19.4779248  42.5646717  56.3940337  20.3656309  42.2960666
  60.8246548  18.4624567  48.6007212  60.1033134  19.0760534  48.4614685
  61.6139804  18.9982331  48.5223858  63.6272861  15.7978993  54.8747864
  64.1507263  16.0441290  55.6374173  63.4085195  16.6299028  54.4551001
  59.0240142  18.0682668  42.7418988  58.6952848  17.1880047  42.5594094
  59.3779513  18.0130336  43.6295378  62.1381965  18.3555637  43.1094466
  62.4778038  18.8841559  42.3873075  62.5854086  18.6936044  43.8853033
  64.8325406  16.7392688  52.5597534  64.4922227  15.9400501  52.9618214
  64.1264413  17.0394399  51.9874367  65.4841878  13.8242001  51.0124857
  66.3067947  13.3502479  50.8903748  65.7279942  14.6032484  51.5123544
  64.1250113  16.8530259  41.3087759  64.8458475  17.2311512  40.8051476
  63.5015417  17.5719136  41.4122737  68.2681236  17.5575408  42.2446091
  68.4844850  18.4400046  41.9434919  67.7875303  17.1661621  41.5151733
  63.0080457  20.5161121  48.8216836  62.8625038  20.8301424  49.7141117
  62.5305661  21.1346022  48.2687735  64.8676840  17.5063669  48.8697725
  64.8538409  16.6104763  48.5330023  65.5849268  17.5134333  49.5036011
  66.7202970  17.9401009  50.9150853  66.4620748  18.8618080  50.9135183
  66.1888011  17.5431444  51.6051317  57.4826119  23.0566466  51.7604497
  56.9379587  23.8326274  51.8924771  58.3605469  23.4037270  51.6023618
  64.2713736  16.3878050  44.1385296  64.3929647  15.4594696  44.3376183
  63.9815778  16.4016735  43.2263611  67.1404926  14.0732960  47.2752015
  67.1626623  14.1372293  46.3203995  67.5572985  13.2337469  47.4692522
  58.2692141  22.1836362  54.6534654  57.5273877  22.3318997  55.2399284
  57.9484885  22.4444628  53.7901403  74.5515755  27.8118267  42.3225167
  75.0767079  28.1505539  41.5974487  74.4638107  26.8765282  42.1388302
  58.7148755  30.0701791  46.6845049  59.5406775  29.7705563  46.3043692
  58.3642807  29.3009413  47.1334837  56.9157360  27.9888117  47.6433982
  56.0789268  27.5610291  47.4617983  56.8881005  28.1820560  48.5804773
  63.7554815  17.9010047  58.3475228  63.8042971  18.7772170  57.9652998
  64.2977329  17.3587440  57.7746871  71.6511298  21.2774565  56.2568400
  72.5521161  21.1381029  55.9652398  71.7259273  21.4429019  57.1966578
  65.9854104  18.6541419  55.1021587  65.1157413  18.9474985  54.8304175
  66.2213584  19.2381864  55.8228850  74.1112921  22.8373193  53.6531173
  74.5867043  23.0300839  52.8450025  73.1878486  22.8932378  53.4074557
  68.6893138  14.8721036  52.6187007  69.2075081  15.6082063  52.2933496
  68.3348270  15.1785030  53.4533766  60.2692075  19.7325717  40.7348413
  59.5761320  19.8070072  40.0788449  60.0243827  18.9686061  41.2569930
  68.9405732  11.2921319  48.1387904  69.2207485  10.6244508  48.7648330
  69.7256339  11.4850414  47.6262568  72.8114590  19.7138953  51.8859479
  73.7632013  19.8137050  51.9071703  72.6418040  18.9217221  52.3957563
  70.8328970  16.7994536  52.0718880  70.2378902  17.0799549  51.3765368
  70.5478666  17.2888437  52.8435621  75.2902668  22.9345072  51.0001779
  75.2578988  21.9961073  51.1861462  75.9003291  23.0129109  50.2667603
  67.1285999  21.8041125  37.0428983  68.0745103  21.6747334  37.1117401
  66.7500244  21.0655787  37.5198411  75.4397156  19.7256116  51.0460062
  74.9236205  18.9414573  50.8589991  76.3237105  19.3974832  51.2106581
  73.1007883  13.4697131  47.0055874  72.9032704  13.1612220  47.8899206
  73.7107589  14.1958770  47.1353804  67.0124691  25.8558872  58.5029640
  67.9327701  26.0337471  58.6969686  66.9774274  24.9114917  58.3509339
  65.3128916  19.7291102  36.9783868  64.4060371  19.4324215  37.0546581
  65.5904897  19.4320920  36.1118154  56.2306856  21.0497465  47.4282914
  55.9109641  20.1962773  47.1357288  55.6840284  21.2646043  48.1840882
  60.0086764  23.7659906  51.1452421  60.2272774  24.6977014  51.1640455
  60.4212538  23.4067881  51.9307225  66.9290982  14.2727992  43.1328109
  66.1191710  13.9275076  43.5083355  67.6175399  13.9635535  43.7215721
  68.8581530  13.3506038  44.7552406  69.4112568  13.7701492  45.4142429
  69.0951616  12.4241786  44.7975362  64.8814629  19.3393112  60.5355170
  64.7811356  20.2887469  60.4667261  64.6636171  19.0111351  59.6631240
  64.0827700  16.5878037  37.1195847  64.9446864  16.9132935  37.3791664
  64.2678045  15.8009533  36.6068913  56.0995116  24.6700377  49.3976036
  55.4058588  24.2554329  48.8845990  56.8468107  24.7120913  48.8009455
  72.2360337  15.4606563  44.2631070  71.6559006  16.1191368  43.8809122
  71.9696270  14.6383908  43.8518488  70.6863903  14.8611621  46.4652390
  71.1863682  14.9728156  45.6566709  71.3299511  14.5572674  47.1053199
  64.7445899  22.7690251  59.3520231  64.2612981  23.5690611  59.5584120
  64.8306838  22.7798196  58.3987675  58.0131859  24.6018630  47.2742051
  57.9902547  24.7006318  46.3223934  58.3232495  25.4483781  47.5959217
  60.6719237  26.6594786  51.3888665  61.6262490  26.6278728  51.3218597
  60.4731760  26.1985409  52.2038891  61.2618619  25.2295902  53.9559463
  62.0811508  25.7239980  53.9794300  61.5355426  24.3127870  53.9277030
  71.0185215  17.6206654  43.3187418  70.1311070  17.9056304  43.1007613
  71.4339204  17.4600417  42.4714695  74.3699751  17.6453175  47.0341758
  75.1460141  18.1349627  47.3066374  73.6447885  18.0711229  47.4913627
  76.8072310  18.3580794  48.0915698  77.4016801  18.1176530  47.3809006
  76.8798893  17.6387925  48.7189234  59.0269465  32.2014405  48.4058863
  58.8923933  31.4414806  47.8396861  58.6101528  32.9255305  47.9387652
  70.1628428  27.3851329  37.4135438  70.8664279  27.5901331  38.0293094
  69.4391077  27.9528090  37.6784522  70.9926239  23.1361190  43.5337708
  70.9361440  23.5929741  42.6945341  71.5454581  22.3751874  43.3560551
  74.8031045  18.9250922  44.3587828  74.5467979  18.5247557  45.1896036
  74.1783913  19.6394716  44.2337967  79.1143382  21.6646995  46.8659119
  78.5542940  21.7340184  47.6390681  78.5086886  21.4887980  46.1458616
  71.7261018  24.3265971  40.8290238  71.6709822  24.1610242  39.8878682
  71.1007073  25.0342004  40.9852427  56.5153533  19.5634035  54.6551660
  57.1612397  19.0532989  55.1438885  56.3070684  20.3002717  55.2295085
  65.0357143  13.8274080  40.4075556  65.0235813  14.7715920  40.5643827
  65.9280565  13.6444225  40.1135017  68.8509263  10.4216857  44.6621493
  68.0841659   9.8675343  44.8078175  69.2619968  10.4938725  45.5235644
  60.8551024  16.7101652  58.7526674  61.7182486  16.3538457  58.9629999
  60.2816435  16.3715547  59.4402078  91.5366557  39.1677387  47.4087571
  90.7830265  38.5984785  47.2531575  91.6714098  39.1340051  48.3558206
  75.8750898  29.1565998  40.4075556  75.8629568  30.1007838  40.5643827
  76.7674320  28.9736143  40.1135017  94.0168271  45.0443688  51.9969870
  93.6851596  45.9139099  51.7731085  93.4213885  44.7279972  52.6763901
  95.7758581  47.9655212  50.8541094  95.1332961  48.2587745  50.2080889
  95.2713510  47.8508133  51.6594291  90.7734720  47.8876421  49.7916814
  89.9119199  48.1857675  50.0833552  90.7997154  48.1046820  48.8597847
  90.1947944  45.2617924  49.5790417  89.6912739  45.2248059  48.7658222
  90.4878550  46.1710667  49.6387074  92.8127442  49.3730576  46.1217152
  92.0750198  48.8607962  46.4527395  93.0654215  48.9330958  45.3100429
  92.9139069  42.1506828  46.7158922  93.2197946  41.2904191  46.4284837
  93.6391674  42.7424448  46.5157915  90.7421692  47.6131470  47.0663484
  91.2390392  46.8601432  46.7464554  89.9708674  47.6495787  46.5006693
  95.2124024  52.2120476  45.1751941  95.6784476  53.0448468  45.1012244
  95.6631525  51.7465458  45.8797200  93.1840687  44.5801063  49.2142842
  92.2703767  44.8105290  49.3825049  93.6133788  44.6639508  50.0656875
  97.5413242  58.3724413  55.1851115  97.2498050  58.7354394  56.0214576
  96.9285373  57.6591422  55.0064447  90.3680647  45.5304872  52.6187007
  90.8862590  46.2665898  52.2933496  90.0135779  45.8368865  53.4533766
  90.6193241  41.9505154  48.1387904  90.8994994  41.2828343  48.7648330
  91.4043848  42.1434250  47.6262568  94.7795392  44.1280967  47.0055874
  94.5820213  43.8196055  47.8899206  95.3895098  44.8542606  47.1353804
 100.8682024  52.7952777  50.7382267 100.1415187  52.6608742  50.1298758
 100.4529311  53.1029606  51.5438985  93.9147846  46.1190399  44.2631070
  93.3346515  46.7775203  43.8809122  93.6483779  45.2967743  43.8518488
  92.3651412  45.5195457  46.4652390  92.8651191  45.6311991  45.6566709
  93.0087020  45.2156509  47.1053199  92.6972724  48.2790489  43.3187418
  91.8098579  48.5640140  43.1007613  93.1126713  48.1184253  42.4714695
  96.0487260  48.3037010  47.0341758  96.8247650  48.7933463  47.3066374
  95.3235394  48.7295064  47.4913627  98.4859819  49.0164629  48.0915698
  99.0804310  48.7760365  47.3809006  98.5586402  48.2971760  48.7189234
  96.4818554  49.5834757  44.3587828  96.2255488  49.1831393  45.1896036
  95.8571422  50.2978551  44.2337967 100.7930891  52.3230830  46.8659119
 100.2330449  52.3924020  47.6390681 100.1874395  52.1471815  46.1458616
 102.3786910  68.9987344  49.5589075 103.0165320  68.8794092  48.8552415
 102.2607753  69.9468188  49.6177027  99.6696399  70.1049624  55.4536805
  99.6585040  69.7102422  54.5817309  99.8317039  69.3715697  56.0470577
 100.6262991  74.4721216  40.7961956  99.9750970  75.0575297  40.4095969
 101.4207353  75.0027411  40.8556993  96.3903660  72.8886736  54.4015989
  96.0993526  73.7932367  54.2862656  97.0260645  72.9303263  55.1160059
 102.1038256  72.1611648  41.3330940 101.4684089  72.2346275  42.0451845
 101.7735662  72.7505247  40.6550019 107.3336606  66.6614031  47.5375262
 108.0661777  66.0913248  47.7713091 106.5775961  66.2735632  47.9781767
 104.8562026  60.3735605  51.9969870 104.5245351  61.2431016  51.7731085
 104.2607639  60.0571889  52.6763901 101.3493545  72.5748151  51.3965783
 101.0494269  73.4773190  51.2881590 101.0044605  72.3080335  52.2486936
 104.7490689  65.0930692  49.0763220 103.8407567  65.0246100  48.7821981
 104.6978285  65.5702636  49.9045046  98.5707433  66.5688830  40.7146619
  98.4507058  67.0145881  41.5532100  97.8760021  66.9174148  40.1560158
  96.3314325  79.3392472  44.3636751  96.2538355  80.2900297  44.4425231
  95.7275969  78.9938344  45.0211677  98.8231555  66.5120337  57.0198118
  98.0464889  67.0714257  57.0100982  99.4622118  66.9977120  57.5412988
 106.6152336  63.2947130  50.8541094 105.9726716  63.5879663  50.2080889
 106.1107264  63.1800050  51.6594291 104.2692499  67.0410303  41.5426953
 105.1810355  67.2737690  41.3674651 103.7602146  67.6247347  40.9802032
  97.0777927  69.3205790  56.5816085  97.8192612  69.8590834  56.3050908
  96.3714913  69.9472079  56.7387636 102.5533267  71.4634931  55.1788246
 102.9616623  71.0217341  54.4342878 101.8310528  70.8887558  55.4322439
  98.9064337  66.4007538  52.5521803  99.7525532  66.8246951  52.6956452
  98.8462975  65.7441162  53.2460366 102.8762082  72.0236122  48.9340535
 102.2470944  72.1881836  48.2316603 102.4887744  72.4377731  49.7051499
 106.7551313  72.9590559  46.2884899 106.0702352  73.3389461  45.7381932
 106.8395163  73.5685886  47.0216846 102.0563782  64.0611906  54.2102977
 101.8124714  64.8153967  53.6737252 102.3323713  64.4397254  55.0450224
 104.0102245  70.6050518  52.8880242 104.2219140  71.2482278  52.2114623
 103.9631993  69.7712835  52.4202172 101.6128474  63.2168339  49.7916814
 100.7512953  63.5149593  50.0833552 101.6390909  63.4338738  48.8597847
  95.8139291  66.4745439  57.3831395  95.1837952  67.1561720  57.6166791
  95.7075379  66.3628520  56.4384533 105.1248073  73.4822474  51.0602600
 105.9465517  73.0802661  50.7785281 105.1210476  73.3790708  52.0118715
  98.8904676  73.0306517  53.2163310  98.9549109  73.4926924  54.0521482
  98.1815600  72.4003882  53.3445620 113.2154066  69.8261222  47.4087571
 112.4617774  69.2568620  47.2531575 113.3501607  69.7923887  48.3558206
  95.0920034  60.7766205  59.7456646  94.6986979  60.2232403  60.4204290
  95.9086174  61.0876783  60.1363163  93.8676976  75.3315819  45.7392969
  94.0443605  76.2533784  45.5513953  94.6633810  75.0174238  46.1687348
  98.0087995  62.1924084  57.3376902  98.7497708  62.7931237  57.2581365
  98.2405918  61.4501721  56.7794945  93.1529333  67.3780451  55.6155132
  93.0382848  66.4765708  55.9162231  92.2973851  67.6244148  55.2639948
 100.2321171  75.3198191  57.2142632  99.7885025  74.5334570  56.8963537
 100.8938384  75.5077342  56.5486523  94.9908292  76.8493993  51.7403311
  95.5415717  76.7211056  50.9680305  94.1519768  77.1488882  51.3898204
 102.3302409  75.6000991  55.2424034 102.3120884  76.4209872  54.7504303
 103.2522329  75.4755066  55.4674175  98.7875463  73.1145121  56.0847542
  99.3203800  72.3533409  55.8546850  98.2589544  72.8218772  56.8271697
 101.9195440  68.2113798  40.1213619 101.4042064  68.9818402  40.3602006
 101.6472749  67.5378934  40.7446680 106.8929715  70.9646152  42.0566792
 106.1159157  70.6257312  41.6121955 107.5721196  70.9698775  41.3821757
 101.7081744  66.0840890  41.9473400 101.4031879  66.3987039  42.7983543
 102.6612186  66.1622310  41.9900733 105.1321021  70.4380134  48.7133400
 104.4744696  71.1279395  48.8013529 105.9361421  70.8276565  49.0567387
 103.9426480  68.7924506  46.7637342 104.4558362  69.4254498  47.2659052
 104.5927704  68.1925702  46.3980702  98.2980776  70.0611323  36.6001327
  97.3907837  69.8300577  36.7992476  98.7951808  69.2648943  36.7875309
 101.2048854  78.7708831  39.5198013 100.5310553  79.0740527  40.1282971
 101.5914676  79.5737911  39.1703470 104.7088276  73.7730508  44.8916485
 104.2550604  72.9321418  44.9481675 104.0782243  74.4091906  45.2291265
 103.1521216  75.6107004  45.8266303 103.4444190  76.1712061  45.1078669
 103.6619836  75.9035565  46.5819462  99.1745097  71.7032662  38.4613396
  98.7364527  70.9868521  38.0019033  99.9155538  71.9308777  37.8998487
  98.1154841  76.3887355  46.9159756  98.0731020  76.6148202  45.9868288
  99.0317540  76.1550730  47.0645557 101.5620475  66.8571423  53.8140385
 101.9169862  67.0842896  54.6734851 102.2092606  67.1889800  53.1917641
 107.2918212  69.9789859  44.5189714 107.1536110  70.1691455  43.5910904
 106.9354430  70.7409242  44.9757766 107.3187591  72.0466386  49.5300986
 107.7524098  71.9541675  50.3784040 108.0319172  72.0223886  48.8921002
 101.0515486  75.6468480  51.0634086 101.1052508  76.2159416  51.8311802
 100.1830268  75.8170365  50.6988124 108.1803141  72.0890087  52.0633871
 108.3739031  72.9935897  52.3093146 108.0803759  71.6297506  52.8972456
  99.8339452  61.9747977  54.5624199  99.1867367  62.6737927  54.4688675
 100.6040467  62.4084121  54.9300447 103.2418249  72.2396829  57.6374752
 103.0903756  72.0107381  56.7204836 103.2322929  73.1967431  57.6506097
 100.0103586  69.8128742  52.6221018 100.9395646  69.9639902  52.4489986
  99.5894616  69.9012763  51.7669665  98.8091918  73.8379406  50.3919556
  98.6703003  73.4698191  51.2645494  98.0206514  74.3527046  50.2203514
  99.4040070  78.9388503  41.7345092  99.5791825  78.4676546  42.5490715
  98.7172858  79.5654269  41.9626353 103.2956324  70.5617043  38.0545453
 102.6785495  69.8363872  37.9578506 102.8272813  71.3226404  37.7112528
  96.9623677  68.3348599  52.7944655  97.6723296  67.6941791  52.7531273
  96.9192986  68.5861493  53.7170835 104.9510456  75.2715952  55.7151234
 104.8923002  74.5875172  55.0481817 105.3529975  76.0134942  55.2631860
  93.9701155  82.0877866  48.5084953  94.2097753  82.7196390  49.1863971
  93.1270351  81.7365906  48.7950312 104.9527863  73.2355536  53.9465213
 104.0654642  72.8981458  54.0691612 105.5226414  72.5038567  54.1833979
  98.4829017  77.8956988  50.9126457  98.4099188  78.7011960  51.4245761
  98.0406410  78.0948954  50.0874478  98.2718796  77.1328758  44.4229278
  97.4886318  77.6750438  44.5167503  98.9711542  77.6502738  44.8223519
 109.4345204  68.6463753  48.7081775 109.4235080  69.5288469  48.3375708
 108.5662583  68.2935304  48.5136312 100.9427700  77.7943822  53.0684615
 101.6555673  78.4291287  52.9960517 100.4517729  77.8907688  52.2524617
 102.6645227  71.6995075  44.6401907 101.7301506  71.8196537  44.4706611
 102.8421896  70.7967542  44.3761917 106.0517779  67.5412394  45.1751941
 106.5178231  68.3740386  45.1012244 106.5025279  67.0757376  45.8797200
  95.9939614  75.5438266  53.8890186  96.6949073  76.1774749  54.0419580
  95.5234729  75.8852997  53.1285825 104.1194010  73.8856215  42.1738093
 104.3953854  73.7712810  43.0831967 103.2498508  73.4873700  42.1350266
 103.7940900  68.0982873  51.7142736 103.1412350  68.3458781  51.0595189
 104.1721280  67.2847011  51.3805214 100.7548074  78.1342566  45.8170907
 100.9370468  77.3164222  46.2798659 101.5781060  78.3510259  45.3795797
 101.0890239  77.0610751  43.0785955 101.6178006  76.5503206  42.4656117
 101.3518459  76.7453282  43.9431488  99.8428473  68.8402684  58.2008774
  99.1669110  68.7396813  58.8711149 100.6656107  68.6841898  58.6644771
  91.5907332  75.0774621  50.8221289  92.1760769  74.3318309  50.9549193
  91.3932170  75.3878577  51.7057953  94.4445987  78.1125868  45.8383731
  93.7756362  78.5971996  45.3547771  94.3058857  78.3595089  46.7527110
  98.5851256  80.1469612  52.4366390  99.1369564  80.3101233  53.2015475
  98.9257449  80.7374049  51.7646414  93.0368021  64.5667894  56.6861309
  93.6640060  64.1844971  57.2998833  92.1795940  64.3482096  57.0517001
 103.4362130  74.9730869  58.2915044 103.9802034  75.5860827  57.7969999
 102.8548975  75.5310448  58.8082057 101.7219643  78.0951587  49.4230072
 101.5970782  77.2941327  48.9141017 102.3798734  78.5897780  48.9344042
 103.7854551  75.8960607  51.0509622 102.8384887  75.7765958  50.9787949
 104.1337324  75.0083105  51.1335883  96.1454125  61.7854746  54.8747864
  96.6688527  62.0317043  55.6374173  95.9266458  62.6174781  54.4551001
 100.7900985  75.6913323  47.2513974 100.6425947  74.7630031  47.4321544
 101.6154478  75.7133414  46.7671049 104.3935107  76.5141882  48.3378847
 105.3181654  76.3084743  48.2003298 104.2250410  76.2658283  49.2468188
  97.3506670  62.7268441  52.5597534  97.0103490  61.9276254  52.9618214
  96.6445676  63.0270152  51.9874367 104.1830423  77.0327550  43.6940938
 104.3567300  76.4673972  42.9414791 104.6759314  77.8328444  43.5120428
 110.0369814  69.7963973  45.3131238 110.4800960  69.0471298  44.9150361
 109.1596324  69.7874109  44.9304970 105.1705595  76.3494314  40.7937837
 105.8656500  76.9701007  41.0125151 105.5128745  75.4989665  41.0690214
 107.0697018  73.7994020  42.3225167 107.5948342  74.1381292  41.5974487
 106.9819371  72.8641035  42.1388302  98.7317067  77.7128093  54.4515044
  99.0404193  77.4677240  55.3237744  99.5292549  77.9174732  53.9633914
  98.7537679  79.8666003  46.6820420  98.3142669  79.3742382  47.3753277
  99.5045796  79.3238970  46.4412496  91.2330018  76.0577544  46.6845049
  92.0588038  75.7581316  46.3043692  90.8824070  75.2885166  47.1334837
  96.2011551  75.4104012  48.7542722  95.5791561  74.7474717  48.4544950
  96.8716418  75.4365144  48.0716370  96.2736079  63.8885800  58.3475228
  96.3224234  64.7647923  57.9652998  96.8158593  63.3463193  57.7746871
 106.7590924  74.4326923  57.6276365 105.9686468  74.4151062  57.0880865
 106.5224279  74.9715217  58.3825402 106.8788799  71.2819390  54.9409094
 106.9286804  71.1169397  55.8824617 106.7702723  70.4146649  54.5506975
  95.7625058  73.9607935  42.2301183  95.9113179  74.6443400  41.5767855
  96.5691502  73.9413025  42.7450638 104.1692562  67.2650318  56.2568400
 105.0702425  67.1256782  55.9652398 104.2440536  67.4304772  57.1966578
  98.5035367  64.6417172  55.1021587  97.6338677  64.9350738  54.8304175
  98.7394848  65.2257617  55.8228850 108.3806996  73.7016331  55.1851115
 108.0891805  74.0646312  56.0214576 107.7679128  72.9883339  55.0064447
 109.5802679  71.2669211  47.7053686 110.4149570  71.7059015  47.8691246
 109.7161807  70.7907864  46.8861931 106.6294185  68.8248946  53.6531173
 107.1048306  69.0176592  52.8450025 105.7059750  68.8808132  53.4074557
 101.2074401  60.8596789  52.6187007 101.7256345  61.5957816  52.2933496
 100.8529534  61.1660783  53.4533766  99.2620464  76.4556066  39.7012930
  98.6894431  77.0746253  39.2483402  99.8353257  77.0055427  40.2352852
 105.3295854  65.7014706  51.8859479 106.2813276  65.8012803  51.9071703
 105.1599304  64.9092974  52.3957563 103.3510233  62.7870289  52.0718880
 102.7560165  63.0675302  51.3765368 103.0659930  63.2764190  52.8435621
 102.4817723  76.7393216  40.8321512 103.4148397  76.6738777  41.0354388
 102.3940936  77.5749483  40.3736045 105.1105740  76.0559086  37.7925460
 105.0319372  75.7218950  38.6861218 105.9315407  76.5480854  37.7916932
 107.8083931  68.9220825  51.0001779 107.7760251  67.9836826  51.1861462
 108.4184555  69.0004862  50.2667603  99.6467262  67.7916878  37.0428983
 100.5926367  67.6623087  37.1117401  99.2681507  67.0531540  37.5198411
 107.9578420  65.7131869  51.0460062 107.4417468  64.9290326  50.8589991
 108.8418368  65.3850586  51.2106581 113.6260481  69.9836832  50.1407815
 114.3563870  69.7222120  50.7015519 113.0167427  69.2465554  50.1809883
 111.7075778  68.1244695  50.7382267 110.9808942  67.9900660  50.1298758
 111.2923065  68.4321524  51.5438985  99.5305955  71.8434625  58.5029640
 100.4508964  72.0213224  58.6969686  99.4955538  70.8990670  58.3509339
  97.3995893  65.3268865  60.5355170  97.2992619  66.2763222  60.4667261
  97.1817435  64.9987104  59.6631240  97.2627163  68.7566004  59.3520231
  96.7794244  69.5566364  59.5584120  97.3488102  68.7673949  58.3987675
 106.8881015  63.6328928  47.0341758 107.6641405  64.1225380  47.3066374
 106.1629149  64.0586982  47.4913627 109.3253573  64.3456547  48.0915698
 109.9198064  64.1052283  47.3809006 109.3980157  63.6263678  48.7189234
  91.5450729  78.1890158  48.4058863  91.4105197  77.4290559  47.8396861
  91.1282791  78.9131058  47.9387652 102.6809692  73.3727082  37.4135438
 103.3845542  73.5777084  38.0293094 101.9572341  73.9403843  37.6784522
 103.5107502  69.1236943  43.5337708 103.4542704  69.5805494  42.6945341
 104.0635845  68.3627627  43.3560551 107.3212308  64.9126675  44.3587828
 107.0649242  64.5123310  45.1896036 106.6965176  65.6270469  44.2337967
 111.6324646  67.6522748  46.8659119 111.0724204  67.7215937  47.6390681
 111.0268149  67.4763733  46.1458616  94.7019855  79.0859475  48.6177306
  94.5852239  80.0304908  48.5155996  93.8812301  78.7833037  49.0063105
 104.5896389  73.8109611  39.4633898 105.4241993  73.3790809  39.2811373
 104.4280732  73.6391624  40.3910793 104.2442282  70.3141724  40.8290238
 104.1891085  70.1485995  39.8878682 103.6188337  71.0217757  40.9852427
 101.5588189  72.6190636  60.1543800 102.4279348  72.7931288  59.7930435
 101.0794940  73.4385053  60.0319530  95.7274369  79.7387737  51.8333234
  96.6301616  79.7711347  52.1499729  95.5011739  78.8088188  51.8479570
  97.4827971  78.4918723  48.4943313  96.5323602  78.4920585  48.3807685
  97.7860457  77.7451458  47.9779347  93.3732287  62.6977406  58.7526674
  94.2363749  62.3414210  58.9629999  92.7997698  62.3591300  59.4402078
 113.2180664  84.3279262  49.5589075 113.8559074  84.2086009  48.8552415
 113.1001507  85.2760106  49.6177027 110.0270371  84.2806690  49.4950600
 109.6888882  84.1647755  48.6071135 110.8960139  83.8797855  49.4751606
 105.8857186  86.1342166  45.4847491 105.3222052  86.0432103  44.7163778
 105.7709581  85.3142071  45.9649983 110.5090154  85.4341542  55.4536805
 110.4978794  85.0394340  54.5817309 110.6710793  84.7007614  56.0470577
 103.4321618  87.6293358  48.3231711 104.2242910  87.2884183  47.9078010
 103.6718268  87.7388333  49.2433864 111.4656745  89.8013134  40.7961956
 110.8144725  90.3867215  40.4095969 112.2601108  90.3319329  40.8556993
 105.3912372  86.8902271  41.1949090 106.1643248  86.3431258  41.0561966
 105.7437771  87.7546521  41.4063551 107.2297415  88.2178654  54.4015989
 106.9387281  89.1224284  54.2862656 107.8654399  88.2595181  55.1160059
 108.1553622  85.5955502  50.9917349 108.7517194  85.3711524  50.2774312
 108.2128593  84.8540248  51.5942797 107.7278650  83.0494937  38.8267540
 107.9804171  82.5276459  38.0651003 106.7903209  82.8861083  38.9294223
 112.7721933  82.0530716  46.6342283 113.5585022  81.6350139  46.2832700
 113.0360637  82.9576808  46.8023931 112.9432010  87.4903566  41.3330940
 112.3077843  87.5638193  42.0451845 112.6129417  88.0797165  40.6550019
 118.1730360  81.9905949  47.5375262 118.9055532  81.4205166  47.7713091
 117.4169716  81.6027549  47.9781767 107.4474939  84.9523043  41.0291915
 107.3311197  84.2767947  41.6972999 107.5577199  84.4655417  40.2124068
 109.7906480  84.4133190  44.7338604 109.4264687  83.8863811  45.4451526
 110.6473596  84.0231659  44.5605089 115.6955780  75.7027523  51.9969870
 115.3639105  76.5722934  51.7731085 115.1001394  75.3863807  52.6763901
 109.4311967  79.4423090  39.7299953 109.5986369  80.3103327  40.0970424
 109.2409136  79.6050372  38.8061242 112.1887300  87.9040069  51.3965783
 111.8888023  88.8065108  51.2881590 111.8438359  87.6372252  52.2486936
 105.6399781  84.3553866  47.4302487 104.7150278  84.2230080  47.6380179
 105.8884195  85.1348085  47.9272430 115.5884444  80.4222609  49.0763220
 114.6801321  80.3538018  48.7821981 115.5372039  80.8994554  49.9045046
 109.4101188  81.8980748  40.7146619 109.2900813  82.3437798  41.5532100
 108.7153776  82.2466065  40.1560158 103.0008592  83.9987139  48.2646276
 103.1300974  84.2521618  49.1785688 102.3206044  84.5914847  47.9450932
 107.1708080  94.6684389  44.3636751 107.0932109  95.6192214  44.4425231
 106.5669723  94.3230262  45.0211677 109.6625309  81.8412255  57.0198118
 108.8858644  82.4006175  57.0100982 110.3015873  82.3269038  57.5412988
 117.4546090  78.6239048  50.8541094 116.8120470  78.9171581  50.2080889
 116.9501019  78.5091968  51.6594291 115.1086254  82.3702221  41.5426953
 116.0204110  82.6029608  41.3674651 114.5995901  82.9539265  40.9802032
 107.9171682  84.6497708  56.5816085 108.6586366  85.1882752  56.3050908
 107.2108667  85.2763997  56.7387636 113.3927021  86.7926849  55.1788246
 113.8010377  86.3509259  54.4342878 112.6704283  86.2179476  55.4322439
 109.7458091  81.7299455  52.5521803 110.5919287  82.1538869  52.6956452
 109.6856729  81.0733080  53.2460366 113.7155836  87.3528039  48.9340535
 113.0864699  87.5173753  48.2316603 113.3281498  87.7669649  49.7051499
 117.5945068  88.2882477  46.2884899 116.9096106  88.6681378  45.7381932
 117.6788917  88.8977804  47.0216846 112.8957537  79.3903824  54.2102977
 112.6518469  80.1445884  53.6737252 113.1717467  79.7689171  55.0450224
 114.8496000  85.9342436  52.8880242 115.0612895  86.5774196  52.2114623
 114.8025748  85.1004753  52.4202172 112.4522229  78.5460257  49.7916814
 111.5906708  78.8441510  50.0833552 112.4784663  78.7630656  48.8597847
 109.2683798  87.0902447  46.1990620 109.7322143  87.3690150  45.4095243
 109.0040596  86.1885892  46.0163711 106.1607879  86.6373929  49.1370383
 106.7309236  87.0661197  48.4987868 106.7515991  86.3556514  49.8354569
 108.2052684  83.2125600  43.0080185 108.9076727  83.6646643  43.4754112
 107.8733312  82.5709419  43.6360078 106.6533046  81.8037356  57.3831395
 106.0231706  82.4853637  57.6166791 106.5469133  81.6920438  56.4384533
 101.9478018  81.4709152  48.3097319 101.1577072  81.7266681  47.8337429
 102.4389265  82.2857490  48.4149359 115.9641828  88.8114392  51.0602600
 116.7859271  88.4094579  50.7785281 115.9604230  88.7082626  52.0118715
 103.8992763  81.8353732  45.2680795 103.1023927  81.9472426  45.7864291
 103.6718356  82.1740384  44.4021686 109.7298431  88.3598435  53.2163310
 109.7942863  88.8218842  54.0521482 109.0209355  87.7295800  53.3445620
 100.2315721  81.7239643  50.7412310 100.4823759  82.6086653  51.0069885
 100.7675269  81.5444244  49.9687401 109.4446449  90.0266542  43.0842290
 109.3092123  90.8718078  43.5127138 109.9856261  90.2285820  42.3208224
 105.9313788  76.1058122  59.7456646 105.5380734  75.5524321  60.4204290
 106.7479929  76.4168701  60.1363163 102.8975846  87.5441980  43.6570215
 103.4100367  88.3385231  43.8075780 103.5498559  86.8468271  43.5903817
 104.7070731  90.6607737  45.7392969 104.8837359  91.5825701  45.5513953
 105.5027564  90.3466156  46.1687348 108.8481749  77.5216001  57.3376902
 109.5891463  78.1223154  57.2581365 109.0799672  76.7793639  56.7794945
 103.9923087  82.7072369  55.6155132 103.8776602  81.8057626  55.9162231
 103.1367605  82.9536065  55.2639948 111.0714925  90.6490109  57.2142632
 110.6278779  89.8626487  56.8963537 111.7332139  90.8369259  56.5486523
 105.8302046  92.1785910  51.7403311 106.3809471  92.0502974  50.9680305
 104.9913522  92.4780799  51.3898204 113.1696163  90.9292909  55.2424034
 113.1514638  91.7501790  54.7504303 114.0916083  90.8046984  55.4674175
 109.6269217  88.4437038  56.0847542 110.1597554  87.6825326  55.8546850
 109.0983298  88.1510690  56.8271697 112.7938912  73.5497104  51.6141184
 112.4503182  74.4398746  51.5380294 113.1617875  73.3598762  50.7510769
 100.8624763  85.8730635  44.4329786 101.6999985  86.2827643  44.2163494
 101.0403030  84.9330077  44.4029980 112.7589195  83.5405715  40.1213619
 112.2435818  84.3110320  40.3602006 112.4866503  82.8670851  40.7446680
 110.3436306  78.3855416  45.1798857 109.4877902  77.9962266  45.0004496
 110.7563258  78.4647377  44.3198643 111.8735453  75.9201759  49.5790417
 111.3700248  75.8831895  48.7658222 112.1666059  76.8294502  49.6387074
 108.1178338  76.0040489  48.5856599 108.9831335  75.8083298  48.2262488
 108.1855847  75.7750841  49.5125956 117.7323469  86.2938070  42.0566792
 116.9552912  85.9549229  41.6121955 118.4114950  86.2990693  41.3821757
 112.5475498  81.4132807  41.9473400 112.2425634  81.7278957  42.7983543
 113.5005940  81.4914227  41.9900733 110.9921930  87.5723031  43.5966354
 110.4643291  86.8375790  43.2839592 110.4909433  88.3497707  43.3506322
 115.9714776  85.7672051  48.7133400 115.3138450  86.4571313  48.8013529
 116.7755175  86.1568483  49.0567387 105.7240658  78.2342697  45.9572966
 106.2984409  78.0117879  45.2246159 106.3111640  78.3031392  46.7101567
 114.7820235  84.1216424  46.7637342 115.2952116  84.7546416  47.2659052
 115.4321459  83.5217619  46.3980702 106.0510245  80.2647158  39.9768851
 105.2147557  80.6021845  40.2978126 105.9115014  80.1296138  39.0395988
 108.0263325  75.1083946  44.6848035 107.3727738  74.7932963  44.0604650
 107.9843799  74.4859686  45.4107858 109.1374530  85.3903241  36.6001327
 108.2301592  85.1592494  36.7992476 109.6345562  84.5940860  36.7875309
 112.0442609  94.1000748  39.5198013 111.3704308  94.4032445  40.1282971
 112.4308431  94.9029829  39.1703470 111.2601066  81.5965879  49.0095683
 110.3423627  81.8180826  48.8517371 111.6761209  81.6712190  48.1507390
 112.0436113  82.9957295  44.1398363 112.7907932  83.5078692  43.8305485
 112.3127703  82.6741348  45.0002757 110.3162764  85.4915836  41.1225317
 109.4073983  85.2074869  41.2197787 110.3457847  85.9114914  40.2628624
 115.5482031  89.1022425  44.8916485 115.0944358  88.2613335  44.9481675
 114.9175998  89.7383824  45.2291265 114.4914951  80.0314411  46.1217152
 113.7537707  79.5191798  46.4527395 114.7441724  79.5914793  45.3100429
 113.9914970  90.9398922  45.8266303 114.2837945  91.5003979  45.1078669
 114.5013591  91.2327483  46.5819462 114.5926578  72.8090663  46.7158922
 114.8985455  71.9488027  46.4284837 115.3179183  73.4008284  46.5157915
 100.8850934  83.2121350  45.1040519 100.6875334  82.6190711  44.3791586
 100.3297598  82.9073560  45.8216458 108.8647658  83.1044456  47.2235113
 108.9196267  82.1518293  47.1477589 108.0538860  83.2603896  47.7076411
 110.0138851  87.0324580  38.4613396 109.5758281  86.3160438  38.0019033
 110.7549292  87.2600694  37.8998487 106.8040018  81.7221516  44.9825491
 105.9907883  82.0215687  45.3890684 107.2999012  81.3277205  45.6999974
 108.9548595  91.7179273  46.9159756 108.9124774  91.9440119  45.9868288
 109.8711294  91.4842648  47.0645557 112.4014229  82.1863341  53.8140385
 112.7563617  82.4134814  54.6734851 113.0486360  82.5181717  53.1917641
 118.1311966  85.3081777  44.5189714 117.9929865  85.4983373  43.5910904
 117.7748185  86.0701159  44.9757766 106.2954092  79.2939872  50.5986726
 106.9353472  79.1528631  49.9009690 105.4631623  79.0074385  50.2225328
 118.1581346  87.3758304  49.5300986 118.5917852  87.2833593  50.3784040
 118.8712926  87.3515804  48.8921002 107.0714396  88.5942302  46.7121719
 107.8654995  88.0992622  46.5104294 106.3606089  88.0660165  46.3489424
 111.8909241  90.9760398  51.0634086 111.9446263  91.5451334  51.8311802
 111.0224022  91.1462283  50.6988124 103.3797160  82.7385384  42.7881472
 102.4494748  82.6769839  43.0051434 103.4754632  82.2161337  41.9918113
 103.2982709  79.2640197  45.3759713 103.5589526  80.1785530  45.2668874
 104.1199881  78.7964639  45.5256326 104.7707634  80.6777954  52.5458538
 105.4430687  80.4695316  51.8971187 103.9437421  80.4800040  52.1063770
 119.0196895  87.4182004  52.0633871 119.2132785  88.3227815  52.3093146
 118.9197513  86.9589423  52.8972456 110.6733206  77.3039895  54.5624199
 110.0261121  78.0029844  54.4688675 111.4434221  77.7376039  54.9300447
 114.0812004  87.5688747  57.6374752 113.9297510  87.3399299  56.7204836
 114.0716683  88.5259348  57.6506097 110.8497340  85.1420660  52.6221018
 111.7789400  85.2931819  52.4489986 110.4288370  85.2304681  51.7669665
 109.6485672  89.1671324  50.3919556 109.5096758  88.7990109  51.2645494
 108.8600268  89.6818964  50.2203514 110.2433824  94.2680421  41.7345092
 110.4185580  93.7968464  42.5490715 109.5566612  94.8946187  41.9626353
 111.1990887  88.5452927  47.7808394 110.8640720  88.5053697  48.6766044
 110.6994833  87.8797643  47.3078804 105.1735131  83.9520557  53.3060975
 105.0354929  83.2200796  53.9072514 106.0840055  83.8629457  53.0245163
 114.1350079  85.8908961  38.0545453 113.5179250  85.1655789  37.9578506
 113.6666567  86.6518321  37.7112528 107.8017432  83.6640516  52.7944655
 108.5117050  83.0233708  52.7531273 107.7586740  83.9153411  53.7170835
 115.7904211  90.6007870  55.7151234 115.7316757  89.9167090  55.0481817
 116.1923729  91.3426860  55.2631860 106.5146366  80.6505734  54.6140294
 105.9783723  80.1996473  55.2661890 105.9263074  80.7851643  53.8710758
 104.8094909  97.4169783  48.5084953 105.0491508  98.0488308  49.1863971
 103.9664106  97.0657823  48.7950312 105.9248625  80.1094385  37.1766758
 105.0478091  79.9883186  36.8129004 106.4006378  79.3180464  36.9245646
 115.7921618  88.5647453  53.9465213 114.9048397  88.2273375  54.0691612
 116.3620169  87.8330485  54.1833979  97.4450765  84.8971545  47.2708265
  98.1321805  84.5833275  46.6829280  97.2898894  85.8012910  46.9975516
 102.2485487  79.7861742  51.6993289 102.1643676  79.1787411  50.9643698
 101.4268194  80.2770760  51.7002785 109.3222771  93.2248906  50.9126457
 109.2492943  94.0303877  51.4245761 108.8800164  93.4240872  50.0874478
 109.1112551  92.4620676  44.4229278 108.3280073  93.0042356  44.5167503
 109.8105296  92.9794655  44.8223519 112.4209201  78.2715305  47.0663484
 112.9177901  77.5185268  46.7464554 111.6496183  78.3079622  46.5006693
 120.2738958  83.9755671  48.7081775 120.2628835  84.8580386  48.3375708
 119.4056338  83.6227222  48.5136312 111.7821455  93.1235740  53.0684615
 112.4949427  93.7583205  52.9960517 111.2911483  93.2199606  52.2524617
 113.5038982  87.0286993  44.6401907 112.5695260  87.1488455  44.4706611
 113.6815650  86.1259459  44.3761917 109.0044170  80.4132688  46.7935168
 108.6341957  79.8603729  47.4816074 109.5003262  79.8090822  46.2410168
 116.8911533  82.8704312  45.1751941 117.3571985  83.7032303  45.1012244
 117.3419034  82.4049293  45.8797200 106.8333368  90.8730183  53.8890186
 107.5342828  91.5066666  54.0419580 106.3628483  91.2144915  53.1285825
 114.9587764  89.2148133  42.1738093 115.2347608  89.1004728  43.0831967
 114.0892263  88.8165618  42.1350266 114.8628196  75.2384899  49.2142842
 113.9491276  75.4689126  49.3825049 115.2921297  75.3223343  50.0656875
 114.6334654  83.4274791  51.7142736 113.9806105  83.6750698  51.0595189
 115.0115034  82.6138929  51.3805214 111.5941828  93.4634484  45.8170907
 111.7764223  92.6456140  46.2798659 112.4174814  93.6802176  45.3795797
 111.9283994  92.3902669  43.0785955 112.4571760  91.8795124  42.4656117
 112.1912213  92.0745199  43.9431488 110.6822227  84.1694602  58.2008774
 110.0062864  84.0688731  58.8711149 111.5049861  84.0133816  58.6644771
 102.4301086  90.4066538  50.8221289 103.0154523  89.6610226  50.9549193
 102.2325925  90.7170495  51.7057953 105.2839742  93.4417786  45.8383731
 104.6150117  93.9263913  45.3547771 105.1452611  93.6887006  46.7527110
  97.0218741  82.9772139  49.5425732  97.0602841  82.4435729  50.3362850
  96.5159034  82.4507344  48.9236709 109.4245010  95.4761529  52.4366390
 109.9763318  95.6393151  53.2015475 109.7651204  96.0665967  51.7646414
 104.4009503  77.8236679  53.0388274 104.4650830  78.6851510  52.6265672
 104.3376624  77.2110681  52.3060633 103.8761776  79.8959812  56.6861309
 104.5033815  79.5136889  57.2998833 103.0189695  79.6774014  57.0517001
 114.2755885  90.3022787  58.2915044 114.8195789  90.9152745  57.7969999
 113.6942729  90.8602365  58.8082057 100.6527319  81.7036241  42.6179663
 100.9480760  80.7946919  42.5646717  99.7515354  81.6823980  42.2960666
 112.5613397  93.4243505  49.4230072 112.4364537  92.6233245  48.9141017
 113.2192489  93.9189698  48.9344042 104.1821566  79.7792237  48.6007212
 103.4608151  80.3928205  48.4614685 104.9714821  80.3150002  48.5223858
 114.6248306  91.2252525  51.0509622 113.6778641  91.1057876  50.9787949
 114.9731079  90.3375023  51.1335883 106.9847879  77.1146664  54.8747864
 107.5082281  77.3608960  55.6374173 106.7660213  77.9466699  54.4551001
 102.3815160  79.3850338  42.7418988 102.0527866  78.5047717  42.5594094
 102.7354531  79.3298007  43.6295378 111.6294739  91.0205241  47.2513974
 111.4819702  90.0921949  47.4321544 112.4548233  91.0425332  46.7671049
 105.4956983  79.6723308  43.1094466 105.8353056  80.2009229  42.3873075
 105.9429104  80.0103714  43.8853033 115.2328861  91.8433800  48.3378847
 116.1575408  91.6376661  48.2003298 115.0644164  91.5950201  49.2468188
 108.1900424  78.0560359  52.5597534 107.8497245  77.2568172  52.9618214
 107.4839431  78.3562070  51.9874367 108.8416896  75.1409671  51.0124857
 109.6642965  74.6670150  50.8903748 109.0854960  75.9200155  51.5123544
 107.4825131  78.1697930  41.3087759 108.2033493  78.5479183  40.8051476
 106.8590435  78.8886807  41.4122737 111.6256253  78.8743079  42.2446091
 111.8419868  79.7567717  41.9434919 111.1450321  78.4829292  41.5151733
 106.3655475  81.8328792  48.8216836 106.2200056  82.1469095  49.7141117
 105.8880678  82.4513692  48.2687735 108.2251858  78.8231340  48.8697725
 108.2113427  77.9272433  48.5330023 108.9424286  78.8302004  49.5036011
 110.0777988  79.2568680  50.9150853 109.8195766  80.1785751  50.9135183
 109.5463029  78.8599115  51.6051317 115.0224177  92.3619467  43.6940938
 115.1961055  91.7965890  42.9414791 115.5153068  93.1620362  43.5120428
 100.8401137  84.3734136  51.7604497 100.2954605  85.1493944  51.8924771
 101.7180487  84.7204941  51.6023618 107.6288754  77.7045720  44.1385296
 107.7504665  76.7762366  44.3376183 107.3390796  77.7184406  43.2263611
 110.4979944  75.3900631  47.2752015 110.5201641  75.4539964  46.3203995
 110.9148003  74.5505139  47.4692522 120.8763568  85.1255890  45.3131238
 121.3194714  84.3763215  44.9150361 119.9990079  85.1166027  44.9304970
 116.0099350  91.6786232  40.7937837 116.7050254  92.2992924  41.0125151
 116.3522500  90.8281583  41.0690214 101.6267159  83.5004033  54.6534654
 100.8848895  83.6486668  55.2399284 101.3059903  83.7612298  53.7901403
 117.9090773  89.1285937  42.3225167 118.4342097  89.4673210  41.5974487
 117.8213125  88.1932953  42.1388302 109.5710822  93.0420011  54.4515044
 109.8797948  92.7969158  55.3237744 110.3686304  93.2466649  53.9633914
 109.5931434  95.1957920  46.6820420 109.1536424  94.7034299  47.3753277
 110.3439551  94.6530888  46.4412496 102.0723773  91.3869461  46.6845049
 102.8981792  91.0873233  46.3043692 101.7217825  90.6177084  47.1334837
 107.0405306  90.7395930  48.7542722 106.4185315  90.0766635  48.4544950
 107.7110173  90.7657061  48.0716370 100.2732378  89.3055788  47.6433982
  99.4364286  88.8777962  47.4617983 100.2456023  89.4988231  48.5804773
 107.1129833  79.2177718  58.3475228 107.1617989  80.0939840  57.9652998
 107.6552347  78.6755111  57.7746871 117.5984679  89.7618841  57.6276365
 116.8080223  89.7442980  57.0880865 117.3618033  90.3007135  58.3825402
 117.7182554  86.6111307  54.9409094 117.7680559  86.4461315  55.8824617
 117.6096477  85.7438566  54.5506975 106.6018813  89.2899853  42.2301183
 106.7506933  89.9735317  41.5767855 107.4085256  89.2704943  42.7450638
 115.0086316  82.5942235  56.2568400 115.9096179  82.4548700  55.9652398
 115.0834291  82.7596690  57.1966578 109.3429122  79.9709090  55.1021587
 108.4732431  80.2642656  54.8304175 109.5788602  80.5549535  55.8228850
 119.2200751  89.0308249  55.1851115 118.9285559  89.3938229  56.0214576
 118.6072882  88.3175257  55.0064447 120.4196433  86.5961129  47.7053686
 121.2543324  87.0350933  47.8691246 120.5555562  86.1199782  46.8861931
 117.4687939  84.1540863  53.6531173 117.9442061  84.3468510  52.8450025
 116.5453504  84.2100049  53.4074557 104.3571446  85.3165031  43.2362252
 104.1117488  84.4127361  43.4342462 104.5267360  85.3182181  42.2941730
 112.0468155  76.1888707  52.6187007 112.5650099  76.9249734  52.2933496
 111.6923288  76.4952700  53.4533766 103.6267093  81.0493388  40.7348413
 102.9336338  81.1237743  40.0788449 103.3818845  80.2853732  41.2569930
 112.2980750  72.6088989  48.1387904 112.5782503  71.9412179  48.7648330
 113.0831357  72.8018085  47.6262568 110.1014218  91.7847983  39.7012930
 109.5288185  92.4038170  39.2483402 110.6747012  92.3347345  40.2352852
 116.1689608  81.0306623  51.8859479 117.1207031  81.1304721  51.9071703
 115.9993058  80.2384892  52.3957563 114.1903987  78.1162207  52.0718880
 113.5953920  78.3967219  51.3765368 113.9053684  78.6056108  52.8435621
 113.3211478  92.0685133  40.8321512 114.2542151  92.0030695  41.0354388
 113.2334691  92.9041400  40.3736045 115.9499495  91.3851004  37.7925460
 115.8713126  91.0510867  38.6861218 116.7709161  91.8772772  37.7916932
 118.6477686  84.2512743  51.0001779 118.6154006  83.3128744  51.1861462
 119.2578309  84.3296780  50.2667603 110.4861017  83.1208796  37.0428983
 111.4320121  82.9915004  37.1117401 110.1075262  82.3823458  37.5198411
 118.7972174  81.0423787  51.0460062 118.2811223  80.2582243  50.8589991
 119.6812123  80.7142503  51.2106581 116.4582901  74.7864802  47.0055874
 116.2607722  74.4779890  47.8899206 117.0682607  75.5126441  47.1353804
 110.3699709  87.1726542  58.5029640 111.2902719  87.3505141  58.6969686
 110.3349292  86.2282588  58.3509339 108.6703934  81.0458773  36.9783868
 107.7635389  80.7491885  37.0546581 108.9479915  80.7488591  36.1118154
  99.5881874  82.3665136  47.4282914  99.2684659  81.5130444  47.1357288
  99.0415302  82.5813714  48.1840882 103.3661782  85.0827577  51.1452421
 103.5847792  86.0144685  51.1640455 103.7787556  84.7235551  51.9307225
 110.2866000  75.5895662  43.1328109 109.4766728  75.2442747  43.5083355
 110.9750416  75.2803206  43.7215721 112.2156548  74.6673709  44.7552406
 112.7687586  75.0869162  45.4142429 112.4526634  73.7409457  44.7975362
 108.2389647  80.6560783  60.5355170 108.1386374  81.6055140  60.4667261
 108.0211189  80.3279022  59.6631240 107.4402718  77.9045708  37.1195847
 108.3021882  78.2300606  37.3791664 107.6253063  77.1177204  36.6068913
  99.4570134  85.9868047  49.3976036  98.7633606  85.5722000  48.8845990
 100.2043125  86.0288584  48.8009455 115.5935355  76.7774234  44.2631070
 115.0134024  77.4359038  43.8809122 115.3271288  75.9551579  43.8518488
 114.0438921  76.1779292  46.4652390 114.5438700  76.2895826  45.6566709
 114.6874529  75.8740345  47.1053199 108.1020917  84.0857922  59.3520231
 107.6187999  84.8858282  59.5584120 108.1881856  84.0965866  58.3987675
 101.3706877  85.9186301  47.2742051 101.3477565  86.0173988  46.3223934
 101.6807513  86.7651452  47.5959217 104.0294255  87.9762456  51.3888665
 104.9837508  87.9446399  51.3218597 103.8306778  87.5153080  52.2038891
 104.6193637  86.5463572  53.9559463 105.4386526  87.0407651  53.9794300
 104.8930444  85.6295540  53.9277030 114.3760233  78.9374325  43.3187418
 113.4886088  79.2223975  43.1007613 114.7914222  78.7768088  42.4714695
 117.7274769  78.9620846  47.0341758 118.5035159  79.4517298  47.3066374
 117.0022903  79.3878900  47.4913627 120.1647328  79.6748465  48.0915698
 120.7591818  79.4344201  47.3809006 120.2373911  78.9555595  48.7189234
 102.3844483  93.5182076  48.4058863 102.2498951  92.7582477  47.8396861
 101.9676546  94.2422976  47.9387652 113.5203446  88.7018999  37.4135438
 114.2239297  88.9069002  38.0293094 112.7966095  89.2695761  37.6784522
 114.3501257  84.4528860  43.5337708 114.2936458  84.9097412  42.6945341
 114.9029599  83.6919545  43.3560551 118.1606063  80.2418592  44.3587828
 117.9042997  79.8415228  45.1896036 117.5358931  80.9562386  44.2337967
 122.4718400  82.9814666  46.8659119 121.9117958  83.0507855  47.6390681
 121.8661904  82.8055650  46.1458616 105.5413609  94.4151393  48.6177306
 105.4245993  95.3596825  48.5155996 104.7206056  94.1124954  49.0063105
 115.4290144  89.1401528  39.4633898 116.2635748  88.7082727  39.2811373
 115.2674487  88.9683542  40.3910793 115.0836036  85.6433642  40.8290238
 115.0284840  85.4777913  39.8878682 114.4582091  86.3509675  40.9852427
  99.8728551  80.8801706  54.6551660 100.5187415  80.3700660  55.1438885
  99.6645702  81.6170388  55.2295085 112.3981943  87.9482554  60.1543800
 113.2673103  88.1223206  59.7930435 111.9188695  88.7676970  60.0319530
 108.3932161  75.1441751  40.4075556 108.3810831  76.0883591  40.5643827
 109.2855583  74.9611896  40.1135017 106.5668123  95.0679655  51.8333234
 107.4695370  95.1003265  52.1499729 106.3405493  94.1380106  51.8479570
 108.3221725  93.8210641  48.4943313 107.3717356  93.8212503  48.3807685
 108.6254212  93.0743376  47.9779347 112.2084281  71.7384527  44.6621493
 111.4416677  71.1843014  44.8078175 112.6194986  71.8106396  45.5235644
 104.2126042  78.0269323  58.7526674 105.0757504  77.6706128  58.9629999
 103.6391453  77.6883218  59.4402078 120.8664125  99.6098608  49.4950600
 120.5282637  99.4939672  48.6071135 121.7353893  99.2089773  49.4751606
 116.7250941 101.4634084  45.4847491 116.1615806 101.3724021  44.7163778
 116.6103336 100.6433989  45.9649983 121.3483908 100.7633459  55.4536805
 121.3372549 100.3686258  54.5817309 121.5104548 100.0299532  56.0470577
 114.2715373 102.9585276  48.3231711 115.0636665 102.6176100  47.9078010
 114.5112023 103.0680251  49.2433864 116.2306127 102.2194189  41.1949090
 117.0037003 101.6723176  41.0561966 116.5831526 103.0838438  41.4063551
 118.0691169 103.5470571  54.4015989 117.7781035 104.4516202  54.2862656
 118.7048154 103.5887099  55.1160059 118.9947376 100.9247420  50.9917349
 119.5910948 100.7003442  50.2774312 119.0522348 100.1832165  51.5942797
 118.5672405  98.3786855  38.8267540 118.8197925  97.8568376  38.0651003
 117.6296964  98.2153000  38.9294223 118.2868693 100.2814961  41.0291915
 118.1704951  99.6059864  41.6972999 118.3970953  99.7947335  40.2124068
 120.6300234  99.7425108  44.7338604 120.2658441  99.2155729  45.4451526
 121.4867350  99.3523577  44.5605089 120.2705721  94.7715008  39.7299953
 120.4380124  95.6395244  40.0970424 120.0802890  94.9342289  38.8061242
 116.4793536  99.6845784  47.4302487 115.5544032  99.5521998  47.6380179
 116.7277949 100.4640003  47.9272430 120.2494942  97.2272665  40.7146619
 120.1294567  97.6729716  41.5532100 119.5547530  97.5757983  40.1560158
 113.8402347  99.3279057  48.2646276 113.9694728  99.5813536  49.1785688
 113.1599798  99.9206765  47.9450932 120.5019064  97.1704172  57.0198118
 119.7252398  97.7298093  57.0100982 121.1409627  97.6560955  57.5412988
 118.7565436  99.9789626  56.5816085 119.4980121 100.5174670  56.3050908
 118.0502422 100.6055915  56.7387636 120.5851846  97.0591373  52.5521803
 121.4313041  97.4830787  52.6956452 120.5250484  96.4024997  53.2460366
 120.1077552 102.4194365  46.1990620 120.5715898 102.6982068  45.4095243
 119.8434351 101.5177810  46.0163711 117.0001633 101.9665847  49.1370383
 117.5702991 102.3953115  48.4987868 117.5909745 101.6848431  49.8354569
 119.0446438  98.5417517  43.0080185 119.7470482  98.9938561  43.4754112
 118.7127067  97.9001336  43.6360078 117.4926800  97.1329274  57.3831395
 116.8625461  97.8145555  57.6166791 117.3862888  97.0212356  56.4384533
 112.7871772  96.8001070  48.3097319 111.9970826  97.0558599  47.8337429
 113.2783020  97.6149408  48.4149359 114.7386518  97.1645649  45.2680795
 113.9417681  97.2764344  45.7864291 114.5112110  97.5032302  44.4021686
 120.5692185 103.6890353  53.2163310 120.6336618 104.1510760  54.0521482
 119.8603109 103.0587717  53.3445620 111.0709475  97.0531560  50.7412310
 111.3217514  97.9378570  51.0069885 111.6069024  96.8736162  49.9687401
 120.2840203 105.3558460  43.0842290 120.1485878 106.2009996  43.5127138
 120.8250016 105.5577738  42.3208224 116.7707543  91.4350040  59.7456646
 116.3774488  90.8816238  60.4204290 117.5873683  91.7460618  60.1363163
 113.7369601 102.8733898  43.6570215 114.2494121 103.6677148  43.8075780
 114.3892313 102.1760188  43.5903817 115.5464485 105.9899654  45.7392969
 115.7231114 106.9117619  45.5513953 116.3421319 105.6758074  46.1687348
 119.6875504  92.8507919  57.3376902 120.4285217  93.4515072  57.2581365
 119.9193427  92.1085557  56.7794945 114.8316842  98.0364286  55.6155132
 114.7170357  97.1349543  55.9162231 113.9761359  98.2827983  55.2639948
 116.6695801 107.5077828  51.7403311 117.2203226 107.3794891  50.9680305
 115.8307277 107.8072717  51.3898204 120.4662972 103.7728956  56.0847542
 120.9991309 103.0117244  55.8546850 119.9377053 103.4802608  56.8271697
 111.7018517 101.2022552  44.4329786 112.5393739 101.6119561  44.2163494
 111.8796785 100.2621994  44.4029980 121.1830060  93.7147334  45.1798857
 120.3271657  93.3254184  45.0004496 121.5957012  93.7939295  44.3198643
 118.9572093  91.3332407  48.5856599 119.8225090  91.1375215  48.2262488
 119.0249602  91.1042759  49.5125956 121.8315684 102.9014948  43.5966354
 121.3037046 102.1667708  43.2839592 121.3303187 103.6789625  43.3506322
 116.5634412  93.5634615  45.9572966 117.1378164  93.3409796  45.2246159
 117.1505394  93.6323309  46.7101567 116.8903999  95.5939076  39.9768851
 116.0541311  95.9313762  40.2978126 116.7508769  95.4588056  39.0395988
 118.8657080  90.4375864  44.6848035 118.2121492  90.1224881  44.0604650
 118.8237554  89.8151604  45.4107858 119.9768285 100.7195159  36.6001327
 119.0695346 100.4884412  36.7992476 120.4739317  99.9232778  36.7875309
 121.1556518 100.8207754  41.1225317 120.2467737 100.5366786  41.2197787
 121.1851602 101.2406832  40.2628624 111.7244688  98.5413268  45.1040519
 111.5269088  97.9482628  44.3791586 111.1691352  98.2365478  45.8216458
 119.7041412  98.4336374  47.2235113 119.7590022  97.4810211  47.1477589
 118.8932614  98.5895813  47.7076411 120.8532606 102.3616497  38.4613396
 120.4152036 101.6452356  38.0019033 121.5943047 102.5892612  37.8998487
 117.6433772  97.0513434  44.9825491 116.8301638  97.3507604  45.3890684
 118.1392766  96.6569123  45.6999974 117.1347847  94.6231789  50.5986726
 117.7747226  94.4820548  49.9009690 116.3025377  94.3366303  50.2225328
 117.9108151 103.9234220  46.7121719 118.7048749 103.4284540  46.5104294
 117.1999843 103.3952083  46.3489424 114.2190914  98.0677302  42.7881472
 113.2888502  98.0061757  43.0051434 114.3148386  97.5453254  41.9918113
 114.1376463  94.5932114  45.3759713 114.3983280  95.5077448  45.2668874
 114.9593636  94.1256557  45.5256326 115.6101389  96.0069872  52.5458538
 116.2824442  95.7987234  51.8971187 114.7831175  95.8091958  52.1063770
 121.5126961  92.6331812  54.5624199 120.8654876  93.3321762  54.4688675
 122.2827976  93.0667956  54.9300447 120.4879427 104.4963242  50.3919556
 120.3490512 104.1282026  51.2645494 119.6994023 105.0110881  50.2203514
 122.0384642 103.8744844  47.7808394 121.7034474 103.8345614  48.6766044
 121.5388587 103.2089560  47.3078804 116.0128886  99.2812475  53.3060975
 115.8748684  98.5492713  53.9072514 116.9233809  99.1921375  53.0245163
 118.6411186  98.9932434  52.7944655 119.3510805  98.3525626  52.7531273
 118.5980495  99.2445329  53.7170835 117.3540120  95.9797652  54.6140294
 116.8177477  95.5288390  55.2661890 116.7656829  96.1143561  53.8710758
 116.7642379  95.4386303  37.1766758 115.8871846  95.3175104  36.8129004
 117.2400132  94.6472381  36.9245646 108.2844519 100.2263463  47.2708265
 108.9715559  99.9125193  46.6829280 108.1292648 101.1304828  46.9975516
 113.0879242  95.1153659  51.6993289 113.0037430  94.5079329  50.9643698
 112.2661948  95.6062678  51.7002785 119.8437924  95.7424606  46.7935168
 119.4735712  95.1895646  47.4816074 120.3397017  95.1382739  46.2410168
 117.6727123 106.2022101  53.8890186 118.3736582 106.8358584  54.0419580
 117.2022238 106.5436833  53.1285825 121.5215982  99.4986519  58.2008774
 120.8456619  99.3980649  58.8711149 122.3443616  99.3425733  58.6644771
 113.2694841 105.7358456  50.8221289 113.8548278 104.9902144  50.9549193
 113.0719679 106.0462413  51.7057953 116.1233496 108.7709703  45.8383731
 115.4543871 109.2555831  45.3547771 115.9846366 109.0178924  46.7527110
 107.8612496  98.3064056  49.5425732 107.8996595  97.7727647  50.3362850
 107.3552788  97.7799262  48.9236709 115.2403258  93.1528597  53.0388274
 115.3044584  94.0143428  52.6265672 115.1770378  92.5402598  52.3060633
 114.7155530  95.2251729  56.6861309 115.3427569  94.8428807  57.2998833
 113.8583449  95.0065931  57.0517001 111.4921073  97.0328158  42.6179663
 111.7874514  96.1238837  42.5646717 110.5909109  97.0115898  42.2960666
 115.0215320  95.1084155  48.6007212 114.3001906  95.7220123  48.4614685
 115.8108576  95.6441920  48.5223858 117.8241634  92.4438581  54.8747864
 118.3476036  92.6900878  55.6374173 117.6053967  93.2758616  54.4551001
 113.2208915  94.7142256  42.7418988 112.8921621  93.8339635  42.5594094
 113.5748285  94.6589925  43.6295378 116.3350738  95.0015226  43.1094466
 116.6746810  95.5301147  42.3873075 116.7822858  95.3395632  43.8853033
 119.0294179  93.3852277  52.5597534 118.6890999  92.5860090  52.9618214
 118.3233185  93.6853987  51.9874367 119.6810651  90.4701589  51.0124857
 120.5036720  89.9962067  50.8903748 119.9248714  91.2492073  51.5123544
 118.3218885  93.4989847  41.3087759 119.0427248  93.8771100  40.8051476
 117.6984189  94.2178724  41.4122737 117.2049229  97.1620710  48.8216836
 117.0593810  97.4761013  49.7141117 116.7274433  97.7805610  48.2687735
 119.0645612  94.1523258  48.8697725 119.0507181  93.2564351  48.5330023
 119.7818040  94.1593921  49.5036011 120.9171743  94.5860598  50.9150853
 120.6589521  95.5077668  50.9135183 120.3856783  94.1891032  51.6051317
 111.6794892  99.7026054  51.7604497 111.1348360 100.4785862  51.8924771
 112.5574241 100.0496859  51.6023618 118.4682508  93.0337638  44.1385296
 118.5898419  92.1054284  44.3376183 118.1784551  93.0476324  43.2263611
 121.3373699  90.7192548  47.2752015 121.3595395  90.7831881  46.3203995
 121.7541758  89.8797057  47.4692522 112.4660913  98.8295950  54.6534654
 111.7242649  98.9778586  55.2399284 112.1453658  99.0904216  53.7901403
 112.9117527 106.7161379  46.6845049 113.7375547 106.4165151  46.3043692
 112.5611579 105.9469001  47.1334837 117.8799060 106.0687847  48.7542722
 117.2579070 105.4058552  48.4544950 118.5503927 106.0948979  48.0716370
 111.1126132 104.6347705  47.6433982 110.2758040 104.2069880  47.4617983
 111.0849778 104.8280149  48.5804773 117.9523588  94.5469635  58.3475228
 118.0011743  95.4231758  57.9652998 118.4946102  94.0047028  57.7746871
 117.4412567 104.6191771  42.2301183 117.5900687 105.3027235  41.5767855
 118.2479011 104.5996861  42.7450638 120.1822876  95.3001008  55.1021587
 119.3126186  95.5934574  54.8304175 120.4182357  95.8841453  55.8228850
 115.1965200 100.6456948  43.2362252 114.9511242  99.7419278  43.4342462
 115.3661115 100.6474099  42.2941730 114.4660848  96.3785306  40.7348413
 113.7730093  96.4529661  40.0788449 114.2212600  95.6145649  41.2569930
 121.3254771  98.4500714  37.0428983 122.2713876  98.3206922  37.1117401
 120.9469016  97.7115376  37.5198411 121.2093464 102.5018460  58.5029640
 122.1296473 102.6797059  58.6969686 121.1743047 101.5574505  58.3509339
 119.5097688  96.3750690  36.9783868 118.6029144  96.0783803  37.0546581
 119.7873669  96.0780508  36.1118154 110.4275629  97.6957054  47.4282914
 110.1078413  96.8422362  47.1357288 109.8809057  97.9105632  48.1840882
 114.2055536 100.4119495  51.1452421 114.4241546 101.3436602  51.1640455
 114.6181310 100.0527469  51.9307225 121.1259754  90.9187580  43.1328109
 120.3160482  90.5734665  43.5083355 121.8144171  90.6095124  43.7215721
 119.0783402  95.9852700  60.5355170 118.9780128  96.9347057  60.4667261
 118.8604944  95.6570939  59.6631240 118.2796473  93.2337625  37.1195847
 119.1415637  93.5592524  37.3791664 118.4646817  92.4469121  36.6068913
 110.2963889 101.3159965  49.3976036 109.6027360 100.9013918  48.8845990
 111.0436880 101.3580502  48.8009455 118.9414672  99.4149839  59.3520231
 118.4581753 100.2150199  59.5584120 119.0275611  99.4257784  58.3987675
 112.2100631 101.2478219  47.2742051 112.1871319 101.3465906  46.3223934
 112.5201268 102.0943370  47.5959217 114.8688009 103.3054374  51.3888665
 115.8231263 103.2738316  51.3218597 114.6700533 102.8444998  52.2038891
 115.4587391 101.8755490  53.9559463 116.2780280 102.3699569  53.9794300
 115.7324199 100.9587458  53.9277030 113.2238238 108.8473993  48.4058863
 113.0892706 108.0874394  47.8396861 112.8070300 109.5714893  47.9387652
 110.7122305  96.2093624  54.6551660 111.3581169  95.6992578  55.1438885
 110.5039457  96.9462305  55.2295085 119.2325916  90.4733668  40.4075556
 119.2204586  91.4175508  40.5643827 120.1249338  90.2903814  40.1135017
 115.0519796  93.3561241  58.7526674 115.9151258  92.9998046  58.9629999
 114.4785207  93.0175136  59.4402078  52.9739309  -4.9713076  31.0882057
  52.8963338  -4.0205251  31.1670538  52.3700952  -5.3167204  31.7456984
  50.6126138  -2.2227682  35.2330259  50.8522736  -1.5909158  35.9109278
  49.7695335  -2.5739642  35.5195619  51.0870970  -6.1979680  32.5629038
  50.4181346  -5.7133552  32.0793078  50.9483840  -5.9510460  33.4772416
  55.2276239  -4.1635937  39.1611696  55.7794547  -4.0004315  39.9260781
  55.5682432  -3.5731499  38.4891721  55.3962662  -4.4439545  33.4065727
  54.9567653  -4.9363167  34.0998584  56.1470779  -4.9866578  33.1657802
  48.1875712  -6.1215390  35.1304170  48.0530180  -6.8814989  34.5642168
  47.7707774  -5.3974490  34.6632958  51.3444838  -5.2246073  35.3422612
  51.2277222  -4.2800641  35.2401303  50.5237284  -5.5272512  35.7308411
  52.3699352  -4.5717811  38.5578541  53.2726599  -4.5394201  38.8745036
  52.1436722  -5.5017360  38.5724876  66.6695354  -0.0298858  36.2195906
  66.3313866  -0.1457793  35.3316441  67.5385122  -0.4307693  36.1996913
  62.5282170   1.8236618  32.2092797  61.9647035   1.7326555  31.4409085
  62.4134565   1.0036523  32.6895290  67.1515137   1.1235994  42.1782112
  67.1403778   0.7288792  41.3062616  67.3135776   0.3902066  42.7715883
  60.0746602   3.3187810  35.0477018  60.8667894   2.9778635  34.6323317
  60.3143252   3.4282785  35.9679171  68.1081728   5.4907586  27.5207262
  67.4569708   6.0761666  27.1341276  68.9026091   6.0213781  27.5802300
  62.0337356   2.5796723  27.9194397  62.8068232   2.0325710  27.7807272
  62.3862754   3.4440972  28.1308858  63.8722398   3.9073105  41.1261296
  63.5812264   4.8118736  41.0107962  64.5079382   3.9489633  41.8405365
  64.7978605   1.2849954  37.7162656  65.3942177   1.0605976  37.0019618
  64.8553577   0.5434699  38.3188103  64.3703633  -1.2610611  25.5512847
  64.6229154  -1.7829089  24.7896310  63.4328192  -1.4244465  25.6539530
  69.5856994   3.1798018  28.0576247  68.9502827   3.2532644  28.7697151
  69.2554400   3.7691617  27.3795326  64.0899922   0.6417495  27.7537221
  63.9736180  -0.0337601  28.4218306  64.2002182   0.1549869  26.9369375
  66.4331463   0.1027642  31.4583911  66.0689670  -0.4241737  32.1696832
  67.2898579  -0.2873889  31.2850396  68.8312283   3.5934521  38.1211090
  68.5313006   4.4959560  38.0126897  68.4863343   3.3266704  38.9732242
  62.2824765   0.0448318  34.1547794  61.3575261  -0.0875468  34.3625486
  62.5309178   0.8242537  34.6517736  59.6433576  -0.3118409  34.9891583
  59.7725957  -0.0583930  35.9030995  58.9631027   0.2809299  34.6696238
  63.8133063  10.3578841  31.0882057  63.7357093  11.3086666  31.1670538
  63.2094707  10.0124714  31.7456984  64.5596665   0.3392160  43.3061391
  65.3011349   0.8777204  43.0296215  63.8533651   0.9658449  43.4632943
  70.0352005   2.4821301  41.9033553  70.4435361   2.0403711  41.1588185
  69.3129266   1.9073928  42.1567746  70.3580819   3.0422491  35.6585842
  69.7289682   3.2068205  34.9561909  69.9706481   3.4564101  36.4296806
  74.2370051   3.9776929  33.0130205  73.5521089   4.3575830  32.4627239
  74.3213901   4.5872256  33.7462153  71.4920983   1.6236888  39.6125549
  71.7037878   2.2668648  38.9359930  71.4450731   0.7899205  39.1447479
  65.9108781   2.7796899  32.9235927  66.3747127   3.0584602  32.1340549
  65.6465579   1.8780344  32.7409017  62.8032862   2.3268381  35.8615690
  63.3734219   2.7555649  35.2233174  63.3940974   2.0450965  36.5599876
  64.8477667  -1.0979948  29.7325492  65.5501711  -0.6458905  30.1999418
  64.5158296  -1.7396130  30.3605385  63.2958029  -2.5068192  44.1076701
  62.6656689  -1.8251911  44.3412098  63.1894117  -2.6185110  43.1629839
  58.5903001  -2.8396396  35.0342625  57.8002055  -2.5838867  34.5582736
  59.0814249  -2.0248058  35.1394666  72.6066811   4.5008843  37.7847906
  73.4284255   4.0989031  37.5030588  72.6029214   4.3977078  38.7364022
  60.5417747  -2.4751816  31.9926102  59.7448910  -2.3633122  32.5109598
  60.3143339  -2.1365164  31.1266993  66.3723414   4.0492887  39.9408617
  66.4367847   4.5113294  40.7766789  65.6634338   3.4190252  40.0690927
  56.8740704  -2.5865905  37.4657616  57.1248743  -1.7018895  37.7315192
  57.4100253  -2.7661304  36.6932708  66.0871432   5.7160994  29.8087597
  65.9517107   6.5612530  30.2372445  66.6281244   5.9180272  29.0453531
  59.5400829   3.2336432  30.3815522  60.0525350   4.0279683  30.5321087
  60.1923542   2.5362723  30.3149124  61.3495714   6.3502189  32.4638275
  61.5262342   7.2720153  32.2759259  62.1452548   6.0360608  32.8932655
  60.6348071  -1.6033180  42.3400438  60.5201586  -2.5047922  42.6407537
  59.7792588  -1.3569483  41.9885255  67.7139908   6.3384561  43.9387939
  67.2703762   5.5520939  43.6208844  68.3757122   6.5263711  43.2731830
  62.4727029   7.8680362  38.4648618  63.0234455   7.7397426  37.6925612
  61.6338505   8.1675251  38.1143510  69.8121146   6.6187361  41.9669340
  69.7939622   7.4396242  41.4749610  70.7341066   6.4941436  42.1919482
  66.2694201   4.1331490  42.8092849  66.8022537   3.3719778  42.5792157
  65.7408282   3.8405142  43.5517003  57.5049746   1.5625087  31.1575093
  58.3424968   1.9722095  30.9408800  57.6828014   0.6224529  31.1275287
  74.3748452   1.9832522  28.7812099  73.5977895   1.6443681  28.3367261
  75.0539933   1.9885145  28.1067064  67.6346913   3.2617483  30.3211661
  67.1068275   2.5270242  30.0084898  67.1334416   4.0392159  30.0751629
  72.6139759   1.4566503  35.4378707  71.9563434   2.1465764  35.5258836
  73.4180158   1.8462935  35.7812693  65.7799513   1.0797693  23.3246634
  64.8726575   0.8486946  23.5237783  66.2770545   0.2835312  23.5120615
  68.6867592   9.7895200  26.2443320  68.0129291  10.0926897  26.8528278
  69.0733414  10.5924280  25.8948777  66.9587747   1.1810288  27.8470624
  66.0498966   0.8969321  27.9443094  66.9882831   1.6009366  26.9873931
  72.1907014   4.7916877  31.6161791  71.7369341   3.9507787  31.6726982
  71.5600981   5.4278276  31.9536572  70.6339954   6.6293374  32.5511610
  70.9262928   7.1898431  31.8323975  71.1438574   6.9221935  33.3064769
  57.5275917  -1.0984198  31.8285826  57.3300317  -1.6914837  31.1036893
  56.9722581  -1.4031988  32.5461765  66.6563835   2.7219031  25.1858702
  66.2183265   2.0054890  24.7264340  67.3974276   2.9495146  24.6243794
  65.5973579   7.4073725  33.6405063  65.5549757   7.6334571  32.7113595
  66.5136278   7.1737100  33.7890864  74.8006329   3.0652755  36.2546293
  75.2342836   2.9728045  37.1029347  75.5137910   3.0410256  35.6166309
  63.7139379   4.2836754  33.4367026  64.5079978   3.7887074  33.2349600
  63.0031072   3.7554617  33.0734731  68.5334224   6.6654850  37.7879393
  68.5871246   7.2345786  38.5557109  67.6649005   6.8356735  37.4233430
  60.0222143  -1.5720164  29.5126778  59.0919731  -1.6335709  29.7296740
  60.1179615  -2.0944211  28.7163419  75.6621879   3.1076456  38.7879178
  75.8557769   4.0122267  39.0338453  75.5622497   2.6483875  39.6217763
  70.7236987   3.2583199  44.3620059  70.5722494   3.0293751  43.4450142
  70.7141667   4.2153800  44.3751404  67.4922324   0.8315112  39.3466325
  68.4214384   0.9826271  39.1735292  67.0713354   0.9199132  38.4914971
  66.2910655   4.8565776  37.1164863  66.1521741   4.4884560  37.9890801
  65.5025252   5.3713415  36.9448820  66.8858807   9.9574872  28.4590399
  67.0610563   9.4862916  29.2736022  66.1991595  10.5840639  28.6871660
  67.8415871   4.2347379  34.5053700  67.5065703   4.1948149  35.4011350
  67.3419816   3.5692095  34.0324111  61.8160115  -0.3584991  40.0306282
  61.6779913  -1.0904752  40.6317821  62.7265038  -0.4476091  39.7490469
  70.7775062   1.5803413  24.7790760  70.1604233   0.8550241  24.6823813
  70.3091551   2.3412773  24.4357834  64.4442415  -0.6465032  39.5189961
  65.1542034  -1.2871840  39.4776580  64.4011723  -0.3952137  40.4416142
  72.4329194   6.2902321  42.4396540  72.3741740   5.6061542  41.7727123
  72.8348712   7.0321311  41.9877166  61.4519893  13.1064235  35.2330259
  61.6916491  13.7382759  35.9109278  60.6089089  12.7552275  35.5195619
  72.4346601   4.2541905  40.6710520  71.5473380   3.9167827  40.7936919
  73.0045152   3.5224937  40.9079285  54.0875748   0.5865997  33.9953571
  54.7746788   0.2727727  33.4074587  53.9323877   1.4907362  33.7220823
  65.9647755   8.9143358  37.6371763  65.8917926   9.7198329  38.1491068
  65.5225148   9.1135324  36.8119785  65.7537534   8.1515128  31.1474585
  64.9705056   8.6936808  31.2412809  66.4530279   8.6689107  31.5468826
  68.4246438   8.8130192  39.7929922  69.1374410   9.4477657  39.7205823
  67.9336467   8.9094058  38.9769924  70.1463965   2.7181444  31.3647214
  69.2120244   2.8382907  31.1951918  70.3240633   1.8153911  31.1007223
  63.4758352   6.5624635  40.6135493  64.1767811   7.1961118  40.7664887
  63.0053467   6.9039367  39.8531132  71.6012747   4.9042585  28.8983400
  71.8772591   4.7899180  29.8077274  70.7317246   4.5060070  28.8595573
  68.2366811   9.1528936  32.5416213  68.4189206   8.3350592  33.0043966
  69.0599797   9.3696628  32.1041103  68.5708977   8.0797121  29.8031262
  69.0996743   7.5689576  29.1901424  68.8337197   7.7639651  30.6676795
  67.3247211  -0.1410946  44.9254080  66.6487848  -0.2416817  45.5956455
  68.1474845  -0.2971733  45.3890077  59.0726070   6.0960990  37.5466595
  59.6579507   5.3504678  37.6794500  58.8750908   6.4064947  38.4303259
  61.9264725   9.1312238  32.5629038  61.2575100   9.6158365  32.0793078
  61.7877595   9.3781458  33.4772416  53.6643724  -1.3333410  36.2671039
  53.7027824  -1.8669819  37.0608157  53.1584017  -1.8598204  35.6482016
  66.0669994  11.1655981  39.1611696  66.6188302  11.3287603  39.9260781
  66.4076187  11.7560419  38.4891721  70.9180868   5.9917239  45.0160351
  71.4620772   6.6047197  44.5215305  70.3367713   6.5496817  45.5327364
  57.2952302  -2.6069307  29.3424970  57.5905743  -3.5158629  29.2892024
  56.3940338  -2.6281568  29.0205972  69.2038381   9.1137957  36.1475378
  69.0789520   8.3127697  35.6386324  69.8617472   9.6084150  35.6589348
  71.2673289   6.9146977  37.7754928  70.3203625   6.7952328  37.7033255
  71.6156062   6.0269475  37.8581190  68.2719722   6.7099693  33.9759281
  68.1244685   5.7816400  34.1566851  69.0973216   6.7319784  33.4916356
  71.8753844   7.5328252  35.0624153  72.8000392   7.3271113  34.9248605
  71.7069148   7.2844653  35.9713495  63.0080458  -2.4776756  35.5462142
  62.8625039  -2.1636453  36.4386424  62.5305662  -1.8591856  34.9933041
  71.6649161   8.0513919  30.4186245  71.8386038   7.4860342  29.6660097
  72.1578052   8.8514814  30.2365735  57.4826120   0.0628588  38.4849804
  56.9379588   0.8388396  38.6170078  58.3605470   0.4099393  38.3268925
  72.6524333   7.3680684  27.5183143  73.3475238   7.9887376  27.7370458
  72.9947483   6.5176035  27.7935521  58.2692142  -0.8101515  41.3779961
  57.5273878  -0.6618880  41.9644591  57.9484886  -0.5493250  40.5146710
  74.5515756   4.8180389  29.0470474  75.0767080   5.1567662  28.3219794
  74.4638109   3.8827404  28.8633609  66.2135805   8.7314463  41.1760351
  66.5222931   8.4863610  42.0483050  67.0111287   8.9361101  40.6879221
  66.2356417  10.8852372  33.4065727  65.7961407  10.3928751  34.0998584
  66.9864534  10.3425340  33.1657802  58.7148756   7.0763913  33.4090355
  59.5406776   6.7767685  33.0288999  58.3642808   6.3071536  33.8580144
  63.6830289   6.4290381  35.4788029  63.0610298   5.7661086  35.1790257
  64.3535156   6.4551513  34.7961677  56.9157361   4.9950240  34.3679289
  56.0789269   4.5672414  34.1863290  56.8881006   5.1882683  35.3050080
  74.2409662   5.4513293  44.3521672  73.4505206   5.4337432  43.8126171
  74.0043017   5.9901586  45.1070708  74.3607537   2.3005759  41.6654400
  74.4105542   2.1355767  42.6069923  74.2521461   1.4333018  41.2752281
  63.2443796   4.9794305  28.9546489  63.3931916   5.6629769  28.3013162
  64.0510239   4.9599395  29.4695945  75.8625734   4.7202701  41.9096422
  75.5710542   5.0832681  42.7459883  75.2497865   4.0069709  41.7309754
  60.9996429   1.0059482  29.9607558  60.7542471   0.1021812  30.1587768
  61.1692343   1.0076633  29.0187036  66.7439201   7.4742435  26.4258237
  66.1713169   8.0932622  25.9728709  67.3171995   8.0241797  26.9598159
  69.9636461   7.7579585  27.5566819  70.8967134   7.6925147  27.7599695
  69.8759674   8.5935852  27.0981352  72.5924478   7.0745456  24.5170767
  72.5138109   6.7405319  25.4106524  73.4134145   7.5667224  24.5162239
  67.0124692   2.8620994  45.2274946  67.9327702   3.0399593  45.4214993
  66.9774276   1.9177039  45.0754645  56.2306857  -1.9440412  34.1528221
  55.9109642  -2.7975104  33.8602595  55.6840286  -1.7291834  34.9086188
  60.0086765   0.7722029  37.8697727  60.2272775   1.7039137  37.8885761
  60.4212539   0.4130003  38.6552531  56.0995117   1.6762499  36.1221342
  55.4058589   1.2616452  35.6091297  56.8468108   1.7183036  35.5254761
  64.7445900  -0.2247627  46.0765538  64.2612982   0.5752734  46.2829427
  64.8306839  -0.2139682  45.1232982  58.0131860   1.6080753  33.9987357
  57.9902548   1.7068440  33.0469240  58.3232497   2.4545904  34.3204523
  60.6719238   3.6656908  38.1133972  61.6262491   3.6340850  38.0463903
  60.4731761   3.2047532  38.9284198  61.2618620   2.2358024  40.6804769
  62.0811509   2.7302103  40.7039607  61.5355428   1.3189992  40.6522337
  59.0269467   9.2076528  35.1304170  58.8923935   8.4476928  34.5642168
  58.6101529   9.9317427  34.6632958  70.1628430   4.3913451  24.1380745
  70.8664280   4.5963454  24.7538401  69.4391078   4.9590213  24.4029828
  62.1838593  10.1045845  35.3422612  62.0670977  11.0491277  35.2401303
  61.3631039   9.8019406  35.7308411  72.0715127   4.8295980  26.1879205
  72.9060731   4.3977179  26.0056680  71.9099470   4.6577994  27.1156099
  71.7261019   1.3328094  27.5535544  71.6709823   1.1672365  26.6123988
  71.1007075   2.0404127  27.7097734  56.5153534  -3.4303842  41.3796966
  57.1612398  -3.9404888  41.8684192  56.3070685  -2.6935160  41.9540392
  69.0406926   3.6377005  46.8789107  69.9098086   3.8117658  46.5175742
  68.5613678   4.4571422  46.7564836  63.2093107  10.7574106  38.5578541
  64.1120353  10.7897717  38.8745036  62.9830477   9.8274557  38.5724876
  64.9646709   9.5105093  35.2188619  64.0142340   9.5106955  35.1052992
  65.2679195   8.7637828  34.7024654  80.6999402  15.3465631  36.2834382
  81.3377812  15.2272379  35.5797722  80.5820245  16.2946475  36.3422334
  77.5089108  15.2993060  36.2195906  77.1707620  15.1834124  35.3316441
  78.3778877  14.8984225  36.1996913  73.3675924  17.1528536  32.2092797
  72.8040789  17.0618473  31.4409085  73.2528319  16.3328440  32.6895290
  77.9908891  16.4527911  42.1782112  77.9797532  16.0580710  41.3062616
  78.1529531  15.7193984  42.7715883  70.9140356  18.6479728  35.0477018
  71.7061648  18.3070552  34.6323317  71.1537006  18.7574703  35.9679171
  78.9475483  20.8199504  27.5207262  78.2963463  21.4053584  27.1341276
  79.7419846  21.3505699  27.5802300  72.8731110  17.9088641  27.9194397
  73.6461986  17.3617628  27.7807272  73.2256509  18.7732890  28.1308858
  74.7116153  19.2365023  41.1261296  74.4206019  20.1410654  41.0107962
  75.3473137  19.2781551  41.8405365  75.6372359  16.6141872  37.7162656
  76.2335932  16.3897894  37.0019618  75.6947331  15.8726617  38.3188103
  75.2097388  14.0681307  25.5512847  75.4622909  13.5462828  24.7896310
  74.2721947  13.9047452  25.6539530  80.2540671  13.0717085  33.3587590
  81.0403760  12.6536508  33.0078007  80.5179375  13.9763177  33.5269238
  80.4250748  18.5089936  28.0576247  79.7896581  18.5824562  28.7697151
  80.0948154  19.0983534  27.3795326  85.6549098  13.0092318  34.2620568
  86.3874270  12.4391535  34.4958398  84.8988454  12.6213919  34.7027074
  74.9293677  15.9709413  27.7537221  74.8129935  15.2954316  28.4218306
  75.0395936  15.4841787  26.9369375  77.2725218  15.4319560  31.4583911
  76.9083425  14.9050181  32.1696832  78.1292333  15.0418029  31.2850396
  83.1774518   6.7213893  38.7215177  82.8457843   7.5909304  38.4976392
  82.5820132   6.4050177  39.4009207  76.9130705  10.4609460  26.4545259
  77.0805107  11.3289696  26.8215730  76.7227874  10.6236741  25.5306548
  79.6706038  18.9226439  38.1211090  79.3706761  19.8251477  38.0126897
  79.3257097  18.6558622  38.9732242  73.1218519  15.3740235  34.1547794
  72.1969016  15.2416450  34.3625486  73.3702932  16.1534455  34.6517736
  83.0703181  11.4408979  35.8008527  82.1620059  11.3724387  35.5067288
  83.0190777  11.9180924  36.6290352  76.8919925  12.9167117  27.4391926
  76.7719551  13.3624168  28.2777406  76.1972514  13.2652435  26.8805464
  70.4827330  15.0173509  34.9891583  70.6119711  15.2707988  35.9030995
  69.8024782  15.6101217  34.6696238  74.6526817  25.6870759  31.0882057
  74.5750847  26.6378584  31.1670538  74.0488461  25.3416631  31.7456984
  77.1444047  12.8598624  43.7443424  76.3677381  13.4192544  43.7346289
  77.7834610  13.3455407  44.2658294  84.9364828   9.6425417  37.5786401
  84.2939208   9.9357950  36.9326195  84.4319756   9.5278338  38.3839598
  82.5904992  13.3888590  28.2672260  83.5022848  13.6215977  28.0919958
  82.0814639  13.9725635  27.7047339  75.3990420  15.6684078  43.3061391
  76.1405104  16.2069122  43.0296215  74.6927405  16.2950366  43.4632943
  80.8745759  17.8113218  41.9033553  81.2829115  17.3695629  41.1588185
  80.1523021  17.2365846  42.1567746  77.2276829  12.7485825  39.2767110
  78.0738024  13.1725239  39.4201759  77.1675467  12.0919449  39.9705673
  81.1974574  18.3714409  35.6585842  80.5683436  18.5360123  34.9561909
  80.8100236  18.7856018  36.4296806  85.0763806  19.3068847  33.0130205
  84.3914844  19.6867748  32.4627239  85.1607655  19.9164173  33.7462153
  80.3776275  10.4090193  40.9348283  80.1337206  11.1632254  40.3982559
  80.6536205  10.7875541  41.7695530  82.3314737  16.9528806  39.6125549
  82.5431633  17.5960566  38.9359930  82.2844486  16.1191122  39.1447479
  79.9340966   9.5646626  36.5162121  79.0725445   9.8627880  36.8078859
  79.9603401   9.7817025  35.5843154  76.7502536  18.1088817  32.9235927
  77.2140881  18.3876520  32.1340549  76.4859334  17.2072261  32.7409017
  73.6426617  17.6560298  35.8615690  74.2127974  18.0847567  35.2233174
  74.2334729  17.3742883  36.5599876  75.6871422  14.2311969  29.7325492
  76.3895465  14.6833013  30.1999418  75.3552050  13.5895788  30.3605385
  74.1351783  12.8223726  44.1076701  73.5050444  13.5040007  44.3412098
  74.0287871  12.7106808  43.1629839  69.4296756  12.4895522  35.0342625
  68.6395810  12.7453050  34.5582736  69.9208003  13.3043860  35.1394666
  83.4460565  19.8300761  37.7847906  84.2678009  19.4280948  37.5030588
  83.4422968  19.7268995  38.7364022  71.3811501  12.8540101  31.9926102
  70.5842664  12.9658795  32.5109598  71.1537093  13.1926753  31.1266993
  77.2117169  19.3784804  39.9408617  77.2761601  19.8405212  40.7766789
  76.5028093  18.7482169  40.0690927  67.7134459  12.7426012  37.4657616
  67.9642497  13.6273022  37.7315192  68.2494007  12.5630614  36.6932708
  91.5366558  16.1739510  34.1332878  90.7830267  15.6046908  33.9776882
  91.6714100  16.1402174  35.0803512  76.9265186  21.0452912  29.8087597
  76.7910861  21.8904448  30.2372445  77.4674999  21.2472190  29.0453531
  73.4132526   7.1244492  46.4701952  73.0199472   6.5710690  47.1449596
  74.2298666   7.4355070  46.8608470  70.3794584  18.5628350  30.3815522
  70.8919104  19.3571600  30.5321087  71.0317297  17.8654640  30.3149124
  72.1889469  21.6794106  32.4638275  72.3656097  22.6012071  32.2759259
  72.9846302  21.3652525  32.8932655  76.3300487   8.5402371  44.0622209
  77.0710200   9.1409524  43.9826671  76.5618410   7.7980009  43.5040251
  71.4741825  13.7258738  42.3400438  71.3595340  12.8243995  42.6407537
  70.6186343  13.9722435  41.9885255  78.5533663  21.6676478  43.9387939
  78.1097517  20.8812857  43.6208844  79.2150876  21.8555629  43.2731830
  73.3120784  23.1972280  38.4648618  73.8628209  23.0689343  37.6925612
  72.4732260  23.4967169  38.1143510  80.6514901  21.9479278  41.9669340
  80.6333376  22.7688159  41.4749610  81.5734821  21.8233354  42.1919482
  77.1087955  19.4623408  42.8092849  77.6416292  18.7011696  42.5792157
  76.5802036  19.1697060  43.5517003  80.2757650   4.5683474  38.3386490
  79.9321919   5.4585115  38.2625601  80.6436613   4.3785131  37.4756075
  68.3443501  16.8917004  31.1575093  69.1818723  17.3014013  30.9408800
  68.5221768  15.9516446  31.1275287  80.2407933  14.5592085  26.8458926
  79.7254556  15.3296690  27.0847313  79.9685241  13.8857221  27.4691987
  77.8255044   9.4041786  31.9044164  76.9696640   9.0148636  31.7249803
  78.2381995   9.4833746  31.0443950  79.3554190   6.9388129  36.3035724
  78.8518986   6.9018264  35.4903529  79.6484797   7.8480872  36.3632380
  75.5997076   7.0226859  35.3101905  76.4650073   6.8269667  34.9507795
  75.6674585   6.7937210  36.2371262  85.2142207  17.3124440  28.7812099
  84.4371650  16.9735599  28.3367261  85.8933688  17.3177063  28.1067064
  80.0294236  12.4319177  28.6718707  79.7244371  12.7465326  29.5228850
  80.9824678  12.5100597  28.7146040  78.4740668  18.5909400  30.3211661
  77.9462029  17.8562160  30.0084898  77.9728170  19.3684077  30.0751629
  83.4533514  16.7858421  35.4378707  82.7957188  17.4757682  35.5258836
  84.2573913  17.1754853  35.7812693  73.2059395   9.2529067  32.6818272
  73.7803147   9.0304248  31.9491465  73.7930378   9.3217761  33.4346874
  82.2638973  15.1402793  33.4882649  82.7770854  15.7732785  33.9904359
  82.9140196  14.5403989  33.1226009  73.5328982  11.2833528  26.7014158
  72.6966295  11.6208214  27.0223432  73.3933752  11.1482507  25.7641295
  75.5082063   6.1270315  31.4093342  74.8546475   5.8119333  30.7849956
  75.4662537   5.5046056  32.1353165  76.6193268  16.4089611  23.3246634
  75.7120330  16.1778864  23.5237783  77.1164300  15.6127230  23.5120615
  79.5261347  25.1187118  26.2443320  78.8523046  25.4218814  26.8528278
  79.9127169  25.9216198  25.8948777  78.7419803  12.6152249  35.7340989
  77.8242365  12.8367196  35.5762677  79.1579947  12.6898559  34.8752697
  79.5254851  14.0143665  30.8643670  80.2726670  14.5265062  30.5550792
  79.7946441  13.6927717  31.7248063  77.7981501  16.5102205  27.8470624
  76.8892721  16.2261238  27.9443094  77.8276585  16.9301284  26.9873931
  83.0300769  20.1208795  31.6161791  82.5763096  19.2799705  31.6726982
  82.3994735  20.7570193  31.9536572  81.9733688  11.0500781  32.8462459
  81.2356445  10.5378167  33.1772701  82.2260462  10.6101163  32.0345736
  81.4733708  21.9585292  32.5511610  81.7656682  22.5190349  31.8323975
  81.9832329  22.2513853  33.3064769  68.3669672  14.2307720  31.8285826
  68.1694072  13.6377080  31.1036893  67.8116336  13.9259930  32.5461765
  76.3466395  14.1230826  33.9480419  76.4015005  13.1704662  33.8722896
  75.5357597  14.2790265  34.4321718  77.4957589  18.0510949  25.1858702
  77.0577019  17.3346808  24.7264340  78.2368030  18.2787064  24.6243794
  74.2858755  12.7407886  31.7070798  73.4726621  13.0402056  32.1135990
  74.7817749  12.3463575  32.4245280  76.4367333  22.7365643  33.6405063
  76.3943512  22.9626489  32.7113595  77.3530032  22.5029017  33.7890864
  79.8832967  13.2049710  40.5385692  80.2382355  13.4321183  41.3980158
  80.5305098  13.5368087  39.9162947  85.6130704  16.3268146  31.2435021
  85.4748603  16.5169742  30.3156210  85.2566923  17.0887529  31.7003072
  73.7772830  10.3126241  37.3232033  74.4172209  10.1715000  36.6254996
  72.9450361  10.0260755  36.9470635  85.6400084  18.3944673  36.2546293
  86.0736590  18.3019962  37.1029347  86.3531664  18.3702174  35.6166309
  74.5533134  19.6128672  33.4367026  75.3473732  19.1178992  33.2349600
  73.8424826  19.0846535  33.0734731  79.3727978  21.9946767  37.7879393
  79.4265001  22.5637704  38.5557109  78.5042760  22.1648652  37.4233430
  70.8615897  13.7571753  29.5126778  69.9313486  13.6956209  29.7296740
  70.9573369  13.2347706  28.7163419  70.7801446  10.2826566  32.1005020
  71.0408264  11.1971900  31.9914180  71.6018619   9.8151009  32.2501633
  72.2526372  11.6964323  39.2703844  72.9249425  11.4881686  38.6216493
  71.4256158  11.4986409  38.8309077  86.5015633  18.4368374  38.7879178
  86.6951523  19.3414184  39.0338453  86.4016251  17.9775793  39.6217763
  78.1551944   8.3226264  41.2869505  77.5079859   9.0216214  41.1933982
  78.9252959   8.7562408  41.6545753  81.5630742  18.5875117  44.3620059
  81.4116248  18.3585668  43.4450142  81.5535421  19.5445718  44.3751404
  78.3316078  16.1607029  39.3466325  79.2608138  16.3118189  39.1735292
  77.9107108  16.2491050  38.4914971  77.1304410  20.1857694  37.1164863
  76.9915496  19.8176478  37.9890801  76.3419006  20.7005333  36.9448820
  77.7252562  25.2866790  28.4590399  77.9004318  24.8154833  29.2736022
  77.0385350  25.9132556  28.6871660  78.6809625  19.5639296  34.5053700
  78.3459458  19.5240066  35.4011350  78.1813571  18.8984012  34.0324111
  72.6553869  14.9706926  40.0306282  72.5173667  14.2387165  40.6317821
  73.5658793  14.8815827  39.7490469  81.6168817  16.9095331  24.7790760
  80.9997987  16.1842159  24.6823813  81.1485305  17.6704691  24.4357834
  75.2836170  14.6826886  39.5189961  75.9935788  14.0420078  39.4776580
  75.2405478  14.9339781  40.4416142  83.2722948  21.6194239  42.4396540
  83.2135495  20.9353459  41.7727123  83.6742467  22.3613229  41.9877166
  73.9965104  11.6692104  41.3385601  73.4602461  11.2182842  41.9907197
  73.4081812  11.8038012  40.5956065  73.4067363  11.1280755  23.9012064
  72.5296829  11.0069556  23.5374311  73.8825116  10.3366833  23.6490953
  83.2740356  19.5833823  40.6710520  82.3867134  19.2459745  40.7936919
  83.8438907  18.8516854  40.9079285  64.9269503  15.9157915  33.9953571
  65.6140543  15.6019645  33.4074587  64.7717631  16.8199279  33.7220823
  69.7304225  10.8048111  38.4238595  69.6462414  10.1973781  37.6889005
  68.9086931  11.2957130  38.4248092  76.8041509  24.2435275  37.6371763
  76.7311681  25.0490247  38.1491068  76.3618902  24.4427241  36.8119785
  76.5931289  23.4807045  31.1474585  75.8098811  24.0228726  31.2412809
  77.2924034  23.9981025  31.5468826  79.9027939   9.2901675  33.7908790
  80.3996638   8.5371637  33.4709860  79.1314920   9.3265992  33.2252000
  87.7557696  14.9942040  35.4327082  87.7447572  15.8766756  35.0621015
  86.8875076  14.6413591  35.2381619  80.9857719  18.0473362  31.3647214
  80.0513998  18.1674825  31.1951918  81.1634388  17.1445829  31.1007223
  76.4862908  11.4319058  33.5180475  76.1160695  10.8790098  34.2061380
  76.9822000  10.8277191  32.9655475  84.3730271  13.8890681  31.8997248
  84.8390723  14.7218673  31.8257550  84.8237771  13.4235663  32.6042506
  74.3152106  21.8916553  40.6135493  75.0161566  22.5253036  40.7664887
  73.8447221  22.2331284  39.8531132  82.4406502  20.2334503  28.8983400
  82.7166346  20.1191097  29.8077274  81.5711001  19.8351988  28.8595573
  82.3446934   6.2571268  35.9388149  81.4310013   6.4875495  36.1070356
  82.7740035   6.3409712  36.7902181  82.1153392  14.4461160  38.4388043
  81.4624842  14.6937068  37.7840496  82.4933772  13.6325299  38.1050520
  79.0760566  24.4820854  32.5416213  79.2582961  23.6642509  33.0043966
  79.8993552  24.6988546  32.1041103  79.4102731  23.4089039  29.8031262
  79.9390498  22.8981493  29.1901424  79.6730951  23.0931569  30.6676795
  78.1640965  15.1880971  44.9254080  77.4881602  15.0875101  45.5956455
  78.9868599  15.0320185  45.3890077  69.9119824  21.4252908  37.5466595
  70.4973261  20.6796596  37.6794500  69.7144663  21.7356865  38.4303259
  72.7658479  24.4604155  32.5629038  72.0968855  24.9450283  32.0793078
  72.6271349  24.7073376  33.4772416  64.5037479  13.9958508  36.2671039
  64.5421578  13.4622099  37.0608157  63.9977772  13.4693714  35.6482016
  76.9063748  26.4947899  39.1611696  77.4582056  26.6579520  39.9260781
  77.2469941  27.0852337  38.4891721  71.8828241   8.8423049  39.7633581
  71.9469568   9.7037880  39.3510979  71.8195361   8.2297050  39.0305939
  71.3580514  10.9146181  43.4106615  71.9852553  10.5323258  44.0244139
  70.5008433  10.6960383  43.7762308  81.7574622  21.3209156  45.0160351
  82.3014526  21.9339115  44.5215305  81.1761467  21.8788735  45.5327364
  68.1346057  12.7222610  29.3424970  68.4299498  11.8133289  29.2892024
  67.2334092  12.7010350  29.0205972  80.0432135  24.4429874  36.1475378
  79.9183275  23.6419614  35.6386324  80.7011226  24.9376068  35.6589348
  71.6640304  10.7978607  35.3252519  70.9426889  11.4114575  35.1859992
  72.4533559  11.3336372  35.2469165  82.1067044  22.2438894  37.7754928
  81.1597379  22.1244246  37.7033255  82.4549817  21.3561392  37.8581190
  74.4666617   8.1333033  41.5993170  74.9901019   8.3795330  42.3619480
  74.2478950   8.9653068  41.1796308  69.8633898  10.4036708  29.4664295
  69.5346604   9.5234087  29.2839401  70.2173269  10.3484377  30.3540684
  79.1113477  22.0391611  33.9759281  78.9638439  21.1108318  34.1566851
  79.9366970  22.0611701  33.4916356  72.9775721  10.6909678  29.8339773
  73.3171794  11.2195599  29.1118381  73.4247842  11.0290084  30.6098339
  82.7147599  22.8620169  35.0624153  83.6394146  22.6563031  34.9248605
  82.5462902  22.6136571  35.9713495  75.6719162   9.0746728  39.2842841
  75.3315982   8.2754542  39.6863521  74.9658168   9.3748439  38.7119674
  76.3235634   6.1596041  37.7370164  77.1461703   5.6856519  37.6149054
  76.5673697   6.9386525  38.2368850  74.9643868   9.1884299  28.0333066
  75.6852231   9.5665552  27.5296782  74.3409173   9.9073176  28.1368044
  79.1074991   9.8929448  28.9691398  79.3238606  10.7754086  28.6680226
  78.6269058   9.5015662  28.2397040  73.8474213  12.8515162  35.5462142
  73.7018793  13.1655465  36.4386424  73.3699416  13.4700062  34.9933041
  75.7070596   9.8417710  35.5943032  75.6932164   8.9458803  35.2575330
  76.4243024   9.8488373  36.2281318  77.5596726  10.2755050  37.6396159
  77.3014504  11.1972120  37.6380490  77.0281767   9.8785484  38.3296624
  82.5042915  23.3805837  30.4186245  82.6779793  22.8152259  29.6660097
  82.9971806  24.1806732  30.2365735  68.3219875  15.3920506  38.4849804
  67.7773343  16.1680314  38.6170078  69.1999225  15.7391310  38.3268925
  75.1107491   8.7232090  30.8630602  75.2323403   7.7948736  31.0621490
  74.8209534   8.7370776  29.9508918  77.9798682   6.4087000  33.9997322
  78.0020379   6.4726333  33.0449302  78.3966741   5.5691509  34.1937828
  88.3582306  16.1442260  32.0376545  88.8013452  15.3949585  31.6395668
  87.4808816  16.1352396  31.6550277  83.4918087  22.6972601  27.5183143
  84.1868992  23.3179294  27.7370458  83.8341238  21.8467952  27.7935521
  69.1085897  14.5190402  41.3779961  68.3667633  14.6673038  41.9644591
  68.7878641  14.7798668  40.5146710  85.3909511  20.1472307  29.0470474
  85.9160835  20.4859580  28.3219794  85.3031863  19.2119322  28.8633609
  77.0529559  24.0606380  41.1760351  77.3616686  23.8155527  42.0483050
  77.8505041  24.2653019  40.6879221  77.0750171  26.2144290  33.4065727
  76.6355162  25.7220669  34.0998584  77.8258288  25.6717258  33.1657802
  69.5542510  22.4055831  33.4090355  70.3800530  22.1059603  33.0288999
  69.2036562  21.6363453  33.8580144  74.5224044  21.7582299  35.4788029
  73.9004053  21.0953004  35.1790257  75.1928910  21.7843431  34.7961677
  67.7551115  20.3242157  34.3679289  66.9183024  19.8964332  34.1863290
  67.7274761  20.5174601  35.3050080  74.5948571  10.2364087  45.0720535
  74.6436726  11.1126210  44.6898304  75.1371085   9.6941480  44.4992178
  85.0803417  20.7805210  44.3521672  84.2898960  20.7629349  43.8126171
  84.8436771  21.3193504  45.1070708  85.2001292  17.6297677  41.6654400
  85.2499297  17.4647684  42.6069923  85.0915215  16.7624936  41.2752281
  74.0837550  20.3086222  28.9546489  74.2325671  20.9921687  28.3013162
  74.8903994  20.2891313  29.4695945  82.4905054  13.6128605  42.9813707
  83.3914917  13.4735070  42.6897705  82.5653029  13.7783060  43.9211885
  76.8247859  10.9895460  41.8266893  75.9551169  11.2829026  41.5549482
  77.0607340  11.5735905  42.5474157  86.7019489  20.0494618  41.9096422
  86.4104297  20.4124599  42.7459883  86.0891620  19.3361627  41.7309754
  87.9015171  17.6147498  34.4298992  88.7362062  18.0537302  34.5936553
  88.0374300  17.1386151  33.6107238  84.9506677  15.1727233  40.3776480
  85.4260798  15.3654879  39.5695331  84.0272242  15.2286419  40.1319864
  71.8390183  16.3351400  29.9607558  71.5936225  15.4313730  30.1587768
  72.0086098  16.3368551  29.0187036  79.5286893   7.2075076  39.3432314
  80.0468837   7.9436103  39.0178802  79.1742026   7.5139070  40.1779073
  71.1085831  12.0679758  27.4593720  70.4155076  12.1424113  26.8033756
  70.8637583  11.3040101  27.9815237  77.5832956  22.8034353  26.4258237
  77.0106923  23.4224540  25.9728709  78.1565750  23.3533715  26.9598159
  83.6508346  12.0492993  38.6104786  84.6025769  12.1491091  38.6317010
  83.4811796  11.2571262  39.1202870  81.6722725   9.1348576  38.7964186
  81.0772657   9.4153589  38.1010675  81.3872422   9.6242477  39.5680928
  80.8030216  23.0871503  27.5566819  81.7360889  23.0217065  27.7599695
  80.7153429  23.9227770  27.0981352  83.4318232  22.4037373  24.5170767
  83.3531864  22.0697237  25.4106524  84.2527899  22.8959141  24.5162239
  86.1296424  15.2699113  37.7247085  86.0972744  14.3315113  37.9106769
  86.7397047  15.3483149  36.9912910  77.9679754  14.1395166  23.7674289
  78.9138859  14.0101374  23.8362707  77.5893999  13.4009828  24.2443717
  86.2790912  12.0610156  37.7705368  85.7629961  11.2768613  37.5835297
  87.1630861  11.7328873  37.9351888  83.9401639   5.8051172  33.7301181
  83.7426460   5.4966260  34.6144513  84.5501345   6.5312811  33.8599111
  91.9472973  16.3315120  36.8653122  92.6776362  16.0700408  37.4260825
  91.3379919  15.5943841  36.9055190  90.0288271  14.4722982  37.4627573
  89.3021434  14.3378947  36.8544065  89.6135557  14.7799811  38.2684291
  77.8518447  18.1912912  45.2274946  78.7721456  18.3691511  45.4214993
  77.8168030  17.2468957  45.0754645  76.1522672  12.0645142  23.7029174
  75.2454127  11.7678255  23.7791888  76.4298653  11.7674960  22.8363461
  67.0700612  13.3851505  34.1528221  66.7503396  12.5316814  33.8602595
  66.5234040  13.6000084  34.9086188  70.8480520  16.1013946  37.8697727
  71.0666529  17.0331054  37.8885761  71.2606293  15.7421921  38.6552531
  77.7684737   6.6082032  29.8573416  76.9585466   6.2629117  30.2328662
  78.4569154   6.2989576  30.4461027  79.6975286   5.6860079  31.4797712
  80.2506324   6.1055532  32.1387736  79.9345372   4.7595827  31.5220668
  75.7208385  11.6747152  47.2600476  75.6205112  12.6241509  47.1912567
  75.5029927  11.3465391  46.3876546  74.9221456   8.9232077  23.8441154
  75.7840620   9.2486976  24.1036971  75.1071800   8.1363573  23.3314219
  66.9388872  17.0054417  36.1221342  66.2452343  16.5908370  35.6091297
  67.6861863  17.0474953  35.5254761  83.0754093   7.7960604  30.9876377
  82.4952762   8.4545408  30.6054429  82.8090025   6.9737948  30.5763794
  81.5257659   7.1965661  33.1897697  82.0257437   7.3082196  32.3812016
  82.1693267   6.8926714  33.8298505  75.5839655  15.1044291  46.0765538
  75.1006737  15.9044651  46.2829427  75.6700594  15.1152236  45.1232982
  68.8525615  16.9372671  33.9987357  68.8296303  17.0360358  33.0469240
  69.1626251  17.7837822  34.3204523  71.5112992  18.9948826  38.1133972
  72.4656246  18.9632768  38.0463903  71.3125516  18.5339450  38.9284198
  72.1012375  17.5649942  40.6804769  72.9205264  18.0594020  40.7039607
  72.3749182  16.6481910  40.6522337  81.8578971   9.9560694  30.0432725
  80.9704826  10.2410345  29.8252920  82.2732960   9.7954458  29.1960002
  85.2093507   9.9807215  33.7587064  85.9853897  10.4703668  34.0311681
  84.4841641  10.4065269  34.2158934  87.6466065  10.6934834  34.8161005
  88.2410556  10.4530570  34.1054313  87.7192649   9.9741965  35.4434541
  69.8663221  24.5368445  35.1304170  69.7317689  23.7768846  34.5642168
  69.4495283  25.2609345  34.6632958  81.0022184  19.7205369  24.1380745
  81.7058034  19.9255371  24.7538401  80.2784833  20.2882131  24.4029828
  81.8319994  15.4715230  30.2583015  81.7755196  15.9283781  29.4190647
  82.3848337  14.7105915  30.0805858  85.6424800  11.2604962  31.0833135
  85.3861735  10.8601598  31.9141342  85.0177668  11.9748756  30.9583274
  89.9537138  14.0001035  33.5904426  89.3936696  14.0694224  34.3635988
  89.3480642  13.8242020  32.8703922  73.0232347  25.4337762  35.3422612
  72.9064731  26.3783195  35.2401303  72.2024793  25.1311324  35.7308411
  82.9108882  20.1587898  26.1879205  83.7454486  19.7269096  26.0056680
  82.7493225  19.9869912  27.1156099  82.5654774  16.6620011  27.5535544
  82.5103578  16.4964283  26.6123988  81.9400829  17.3696044  27.7097734
  67.3547289  11.8988076  41.3796966  68.0006152  11.3887030  41.8684192
  67.1464440  12.6356757  41.9540392  79.8800681  18.9668923  46.8789107
  80.7491841  19.1409575  46.5175742  79.4007432  19.7863340  46.7564836
  75.8750899   6.1628120  27.1320863  75.8629569   7.1069960  27.2889134
  76.7674321   5.9798266  26.8380324  74.0486861  26.0866024  38.5578541
  74.9514108  26.1189634  38.8745036  73.8224231  25.1566475  38.5724876
  75.8040463  24.8397011  35.2188619  74.8536094  24.8398872  35.1052992
  76.1072949  24.0929745  34.7024654  71.6944780   9.0455693  45.4771981
  72.5576241   8.6892498  45.6875305  71.1210190   8.7069588  46.1647385
  91.5393157  30.6757549  36.2834382  92.1771567  30.5564296  35.5797722
  91.4214000  31.6238393  36.3422334  88.3482863  30.6284977  36.2195906
  88.0101374  30.5126042  35.3316441  89.2172631  30.2276142  36.1996913
  86.0491142  29.3973225  25.5512847  86.3016663  28.8754746  24.7896310
  85.1115701  29.2339370  25.6539530  91.0934425  28.4009003  33.3587590
  91.8797514  27.9828426  33.0078007  91.3573129  29.3055095  33.5269238
  96.4942852  28.3384236  34.2620568  97.2268024  27.7683453  34.4958398
  95.7382208  27.9505837  34.7027074  85.7687431  31.3001331  27.7537221
  85.6523689  30.6246234  28.4218306  85.8789691  30.8133704  26.9369375
  88.1118972  30.7611478  31.4583911  87.7477179  30.2342099  32.1696832
  88.9686088  30.3709947  31.2850396  94.0168273  22.0505810  38.7215177
  93.6851597  22.9201221  38.4976392  93.4213886  21.7342094  39.4009207
  87.7524459  25.7901377  26.4545259  87.9198861  26.6581614  26.8215730
  87.5621628  25.9528659  25.5306548  93.9096936  26.7700896  35.8008527
  93.0013813  26.7016305  35.5067288  93.8584532  27.2472841  36.6290352
  87.7313680  28.2459035  27.4391926  87.6113305  28.6916086  28.2777406
  87.0366268  28.5944353  26.8805464  87.9837802  28.1890542  43.7443424
  87.2071136  28.7484462  43.7346289  88.6228365  28.6747325  44.2658294
  95.7758582  24.9717335  37.5786401  95.1332963  25.2649868  36.9326195
  95.2713511  24.8570255  38.3839598  93.4298746  28.7180508  28.2672260
  94.3416602  28.9507895  28.0919958  92.9208393  29.3017552  27.7047339
  88.0670584  28.0777743  39.2767110  88.9131779  28.5017156  39.4201759
  88.0069221  27.4211367  39.9705673  92.0368328  33.7006326  35.6585842
  91.4077191  33.8652041  34.9561909  91.6493990  34.1147936  36.4296806
  95.9157560  34.6360764  33.0130205  95.2308598  35.0159666  32.4627239
  96.0001410  35.2456091  33.7462153  91.2170029  25.7382111  40.9348283
  90.9730961  26.4924172  40.3982559  91.4929960  26.1167459  41.7695530
  90.7734721  24.8938544  36.5162121  89.9119200  25.1919798  36.8078859
  90.7997155  25.1108943  35.5843154  86.5265176  29.5603887  29.7325492
  87.2289220  30.0124931  30.1999418  86.1945805  28.9187706  30.3605385
  80.2690510  27.8187440  35.0342625  79.4789564  28.0744968  34.5582736
  80.7601758  28.6335777  35.1394666  82.2205256  28.1832019  31.9926102
  81.4236419  28.2950713  32.5109598  81.9930848  28.5218671  31.1266993
  78.5528213  28.0717930  37.4657616  78.8036252  28.9564940  37.7315192
  79.0887762  27.8922532  36.6932708 102.3760313  31.5031427  34.1332878
 101.6224021  30.9338825  33.9776882 102.5107854  31.4694092  35.0803512
  84.2526281  22.4536409  46.4701952  83.8593226  21.9002608  47.1449596
  85.0692421  22.7646988  46.8608470  87.1694242  23.8694289  44.0622209
  87.9103955  24.4701442  43.9826671  87.4012164  23.1271926  43.5040251
  91.1151404  19.8975391  38.3386490  90.7715674  20.7877033  38.2625601
  91.4830367  19.7077049  37.4756075  91.0801687  29.8884003  26.8458926
  90.5648311  30.6588607  27.0847313  90.8078996  29.2149139  27.4691987
  88.6648798  24.7333703  31.9044164  87.8090395  24.3440554  31.7249803
  89.0775750  24.8125664  31.0443950  90.1947945  22.2680047  36.3035724
  89.6912740  22.2310182  35.4903529  90.4878552  23.1772789  36.3632380
  86.4390831  22.3518776  35.3101905  87.3043828  22.1561585  34.9507795
  86.5068340  22.1229128  36.2371262  96.0535961  32.6416357  28.7812099
  95.2765404  32.3027517  28.3367261  96.7327442  32.6468980  28.1067064
  90.8687990  27.7611095  28.6718707  90.5638126  28.0757244  29.5228850
  91.8218432  27.8392515  28.7146040  94.2927268  32.1150338  35.4378707
  93.6350943  32.8049600  35.5258836  95.0967667  32.5046770  35.7812693
  84.0453150  24.5820984  32.6818272  84.6196902  24.3596166  31.9491465
  84.6324132  24.6509679  33.4346874  93.1032727  30.4694711  33.4882649
  93.6164609  31.1024703  33.9904359  93.7533951  29.8695907  33.1226009
  84.3722737  26.6125445  26.7014158  83.5360049  26.9500132  27.0223432
  84.2327507  26.4774425  25.7641295  86.3475818  21.4562233  31.4093342
  85.6940230  21.1411250  30.7849956  86.3056292  20.8337974  32.1353165
  87.4587022  31.7381528  23.3246634  86.5514084  31.5070782  23.5237783
  87.9558054  30.9419147  23.5120615  89.5813558  27.9444167  35.7340989
  88.6636119  28.1659114  35.5762677  89.9973702  28.0190477  34.8752697
  90.3648606  29.3435582  30.8643670  91.1120425  29.8556980  30.5550792
  90.6340195  29.0219635  31.7248063  93.8694523  35.4500713  31.6161791
  93.4156850  34.6091622  31.6726982  93.2388490  36.0862111  31.9536572
  92.8127443  26.3792699  32.8462459  92.0750200  25.8670085  33.1772701
  93.0654216  25.9393080  32.0345736  92.3127462  37.2877209  32.5511610
  92.6050437  37.8482266  31.8323975  92.8226083  37.5805770  33.3064769
  92.9139070  19.1568951  33.4404228  93.2197947  18.2966314  33.1530143
  93.6391675  19.7486571  33.2403222  87.1860150  29.4522744  33.9480419
  87.2408760  28.4996580  33.8722896  86.3751352  29.6082183  34.4321718
  85.1252510  28.0699803  31.7070798  84.3120375  28.3693974  32.1135990
  85.6211504  27.6755492  32.4245280  90.7226721  28.5341628  40.5385692
  91.0776109  28.7613101  41.3980158  91.3698853  28.8660005  39.9162947
  96.4524458  31.6560064  31.2435021  96.3142357  31.8461660  30.3156210
  96.0960677  32.4179447  31.7003072  84.6166585  25.6418159  37.3232033
  85.2565964  25.5006918  36.6254996  83.7844115  25.3552672  36.9470635
  96.4793838  33.7236591  36.2546293  96.9130345  33.6311880  37.1029347
  97.1925419  33.6994091  35.6166309  81.7009652  29.0863671  29.5126778
  80.7707240  29.0248127  29.7296740  81.7967124  28.5639624  28.7163419
  81.6195201  25.6118484  32.1005020  81.8802018  26.5263817  31.9914180
  82.4412373  25.1442927  32.2501633  83.0920126  27.0256241  39.2703844
  83.7643180  26.8173603  38.6216493  82.2649913  26.8278327  38.8309077
  97.3409388  33.7660291  38.7879178  97.5345278  34.6706102  39.0338453
  97.2410006  33.3067711  39.6217763  88.9945698  23.6518182  41.2869505
  88.3473613  24.3508132  41.1933982  89.7646714  24.0854326  41.6545753
  92.4562571  32.2387248  24.7790760  91.8391742  31.5134077  24.6823813
  91.9879060  32.9996609  24.4357834  84.8358858  26.9984021  41.3385601
  84.2996215  26.5474760  41.9907197  84.2475567  27.1329930  40.5956065
  84.2461117  26.4572673  23.9012064  83.3690583  26.3361474  23.5374311
  84.7218870  25.6658751  23.6490953  80.5697979  26.1340029  38.4238595
  80.4856168  25.5265699  37.6889005  79.7480686  26.6249047  38.4248092
  90.7421693  24.6193593  33.7908790  91.2390393  23.8663555  33.4709860
  89.9708675  24.6557909  33.2252000  98.5951451  30.3233958  35.4327082
  98.5841327  31.2058673  35.0621015  97.7268830  29.9705509  35.2381619
  91.8251474  33.3765280  31.3647214  90.8907753  33.4966742  31.1951918
  92.0028142  32.4737747  31.1007223  87.3256662  26.7610976  33.5180475
  86.9554450  26.2082016  34.2061380  87.8215755  26.1569109  32.9655475
  95.2124025  29.2182599  31.8997248  95.6784478  30.0510591  31.8257550
  95.6631526  28.7527581  32.6042506  93.2800256  35.5626420  28.8983400
  93.5560100  35.4483015  29.8077274  92.4104755  35.1643905  28.8595573
  93.1840688  21.5863186  35.9388149  92.2703768  21.8167413  36.1070356
  93.6133790  21.6701630  36.7902181  92.9547147  29.7753078  38.4388043
  92.3018597  30.0228985  37.7840496  93.3327526  28.9617216  38.1050520
  89.9154320  39.8112771  32.5416213  90.0976715  38.9934427  33.0043966
  90.7387306  40.0280463  32.1041103  90.2496486  38.7380956  29.8031262
  90.7784252  38.2273411  29.1901424  90.5124706  38.4223487  30.6676795
  82.7221996  24.1714966  39.7633581  82.7863322  25.0329797  39.3510979
  82.6589116  23.5588968  39.0305939  78.9739811  28.0514528  29.3424970
  79.2693252  27.1425206  29.2892024  78.0727847  28.0302267  29.0205972
  82.5034058  26.1270525  35.3252519  81.7820644  26.7406492  35.1859992
  83.2927314  26.6628289  35.2469165  85.3060372  23.4624951  41.5993170
  85.8294773  23.7087248  42.3619480  85.0872705  24.2944986  41.1796308
  80.7027653  25.7328626  29.4664295  80.3740359  24.8526005  29.2839401
  81.0567023  25.6776294  30.3540684  83.8169476  26.0201595  29.8339773
  84.1565548  26.5487517  29.1118381  84.2641596  26.3582002  30.6098339
  86.5112917  24.4038646  39.2842841  86.1709737  23.6046459  39.6863521
  85.8051923  24.7040357  38.7119674  87.1629388  21.4887959  37.7370164
  87.9855458  21.0148437  37.6149054  87.4067452  22.2678442  38.2368850
  85.8037623  24.5176217  28.0333066  86.5245985  24.8957470  27.5296782
  85.1802927  25.2365094  28.1368044  89.9468746  25.2221366  28.9691398
  90.1632360  26.1046004  28.6680226  89.4662813  24.8307579  28.2397040
  84.6867967  28.1807079  35.5462142  84.5412548  28.4947382  36.4386424
  84.2093171  28.7991980  34.9933041  86.5464350  25.1709627  35.5943032
  86.5325919  24.2750720  35.2575330  87.2636778  25.1780291  36.2281318
  88.3990481  25.6046967  37.6396159  88.1408259  26.5264038  37.6380490
  87.8675521  25.2077402  38.3296624  93.3436670  38.7097755  30.4186245
  93.5173547  38.1444177  29.6660097  93.8365561  39.5098649  30.2365735
  85.9501246  24.0524007  30.8630602  86.0717157  23.1240654  31.0621490
  85.6603288  24.0662693  29.9508918  88.8192436  21.7378918  33.9997322
  88.8414133  21.8018251  33.0449302  89.2360495  20.8983427  34.1937828
  99.1976061  31.4734177  32.0376545  99.6407207  30.7241503  31.6395668
  98.3202571  31.4644314  31.6550277  94.3311842  38.0264519  27.5183143
  95.0262747  38.6471212  27.7370458  94.6734992  37.1759870  27.7935521
  96.2303265  35.4764224  29.0470474  96.7554589  35.8151497  28.3219794
  96.1425618  34.5411240  28.8633609  95.9197171  36.1097128  44.3521672
  95.1292715  36.0921267  43.8126171  95.6830526  36.6485422  45.1070708
  96.0395046  32.9589594  41.6654400  96.0893051  32.7939602  42.6069923
  95.9308970  32.0916853  41.2752281  93.3298809  28.9420522  42.9813707
  94.2308671  28.8026987  42.6897705  93.4046783  29.1074977  43.9211885
  87.6641614  26.3187377  41.8266893  86.7944923  26.6120943  41.5549482
  87.9001094  26.9027822  42.5474157  97.5413243  35.3786536  41.9096422
  97.2498051  35.7416517  42.7459883  96.9285374  34.6653544  41.7309754
  98.7408925  32.9439416  34.4298992  99.5755817  33.3829220  34.5936553
  98.8768054  32.4678069  33.6107238  95.7900431  30.5019151  40.3776480
  96.2654553  30.6946797  39.5695331  94.8665997  30.5578336  40.1319864
  90.3680648  22.5366994  39.3432314  90.8862592  23.2728021  39.0178802
  90.0135781  22.8430987  40.1779073  81.9479585  27.3971675  27.4593720
  81.2548830  27.4716030  26.8033756  81.7031337  26.6332019  27.9815237
  90.6193242  18.9567277  34.8633210  90.8994996  18.2890466  35.4893637
  91.4043849  19.1496372  34.3507874  94.4902100  27.3784911  38.6104786
  95.4419523  27.4783008  38.6317010  94.3205551  26.5863179  39.1202870
  92.5116480  24.4640494  38.7964186  91.9166412  24.7445507  38.1010675
  92.2266176  24.9534395  39.5680928  91.6423970  38.4163421  27.5566819
  92.5754643  38.3508982  27.7599695  91.5547183  39.2519688  27.0981352
  94.2711987  37.7329291  24.5170767  94.1925618  37.3989155  25.4106524
  95.0921654  38.2251059  24.5162239  96.9690178  30.5991030  37.7247085
  96.9366498  29.6607031  37.9106769  97.5790802  30.6775067  36.9912910
  88.8073509  29.4687083  23.7674289  89.7532614  29.3393291  23.8362707
  88.4287754  28.7301745  24.2443717  97.1184667  27.3902074  37.7705368
  96.6023715  26.6060530  37.5835297  98.0024615  27.0620790  37.9351888
  94.7795393  21.1343089  33.7301181  94.5820215  20.8258178  34.6144513
  95.3895099  21.8604728  33.8599111 102.7866728  31.6607037  36.8653122
 103.5170116  31.3992325  37.4260825 102.1773673  30.9235759  36.9055190
 100.8682025  29.8014900  37.4627573 100.1415189  29.6670865  36.8544065
 100.4529312  30.1091728  38.2684291  86.9916426  27.3937060  23.7029174
  86.0847881  27.0970172  23.7791888  87.2692407  27.0966878  22.8363461
  88.6078492  21.9373949  29.8573416  87.7979220  21.5921034  30.2328662
  89.2962909  21.6281493  30.4461027  90.5369040  21.0151996  31.4797712
  91.0900079  21.4347450  32.1387736  90.7739126  20.0887744  31.5220668
  86.5602139  27.0039070  47.2600476  86.4598866  27.9533427  47.1912567
  86.3423681  26.6757309  46.3876546  85.7615211  24.2523995  23.8441154
  86.6234375  24.5778893  24.1036971  85.9465555  23.4655491  23.3314219
  93.9147847  23.1252521  30.9876377  93.3346516  23.7837325  30.6054429
  93.6483780  22.3029866  30.5763794  92.3651414  22.5257579  33.1897697
  92.8651192  22.6374114  32.3812016  93.0087021  22.2218632  33.8298505
  92.6972725  25.2852612  30.0432725  91.8098580  25.5702262  29.8252920
  93.1126714  25.1246375  29.1960002  96.0487261  25.3099133  33.7587064
  96.8247651  25.7995585  34.0311681  95.3235396  25.7357187  34.2158934
  98.4859820  26.0226752  34.8161005  99.0804311  25.7822488  34.1054313
  98.5586404  25.3033883  35.4434541  91.8415939  35.0497286  24.1380745
  92.5451789  35.2547289  24.7538401  91.1178587  35.6174048  24.4029828
  92.6713749  30.8007148  30.2583015  92.6148950  31.2575699  29.4190647
  93.2242091  30.0397832  30.0805858  96.4818555  26.5896880  31.0833135
  96.2255489  26.1893515  31.9141342  95.8571423  27.3040674  30.9583274
 100.7930893  29.3292953  33.5904426 100.2330451  29.3986142  34.3635988
 100.1874396  29.1533937  32.8703922  93.7502636  35.4879816  26.1879205
  94.5848240  35.0561014  26.0056680  93.5886979  35.3161829  27.1156099
  93.4048528  31.9911929  27.5535544  93.3497332  31.8256200  26.6123988
  92.7794584  32.6987962  27.7097734  86.7144654  21.4920038  27.1320863
  86.7023324  22.4361878  27.2889134  87.6068076  21.3090183  26.8380324
  90.5296773  18.0862815  31.3866799  89.7629169  17.5321301  31.5323482
  90.9407478  18.1584683  32.2480951 102.3786911  46.0049467  36.2834382
 103.0165321  45.8856214  35.5797722 102.2607754  46.9530311  36.3422334
  99.1876617  45.9576895  36.2195906  98.8495129  45.8417960  35.3316441
 100.0566386  45.5568060  36.1996913  99.6696400  47.1111747  42.1782112
  99.6585041  46.7164545  41.3062616  99.8317040  46.3777819  42.7715883
 100.6262992  51.4783339  27.5207262  99.9750972  52.0637419  27.1341276
 101.4207355  52.0089534  27.5802300  94.5518619  48.5672476  27.9194397
  95.3249495  48.0201463  27.7807272  94.9044018  49.4316725  28.1308858
  96.3903662  49.8948858  41.1261296  96.0993528  50.7994489  41.0107962
  97.0260646  49.9365386  41.8405365  96.8884897  44.7265142  25.5512847
  97.1410418  44.2046664  24.7896310  95.9509456  44.5631288  25.6539530
 101.9328180  43.7300921  33.3587590 102.7191269  43.3120344  33.0078007
 102.1966884  44.6347013  33.5269238 102.1038257  49.1673771  28.0576247
 101.4684090  49.2408397  28.7697151 101.7735663  49.7567370  27.3795326
 107.3336607  43.6676154  34.2620568 108.0661779  43.0975371  34.4958398
 106.5775962  43.2797754  34.7027074  96.6081186  46.6293248  27.7537221
  96.4917444  45.9538152  28.4218306  96.7183445  46.1425622  26.9369375
  98.9512727  46.0903395  31.4583911  98.5870934  45.5634016  32.1696832
  99.8079842  45.7001864  31.2850396 104.8562027  37.3797728  38.7215177
 104.5245352  38.2493139  38.4976392 104.2607641  37.0634012  39.4009207
  98.5918213  41.1193295  26.4545259  98.7592616  41.9873531  26.8215730
  98.4015383  41.2820577  25.5306548 101.3493547  49.5810274  38.1211090
 101.0494270  50.4835313  38.0126897 101.0044606  49.3142457  38.9732242
 104.7490690  42.0992814  35.8008527 103.8407568  42.0308223  35.5067288
 104.6978286  42.5764759  36.6290352  98.5707434  43.5750953  27.4391926
  98.4507060  44.0208003  28.2777406  97.8760023  43.9236270  26.8805464
  98.8231556  43.5182460  43.7443424  98.0464890  44.0776380  43.7346289
  99.4622119  44.0039243  44.2658294 106.6152337  40.3009253  37.5786401
 105.9726717  40.5941786  36.9326195 106.1107265  40.1862173  38.3839598
 104.2692501  44.0472426  28.2672260 105.1810357  44.2799812  28.0919958
 103.7602148  44.6309470  27.7047339  97.0777929  46.3267913  43.3061391
  97.8192613  46.8652957  43.0296215  96.3714914  46.9534202  43.4632943
 102.5533268  48.4697054  41.9033553 102.9616624  48.0279464  41.1588185
 101.8310530  47.8949681  42.1567746  98.9064338  43.4069660  39.2767110
  99.7525533  43.8309074  39.4201759  98.8462976  42.7503285  39.9705673
 102.8762083  49.0298244  35.6585842 102.2470945  49.1943958  34.9561909
 102.4887745  49.4439854  36.4296806 106.7551315  49.9652682  33.0130205
 106.0702353  50.3451583  32.4627239 106.8395164  50.5748009  33.7462153
 102.0563784  41.0674029  40.9348283 101.8124715  41.8216089  40.3982559
 102.3323714  41.4459376  41.7695530 104.0102246  47.6112641  39.6125549
 104.2219142  48.2544401  38.9359930 103.9631995  46.7774958  39.1447479
 101.6128475  40.2230462  36.5162121 100.7512954  40.5211715  36.8078859
 101.6390910  40.4400861  35.5843154  97.3658931  44.8895805  29.7325492
  98.0682974  45.3416848  30.1999418  97.0339559  44.2479623  30.3605385
  95.8139292  43.4807561  44.1076701  95.1837953  44.1623842  44.3412098
  95.7075380  43.3690643  43.1629839  91.1084265  43.1479357  35.0342625
  90.3183319  43.4036886  34.5582736  91.5995512  43.9627695  35.1394666
 105.1248074  50.4884596  37.7847906 105.9465518  50.0864784  37.5030588
 105.1210477  50.3852831  38.7364022  93.0599010  43.5123937  31.9926102
  92.2630173  43.6242631  32.5109598  92.8324602  43.8510589  31.1266993
  89.3921968  43.4009848  37.4657616  89.6430006  44.2856858  37.7315192
  89.9281516  43.2214449  36.6932708 113.2154067  46.8323345  34.1332878
 112.4617776  46.2630743  33.9776882 113.3501609  46.7986009  35.0803512
  98.6052695  51.7036747  29.8087597  98.4698370  52.5488283  30.2372445
  99.1462508  51.9056025  29.0453531  98.0087996  39.1986206  44.0622209
  98.7497709  39.7993359  43.9826671  98.2405919  38.4563844  43.5040251
  93.1529334  44.3842573  42.3400438  93.0382849  43.4827831  42.6407537
  92.2973852  44.6306270  41.9885255 100.2321172  52.3260314  43.9387939
  99.7885026  51.5396692  43.6208844 100.8938385  52.5139464  43.2731830
 102.3302410  52.6063114  41.9669340 102.3120885  53.4271995  41.4749610
 103.2522330  52.4817189  42.1919482  98.7875464  50.1207243  42.8092849
  99.3203801  49.3595531  42.5792157  98.2589545  49.8280895  43.5517003
 101.9545159  35.2267309  38.3386490 101.6109428  36.1168951  38.2625601
 102.3224122  35.0368967  37.4756075 101.9195442  45.2175920  26.8458926
 101.4042065  45.9880525  27.0847313 101.6472750  44.5441056  27.4691987
  99.5042553  40.0625621  31.9044164  98.6484149  39.6732471  31.7249803
  99.9169504  40.1417582  31.0443950 101.0341699  37.5971964  36.3035724
 100.5306495  37.5602099  35.4903529 101.3272306  38.5064707  36.3632380
  97.2784585  37.6810694  35.3101905  98.1437582  37.4853503  34.9507795
  97.3462094  37.4521046  36.2371262 106.8929716  47.9708275  28.7812099
 106.1159159  47.6319434  28.3367261 107.5721197  47.9760898  28.1067064
 101.7081745  43.0903012  28.6718707 101.4031880  43.4049162  29.5228850
 102.6612187  43.1684432  28.7146040 100.1528177  49.2493236  30.3211661
  99.6249538  48.5145995  30.0084898  99.6515679  50.0267912  30.0751629
 105.1321023  47.4442256  35.4378707 104.4744697  48.1341518  35.5258836
 105.9361422  47.8338688  35.7812693  94.8846904  39.9112902  32.6818272
  95.4590656  39.6888083  31.9491465  95.4717887  39.9801596  33.4346874
 103.9426482  45.7986629  33.4882649 104.4558363  46.4316621  33.9904359
 104.5927705  45.1987824  33.1226009  95.2116491  41.9417363  26.7014158
  94.3753804  42.2792049  27.0223432  95.0721261  41.8066343  25.7641295
  97.1869572  36.7854151  31.4093342  96.5333984  36.4703168  30.7849956
  97.1450046  36.1629891  32.1353165  98.2980777  47.0673446  23.3246634
  97.3907839  46.8362699  23.5237783  98.7951809  46.2711065  23.5120615
 101.2048856  55.7770953  26.2443320 100.5310555  56.0802650  26.8528278
 101.5914678  56.5800033  25.8948777 100.4207312  43.2736084  35.7340989
  99.5029874  43.4951031  35.5762677 100.8367456  43.3482395  34.8752697
 101.2042360  44.6727500  30.8643670 101.9514179  45.1848897  30.5550792
 101.4733950  44.3511553  31.7248063  99.4769010  47.1686041  27.8470624
  98.5680230  46.8845074  27.9443094  99.5064094  47.5885119  26.9873931
 104.7088278  50.7792630  31.6161791 104.2550605  49.9383540  31.6726982
 104.0782244  51.4154029  31.9536572 103.6521197  41.7084616  32.8462459
 102.9143954  41.1962003  33.1772701 103.9047971  41.2684998  32.0345736
 103.1521217  52.6169127  32.5511610 103.4444191  53.1774184  31.8323975
 103.6619838  52.9097688  33.3064769 103.7532825  34.4860868  33.4404228
 104.0591701  33.6258232  33.1530143 104.4785429  35.0778489  33.2403222
  90.0457181  44.8891555  31.8285826  89.8481581  44.2960916  31.1036893
  89.4903845  44.5843765  32.5461765  98.0253904  44.7814661  33.9480419
  98.0802514  43.8288498  33.8722896  97.2145106  44.9374100  34.4321718
  99.1745098  48.7094784  25.1858702  98.7364528  47.9930643  24.7264340
  99.9155539  48.9370899  24.6243794  95.9646264  43.3991721  31.7070798
  95.1514130  43.6985892  32.1135990  96.4605258  43.0047410  32.4245280
 101.5620476  43.8633546  40.5385692 101.9169864  44.0905019  41.3980158
 102.2092607  44.1951922  39.9162947 107.2918213  46.9851981  31.2435021
 107.1536111  47.1753577  30.3156210 106.9354432  47.7471364  31.7003072
 107.3187593  49.0528508  36.2546293 107.7524099  48.9603798  37.1029347
 108.0319173  49.0286009  35.6166309  92.5403406  44.4155589  29.5126778
  91.6100995  44.3540044  29.7296740  92.6360878  43.8931542  28.7163419
  92.4588955  40.9410402  32.1005020  92.7195773  41.8555735  31.9914180
  93.2806128  40.4734844  32.2501633 108.1803142  49.0952209  38.7879178
 108.3739032  49.9998020  39.0338453 108.0803760  48.6359628  39.6217763
  99.8339453  38.9810100  41.2869505  99.1867368  39.6800049  41.1933982
 100.6040468  39.4146244  41.6545753 103.2418251  49.2458952  44.3620059
 103.0903757  49.0169504  43.4450142 103.2322930  50.2029553  44.3751404
 100.0103587  46.8190865  39.3466325 100.9395647  46.9702024  39.1735292
  99.5894617  46.9074885  38.4914971  99.4040071  55.9450626  28.4590399
  99.5791827  55.4738669  29.2736022  98.7172859  56.5716392  28.6871660
 100.3597134  50.2223132  34.5053700 100.0246967  50.1823902  35.4011350
  99.8601080  49.5567848  34.0324111  94.3341378  45.6290762  40.0306282
  94.1961176  44.8971001  40.6317821  95.2446302  45.5399662  39.7490469
 103.2956326  47.5679166  24.7790760 102.6785496  46.8425994  24.6823813
 102.8272814  48.3288526  24.4357834  96.9623679  45.3410721  39.5189961
  97.6723297  44.7003913  39.4776580  96.9192987  45.5923616  40.4416142
 104.9510457  52.2778074  42.4396540 104.8923004  51.5937295  41.7727123
 105.3529976  53.0197064  41.9877166  95.6752613  42.3275939  41.3385601
  95.1389970  41.8766677  41.9907197  95.0869321  42.4621848  40.5956065
  95.0854872  41.7864590  23.9012064  94.2084338  41.6653391  23.5374311
  95.5612625  40.9950669  23.6490953 104.9527865  50.2417658  40.6710520
 104.0654643  49.9043580  40.7936919 105.5226416  49.5100690  40.9079285
 101.5815448  39.9485510  33.7908790 102.0784147  39.1955473  33.4709860
 100.8102429  39.9849827  33.2252000 109.4345205  45.6525876  35.4327082
 109.4235081  46.5350591  35.0621015 108.5662585  45.2997427  35.2381619
 102.6645228  48.7057197  31.3647214 101.7301507  48.8258660  31.1951918
 102.8421897  47.8029664  31.1007223  98.1650417  42.0902893  33.5180475
  97.7948204  41.5373934  34.2061380  98.6609509  41.4861027  32.9655475
 106.0517780  44.5474517  31.8997248 106.5178232  45.3802508  31.8257550
 106.5025280  44.0819498  32.6042506 104.1194011  50.8918338  28.8983400
 104.3953855  50.7774933  29.8077274 103.2498510  50.4935823  28.8595573
 104.0234443  36.9155104  35.9388149 103.1097522  37.1459331  36.1070356
 104.4527544  36.9993548  36.7902181 103.7940901  45.1044996  38.4388043
 103.1412351  45.3520903  37.7840496 104.1721281  44.2909134  38.1050520
 100.7548075  55.1404689  32.5416213 100.9370469  54.3226345  33.0043966
 101.5781061  55.3572381  32.1041103 101.0890240  54.0672874  29.8031262
 101.6178007  53.5565329  29.1901424 101.3518460  53.7515404  30.6676795
  99.8428474  45.8464807  44.9254080  99.1669111  45.7458936  45.5956455
 100.6656108  45.6904020  45.3890077  93.0368023  41.5730017  43.4106615
  93.6640062  41.1907094  44.0244139  92.1795942  41.3544218  43.7762308
 103.4362131  51.9792992  45.0160351 103.9802035  52.5922950  44.5215305
 102.8548976  52.5372570  45.5327364  89.8133565  43.3806446  29.3424970
  90.1087007  42.4717124  29.2892024  88.9121601  43.3594185  29.0205972
 101.7219644  55.1013710  36.1475378 101.5970784  54.3003450  35.6386324
 102.3798735  55.5959903  35.6589348 103.7854553  52.9022730  37.7754928
 102.8384888  52.7828081  37.7033255 104.1337326  52.0145228  37.8581190
  91.5421407  41.0620543  29.4664295  91.2134113  40.1817922  29.2839401
  91.8960778  41.0068212  30.3540684 100.7900986  52.6975446  33.9759281
 100.6425948  51.7692153  34.1566851 101.6154479  52.7195537  33.4916356
  94.6563230  41.3493513  29.8339773  94.9959303  41.8779434  29.1118381
  95.1035351  41.6873919  30.6098339 104.3935108  53.5204005  35.0624153
 105.3181655  53.3146866  34.9248605 104.2250411  53.2720406  35.9713495
  98.0023143  36.8179876  37.7370164  98.8249212  36.3440354  37.6149054
  98.2461206  37.5970360  38.2368850  96.6431377  39.8468135  28.0333066
  97.3639740  40.2249387  27.5296782  96.0196681  40.5657011  28.1368044
 100.7862500  40.5513284  28.9691398 101.0026115  41.4337922  28.6680226
 100.3056567  40.1599497  28.2397040  95.5261722  43.5098997  35.5462142
  95.3806302  43.8239300  36.4386424  95.0486925  44.1283897  34.9933041
  97.3858105  40.5001545  35.5943032  97.3719673  39.6042638  35.2575330
  98.1030533  40.5072209  36.2281318  99.2384235  40.9338885  37.6396159
  98.9802013  41.8555956  37.6380490  98.7069276  40.5369320  38.3296624
 104.1830424  54.0389672  30.4186245 104.3567302  53.4736095  29.6660097
 104.6759315  54.8390567  30.2365735  96.7895000  39.3815925  30.8630602
  96.9110912  38.4532571  31.0621490  96.4997043  39.3954611  29.9508918
  99.6586191  37.0670836  33.9997322  99.6807888  37.1310169  33.0449302
 100.0754250  36.2275344  34.1937828 110.0369815  46.8026095  32.0376545
 110.4800961  46.0533420  31.6395668 109.1596325  46.7936231  31.6550277
 105.1705596  53.3556437  27.5183143 105.8656501  53.9763129  27.7370458
 105.5128747  52.5051788  27.7935521  90.7873406  45.1774238  41.3779961
  90.0455142  45.3256873  41.9644591  90.4666150  45.4382503  40.5146710
 107.0697020  50.8056142  29.0470474 107.5948344  51.1443415  28.3219794
 106.9819372  49.8703157  28.8633609  96.2736080  40.8947923  45.0720535
  96.3224235  41.7710045  44.6898304  96.8158594  40.3525316  44.4992178
 106.7590926  51.4389046  44.3521672 105.9686469  51.4213185  43.8126171
 106.5224280  51.9777339  45.1070708 106.8788801  48.2881512  41.6654400
 106.9286806  48.1231520  42.6069923 106.7702724  47.4208771  41.2752281
  95.7625059  50.9670058  28.9546489  95.9113180  51.6505522  28.3013162
  96.5691503  50.9475148  29.4695945 104.1692563  44.2712440  42.9813707
 105.0702426  44.1318905  42.6897705 104.2440538  44.4366895  43.9211885
  98.5035368  41.6479295  41.8266893  97.6338678  41.9412861  41.5549482
  98.7394849  42.2319740  42.5474157 108.3806998  50.7078454  41.9096422
 108.0891806  51.0708434  42.7459883 107.7679129  49.9945462  41.7309754
 109.5802680  48.2731333  34.4298992 110.4149571  48.7121138  34.5936553
 109.7161809  47.7969987  33.6107238 106.6294186  45.8311068  40.3776480
 107.1048307  46.0238715  39.5695331 105.7059751  45.8870254  40.1319864
  93.5177692  46.9935235  29.9607558  93.2723734  46.0897565  30.1587768
  93.6873607  46.9952386  29.0187036 101.2074402  37.8658912  39.3432314
 101.7256346  38.6019939  39.0178802 100.8529535  38.1722905  40.1779073
  92.7873340  42.7263593  27.4593720  92.0942585  42.8007948  26.8033756
  92.5425092  41.9623937  27.9815237 101.4586996  34.2859194  34.8633210
 101.7388750  33.6182383  35.4893637 102.2437603  34.4788290  34.3507874
  99.2620465  53.4618188  26.4258237  98.6894432  54.0808375  25.9728709
  99.8353259  54.0117550  26.9598159 105.3295855  42.7076828  38.6104786
 106.2813278  42.8074926  38.6317010 105.1599305  41.9155097  39.1202870
 103.3510234  39.7932412  38.7964186 102.7560166  40.0737424  38.1010675
 103.0659931  40.2826313  39.5680928 102.4817725  53.7455338  27.5566819
 103.4148398  53.6800900  27.7599695 102.3940938  54.5811605  27.0981352
 105.1105741  53.0621209  24.5170767 105.0319373  52.7281072  25.4106524
 105.9315408  53.5542977  24.5162239 107.8083933  45.9282948  37.7247085
 107.7760253  44.9898949  37.9106769 108.4184556  46.0066985  36.9912910
  99.6467263  44.7979001  23.7674289 100.5926368  44.6685209  23.8362707
  99.2681508  44.0593663  24.2443717 107.9578421  42.7193991  37.7705368
 107.4417470  41.9352448  37.5835297 108.8418370  42.3912708  37.9351888
 105.6189148  36.4635007  33.7301181 105.4213969  36.1550095  34.6144513
 106.2288854  37.1896646  33.8599111 113.6260482  46.9898955  36.8653122
 114.3563871  46.7284243  37.4260825 113.0167428  46.2527677  36.9055190
 111.7075780  45.1306817  37.4627573 110.9808943  44.9962782  36.8544065
 111.2923066  45.4383646  38.2684291  99.5305956  48.8496747  45.2274946
 100.4508965  49.0275346  45.4214993  99.4955539  47.9052793  45.0754645
  97.8310181  42.7228977  23.7029174  96.9241636  42.4262090  23.7791888
  98.1086162  42.4258796  22.8363461  88.7488121  44.0435341  34.1528221
  88.4290905  43.1900649  33.8602595  88.2021549  44.2583919  34.9086188
  99.4472246  37.2665867  29.8573416  98.6372975  36.9212952  30.2328662
 100.1356663  36.9573411  30.4461027 101.3762795  36.3443914  31.4797712
 101.9293833  36.7639367  32.1387736 101.6132881  35.4179662  31.5220668
  97.3995894  42.3330988  47.2600476  97.2992621  43.2825345  47.1912567
  97.1817436  42.0049226  46.3876546  96.6008965  39.5815913  23.8441154
  97.4628129  39.9070811  24.1036971  96.7859309  38.7947409  23.3314219
 104.7541602  38.4544439  30.9876377 104.1740271  39.1129243  30.6054429
 104.4877534  37.6321784  30.5763794 103.2045168  37.8549497  33.1897697
 103.7044946  37.9666031  32.3812016 103.8480776  37.5510550  33.8298505
  97.2627164  45.7628126  46.0765538  96.7794246  46.5628487  46.2829427
  97.3488103  45.7736071  45.1232982 103.5366480  40.6144529  30.0432725
 102.6492335  40.8994180  29.8252920 103.9520469  40.4538293  29.1960002
 106.8881016  40.6391050  33.7587064 107.6641406  41.1287503  34.0311681
 106.1629150  41.0649105  34.2158934 109.3253574  41.3518670  34.8161005
 109.9198065  41.1114406  34.1054313 109.3980158  40.6325800  35.4434541
 102.6809693  50.3789204  24.1380745 103.3845543  50.5839207  24.7538401
 101.9572342  50.9465966  24.4029828 103.5107503  46.1299065  30.2583015
 103.4542705  46.5867617  29.4190647 104.0635846  45.3689750  30.0805858
 107.3212309  41.9188797  31.0833135 107.0649244  41.5185433  31.9141342
 106.6965177  42.6332591  30.9583274 111.6324647  44.6584871  33.5904426
 111.0724205  44.7278060  34.3635988 111.0268151  44.4825855  32.8703922
 104.5896391  50.8171733  26.1879205 105.4241995  50.3852932  26.0056680
 104.4280733  50.6453747  27.1156099 104.2442283  47.3203847  27.5535544
 104.1891087  47.1548118  26.6123988 103.6188338  48.0279880  27.7097734
 101.5588190  49.6252759  46.8789107 102.4279350  49.7993411  46.5175742
 101.0794941  50.4447175  46.7564836  97.5538408  36.8211956  27.1320863
  97.5417078  37.7653796  27.2889134  98.4461830  36.6382101  26.8380324
 101.3690528  33.4154732  31.3866799 100.6022923  32.8613219  31.5323482
 101.7801233  33.4876601  32.2480951  93.3732289  39.7039528  45.4771981
  94.2363750  39.3476333  45.6875305  92.7997699  39.3653423  46.1647385
 113.2180666  61.3341384  36.2834382 113.8559076  61.2148132  35.5797722
 113.1001509  62.2822228  36.3422334 110.0270372  61.2868813  36.2195906
 109.6888883  61.1709877  35.3316441 110.8960140  60.8859978  36.1996913
 105.8857188  63.1404289  32.2092797 105.3222053  63.0494226  31.4409085
 105.7709583  62.3204193  32.6895290 110.5090155  62.4403664  42.1782112
 110.4978796  62.0456463  41.3062616 110.6710794  61.7069737  42.7715883
 103.4321620  64.6355481  35.0477018 104.2242911  64.2946305  34.6323317
 103.6718270  64.7450456  35.9679171 111.4656746  66.8075257  27.5207262
 110.8144726  67.3929337  27.1341276 112.2601109  67.3381452  27.5802300
 105.3912374  63.8964394  27.9194397 106.1643250  63.3493381  27.7807272
 105.7437772  64.7608643  28.1308858 107.2297416  65.2240776  41.1261296
 106.9387282  66.1286407  41.0107962 107.8654400  65.2657304  41.8405365
 108.1553623  62.6017625  37.7162656 108.7517195  62.3773647  37.0019618
 108.2128594  61.8602370  38.3188103 107.7278651  60.0557060  25.5512847
 107.9804172  59.5338581  24.7896310 106.7903210  59.8923205  25.6539530
 112.7721934  59.0592838  33.3587590 113.5585023  58.6412261  33.0078007
 113.0360638  59.9638930  33.5269238 112.9432012  64.4965689  28.0576247
 112.3077844  64.5700315  28.7697151 112.6129418  65.0859287  27.3795326
 118.1730361  58.9968072  34.2620568 118.9055533  58.4267288  34.4958398
 117.4169717  58.6089672  34.7027074 107.4474940  61.9585166  27.7537221
 107.3311198  61.2830069  28.4218306 107.5577200  61.4717540  26.9369375
 109.7906481  61.4195313  31.4583911 109.4264688  60.8925934  32.1696832
 110.6473597  61.0293782  31.2850396 115.6955782  52.7089646  38.7215177
 115.3639106  53.5785057  38.4976392 115.1001395  52.3925930  39.4009207
 109.4311968  56.4485213  26.4545259 109.5986370  57.3165449  26.8215730
 109.2409137  56.6112494  25.5306548 112.1887301  64.9102192  38.1211090
 111.8888024  65.8127230  38.0126897 111.8438361  64.6434375  38.9732242
 105.6399783  61.3615988  34.1547794 104.7150279  61.2292203  34.3625486
 105.8884196  62.1410208  34.6517736 115.5884445  57.4284732  35.8008527
 114.6801322  57.3600140  35.5067288 115.5372041  57.9056677  36.6290352
 109.4101189  58.9042870  27.4391926 109.2900814  59.3499921  28.2777406
 108.7153777  59.2528188  26.8805464 103.0008594  61.0049262  34.9891583
 103.1300975  61.2583741  35.9030995 102.3206045  61.5976970  34.6696238
 107.1708081  71.6746512  31.0882057 107.0932111  72.6254337  31.1670538
 106.5669725  71.3292384  31.7456984 109.6625311  58.8474377  43.7443424
 108.8858645  59.4068298  43.7346289 110.3015874  59.3331160  44.2658294
 117.4546091  55.6301170  37.5786401 116.8120472  55.9233703  36.9326195
 116.9501020  55.5154091  38.3839598 115.1086255  59.3764343  28.2672260
 116.0204111  59.6091730  28.0919958 114.5995902  59.9601388  27.7047339
 107.9171683  61.6559831  43.3061391 108.6586367  62.1944875  43.0296215
 107.2108669  62.2826120  43.4632943 113.3927023  63.7988971  41.9033553
 113.8010379  63.3571382  41.1588185 112.6704284  63.2241599  42.1567746
 109.7458093  58.7361578  39.2767110 110.5919288  59.1600992  39.4201759
 109.6856730  58.0795202  39.9705673 113.7155837  64.3590162  35.6585842
 113.0864700  64.5235876  34.9561909 113.3281499  64.7731771  36.4296806
 117.5945069  65.2944600  33.0130205 116.9096107  65.6743501  32.4627239
 117.6788919  65.9039926  33.7462153 112.8957538  56.3965946  40.9348283
 112.6518470  57.1508007  40.3982559 113.1717469  56.7751294  41.7695530
 114.8496001  62.9404559  39.6125549 115.0612896  63.5836319  38.9359930
 114.8025749  62.1066875  39.1447479 112.4522230  55.5522379  36.5162121
 111.5906709  55.8503633  36.8078859 112.4784664  55.7692778  35.5843154
 109.2683799  64.0964570  32.9235927 109.7322145  64.3752273  32.1340549
 109.0040597  63.1948015  32.7409017 106.1607880  63.6436051  35.8615690
 106.7309237  64.0723320  35.2233174 106.7515992  63.3618636  36.5599876
 108.2052685  60.2187722  29.7325492 108.9076729  60.6708766  30.1999418
 107.8733314  59.5771541  30.3605385 106.6533047  58.8099479  44.1076701
 106.0231707  59.4915760  44.3412098 106.5469135  58.6982561  43.1629839
 101.9478019  58.4771275  35.0342625 101.1577073  58.7328803  34.5582736
 102.4389267  59.2919613  35.1394666 115.9641829  65.8176514  37.7847906
 116.7859273  65.4156701  37.5030588 115.9604232  65.7144748  38.7364022
 103.8992765  58.8415854  31.9926102 103.1023928  58.9534548  32.5109598
 103.6718357  59.1802506  31.1266993 109.7298432  65.3660557  39.9408617
 109.7942865  65.8280965  40.7766789 109.0209356  64.7357922  40.0690927
 109.4446450  67.0328665  29.8087597 109.3092125  67.8780201  30.2372445
 109.9856262  67.2347943  29.0453531 105.9313790  53.1120245  46.4701952
 105.5380735  52.5586443  47.1449596 106.7479930  53.4230823  46.8608470
 102.8975847  64.5504103  30.3815522 103.4100368  65.3447353  30.5321087
 103.5498560  63.8530393  30.3149124 104.7070732  67.6669859  32.4638275
 104.8837360  68.5887824  32.2759259 105.5027565  67.3528278  32.8932655
 108.8481751  54.5278124  44.0622209 109.5891464  55.1285277  43.9826671
 109.0799673  53.7855762  43.5040251 111.0714926  67.6552231  43.9387939
 110.6278780  66.8688610  43.6208844 111.7332140  67.8431382  43.2731830
 105.8302047  69.1848033  38.4648618 106.3809473  69.0565096  37.6925612
 104.9913523  69.4842922  38.1143510 113.1696164  67.9355031  41.9669340
 113.1514640  68.7563912  41.4749610 114.0916084  67.8109107  42.1919482
 109.6269218  65.4499161  42.8092849 110.1597555  64.6887449  42.5792157
 109.0983300  65.1572813  43.5517003 112.7938913  50.5559227  38.3386490
 112.4503183  51.4460868  38.2625601 113.1617876  50.3660884  37.4756075
 112.7589196  60.5467838  26.8458926 112.2435820  61.3172443  27.0847313
 112.4866505  59.8732974  27.4691987 110.3436307  55.3917539  31.9044164
 109.4877904  55.0024389  31.7249803 110.7563259  55.4709499  31.0443950
 111.8735454  52.9263882  36.3035724 111.3700249  52.8894017  35.4903529
 112.1666061  53.8356625  36.3632380 108.1178340  53.0102612  35.3101905
 108.9831336  52.8145420  34.9507795 108.1855849  52.7812963  36.2371262
 117.7323470  63.3000193  28.7812099 116.9552913  62.9611352  28.3367261
 118.4114951  63.3052816  28.1067064 112.5475499  58.4194930  28.6718707
 112.2425635  58.7341079  29.5228850 113.5005941  58.4976350  28.7146040
 110.9921931  64.5785153  30.3211661 110.4643293  63.8437913  30.0084898
 110.4909434  65.3559830  30.0751629 115.9714777  62.7734174  35.4378707
 115.3138452  63.4633435  35.5258836 116.7755176  63.1630606  35.7812693
 105.7240659  55.2404820  32.6818272 106.2984411  55.0180001  31.9491465
 106.3111641  55.3093514  33.4346874 114.7820236  61.1278546  33.4882649
 115.2952118  61.7608538  33.9904359 115.4321460  60.5279742  33.1226009
 106.0510246  57.2709281  26.7014158 105.2147558  57.6083967  27.0223432
 105.9115016  57.1358260  25.7641295 108.0263327  52.1146069  31.4093342
 107.3727739  51.7995086  30.7849956 107.9843801  51.4921809  32.1353165
 109.1374531  62.3965364  23.3246634 108.2301593  62.1654617  23.5237783
 109.6345563  61.6002983  23.5120615 112.0442610  71.1062871  26.2443320
 111.3704309  71.4094568  26.8528278 112.4308432  71.9091951  25.8948777
 111.2601067  58.6028002  35.7340989 110.3423628  58.8242949  35.5762677
 111.6761210  58.6774313  34.8752697 112.0436115  60.0019418  30.8643670
 112.7907934  60.5140815  30.5550792 112.3127704  59.6803470  31.7248063
 110.3162765  62.4977958  27.8470624 109.4073984  62.2136991  27.9443094
 110.3457849  62.9177037  26.9873931 115.5482032  66.1084548  31.6161791
 115.0944359  65.2675458  31.6726982 114.9175999  66.7445946  31.9536572
 114.4914952  57.0376534  32.8462459 113.7537709  56.5253920  33.1772701
 114.7441725  56.5976916  32.0345736 113.9914971  67.9461045  32.5511610
 114.2837946  68.5066102  31.8323975 114.5013592  68.2389606  33.3064769
 114.5926579  49.8152786  33.4404228 114.8985456  48.9550149  33.1530143
 115.3179184  50.4070406  33.2403222 108.8647659  60.1106579  33.9480419
 108.9196269  59.1580415  33.8722896 108.0538861  60.2666018  34.4321718
 110.0138853  64.0386702  25.1858702 109.5758283  63.3222561  24.7264340
 110.7549293  64.2662817  24.6243794 106.8040019  58.7283639  31.7070798
 105.9907884  59.0277809  32.1135990 107.2999013  58.3339328  32.4245280
 108.9548597  68.7241396  33.6405063 108.9124775  68.9502242  32.7113595
 109.8711296  68.4904770  33.7890864 112.4014230  59.1925463  40.5385692
 112.7563618  59.4196936  41.3980158 113.0486362  59.5243840  39.9162947
 118.1311967  62.3143899  31.2435021 117.9929866  62.5045495  30.3156210
 117.7748186  63.0763282  31.7003072 106.2954094  56.3001994  37.3232033
 106.9353473  56.1590753  36.6254996 105.4631624  56.0136508  36.9470635
 118.1581347  64.3820426  36.2546293 118.5917854  64.2895715  37.1029347
 118.8712928  64.3577927  35.6166309 107.0714397  65.6004425  33.4367026
 107.8654996  65.1054745  33.2349600 106.3606090  65.0722288  33.0734731
 111.8909242  67.9822520  37.7879393 111.9446264  68.5513457  38.5557109
 111.0224023  68.1524405  37.4233430 103.3797161  59.7447506  29.5126778
 102.4494749  59.6831962  29.7296740 103.4754633  59.2223459  28.7163419
 103.2982710  56.2702319  32.1005020 103.5589527  57.1847653  31.9914180
 104.1199882  55.8026762  32.2501633 104.7707635  57.6840076  39.2703844
 105.4430689  57.4757439  38.6216493 103.9437422  57.4862162  38.8309077
 119.0196897  64.4244127  38.7879178 119.2132787  65.3289937  39.0338453
 118.9197515  63.9651546  39.6217763 110.6733207  54.3102017  41.2869505
 110.0261122  55.0091967  41.1933982 111.4434223  54.7438161  41.6545753
 114.0812005  64.5750870  44.3620059 113.9297512  64.3461421  43.4450142
 114.0716685  65.5321471  44.3751404 110.8497342  62.1482782  39.3466325
 111.7789402  62.2993942  39.1735292 110.4288372  62.2366803  38.4914971
 109.6485673  66.1733447  37.1164863 109.5096759  65.8052231  37.9890801
 108.8600270  66.6881086  36.9448820 110.2433825  71.2742543  28.4590399
 110.4185581  70.8030586  29.2736022 109.5566613  71.9008309  28.6871660
 111.1990889  65.5515049  34.5053700 110.8640721  65.5115819  35.4011350
 110.6994834  64.8859765  34.0324111 105.1735133  60.9582679  40.0306282
 105.0354930  60.2262918  40.6317821 106.0840056  60.8691580  39.7490469
 114.1350080  62.8971084  24.7790760 113.5179251  62.1717912  24.6823813
 113.6666569  63.6580444  24.4357834 107.8017433  60.6702639  39.5189961
 108.5117052  60.0295831  39.4776580 107.7586741  60.9215534  40.4416142
 115.7904212  67.6069992  42.4396540 115.7316758  66.9229212  41.7727123
 116.1923730  68.3488982  41.9877166 106.5146367  57.6567857  41.3385601
 105.9783724  57.2058595  41.9907197 105.9263076  57.7913765  40.5956065
 104.8094911  74.4231906  35.2330259 105.0491509  75.0550430  35.9109278
 103.9664107  74.0719946  35.5195619 105.9248626  57.1156508  23.9012064
 105.0478092  56.9945309  23.5374311 106.4006379  56.3242586  23.6490953
 115.7921619  65.5709576  40.6710520 114.9048398  65.2335498  40.7936919
 116.3620170  64.8392607  40.9079285 102.2485488  56.7923864  38.4238595
 102.1643677  56.1849534  37.6889005 101.4268195  57.2832883  38.4248092
 109.3222773  70.2311028  37.6371763 109.2492944  71.0366000  38.1491068
 108.8800166  70.4302994  36.8119785 109.1112552  69.4682798  31.1474585
 108.3280074  70.0104479  31.2412809 109.8105297  69.9856778  31.5468826
 112.4209202  55.2777428  33.7908790 112.9177902  54.5247390  33.4709860
 111.6496184  55.3141745  33.2252000 120.2738960  60.9817793  35.4327082
 120.2628836  61.8642509  35.0621015 119.4056339  60.6289344  35.2381619
 111.7821456  70.1297862  39.7929922 112.4949428  70.7645327  39.7205823
 111.2911485  70.2261728  38.9769924 113.5038983  64.0349115  31.3647214
 112.5695262  64.1550578  31.1951918 113.6815651  63.1321582  31.1007223
 109.0044171  57.4194811  33.5180475 108.6341959  56.8665851  34.2061380
 109.5003263  56.8152944  32.9655475 116.8911534  59.8766434  31.8997248
 117.3571987  60.7094426  31.8257550 117.3419035  59.4111416  32.6042506
 106.8333370  67.8792306  40.6135493 107.5342829  68.5128789  40.7664887
 106.3628485  68.2207037  39.8531132 114.9587765  66.2210256  28.8983400
 115.2347609  66.1066850  29.8077274 114.0892264  65.8227741  28.8595573
 114.8628197  52.2447021  35.9388149 113.9491277  52.4751248  36.1070356
 115.2921299  52.3285465  36.7902181 114.6334656  60.4336913  38.4388043
 113.9806106  60.6812821  37.7840496 115.0115035  59.6201052  38.1050520
 111.5941829  70.4696607  32.5416213 111.7764224  69.6518262  33.0043966
 112.4174815  70.6864299  32.1041103 111.9283995  69.3964792  29.8031262
 112.4571761  68.8857246  29.1901424 112.1912215  69.0807322  30.6676795
 110.6822229  61.1756724  44.9254080 110.0062866  61.0750854  45.5956455
 111.5049862  61.0195938  45.3890077 102.4301088  67.4128661  37.5466595
 103.0154524  66.6672349  37.6794500 102.2325926  67.7232618  38.4303259
 105.2839743  70.4479908  32.5629038 104.6150118  70.9326036  32.0793078
 105.1452613  70.6949129  33.4772416 109.4245011  72.4823652  39.1611696
 109.9763319  72.6455273  39.9260781 109.7651205  73.0728090  38.4891721
 104.4009505  54.8298802  39.7633581 104.4650831  55.6913633  39.3510979
 104.3376625  54.2172803  39.0305939 103.8761777  56.9021934  43.4106615
 104.5033816  56.5199012  44.0244139 103.0189696  56.6836136  43.7762308
 114.2755886  67.3084909  45.0160351 114.8195790  67.9214868  44.5215305
 113.6942731  67.8664488  45.5327364 112.5613399  70.4305627  36.1475378
 112.4364538  69.6295367  35.6386324 113.2192490  70.9251821  35.6589348
 104.1821567  56.7854360  35.3252519 103.4608153  57.3990328  35.1859992
 104.9714823  57.3212125  35.2469165 114.6248307  68.2314647  37.7754928
 113.6778643  68.1119999  37.7033255 114.9731080  67.3437146  37.8581190
 106.9847880  54.1208786  41.5993170 107.5082282  54.3671083  42.3619480
 106.7660214  54.9528821  41.1796308 102.3815162  56.3912461  29.4664295
 102.0527868  55.5109840  29.2839401 102.7354532  56.3360130  30.3540684
 111.6294740  68.0267364  33.9759281 111.4819703  67.0984071  34.1566851
 112.4548234  68.0487454  33.4916356 105.4956985  56.6785431  29.8339773
 105.8353057  57.2071352  29.1118381 105.9429105  57.0165837  30.6098339
 115.2328862  68.8495922  35.0624153 116.1575410  68.6438784  34.9248605
 115.0644166  68.6012324  35.9713495 108.1900426  55.0622481  39.2842841
 107.8497246  54.2630295  39.6863521 107.4839432  55.3624192  38.7119674
 108.8416897  52.1471794  37.7370164 109.6642967  51.6732272  37.6149054
 109.0854961  52.9262278  38.2368850 107.4825132  55.1760052  28.0333066
 108.2033494  55.5541305  27.5296782 106.8590436  55.8948929  28.1368044
 111.6256255  55.8805201  28.9691398 111.8419869  56.7629839  28.6680226
 111.1450322  55.4891415  28.2397040 106.3655476  58.8390915  35.5462142
 106.2200057  59.1531218  36.4386424 105.8880680  59.4575815  34.9933041
 108.2251859  55.8293463  35.5943032 108.2113428  54.9334556  35.2575330
 108.9424287  55.8364126  36.2281318 110.0777990  56.2630803  37.6396159
 109.8195768  57.1847873  37.6380490 109.5463030  55.8661237  38.3296624
 115.0224178  69.3681590  30.4186245 115.1961056  68.8028012  29.6660097
 115.5153070  70.1682485  30.2365735 100.8401138  61.3796259  38.4849804
 100.2954606  62.1556067  38.6170078 101.7180488  61.7267063  38.3268925
 107.6288755  54.7107843  30.8630602 107.7504666  53.7824489  31.0621490
 107.3390797  54.7246529  29.9508918 110.4979945  52.3962753  33.9997322
 110.5201642  52.4602086  33.0449302 110.9148004  51.5567262  34.1937828
 120.8763570  62.1318013  32.0376545 121.3194716  61.3825338  31.6395668
 119.9990080  62.1228149  31.6550277 116.0099351  68.6848354  27.5183143
 116.7050256  69.3055047  27.7370458 116.3522501  67.8343705  27.7935521
 117.9090774  66.1348060  29.0470474 118.4342098  66.4735333  28.3219794
 117.8213127  65.1995075  28.8633609 109.5710823  70.0482133  41.1760351
 109.8797949  69.8031280  42.0483050 110.3686305  70.2528772  40.6879221
 109.5931435  72.2020043  33.4065727 109.1536425  71.7096422  34.0998584
 110.3439552  71.6593011  33.1657802 102.0723774  68.3931584  33.4090355
 102.8981794  68.0935356  33.0288999 101.7217826  67.6239206  33.8580144
 107.0405307  67.7458052  35.4788029 106.4185316  67.0828757  35.1790257
 107.7110174  67.7719184  34.7961677 107.1129834  56.2239840  45.0720535
 107.1617990  57.1001963  44.6898304 107.6552349  55.6817233  44.4992178
 117.5984680  66.7680963  44.3521672 116.8080224  66.7505102  43.8126171
 117.3618035  67.3069257  45.1070708 117.7182555  63.6173430  41.6654400
 117.7680560  63.4523437  42.6069923 117.6096479  62.7500689  41.2752281
 106.6018814  66.2961976  28.9546489 106.7506934  66.9797440  28.3013162
 107.4085257  66.2767066  29.4695945 115.0086318  59.6004358  42.9813707
 115.9096180  59.4610823  42.6897705 115.0834292  59.7658813  43.9211885
 109.3429123  56.9771213  41.8266893 108.4732432  57.2704779  41.5549482
 109.5788603  57.5611658  42.5474157 119.2200752  66.0370371  41.9096422
 118.9285560  66.4000352  42.7459883 118.6072883  65.3237380  41.7309754
 120.4196434  63.6023251  34.4298992 121.2543326  64.0413055  34.5936553
 120.5555563  63.1261904  33.6107238 117.4687940  61.1602986  40.3776480
 117.9442062  61.3530632  39.5695331 116.5453506  61.2162172  40.1319864
 104.3571447  62.3227153  29.9607558 104.1117489  61.4189483  30.1587768
 104.5267361  62.3244304  29.0187036 112.0468157  53.1950830  39.3432314
 112.5650101  53.9311856  39.0178802 111.6923290  53.5014823  40.1779073
 103.6267094  58.0555511  27.4593720 102.9336339  58.1299866  26.8033756
 103.3818846  57.2915854  27.9815237 112.2980751  49.6151112  34.8633210
 112.5782505  48.9474301  35.4893637 113.0831358  49.8080208  34.3507874
 110.1014219  68.7910106  26.4258237 109.5288187  69.4100293  25.9728709
 110.6747013  69.3409468  26.9598159 116.1689609  58.0368746  38.6104786
 117.1207032  58.1366844  38.6317010 115.9993060  57.2447015  39.1202870
 114.1903989  55.1224329  38.7964186 113.5953921  55.4029342  38.1010675
 113.9053685  55.6118230  39.5680928 113.3211479  69.0747256  27.5566819
 114.2542152  69.0092818  27.7599695 113.2334692  69.9103523  27.0981352
 115.9499496  68.3913126  24.5170767 115.8713127  68.0572990  25.4106524
 116.7709163  68.8834894  24.5162239 118.6477687  61.2574866  37.7247085
 118.6154007  60.3190866  37.9106769 119.2578311  61.3358902  36.9912910
 110.4861018  60.1270919  23.7674289 111.4320123  59.9977127  23.8362707
 110.1075263  59.3885581  24.2443717 118.7972176  58.0485909  37.7705368
 118.2811224  57.2644366  37.5835297 119.6812124  57.7204626  37.9351888
 116.4582902  51.7926925  33.7301181 116.2607724  51.4842013  34.6144513
 117.0682608  52.5188564  33.8599111 110.3699710  64.1788665  45.2274946
 111.2902720  64.3567264  45.4214993 110.3349293  63.2344710  45.0754645
 108.6703935  58.0520895  23.7029174 107.7635390  57.7554008  23.7791888
 108.9479916  57.7550713  22.8363461 103.3661783  62.0889700  37.8697727
 103.5847793  63.0206807  37.8885761 103.7787557  61.7297674  38.6552531
 110.2866001  52.5957785  29.8573416 109.4766729  52.2504870  30.2328662
 110.9750418  52.2865329  30.4461027 112.2156549  51.6735832  31.4797712
 112.7687588  52.0931285  32.1387736 112.4526635  50.7471580  31.5220668
 108.2389648  57.6622905  47.2600476 108.1386375  58.6117262  47.1912567
 108.0211190  57.3341144  46.3876546 107.4402720  54.9107830  23.8441154
 108.3021884  55.2362729  24.1036971 107.6253064  54.1239326  23.3314219
 115.5935356  53.7836357  30.9876377 115.0134025  54.4421161  30.6054429
 115.3271289  52.9613701  30.5763794 114.0438923  53.1841414  33.1897697
 114.5438701  53.2957949  32.3812016 114.6874530  52.8802467  33.8298505
 108.1020918  61.0920044  46.0765538 107.6188000  61.8920404  46.2829427
 108.1881857  61.1027989  45.1232982 104.0294256  64.9824579  38.1133972
 104.9837509  64.9508521  38.0463903 103.8306779  64.5215203  38.9284198
 104.6193638  63.5525695  40.6804769 105.4386527  64.0469774  40.7039607
 104.8930446  62.6357663  40.6522337 114.3760234  55.9436447  30.0432725
 113.4886089  56.2286098  29.8252920 114.7914223  55.7830211  29.1960002
 117.7274770  55.9682968  33.7587064 118.5035160  56.4579421  34.0311681
 117.0022904  56.3941022  34.2158934 120.1647329  56.6810587  34.8161005
 120.7591820  56.4406323  34.1054313 120.2373913  55.9617718  35.4434541
 102.3844485  70.5244198  35.1304170 102.2498953  69.7644599  34.5642168
 101.9676547  71.2485098  34.6632958 113.5203448  65.7081122  24.1380745
 114.2239298  65.9131124  24.7538401 112.7966096  66.2757884  24.4029828
 114.3501258  61.4590983  30.2583015 114.2936459  61.9159535  29.4190647
 114.9029600  60.6981668  30.0805858 118.1606064  57.2480715  31.0833135
 117.9042998  56.8477351  31.9141342 117.5358932  57.9624509  30.9583274
 122.4718402  59.9876788  33.5904426 121.9117960  60.0569978  34.3635988
 121.8661905  59.8117773  32.8703922 105.5413611  71.4213515  35.3422612
 105.4245995  72.3658948  35.2401303 104.7206057  71.1187077  35.7308411
 115.4290145  66.1463651  26.1879205 116.2635749  65.7144850  26.0056680
 115.2674488  65.9745665  27.1156099 115.0836037  62.6495764  27.5535544
 115.0284841  62.4840036  26.6123988 114.4582093  63.3571797  27.7097734
 112.3981944  64.9544676  46.8789107 113.2673104  65.1285328  46.5175742
 111.9188696  65.7739093  46.7564836 108.3932163  52.1503873  27.1320863
 108.3810833  53.0945713  27.2889134 109.2855585  51.9674019  26.8380324
 106.5668125  72.0741777  38.5578541 107.4695371  72.1065387  38.8745036
 106.3405495  71.1442228  38.5724876 108.3221727  70.8272764  35.2188619
 107.3717358  70.8274625  35.1052992 108.6254213  70.0805498  34.7024654
 112.2084282  48.7446650  31.3866799 111.4416678  48.1905137  31.5323482
 112.6194987  48.8168519  32.2480951 104.2126043  55.0331446  45.4771981
 105.0757505  54.6768251  45.6875305 103.6391454  54.6945341  46.1647385
 120.8664126  76.6160730  36.2195906 120.5282638  76.5001795  35.3316441
 121.7353895  76.2151895  36.1996913 116.7250942  78.4696207  32.2092797
 116.1615807  78.3786144  31.4409085 116.6103337  77.6496111  32.6895290
 121.3483909  77.7695582  42.1782112 121.3372550  77.3748380  41.3062616
 121.5104549  77.0361655  42.7715883 114.2715374  79.9647398  35.0477018
 115.0636666  79.6238223  34.6323317 114.5112024  80.0742373  35.9679171
 116.2306128  79.2256312  27.9194397 117.0037004  78.6785299  27.7807272
 116.5831527  80.0900561  28.1308858 118.0691171  80.5532694  41.1261296
 117.7781037  81.4578325  41.0107962 118.7048155  80.5949221  41.8405365
 118.9947377  77.9309542  37.7162656 119.5910950  77.7065565  37.0019618
 119.0522349  77.1894288  38.3188103 118.5672406  75.3848978  25.5512847
 118.8197927  74.8630499  24.7896310 117.6296965  75.2215123  25.6539530
 118.2868695  77.2877084  27.7537221 118.1704953  76.6121987  28.4218306
 118.3970954  76.8009458  26.9369375 120.6300235  76.7487231  31.4583911
 120.2658443  76.2217852  32.1696832 121.4867351  76.3585700  31.2850396
 120.2705722  71.7777130  26.4545259 120.4380125  72.6457367  26.8215730
 120.0802892  71.9404412  25.5306548 116.4793537  76.6907906  34.1547794
 115.5544034  76.5584120  34.3625486 116.7277950  77.4702125  34.6517736
 120.2494943  74.2334788  27.4391926 120.1294569  74.6791839  28.2777406
 119.5547532  74.5820106  26.8805464 113.8402348  76.3341180  34.9891583
 113.9694729  76.5875659  35.9030995 113.1599799  76.9268888  34.6696238
 118.0101835  87.0038430  31.0882057 117.9325865  87.9546255  31.1670538
 117.4063479  86.6584302  31.7456984 120.5019065  74.1766295  43.7443424
 119.7252399  74.7360215  43.7346289 121.1409628  74.6623078  44.2658294
 118.7565438  76.9851748  43.3061391 119.4980122  77.5236792  43.0296215
 118.0502423  77.6118037  43.4632943 120.5851847  74.0653496  39.2767110
 121.4313042  74.4892909  39.4201759 120.5250485  73.4087120  39.9705673
 120.1077554  79.4256488  32.9235927 120.5715899  79.7044191  32.1340549
 119.8434352  78.5239932  32.7409017 117.0001635  78.9727969  35.8615690
 117.5702992  79.4015238  35.2233174 117.5909747  78.6910554  36.5599876
 119.0446440  75.5479640  29.7325492 119.7470483  76.0000684  30.1999418
 118.7127068  74.9063459  30.3605385 117.4926801  74.1391397  44.1076701
 116.8625462  74.8207677  44.3412098 117.3862889  74.0274478  43.1629839
 112.7871774  73.8063193  35.0342625 111.9970828  74.0620721  34.5582736
 113.2783021  74.6211530  35.1394666 114.7386519  74.1707772  31.9926102
 113.9417682  74.2826466  32.5109598 114.5112111  74.5094424  31.1266993
 120.5692187  80.6952475  39.9408617 120.6336619  81.1572882  40.7766789
 119.8603111  80.0649840  40.0690927 111.0709477  74.0593683  37.4657616
 111.3217515  74.9440693  37.7315192 111.6069025  73.8798285  36.6932708
 120.2840204  82.3620583  29.8087597 120.1485879  83.2072118  30.2372445
 120.8250017  82.5639860  29.0453531 116.7707544  68.4412162  46.4701952
 116.3774490  67.8878361  47.1449596 117.5873684  68.7522741  46.8608470
 113.7369602  79.8796021  30.3815522 114.2494122  80.6739271  30.5321087
 114.3892315  79.1822311  30.3149124 115.5464486  82.9961777  32.4638275
 115.7231115  83.9179742  32.2759259 116.3421320  82.6820196  32.8932655
 119.6875505  69.8570042  44.0622209 120.4285218  70.4577195  43.9826671
 119.9193428  69.1147679  43.5040251 114.8316843  75.0426409  42.3400438
 114.7170358  74.1411666  42.6407537 113.9761361  75.2890106  41.9885255
 116.6695802  84.5139951  38.4648618 117.2203227  84.3857014  37.6925612
 115.8307278  84.8134840  38.1143510 120.4662973  80.7791079  42.8092849
 120.9991310  80.0179367  42.5792157 119.9377054  80.4864730  43.5517003
 111.7018519  78.2084675  31.1575093 112.5393741  78.6181683  30.9408800
 111.8796786  77.2684117  31.1275287 121.1830062  70.7209456  31.9044164
 120.3271658  70.3316307  31.7249803 121.5957013  70.8001417  31.0443950
 118.9572094  68.3394529  35.3101905 119.8225091  68.1437338  34.9507795
 119.0249603  68.1104881  36.2371262 121.8315686  79.9077071  30.3211661
 121.3037047  79.1729831  30.0084898 121.3303188  80.6851747  30.0751629
 116.5634413  70.5696737  32.6818272 117.1378165  70.3471919  31.9491465
 117.1505396  70.6385432  33.4346874 116.8904000  72.6001198  26.7014158
 116.0541313  72.9375885  27.0223432 116.7508770  72.4650178  25.7641295
 118.8657081  67.4437986  31.4093342 118.2121493  67.1287003  30.7849956
 118.8237555  66.8213727  32.1353165 119.9768286  77.7257281  23.3246634
 119.0695348  77.4946535  23.5237783 120.4739318  76.9294901  23.5120615
 121.1556519  77.8269876  27.8470624 120.2467739  77.5428909  27.9443094
 121.1851603  78.2468955  26.9873931 111.7244690  75.5475390  31.8285826
 111.5269089  74.9544751  31.1036893 111.1691354  75.2427600  32.5461765
 119.7041413  75.4398497  33.9480419 119.7590023  74.4872333  33.8722896
 118.8932615  75.5957936  34.4321718 120.8532607  79.3678620  25.1858702
 120.4152037  78.6514479  24.7264340 121.5943048  79.5954735  24.6243794
 117.6433773  74.0575556  31.7070798 116.8301639  74.3569727  32.1135990
 118.1392767  73.6631245  32.4245280 119.7942351  84.0533313  33.6405063
 119.7518530  84.2794160  32.7113595 120.7105050  83.8196688  33.7890864
 117.1347848  71.6293912  37.3232033 117.7747227  71.4882671  36.6254996
 116.3025379  71.3428425  36.9470635 117.9108152  80.9296342  33.4367026
 118.7048750  80.4346663  33.2349600 117.1999844  80.4014206  33.0734731
 114.2190915  75.0739424  29.5126778 113.2888503  75.0123880  29.7296740
 114.3148387  74.5515377  28.7163419 114.1376464  71.5994237  32.1005020
 114.3983282  72.5139570  31.9914180 114.9593637  71.1318680  32.2501633
 115.6101390  73.0131994  39.2703844 116.2824443  72.8049356  38.6216493
 114.7831176  72.8154080  38.8309077 121.5126962  69.6393935  41.2869505
 120.8654877  70.3383885  41.1933982 122.2827977  70.0730079  41.6545753
 120.4879428  81.5025364  37.1164863 120.3490514  81.1344149  37.9890801
 119.6994024  82.0173004  36.9448820 121.0827580  86.6034461  28.4590399
 121.2579336  86.1322504  29.2736022 120.3960368  87.2300227  28.6871660
 122.0384643  80.8806967  34.5053700 121.7034476  80.8407737  35.4011350
 121.5388589  80.2151683  34.0324111 116.0128887  76.2874597  40.0306282
 115.8748685  75.5554836  40.6317821 116.9233810  76.1983497  39.7490469
 118.6411188  75.9994556  39.5189961 119.3510806  75.3587749  39.4776580
 118.5980496  76.2507451  40.4416142 117.3540122  72.9859774  41.3385601
 116.8177479  72.5350513  41.9907197 116.7656830  73.1205683  40.5956065
 115.6488665  89.7523824  35.2330259 115.8885263  90.3842348  35.9109278
 114.8057862  89.4011864  35.5195619 116.7642381  72.4448426  23.9012064
 115.8871847  72.3237227  23.5374311 117.2400134  71.6534504  23.6490953
 108.2844521  77.2325585  33.9953571 108.9715561  76.9187316  33.4074587
 108.1292649  78.1366950  33.7220823 113.0879243  72.1215782  38.4238595
 113.0037432  71.5141452  37.6889005 112.2661949  72.6124800  38.4248092
 120.1616527  85.5602946  37.6371763 120.0886699  86.3657918  38.1491068
 119.7193920  85.7594912  36.8119785 119.9506307  84.7974716  31.1474585
 119.1673829  85.3396396  31.2412809 120.6499052  85.3148696  31.5468826
 119.8437926  72.7486729  33.5180475 119.4735713  72.1957769  34.2061380
 120.3397018  72.1444862  32.9655475 117.6727124  83.2084224  40.6135493
 118.3736584  83.8420707  40.7664887 117.2022239  83.5498955  39.8531132
 121.5215983  76.5048642  44.9254080 120.8456620  76.4042771  45.5956455
 122.3443617  76.3487856  45.3890077 113.2694842  82.7420579  37.5466595
 113.8548279  81.9964267  37.6794500 113.0719681  83.0524535  38.4303259
 116.1233497  85.7771826  32.5629038 115.4543873  86.2617954  32.0793078
 115.9846367  86.0241046  33.4772416 107.8612497  75.3126179  36.2671039
 107.8996596  74.7789770  37.0608157 107.3552790  74.7861384  35.6482016
 120.2638766  87.8115570  39.1611696 120.8157074  87.9747191  39.9260781
 120.6044959  88.4020007  38.4891721 115.2403259  70.1590719  39.7633581
 115.3044586  71.0205550  39.3510979 115.1770379  69.5464721  39.0305939
 114.7155532  72.2313852  43.4106615 115.3427571  71.8490929  44.0244139
 113.8583451  72.0128054  43.7762308 111.4921074  74.0390281  29.3424970
 111.7874516  73.1300959  29.2892024 110.5909110  74.0178020  29.0205972
 115.0215321  72.1146278  35.3252519 114.3001907  72.7282245  35.1859992
 115.8108577  72.6504042  35.2469165 117.8241635  69.4500704  41.5993170
 118.3476037  69.6963001  42.3619480 117.6053968  70.2820739  41.1796308
 113.2208916  71.7204379  29.4664295 112.8921622  70.8401758  29.2839401
 113.5748287  71.6652047  30.3540684 116.3350739  72.0077348  29.8339773
 116.6746812  72.5363270  29.1118381 116.7822860  72.3457755  30.6098339
 119.0294180  70.3914399  39.2842841 118.6891000  69.5922212  39.6863521
 118.3233186  70.6916110  38.7119674 119.6810652  67.4763712  37.7370164
 120.5036721  67.0024190  37.6149054 119.9248715  68.2554195  38.2368850
 118.3218886  70.5051970  28.0333066 119.0427249  70.8833223  27.5296782
 117.6984190  71.2240847  28.1368044 117.2049231  74.1682832  35.5462142
 117.0593811  74.4823135  36.4386424 116.7274434  74.7867733  34.9933041
 119.0645613  71.1585380  35.5943032 119.0507182  70.2626474  35.2575330
 119.7818042  71.1656044  36.2281318 120.9171744  71.5922720  37.6396159
 120.6589522  72.5139791  37.6380490 120.3856785  71.1953155  38.3296624
 111.6794893  76.7088177  38.4849804 111.1348361  77.4847985  38.6170078
 112.5574243  77.0558981  38.3268925 118.4682509  70.0399761  30.8630602
 118.5898421  69.1116407  31.0621490 118.1784552  70.0538446  29.9508918
 121.3373700  67.7254671  33.9997322 121.3595397  67.7894004  33.0449302
 121.7541759  66.8859180  34.1937828 112.4660915  75.8358073  41.3779961
 111.7242651  75.9840708  41.9644591 112.1453659  76.0966339  40.5146710
 120.4104577  85.3774051  41.1760351 120.7191704  85.1323198  42.0483050
 121.2080059  85.5820690  40.6879221 120.4325189  87.5311961  33.4065727
 119.9930180  87.0388339  34.0998584 121.1833306  86.9884928  33.1657802
 112.9117528  83.7223502  33.4090355 113.7375548  83.4227273  33.0288999
 112.5611580  82.9531124  33.8580144 117.8799061  83.0749970  35.4788029
 117.2579071  82.4120675  35.1790257 118.5503928  83.1011102  34.7961677
 111.1126133  81.6409828  34.3679289 110.2758042  81.2132002  34.1863290
 111.0849779  81.8342271  35.3050080 117.9523589  71.5531758  45.0720535
 118.0011744  72.4293881  44.6898304 118.4946103  71.0109151  44.4992178
 117.4412568  81.6253893  28.9546489 117.5900689  82.3089358  28.3013162
 118.2479012  81.6058983  29.4695945 120.1822877  72.3063130  41.8266893
 119.3126187  72.5996696  41.5549482 120.4182358  72.8903575  42.5474157
 115.1965201  77.6519071  29.9607558 114.9511243  76.7481401  30.1587768
 115.3661116  77.6536221  29.0187036 114.4660849  73.3847428  27.4593720
 113.7730094  73.4591783  26.8033756 114.2212601  72.6207772  27.9815237
 120.9407974  84.1202024  26.4258237 120.3681941  84.7392211  25.9728709
 121.5140768  84.6701385  26.9598159 121.3254772  75.4562836  23.7674289
 122.2713877  75.3269044  23.8362707 120.9469017  74.7177498  24.2443717
 121.2093465  79.5080583  45.2274946 122.1296474  79.6859182  45.4214993
 121.1743048  78.5636628  45.0754645 119.5097690  73.3812813  23.7029174
 118.6029145  73.0845925  23.7791888 119.7873671  73.0842631  22.8363461
 110.4275630  74.7019176  34.1528221 110.1078414  73.8484484  33.8602595
 109.8809058  74.9167754  34.9086188 114.2055537  77.4181617  37.8697727
 114.4241547  78.3498725  37.8885761 114.6181311  77.0589592  38.6552531
 121.1259755  67.9249702  29.8573416 120.3160484  67.5796787  30.2328662
 121.8144172  67.6157246  30.4461027 119.0783403  72.9914823  47.2600476
 118.9780130  73.9409180  47.1912567 118.8604945  72.6633062  46.3876546
 118.2796474  70.2399748  23.8441154 119.1415638  70.5654646  24.1036971
 118.4646818  69.4531244  23.3314219 110.2963890  78.3222088  36.1221342
 109.6027361  77.9076040  35.6091297 111.0436881  78.3642624  35.5254761
 118.9414673  76.4211962  46.0765538 118.4581755  77.2212322  46.2829427
 119.0275612  76.4319907  45.1232982 112.2100632  78.2540341  33.9987357
 112.1871321  78.3528029  33.0469240 112.5201269  79.1005492  34.3204523
 114.8688010  80.3116496  38.1133972 115.8231264  80.2800439  38.0463903
 114.6700534  79.8507120  38.9284198 115.4587392  78.8817613  40.6804769
 116.2780281  79.3761691  40.7039607 115.7324200  77.9649581  40.6522337
 113.2238239  85.8536116  35.1304170 113.0892707  85.0936517  34.5642168
 112.8070301  86.5777016  34.6632958 116.3807365  86.7505433  35.3422612
 116.2639749  87.6950865  35.2401303 115.5599811  86.4478995  35.7308411
 110.7122307  73.2155746  41.3796966 111.3581170  72.7054700  41.8684192
 110.5039458  73.9524428  41.9540392 119.2325917  67.4795791  27.1320863
 119.2204587  68.4237631  27.2889134 120.1249339  67.2965936  26.8380324
 117.4061879  87.4033695  38.5578541 118.3089126  87.4357305  38.8745036
 117.1799249  86.4734146  38.5724876 119.1615481  86.1564681  35.2188619
 118.2111112  86.1566543  35.1052992 119.4647967  85.4097416  34.7024654
 115.0519798  70.3623363  45.4771981 115.9151259  70.0060168  45.6875305
 114.4785208  70.0237258  46.1647385 121.9103231  89.3885601  37.4657616
 122.1611270  90.2732611  37.7315192 122.4462780  89.2090202  36.6932708
 119.1238275  92.5617503  33.9953571 119.8109315  92.2479233  33.4074587
 118.9686404  93.4658868  33.7220823 118.7006251  90.6418097  36.2671039
 118.7390351  90.1081687  37.0608157 118.1946544  90.1153302  35.6482016
 121.9519888  96.9701746  34.3679289 121.1151796  96.5423920  34.1863290
 121.9243533  97.1634189  35.3050080 121.2669384  90.0311094  34.1528221
 120.9472169  89.1776402  33.8602595 120.7202813  90.2459672  34.9086188
 121.1357644  93.6514005  36.1221342 120.4421116  93.2367958  35.6091297
 121.8830635  93.6934542  35.5254761 121.5516061  88.5447664  41.3796966
 122.1974925  88.0346618  41.8684192 121.3433212  89.2816346  41.9540392
  74.6526819   2.6932882  17.8127364  74.5750848   3.6440707  17.8915844
  74.0488462   2.3478754  18.4702290  72.2913648   5.4418276  21.9575566
  72.5310247   6.0736800  22.6354584  71.4482845   5.0906316  22.2440925
  72.7658481   1.4666278  19.2874344  72.0968856   1.9512406  18.8038385
  72.6271350   1.7135498  20.2017723  76.9063749   3.5010021  25.8857003
  77.4582057   3.6641643  26.6506088  77.2469943   4.0914459  25.2137028
  77.0750173   3.2206413  20.1311034  76.6355163   2.7282791  20.8243890
  77.8258290   2.6779380  19.8903109  69.8663222   1.5430568  21.8549476
  69.7317690   0.7830969  21.2887474  69.4495285   2.2671468  21.3878265
  73.0232348   2.4399885  22.0667919  72.9064732   3.3845317  21.9646609
  72.2024795   2.1373446  22.4553718  74.0486862   3.0928147  25.2823847
  74.9514109   3.1251757  25.5990342  73.8224233   2.1628598  25.2970183
  88.3482864   7.6347100  22.9441213  88.0101376   7.5188165  22.0561748
  89.2172632   7.2338265  22.9242219  84.2069680   9.4882576  18.9338104
  83.6434545   9.3972513  18.1654392  84.0922075   8.6682481  19.4140597
  88.8302647   8.7881952  28.9027419  88.8191288   8.3934750  28.0307922
  88.9923287   8.0548024  29.4961190  81.7534112  10.9833768  21.7722324
  82.5455404  10.6424592  21.3568624  81.9930762  11.0928743  22.6924478
  89.7869239  13.1553544  14.2452569  89.1357218  13.7407624  13.8586583
  90.5813601  13.6859739  14.3047606  83.7124866  10.2442681  14.6439703
  84.4855742   9.6971668  14.5052579  84.0650265  11.1086930  14.8554165
  85.5509908  11.5719063  27.8506603  85.2599774  12.4764694  27.7353269
  86.1866893  11.6135591  28.5650672  86.4766115   8.9495912  24.4407962
  87.0729687   8.7251934  23.7264925  86.5341087   8.2080657  25.0433410
  85.7687432   8.3063453  14.4782528  85.6523690   7.6308357  15.1463612
  85.8789692   7.8195827  13.6614681  88.1118973   7.7673600  18.1829217
  87.7477181   7.2404221  18.8942139  88.9686089   7.3772069  18.0095703
  90.5099793  11.2580479  24.8456396  90.2100517  12.1605518  24.7372203
  90.1650853  10.9912662  25.6977549  83.9612275   7.7094276  20.8793101
  83.0362771   7.5770490  21.0870792  84.2096688   8.4888495  21.3763043
  81.3221086   7.3527549  21.7136890  81.4513467   7.6062028  22.6276301
  80.6418537   7.9455257  21.3941545  85.4920573  18.0224799  17.8127364
  85.4144603  18.9732624  17.8915844  84.8882217  17.6770672  18.4702290
  86.2384175   8.0038118  30.0306698  86.9798860   8.5423162  29.7541521
  85.5321161   8.6304407  30.1878250  91.7139515  10.1467258  28.6278859
  92.1222871   9.7049669  27.8833492  90.9916776   9.5719886  28.8813052
  92.0368330  10.7068449  22.3831148  91.4077192  10.8714163  21.6807216
  91.6493992  11.1210059  23.1542112  95.9157561  11.6422887  19.7375512
  95.2308600  12.0221788  19.1872545  96.0001411  12.2518214  20.4707460
  93.1708493   9.2882846  26.3370855  93.3825388   9.9314606  25.6605237
  93.1238241   8.4545163  25.8692786  87.5896291  10.4442857  19.6481233
  88.0534637  10.7230560  18.8585856  87.3253090   9.5426302  19.4654324
  84.4820373   9.9914339  22.5860997  85.0521730  10.4201607  21.9478481
  85.0728484   9.7096923  23.2845182  86.5265178   6.5666010  16.4570798
  87.2289221   7.0187053  16.9244725  86.1945806   5.9249828  17.0850692
  84.9745539   5.1577766  30.8322008  84.3444200   5.8394047  31.0657405
  84.8681627   5.0460848  29.8875146  80.2690511   4.8249562  21.7587932
  79.4789565   5.0807091  21.2828043  80.7601759   5.6397900  21.8639973
  94.2854321  12.1654801  24.5093213  95.1071765  11.7634989  24.2275894
  94.2816724  12.0623036  25.4609329  82.2205257   5.1894141  18.7171409
  81.4236420   5.3012836  19.2354904  81.9930849   5.5280794  17.8512299
  88.0510924  11.7138845  26.6653923  88.1155357  12.1759252  27.5012095
  87.3421848  11.0836210  26.7936233  78.5528214   5.0780053  24.1902923
  78.8036253   5.9627063  24.4560499  79.0887763   4.8984654  23.4178015
  87.7658942  13.3806952  16.5332904  87.6304617  14.2258488  16.9617751
  88.3068755  13.5826230  15.7698837  81.2188340  10.8982390  17.1060829
  81.7312860  11.6925640  17.2566393  81.8711052  10.2008681  17.0394430
  83.0283224  14.0148146  19.1883582  83.2049853  14.9366111  19.0004566
  83.8240058  13.7006566  19.6177962  82.3135581   6.0612778  29.0645745
  82.1989096   5.1598036  29.3652844  81.4580099   6.3076475  28.7130562
  89.3927419  14.0030519  30.6633246  88.9491273  13.2166897  30.3454150
  90.0544632  14.1909669  29.9977137  84.1514540  15.5326320  25.1893924
  84.7021965  15.4043384  24.4170918  83.3126016  15.8321209  24.8388817
  91.4908657  14.2833319  28.6914647  91.4727132  15.1042200  28.1994916
  92.4128577  14.1587394  28.9164788  87.9481711  11.7977448  29.5338155
  88.4810048  11.0365736  29.3037463  87.4195792  11.5051100  30.2762310
  79.1837256   9.2271045  17.8820399  80.0212478   9.6368053  17.6654107
  79.3615524   8.2870487  17.8520593  89.3134423  10.9263441  17.0456967
  88.7855785  10.1916200  16.7330205  88.8121926  11.7038117  16.7996936
  94.2927269   9.1212461  22.1624014  93.6350944   9.8111722  22.2504142
  95.0967669   9.5108893  22.5058000  90.3655103  17.4541158  12.9688627
  89.6916801  17.7572855  13.5773584  90.7520924  18.2570238  12.6194084
  93.8694524  12.4562835  18.3407098  93.4156852  11.6153745  18.3972289
  93.2388491  13.0924234  18.6781878  92.3127464  14.2939332  19.2756916
  92.6050438  14.8544389  18.5569282  92.8226084  14.5867893  20.0310075
  79.2063427   6.5661760  18.5531133  79.0087827   5.9731121  17.8282199
  78.6510091   6.2613970  19.2707072  87.2761089  15.0719683  20.3650369
  87.2337268  15.2980529  19.4358901  88.1923788  14.8383058  20.5136171
  96.4793839  10.7298713  22.9791599  96.9130346  10.6374003  23.8274653
  97.1925420  10.7056214  22.3411615  85.3926890  11.9482712  20.1612332
  86.1867488  11.4533032  19.9594907  84.6818582  11.4200575  19.7980038
  90.2121734  14.3300808  24.5124700  90.2658756  14.8991744  25.2802416
  89.3436516  14.5002693  24.1478737  81.7009653   6.0925794  16.2372085
  80.7707241   6.0310249  16.4542047  81.7967125   5.5701746  15.4408726
  97.3409389  10.7722414  25.5124485  97.5345279  11.6768225  25.7583759
  97.2410007  10.3129833  26.3463070  92.4024498  10.9229157  31.0865365
  92.2510004  10.6939709  30.1695449  92.3929177  11.8799758  31.0996710
  89.1709834   8.4961070  26.0711632  90.1001894   8.6472229  25.8980599
  88.7500864   8.5845090  25.2160278  87.9698166  12.5211734  23.8410169
  87.8309251  12.1530518  24.7136107  87.1812762  13.0359373  23.6694127
  88.5646318  17.6220830  15.1835706  88.7398073  17.1508874  15.9981328
  87.8779106  18.2486597  15.4116966  89.5203381  11.8993337  21.2299007
  89.1853213  11.8594107  22.1256657  89.0207327  11.2338053  20.7569417
  83.4947625   7.3060967  26.7551588  83.3567423   6.5741206  27.3563127
  84.4052548   7.2169867  26.4735776  86.1229925   7.0180926  26.2435268
  86.8329544   6.3774118  26.2021886  86.0799234   7.2693821  27.1661449
  94.1116704  13.9548279  29.1641847  94.0529250  13.2707499  28.4972430
  94.5136223  14.6967269  28.7122473  83.1307403  20.7710193  21.9575566
  83.3704001  21.4028717  22.6354584  82.2876599  20.4198233  22.2440925
  94.1134111  11.9187863  27.3955827  93.2260890  11.5813785  27.5182226
  94.6832662  11.1870895  27.6324592  75.7663259   8.2511955  20.7198878
  76.4534298   7.9373685  20.1319893  75.6111387   9.1553320  20.4466130
  87.6435265  16.5789316  24.3617070  87.5705436  17.3844287  24.8736374
  87.2012658  16.7781281  23.5365091  87.4325044  15.8161086  17.8719891
  86.6492566  16.3582766  17.9658116  88.1317790  16.3335065  18.2714133
  90.1033948  16.4776150  26.5175229  90.8161921  17.1123615  26.4451130
  89.6123977  16.5740016  25.7015230  91.8251475  10.3827402  18.0892520
  90.8907754  10.5028865  17.9197225  92.0028144   9.4799869  17.8252530
  85.1545862  14.2270593  27.3380799  85.8555321  14.8607076  27.4910194
  84.6840977  14.5685325  26.5776439  89.9154322  16.8174894  19.2661520
  90.0976716  15.9996550  19.7289272  90.7387308  17.0342586  18.8286410
  90.2496487  15.7443079  16.5276569  90.7784254  15.2335533  15.9146731
  90.5124707  15.4285609  17.3922102  89.0034721   7.5235012  31.6499387
  88.3275358   7.4229141  32.3201762  89.8262355   7.3674225  32.1135384
  80.7513580  13.7606948  24.2711902  81.3367017  13.0150636  24.4039806
  80.5538418  14.0710905  25.1548566  83.6052235  16.7958196  19.2874344
  82.9362610  17.2804323  18.8038385  83.4665105  17.0427416  20.2017723
  75.3431235   6.3312548  22.9916345  75.3815334   5.7976139  23.7853463
  74.8371527   5.8047754  22.3727322  87.7457504  18.8301939  25.8857003
  88.2975812  18.9933561  26.6506088  88.0863697  19.4206377  25.2137028
  92.5968378  13.6563197  31.7405657  93.1408282  14.2693155  31.2460612
  92.0155223  14.2142775  32.2572670  78.9739812   5.0576651  16.0670277
  79.2693253   4.1487329  16.0137330  78.0727848   5.0364390  15.7451279
  90.8825891  16.7783915  22.8720685  90.7577030  15.9773654  22.3631630
  91.5404982  17.2730108  22.3834655  92.9460799  14.5792935  24.5000235
  91.9991135  14.4598286  24.4278562  93.2943573  13.6915433  24.5826497
  89.9507233  14.3745651  20.7004587  89.8032195  13.4462358  20.8812157
  90.7760726  14.3965742  20.2161663  93.5541355  15.1974210  21.7869460
  94.4787902  14.9917071  21.6493911  93.3856658  14.9490611  22.6958802
  84.6867968   5.1869202  22.2707449  84.5412549   5.5009505  23.1631731
  84.2093172   5.8054102  21.7178348  93.3436671  15.7159877  17.1431552
  93.5173548  15.1506300  16.3905404  93.8365562  16.5160772  16.9611041
  79.1613631   7.7274546  25.2095110  78.6167099   8.5034354  25.3415385
  80.0392980   8.0745351  25.0514232  79.9479652   6.8544442  28.1025267
  79.2061388   7.0027078  28.6889898  79.6272397   7.1152708  27.2392017
  87.8923315  16.3960421  27.9005657  88.2010442  16.1509567  28.7728357
  88.6898797  16.6007059  27.4124527  87.9143927  18.5498330  20.1311034
  87.4748917  18.0574709  20.8243890  88.6652044  18.0071298  19.8903109
  80.3936266  14.7409871  20.1335662  81.2194286  14.4413643  19.7534305
  80.0430318  13.9717494  20.5825450  85.3617799  14.0936339  22.2033335
  84.7397809  13.4307044  21.9035563  86.0322666  14.1197471  21.5206983
  78.5944871  12.6596198  21.0924595  77.7576779  12.2318372  20.9108597
  78.5668517  12.8528641  22.0295387  95.9197172  13.1159251  31.0766979
  95.1292716  13.0983390  30.5371478  95.6830527  13.6547544  31.8316015
  96.0395047   9.9651717  28.3899707  96.0893052   9.8001725  29.3315230
  95.9308971   9.0978976  27.9997588  84.9231306  12.6440263  15.6791796
  85.0719427  13.3275727  15.0258469  85.7297750  12.6245353  16.1941252
  97.5413244  12.3848659  28.6341729  97.2498053  12.7478639  29.4705190
  96.9285376  11.6715667  28.4555061  82.6783939   8.6705440  16.6852865
  82.4329981   7.7667770  16.8833075  82.8479854   8.6722591  15.7432343
  88.4226712  15.1388393  13.1503543  87.8500679  15.7578580  12.6974015
  88.9959505  15.6887755  13.6843465  91.6423971  15.4225543  14.2812126
  92.5754645  15.3571105  14.4845001  91.5547184  16.2581810  13.8226658
  88.6912203  10.5266952  31.9520253  89.6115212  10.7045551  32.1460299
  88.6561786   9.5822997  31.7999952  77.9094368   5.7205546  20.8773527
  77.5897152   4.8670854  20.5847902  77.3627796   5.9354124  21.6331495
  81.6874275   8.4367987  24.5943034  81.9060285   9.3685095  24.6131068
  82.1000049   8.0775961  25.3797838  77.7782628   9.3408457  22.8466649
  77.0846099   8.9262410  22.3336603  78.5255619   9.3828994  22.2500068
  86.4233411   7.4398331  32.8010845  85.9400492   8.2398691  33.0074734
  86.5094350   7.4506276  31.8478289  79.6919370   9.2726711  20.7232664
  79.6690058   9.3714398  19.7714547  80.0020007  10.1191862  21.0449830
  82.3506748  11.3302866  24.8379278  83.3050002  11.2986808  24.7709210
  82.1519272  10.8693490  25.6529504  82.9406130   9.9003982  27.4050076
  83.7599019  10.3948061  27.4284913  83.2142938   8.9835950  27.3767644
  80.7056977  16.8722486  21.8549476  80.5711445  16.1122886  21.2887474
  80.2889039  17.5963385  21.3878265  83.8626103  17.7691803  22.0667919
  83.7458487  18.7137235  21.9646609  83.0418549  17.4665364  22.4553718
  78.1941045   4.2342116  28.1042273  78.8399908   3.7241070  28.5929498
  77.9858196   4.9710798  28.6785698  90.7194437  11.3022963  33.6034414
  91.5885596  11.4763616  33.2421049  90.2401188  12.1217380  33.4810143
  84.8880617  18.4220064  25.2823847  85.7907864  18.4543675  25.5990342
  84.6617987  17.4920515  25.2970183  86.6434219  17.1751051  21.9433926
  85.6929850  17.1752913  21.8298298  86.9466705  16.4283786  21.4269961
 102.3786912  23.0111589  23.0079688 103.0165322  22.8918337  22.3043028
 102.2607755  23.9592433  23.0667640  99.1876619  22.9639017  22.9441213
  98.8495130  22.8480082  22.0561748 100.0566387  22.5630183  22.9242219
  95.0463434  24.8174494  18.9338104  94.4828300  24.7264431  18.1654392
  94.9315829  23.9974398  19.4140597  99.6696402  24.1173869  28.9027419
  99.6585042  23.7226667  28.0307922  99.8317041  23.3839942  29.4961190
  92.5927866  26.3125686  21.7722324  93.3849158  25.9716510  21.3568624
  92.8324517  26.4220661  22.6924478 100.6262993  28.4845462  14.2452569
  99.9750973  29.0699542  13.8586583 101.4207356  29.0151657  14.3047606
  94.5518620  25.5734599  14.6439703  95.3249496  25.0263586  14.5052579
  94.9044019  26.4378848  14.8554165  96.3903663  26.9010981  27.8506603
  96.0993529  27.8056612  27.7353269  97.0260647  26.9427509  28.5650672
  97.3159870  24.2787830  24.4407962  97.9123442  24.0543852  23.7264925
  97.3734841  23.5372575  25.0433410 101.9328181  20.7363043  20.0832896
 102.7191270  20.3182466  19.7323313 102.1966885  21.6409135  20.2514545
  96.6081187  23.6355371  14.4782528  96.4917445  22.9600274  15.1463612
  96.7183447  23.1487745  13.6614681  98.9512728  23.0965518  18.1829217
  98.5870935  22.5696139  18.8942139  99.8079844  22.7063987  18.0095703
 104.8562028  14.3859851  25.4460483 104.5245353  15.2555262  25.2221698
 104.2607642  14.0696135  26.1254514 101.3493548  26.5872397  24.8456396
 101.0494271  27.4897435  24.7372203 101.0044607  26.3204580  25.6977549
  94.8006029  23.0386193  20.8793101  93.8756526  22.9062407  21.0870792
  95.0490443  23.8180413  21.3763043 104.7490692  19.1054937  22.5253834
 103.8407569  19.0370345  22.2312595 104.6978288  19.5826882  23.3535659
  92.1614840  22.6819467  21.7136890  92.2907222  22.9353946  22.6276301
  91.4812292  23.2747175  21.3941545  96.3314328  33.3516717  17.8127364
  96.2538357  34.3024542  17.8915844  95.7275971  33.0062589  18.4702290
  98.8231557  20.5244582  30.4688731  98.0464892  21.0838502  30.4591595
  99.4622121  21.0101365  30.9903601 106.6152338  17.3071375  24.3031707
 105.9726718  17.6003908  23.6571502 106.1107267  17.1924295  25.1084904
  97.0777930  23.3330036  30.0306698  97.8192614  23.8715080  29.7541521
  96.3714915  23.9596324  30.1878250 102.5533269  25.4759176  28.6278859
 102.9616625  25.0341587  27.8833492 101.8310531  24.9011804  28.8813052
  98.9064339  20.4131783  26.0012416  99.7525535  20.8371196  26.1447065
  98.8462977  19.7565407  26.6950979 102.8762084  26.0360367  22.3831148
 102.2470947  26.2006081  21.6807216 102.4887746  26.4501976  23.1542112
 106.7551316  26.9714805  19.7375512 106.0702354  27.3513706  19.1872545
 106.8395165  27.5810131  20.4707460 102.0563785  18.0736151  27.6593590
 101.8124717  18.8278212  27.1227866 102.3323715  18.4521499  28.4940837
 104.0102248  24.6174764  26.3370855 104.2219143  25.2606524  25.6605237
 103.9631996  23.7837080  25.8692786 101.6128477  17.2292584  23.2407428
 100.7512956  17.5273838  23.5324165 101.6390911  17.4462983  22.3088460
  98.4290046  25.7734775  19.6481233  98.8928392  26.0522478  18.8585856
  98.1646844  24.8718219  19.4654324  95.3214127  25.3206256  22.5860997
  95.8915484  25.7493525  21.9478481  95.9122239  25.0388841  23.2845182
  97.3658932  21.8957927  16.4570798  98.0682975  22.3478971  16.9244725
  97.0339561  21.2541746  17.0850692  95.8139294  20.4869684  30.8322008
  95.1837954  21.1685965  31.0657405  95.7075381  20.3752765  29.8875146
  91.1084266  20.1541480  21.7587932  90.3183320  20.4099008  21.2828043
  91.5995513  20.9689818  21.8639973 105.1248076  27.4946719  24.5093213
 105.9465519  27.0926906  24.2275894 105.1210478  27.3914953  25.4609329
  93.0599011  20.5186059  18.7171409  92.2630175  20.6304753  19.2354904
  92.8324604  20.8572711  17.8512299  98.8904679  27.0430762  26.6653923
  98.9549112  27.5051170  27.5012095  98.1815603  26.4128127  26.7936233
  89.3921969  20.4071970  24.1902923  89.6430007  21.2918980  24.4560499
  89.9281517  20.2276572  23.4178015  98.6052697  28.7098870  16.5332904
  98.4698371  29.5550406  16.9617751  99.1462509  28.9118147  15.7698837
  95.0920036  14.7890450  33.1947259  94.6986982  14.2356648  33.8694903
  95.9086177  15.1001028  33.5853776  92.0582094  26.2274308  17.1060829
  92.5706615  27.0217558  17.2566393  92.7104807  25.5300598  17.0394430
  93.8676979  29.3440064  19.1883582  94.0443607  30.2658029  19.0004566
  94.6633812  29.0298483  19.6177962  98.0087997  16.2048329  30.7867515
  98.7497711  16.8055482  30.7071978  98.2405920  15.4625967  30.2285558
  93.1529335  21.3904696  29.0645745  93.0382850  20.4889953  29.3652844
  92.2973853  21.6368393  28.7130562 100.2321173  29.3322436  30.6633246
  99.7885027  28.5458815  30.3454150 100.8938387  29.5201587  29.9977137
  94.9908294  30.8618238  25.1893924  95.5415719  30.7335301  24.4170918
  94.1519770  31.1613127  24.8388817 102.3302411  29.6125236  28.6914647
 102.3120886  30.4334117  28.1994916 103.2522331  29.4879311  28.9164788
  98.7875465  27.1269366  29.5338155  99.3203802  26.3657654  29.3037463
  98.2589546  26.8343018  30.2762310 101.9545160  12.2329432  25.0631797
 101.6109430  13.1231073  24.9870908 102.3224123  12.0431089  24.2001382
  90.0231011  24.5562962  17.8820399  90.8606233  24.9659971  17.6654107
  90.2009279  23.6162404  17.8520593 101.0341701  14.6034087  23.0281030
 100.5306496  14.5664222  22.2148836 101.3272307  15.5126830  23.0877687
  97.2784586  14.6872817  22.0347212  98.1437583  14.4915625  21.6753102
  97.3462095  14.4583168  22.9616569 100.1528178  26.2555358  17.0456967
  99.6249540  25.5208118  16.7330205  99.6515681  27.0330035  16.7996936
 105.1321024  24.4504379  22.1624014 104.4744698  25.1403640  22.2504142
 105.9361423  24.8400811  22.5058000  94.8846906  16.9175025  19.4063579
  95.4590657  16.6950206  18.6736772  95.4717888  16.9863719  20.1592180
 103.9426483  22.8048751  20.2127955 104.4558365  23.4378743  20.7149665
 104.5927707  22.2049947  19.8471315 101.2048857  32.7833076  12.9688627
 100.5310556  33.0864772  13.5773584 101.5914679  33.5862156  12.6194084
 100.4207314  20.2798207  22.4586296  99.5029875  20.5013154  22.3007984
 100.8367457  20.3544517  21.5998003 104.7088279  27.7854753  18.3407098
 104.2550606  26.9445663  18.3972289 104.0782246  28.4216151  18.6781878
 103.1521218  29.6231250  19.2756916 103.4444193  30.1836307  18.5569282
 103.6619839  29.9159811  20.0310075  90.0457182  21.8953677  18.5531133
  89.8481582  21.3023038  17.8282199  89.4903846  21.5905888  19.2707072
  98.0253906  21.7876784  20.6725726  98.0802515  20.8350620  20.5968202
  97.2145108  21.9436223  21.1567024  95.9646266  20.4053844  18.4316105
  95.1514131  20.7048014  18.8381297  96.4605260  20.0109532  19.1490587
  98.1154843  30.4011601  20.3650369  98.0731022  30.6272447  19.4358901
  99.0317542  30.1674975  20.5136171 101.5620477  20.8695668  27.2630999
 101.9169865  21.0967141  28.1225464 102.2092608  21.2014045  26.6408254
  95.4560340  17.9772199  24.0477340  96.0959720  17.8360958  23.3500303
  94.6237871  17.6906713  23.6715942 107.3187594  26.0590631  22.9791599
 107.7524100  25.9665920  23.8274653 108.0319174  26.0348132  22.3411615
  96.2320644  27.2774630  20.1612332  97.0261243  26.7824950  19.9594907
  95.5212337  26.7492493  19.7980038 101.0515489  29.6592725  24.5124700
 101.1052511  30.2283662  25.2802416 100.1830270  29.8294610  24.1478737
  92.5403408  21.4217711  16.2372085  91.6100996  21.3602167  16.4542047
  92.6360880  20.8993664  15.4408726  92.4588957  17.9472524  18.8250326
  92.7195774  18.8617857  18.7159487  93.2806129  17.4796967  18.9746939
  93.9313882  19.3610281  25.9949151  94.6036935  19.1527644  25.3461800
  93.1043669  19.1632367  25.5554383 108.1803143  26.1014332  25.5124485
 108.3739033  27.0060142  25.7583759 108.0803761  25.6421751  26.3463070
  99.8339454  15.9872222  28.0114812  99.1867369  16.6862172  27.9179288
 100.6040469  16.4208366  28.3791060 103.2418252  26.2521074  31.0865365
 103.0903758  26.0231626  30.1695449 103.2322931  27.2091676  31.0996710
 100.0103588  23.8252987  26.0711632 100.9395648  23.9764147  25.8980599
  99.5894618  23.9137008  25.2160278  98.8091920  27.8503652  23.8410169
  98.6703006  27.4822436  24.7136107  98.0206516  28.3651291  23.6694127
  99.4040072  32.9512748  15.1835706  99.5791828  32.4800791  15.9981328
  98.7172860  33.5778514  15.4116966 100.3597135  27.2285254  21.2299007
 100.0246968  27.1886024  22.1256657  99.8601081  26.5629970  20.7569417
  94.3341379  22.6352884  26.7551588  94.1961177  21.9033123  27.3563127
  95.2446303  22.5461784  26.4735776  96.9623680  22.3472844  26.2435268
  97.6723298  21.7066036  26.2021886  96.9192988  22.5985739  27.1661449
 104.9510459  29.2840197  29.1641847 104.8923005  28.5999417  28.4972430
 105.3529977  30.0259187  28.7122473  95.6752614  19.3338062  28.0630907
  95.1389971  18.8828800  28.7152504  95.0869322  19.4683970  27.3201372
  93.9701157  36.1002111  21.9575566  94.2097756  36.7320635  22.6354584
  93.1270354  35.7490151  22.2440925 104.9527866  27.2479781  27.3955827
 104.0654645  26.9105703  27.5182226 105.5226417  26.5162812  27.6324592
  86.6057013  23.5803873  20.7198878  87.2928053  23.2665603  20.1319893
  86.4505142  24.4845237  20.4466130  91.4091735  18.4694069  25.1483902
  91.3249924  17.8619739  24.4134312  90.5874442  18.9603088  25.1493398
  98.4829019  31.9081233  24.3617070  98.4099191  32.7136205  24.8736374
  98.0406412  32.1073199  23.5365091  98.2718799  31.1453003  17.8719891
  97.4886321  31.6874684  17.9658116  98.9711544  31.6626983  18.2714133
 100.9427703  31.8068067  26.5175229 101.6555675  32.4415532  26.4451130
 100.4517731  31.9031933  25.7015230 102.6645230  25.7119320  18.0892520
 101.7301508  25.8320782  17.9197225 102.8421898  24.8091787  17.8252530
  98.1650418  19.0965016  20.2425781  97.7948205  18.5436056  20.9306687
  98.6609510  18.4923149  19.6900781  95.9939616  29.5562511  27.3380799
  96.6949076  30.1898994  27.4910194  95.5234731  29.8977242  26.5776439
 103.7940902  22.1107118  25.1633350 103.1412353  22.3583026  24.5085803
 104.1721282  21.2971256  24.8295827 100.7548076  32.1466811  19.2661520
 100.9370471  31.3288467  19.7289272 101.5781062  32.3634504  18.8286410
 101.0890242  31.0734997  16.5276569 101.6178008  30.5627451  15.9146731
 101.3518461  30.7577527  17.3922102  99.8428475  22.8526929  31.6499387
  99.1669112  22.7521059  32.3201762 100.6656109  22.6966143  32.1135384
  91.5907334  29.0898866  24.2711902  92.1760771  28.3442554  24.4039806
  91.3932173  29.4002823  25.1548566  94.4445990  32.1250113  19.2874344
  93.7756365  32.6096241  18.8038385  94.3058859  32.3719334  20.2017723
  86.1824989  21.6604466  22.9916345  86.2209089  21.1268057  23.7853463
  85.6765282  21.1339672  22.3727322  98.5851258  34.1593857  25.8857003
  99.1369566  34.3225478  26.6506088  98.9257452  34.7498295  25.2137028
  93.5615751  16.5069007  26.4878888  93.6257078  17.3683837  26.0756285
  93.4982872  15.8943008  25.7551246  93.0368024  18.5792139  30.1351922
  93.6640063  18.1969216  30.7489446  92.1795943  18.3606341  30.5007614
 103.4362133  28.9855114  31.7405657 103.9802037  29.5985073  31.2460612
 102.8548977  29.5434693  32.2572670  89.8133567  20.3868568  16.0670277
  90.1087008  19.4779247  16.0137330  88.9121602  20.3656308  15.7451279
 101.7219646  32.1075832  22.8720685 101.5970785  31.3065572  22.3631630
 102.3798737  32.6022026  22.3834655  93.3427814  18.4624565  22.0497825
  92.6214399  19.0760533  21.9105299  94.1321070  18.9982330  21.9714471
 103.7854554  29.9084852  24.5000235 102.8384889  29.7890204  24.4278562
 104.1337327  29.0207350  24.5826497  96.1454127  15.7978991  28.3238477
  96.6688529  16.0441288  29.0864786  95.9266461  16.6299026  27.9041614
  91.5421408  18.0682666  16.1909602  91.2134114  17.1880045  16.0084708
  91.8960779  18.0130335  17.0785991 100.7900987  29.7037569  20.7004587
 100.6425950  28.7754276  20.8812157 101.6154481  29.7257659  20.2161663
  94.6563231  18.3555636  16.5585079  94.9959304  18.8841557  15.8363688
  95.1035352  18.6936042  17.3343646 104.3935109  30.5266127  21.7869460
 105.3181657  30.3208989  21.6493911 104.2250412  30.2782528  22.6958802
  97.3506672  16.7392686  26.0088148  97.0103493  15.9400499  26.4108827
  96.6445679  17.0394397  25.4364981  98.0023144  13.8241999  24.4615471
  98.8249213  13.3502477  24.3394361  98.2461208  14.6032483  24.9614157
  95.5261723  20.5161119  22.2707449  95.3806304  20.8301423  23.1631731
  95.0486927  21.1346020  21.7178348  97.3858106  17.5063667  22.3188339
  97.3719675  16.6104761  21.9820637  98.1030534  17.5134331  22.9526625
  99.2384236  17.9401008  24.3641466  98.9802014  18.8618078  24.3625797
  98.7069277  17.5431442  25.0541930 104.1830425  31.0451795  17.1431552
 104.3567303  30.4798217  16.3905404 104.6759316  31.8452690  16.9611041
  90.0007385  23.0566464  25.2095110  89.4560853  23.8326272  25.3415385
  90.8786735  23.4037268  25.0514232  96.7895002  16.3878048  17.5875909
  96.9110913  15.4594694  17.7866796  96.4997044  16.4016734  16.6754224
  90.7873407  22.1836360  28.1025267  90.0455143  22.3318995  28.6889898
  90.4666151  22.4444626  27.2392017  98.7317070  31.7252338  27.9005657
  99.0404196  31.4801485  28.7728357  99.5292552  31.9298977  27.4124527
  98.7537682  33.8790248  20.1311034  98.3142672  33.3866627  20.8243890
  99.5045799  33.3363216  19.8903109  91.2330021  30.0701789  20.1335662
  92.0588040  29.7705561  19.7534305  90.8824073  29.3009411  20.5825450
  96.2011554  29.4228257  22.2033335  95.5791563  28.7598962  21.9035563
  96.8716421  29.4489389  21.5206983  89.4338626  27.9888115  21.0924595
  88.5970534  27.5610290  20.9108597  89.4062271  28.1820559  22.0295387
  96.2736081  17.9010045  31.7965841  96.3224237  18.7772168  31.4143611
  96.8158595  17.3587438  31.2237485 106.7590927  28.4451168  31.0766979
 105.9686471  28.4275307  30.5371478 106.5224281  28.9839462  31.8316015
 106.8788802  25.2943635  28.3899707 106.9286807  25.1293642  29.3315230
 106.7702725  24.4270894  27.9997588  95.7625061  27.9732180  15.6791796
  95.9113181  28.6567645  15.0258469  96.5691504  27.9537270  16.1941252
 104.1692564  21.2774563  29.7059014 105.0702427  21.1381028  29.4143012
 104.2440539  21.4429018  30.6457191  98.5035370  18.6541418  28.5512200
  97.6338679  18.9474984  28.2794789  98.7394850  19.2381863  29.2719464
 108.3806999  27.7140576  28.6341729 108.0891807  28.0770557  29.4705190
 107.7679130  27.0007585  28.4555061 106.6294187  22.8373191  27.1021787
 107.1048309  23.0300837  26.2940638 105.7059752  22.8932377  26.8565170
  93.5177694  23.9997358  16.6852865  93.2723736  23.0959688  16.8833075
  93.6873608  24.0014509  15.7432343 101.2074404  14.8721034  26.0677620
 101.7256347  15.6082061  25.7424109 100.8529536  15.1785028  26.9024380
  92.7873341  19.7325716  14.1839026  92.0942586  19.8070071  13.5279062
  92.5425093  18.9686059  14.7060543  99.2620466  30.4680311  13.1503543
  98.6894433  31.0870498  12.6974015  99.8353260  31.0179673  13.6843465
 105.3295856  19.7138951  25.3350092 106.2813279  19.8137049  25.3562316
 105.1599306  18.9217220  25.8448177 103.3510236  16.7994534  25.5209493
 102.7560168  17.0799547  24.8255982 103.0659932  17.2888435  26.2926234
 102.4817726  30.7517461  14.2812126 103.4148399  30.6863023  14.4845001
 102.3940939  31.5873728  13.8226658 107.8083934  22.9345071  24.4492392
 107.7760254  21.9961071  24.6352076 108.4184557  23.0129107  23.7158217
  99.5305957  25.8558870  31.9520253 100.4508967  26.0337469  32.1460299
  99.4955540  24.9114915  31.7999952  88.7488122  21.0497463  20.8773527
  88.4290907  20.1962772  20.5847902  88.2021550  21.2646042  21.6331495
  92.5268030  23.7659904  24.5943034  92.7454040  24.6977012  24.6131068
  92.9393804  23.4067879  25.3797838  97.3995895  19.3393110  33.9845783
  97.2992622  20.2887467  33.9157874  97.1817437  19.0111349  33.1121853
  88.6176382  24.6700375  22.8466649  87.9239854  24.2554328  22.3336603
  89.3649373  24.7120911  22.2500068  97.2627165  22.7690249  32.8010845
  96.7794247  23.5690609  33.0074734  97.3488104  22.7798194  31.8478289
  90.5313125  24.6018629  20.7232664  90.5083813  24.7006316  19.7714547
  90.8413761  25.4483779  21.0449830  93.1900503  26.6594784  24.8379278
  94.1443756  26.6278726  24.7709210  92.9913026  26.1985407  25.6529504
  93.7799885  25.2295900  27.4050076  94.5992774  25.7239978  27.4284913
  94.0536692  24.3127868  27.3767644  91.5450731  32.2014403  21.8549476
  91.4105199  31.4414804  21.2887474  91.1282794  32.9255303  21.3878265
  94.7019857  33.0983720  22.0667919  94.5852241  34.0429153  21.9646609
  93.8812304  32.7957282  22.4553718  89.0334799  19.5634034  28.1042273
  89.6793663  19.0532988  28.5929498  88.8251950  20.3002715  28.6785698
 101.5588191  26.6314881  33.6034414 102.4279351  26.8055533  33.2421049
 101.0794943  27.4509298  33.4810143  95.7274371  33.7511982  25.2823847
  96.6301618  33.7835592  25.5990342  95.5011741  32.8212433  25.2970183
  97.4827973  32.5042969  21.9433926  96.5323604  32.5044830  21.8298298
  97.7860460  31.7575703  21.4269961  93.3732290  16.7101651  32.2017287
  94.2363752  16.3538456  32.4120612  92.7997701  16.3715546  32.8892692
 113.2180667  38.3403507  23.0079688 113.8559077  38.2210254  22.3043028
 113.1001510  39.2884351  23.0667640 110.0270373  38.2930935  22.9441213
 109.6888885  38.1772000  22.0561748 110.8960141  37.8922100  22.9242219
 105.8857189  40.1466412  18.9338104 105.3222054  40.0556349  18.1654392
 105.7709584  39.3266316  19.4140597 110.5090156  39.4465787  28.9027419
 110.4978797  39.0518585  28.0307922 110.6710796  38.7131860  29.4961190
 103.4321621  41.6417603  21.7722324 104.2242913  41.3008428  21.3568624
 103.6718271  41.7512578  22.6924478 111.4656748  43.8137379  14.2452569
 110.8144727  44.3991460  13.8586583 112.2601110  44.3443574  14.3047606
 105.3912375  40.9026516  14.6439703 106.1643251  40.3555504  14.5052579
 105.7437774  41.7670766  14.8554165 107.2297417  42.2302899  27.8506603
 106.9387283  43.1348530  27.7353269 107.8654402  42.2719426  28.5650672
 108.1553624  39.6079747  24.4407962 108.7517196  39.3835770  23.7264925
 108.2128596  38.8664493  25.0433410 112.7721935  36.0654961  20.0832896
 113.5585025  35.6474384  19.7323313 113.0360640  36.9701053  20.2514545
 107.4474941  38.9647289  14.4782528 107.3311199  38.2892192  15.1463612
 107.5577201  38.4779662  13.6614681 109.7906482  38.4257436  18.1829217
 109.4264689  37.8988057  18.8942139 110.6473598  38.0355905  18.0095703
 115.6955783  29.7151768  25.4460483 115.3639108  30.5847179  25.2221698
 115.1001396  29.3988052  26.1254514 112.1887302  41.9164314  24.8456396
 111.8888026  42.8189353  24.7372203 111.8438362  41.6496497  25.6977549
 105.6399784  38.3678111  20.8793101 104.7150280  38.2354325  21.0870792
 105.8884197  39.1472330  21.3763043 115.5884446  34.4346854  22.5253834
 114.6801324  34.3662263  22.2312595 115.5372042  34.9118799  23.3535659
 103.0008595  38.0111385  21.7136890 103.1300976  38.2645864  22.6276301
 102.3206046  38.6039093  21.3941545 107.1708082  48.6808635  17.8127364
 107.0932112  49.6316460  17.8915844 106.5669726  48.3354507  18.4702290
 109.6625312  35.8536500  30.4688731 108.8858646  36.4130420  30.4591595
 110.3015875  36.3393283  30.9903601 117.4546093  32.6363293  24.3031707
 116.8120473  32.9295826  23.6571502 116.9501021  32.5216213  25.1084904
 107.9171684  38.6621953  30.0306698 108.6586369  39.2006997  29.7541521
 107.2108670  39.2888242  30.1878250 113.3927024  40.8051094  28.6278859
 113.8010380  40.3633504  27.8833492 112.6704285  40.2303721  28.8813052
 109.7458094  35.7423701  26.0012416 110.5919289  36.1663114  26.1447065
 109.6856732  35.0857325  26.6950979 113.7155839  41.3652284  22.3831148
 113.0864701  41.5297999  21.6807216 113.3281501  41.7793894  23.1542112
 117.5945070  42.3006722  19.7375512 116.9096109  42.6805624  19.1872545
 117.6788920  42.9102049  20.4707460 112.8957539  33.4028069  27.6593590
 112.6518471  34.1570129  27.1227866 113.1717470  33.7813417  28.4940837
 114.8496002  39.9466681  26.3370855 115.0612897  40.5898441  25.6605237
 114.8025750  39.1128998  25.8692786 112.4522231  32.5584502  23.2407428
 111.5906710  32.8565756  23.5324165 112.4784666  32.7754901  22.3088460
 109.2683800  41.1026693  19.6481233 109.7322146  41.3814396  18.8585856
 109.0040599  40.2010137  19.4654324 106.1607882  40.6498174  22.5860997
 106.7309239  41.0785442  21.9478481 106.7515993  40.3680759  23.2845182
 108.2052687  37.2249845  16.4570798 108.9076730  37.6770889  16.9244725
 107.8733315  36.5833664  17.0850692 106.6533048  35.8161602  30.8322008
 106.0231709  36.4977882  31.0657405 106.5469136  35.7044683  29.8875146
 101.9478020  35.4833398  21.7587932 101.1577074  35.7390926  21.2828043
 102.4389268  36.2981735  21.8639973 115.9641830  42.8238637  24.5093213
 116.7859274  42.4218824  24.2275894 115.9604233  42.7206871  25.4609329
 103.8992766  35.8477977  18.7171409 103.1023929  35.9596671  19.2354904
 103.6718358  36.1864629  17.8512299 109.7298433  42.3722680  26.6653923
 109.7942866  42.8343087  27.5012095 109.0209357  41.7420045  26.7936233
 100.2315723  35.7363888  24.1902923 100.4823762  36.6210898  24.4560499
 100.7675272  35.5568490  23.4178015 109.4446451  44.0390788  16.5332904
 109.3092126  44.8842323  16.9617751 109.9856264  44.2410065  15.7698837
 105.9313791  30.1182367  33.1947259 105.5380736  29.5648566  33.8694903
 106.7479931  30.4292946  33.5853776 102.8975849  41.5566226  17.1060829
 103.4100369  42.3509476  17.2566393 103.5498561  40.8592516  17.0394430
 104.7070733  44.6731982  19.1883582 104.8837362  45.5949947  19.0004566
 105.5027567  44.3590401  19.6177962 108.8481752  31.5340246  30.7867515
 109.5891465  32.1347400  30.7071978 109.0799675  30.7917884  30.2285558
 103.9923090  36.7196614  29.0645745 103.8776605  35.8181871  29.3652844
 103.1367608  36.9660310  28.7130562 111.0714928  44.6614354  30.6633246
 110.6278782  43.8750733  30.3454150 111.7332141  44.8493505  29.9977137
 105.8302049  46.1910156  25.1893924 106.3809474  46.0627219  24.4170918
 104.9913525  46.4905045  24.8388817 113.1696166  44.9417154  28.6914647
 113.1514641  45.7626035  28.1994916 114.0916086  44.8171229  28.9164788
 109.6269220  42.4561283  29.5338155 110.1597557  41.6949572  29.3037463
 109.0983301  42.1634935  30.2762310 112.7938915  27.5621349  25.0631797
 112.4503184  28.4522991  24.9870908 113.1617877  27.3723007  24.2001382
 100.8624765  39.8854880  17.8820399 101.6999987  40.2951888  17.6654107
 101.0403033  38.9454322  17.8520593 111.8735455  29.9326005  23.0281030
 111.3700251  29.8956140  22.2148836 112.1666062  30.8418747  23.0877687
 108.1178341  30.0164734  22.0347212 108.9831338  29.8207543  21.6753102
 108.1855850  29.7875086  22.9616569 110.9921932  41.5847276  17.0456967
 110.4643294  40.8500035  16.7330205 110.4909435  42.3621952  16.7996936
 115.9714778  39.7796296  22.1624014 115.3138453  40.4695558  22.2504142
 116.7755178  40.1692728  22.5058000 105.7240660  32.2466942  19.4063579
 106.2984412  32.0242124  18.6736772 106.3111642  32.3155637  20.1592180
 114.7820237  38.1340669  20.2127955 115.2952119  38.7670661  20.7149665
 115.4321461  37.5341865  19.8471315 112.0442612  48.1124993  12.9688627
 111.3704310  48.4156690  13.5773584 112.4308433  48.9154074  12.6194084
 111.2601068  35.6090125  22.4586296 110.3423629  35.8305072  22.3007984
 111.6761212  35.6836435  21.5998003 115.5482033  43.1146671  18.3407098
 115.0944361  42.2737580  18.3972289 114.9176000  43.7508069  18.6781878
 113.9914973  44.9523167  19.2756916 114.2837947  45.5128224  18.5569282
 114.5013593  45.2451728  20.0310075 100.8850936  37.2245595  18.5531133
 100.6875336  36.6314956  17.8282199 100.3297600  36.9197805  19.2707072
 108.8647660  37.1168702  20.6725726 108.9196270  36.1642538  20.5968202
 108.0538862  37.2728141  21.1567024 106.8040020  35.7345761  18.4316105
 105.9907886  36.0339932  18.8381297 107.2999014  35.3401450  19.1490587
 108.9548598  45.7303518  20.3650369 108.9124777  45.9564365  19.4358901
 109.8711297  45.4966893  20.5136171 112.4014232  36.1987586  27.2630999
 112.7563619  36.4259059  28.1225464 113.0486363  36.5305963  26.6408254
 106.2954095  33.3064117  24.0477340 106.9353474  33.1652876  23.3500303
 105.4631625  33.0198630  23.6715942 118.1581348  41.3882549  22.9791599
 118.5917855  41.2957838  23.8274653 118.8712929  41.3640049  22.3411615
 107.0714399  42.6066547  20.1612332 107.8654997  42.1116867  19.9594907
 106.3606091  42.0784410  19.7980038 111.8909243  44.9884643  24.5124700
 111.9446265  45.5575579  25.2802416 111.0224025  45.1586528  24.1478737
 103.3797162  36.7509629  16.2372085 102.4494750  36.6894085  16.4542047
 103.4754634  36.2285582  15.4408726 103.2982711  33.2764442  18.8250326
 103.5589529  34.1909775  18.7159487 104.1199884  32.8088884  18.9746939
 104.7707637  34.6902199  25.9949151 105.4430690  34.4819561  25.3461800
 103.9437423  34.4924285  25.5554383 119.0196898  41.4306249  25.5124485
 119.2132788  42.3352060  25.7583759 118.9197516  40.9713668  26.3463070
 110.6733209  31.3164140  28.0114812 110.0261124  32.0154090  27.9179288
 111.4434224  31.7500284  28.3791060 114.0812006  41.5812992  31.0865365
 113.9297513  41.3523544  30.1695449 114.0716686  42.5383594  31.0996710
 110.8497343  39.1544905  26.0711632 111.7789403  39.3056065  25.8980599
 110.4288373  39.2428926  25.2160278 109.6485675  43.1795569  23.8410169
 109.5096760  42.8114354  24.7136107 108.8600271  43.6943209  23.6694127
 110.2433827  48.2804666  15.1835706 110.4185582  47.8092709  15.9981328
 109.5566615  48.9070432  15.4116966 111.1990890  42.5577172  21.2299007
 110.8640722  42.5177942  22.1256657 110.6994836  41.8921888  20.7569417
 105.1735134  37.9644802  26.7551588 105.0354932  37.2325041  27.3563127
 106.0840057  37.8753702  26.4735776 107.8017434  37.6764761  26.2435268
 108.5117053  37.0357954  26.2021886 107.7586743  37.9277656  27.1661449
 115.7904213  44.6132115  29.1641847 115.7316759  43.9291335  28.4972430
 116.1923732  45.3551105  28.7122473 106.5146368  34.6629979  28.0630907
 105.9783725  34.2120718  28.7152504 105.9263077  34.7975888  27.3201372
 104.8094912  51.4294029  21.9575566 105.0491510  52.0612553  22.6354584
 103.9664108  51.0782069  22.2440925 115.7921620  42.5771699  27.3955827
 114.9048399  42.2397620  27.5182226 116.3620171  41.8454730  27.6324592
  97.4450768  38.9095790  20.7198878  98.1321807  38.5957520  20.1319893
  97.2898896  39.8137155  20.4466130 102.2485490  33.7985987  25.1483902
 102.1643678  33.1911657  24.4134312 101.4268196  34.2895005  25.1493398
 109.3222774  47.2373151  24.3617070 109.2492945  48.0428123  24.8736374
 108.8800167  47.4365117  23.5365091 109.1112553  46.4744921  17.8719891
 108.3280075  47.0166601  17.9658116 109.8105299  46.9918901  18.2714133
 111.7821457  47.1359985  26.5175229 112.4949430  47.7707450  26.4451130
 111.2911486  47.2323851  25.7015230 113.5038984  41.0411238  18.0892520
 112.5695263  41.1612700  17.9197225 113.6815653  40.1383704  17.8252530
 109.0044172  34.4256933  20.2425781 108.6341960  33.8727974  20.9306687
 109.5003265  33.8215067  19.6900781 106.8333371  44.8854429  27.3380799
 107.5342830  45.5190911  27.4910194 106.3628486  45.2269160  26.5776439
 114.6334657  37.4399036  25.1633350 113.9806107  37.6874943  24.5085803
 115.0115037  36.6263174  24.8295827 111.5941831  47.4758729  19.2661520
 111.7764225  46.6580385  19.7289272 112.4174817  47.6926421  18.8286410
 111.9283996  46.4026914  16.5276569 112.4571763  45.8919369  15.9146731
 112.1912216  46.0869444  17.3922102 110.6822230  38.1818847  31.6499387
 110.0062867  38.0812976  32.3201762 111.5049864  38.0258061  32.1135384
 102.4301089  44.4190784  24.2711902 103.0154526  43.6734471  24.4039806
 102.2325927  44.7294740  25.1548566 105.2839744  47.4542031  19.2874344
 104.6150119  47.9388159  18.8038385 105.1452614  47.7011251  20.2017723
  97.0218744  36.9896384  22.9916345  97.0602843  36.4559974  23.7853463
  96.5159036  36.4631589  22.3727322 109.4245013  49.4885774  25.8857003
 109.9763321  49.6517396  26.6506088 109.7651206  50.0790212  25.2137028
 104.4009506  31.8360924  26.4878888 104.4650832  32.6975755  26.0756285
 104.3376626  31.2234926  25.7551246 103.8761778  33.9084057  30.1351922
 104.5033817  33.5261134  30.7489446 103.0189697  33.6898259  30.5007614
 114.2755887  44.3147032  31.7405657 114.8195791  44.9276990  31.2460612
 113.6942732  44.8726610  32.2572670 100.6527321  35.7160486  16.0670277
 100.9480762  34.8071164  16.0137330  99.7515357  35.6948225  15.7451279
 112.5613400  47.4367750  22.8720685 112.4364539  46.6357490  22.3631630
 113.2192491  47.9313943  22.3834655 104.1821568  33.7916482  22.0497825
 103.4608154  34.4052450  21.9105299 104.9714824  34.3274247  21.9714471
 114.6248308  45.2376770  24.5000235 113.6778644  45.1182121  24.4278562
 114.9731081  44.3499268  24.5826497 106.9847882  31.1270909  28.3238477
 107.5082284  31.3733206  29.0864786 106.7660215  31.9590944  27.9041614
 102.3815163  33.3974584  16.1909602 102.0527869  32.5171962  16.0084708
 102.7354534  33.3422252  17.0785991 111.6294742  45.0329486  20.7004587
 111.4819704  44.1046194  20.8812157 112.4548235  45.0549577  20.2161663
 105.4956986  33.6847553  16.5585079 105.8353058  34.2133475  15.8363688
 105.9429106  34.0227959  17.3343646 115.2328864  45.8558045  21.7869460
 116.1575411  45.6500906  21.6493911 115.0644167  45.6074446  22.6958802
 108.1900427  32.0684604  26.0088148 107.8497247  31.2692417  26.4108827
 107.4839433  32.3686315  25.4364981 108.8416899  29.1533917  24.4615471
 109.6642968  28.6794395  24.3394361 109.0854962  29.9324400  24.9614157
 106.3655477  35.8453037  22.2707449 106.2200058  36.1593340  23.1631731
 105.8880681  36.4637937  21.7178348 108.2251860  32.8355585  22.3188339
 108.2113429  31.9396678  21.9820637 108.9424288  32.8426249  22.9526625
 110.0777991  33.2692925  24.3641466 109.8195769  34.1909996  24.3625797
 109.5463031  32.8723360  25.0541930 115.0224180  46.3743712  17.1431552
 115.1961057  45.8090135  16.3905404 115.5153071  47.1744607  16.9611041
 100.8401140  38.3858382  25.2095110 100.2954608  39.1618190  25.3415385
 101.7180489  38.7329186  25.0514232 107.6288756  31.7169965  17.5875909
 107.7504667  30.7886612  17.7866796 107.3390799  31.7308651  16.6754224
 101.6267161  37.5128278  28.1025267 100.8848897  37.6610913  28.6889898
 101.3059906  37.7736543  27.2392017 109.5710824  47.0544256  27.9005657
 109.8797950  46.8093403  28.7728357 110.3686306  47.2590895  27.4124527
 109.5931436  49.2082166  20.1311034 109.1536426  48.7158544  20.8243890
 110.3439553  48.6655133  19.8903109 102.0723775  45.3993707  20.1335662
 102.8981795  45.0997478  19.7534305 101.7217827  44.6301329  20.5825450
 107.0405308  44.7520175  22.2033335 106.4185318  44.0890880  21.9035563
 107.7110175  44.7781307  21.5206983 100.2732380  43.3180033  21.0924595
  99.4364288  42.8902207  20.9108597 100.2456026  43.5112476  22.0295387
 107.1129836  33.2301963  31.7965841 107.1617991  34.1064086  31.4143611
 107.6552350  32.6879356  31.2237485 117.5984681  43.7743086  31.0766979
 116.8080225  43.7567225  30.5371478 117.3618036  44.3131380  31.8316015
 117.7182556  40.6235552  28.3899707 117.7680561  40.4585560  29.3315230
 117.6096480  39.7562811  27.9997588 106.6018815  43.3024098  15.6791796
 106.7506936  43.9859562  15.0258469 107.4085259  43.2829188  16.1941252
 115.0086319  36.6066480  29.7059014 115.9096182  36.4672945  29.4143012
 115.0834293  36.7720935  30.6457191 109.3429124  33.9833335  28.5512200
 108.4732434  34.2766901  28.2794789 109.5788605  34.5673780  29.2719464
 119.2200753  43.0432494  28.6341729 118.9285562  43.4062474  29.4705190
 118.6072885  42.3299502  28.4555061 117.4687942  38.1665109  27.1021787
 117.9442063  38.3592755  26.2940638 116.5453507  38.2224294  26.8565170
 104.3571448  39.3289276  16.6852865 104.1117490  38.4251606  16.8833075
 104.5267363  39.3306426  15.7432343 112.0468158  30.2012952  26.0677620
 112.5650102  30.9373979  25.7424109 111.6923291  30.5076945  26.9024380
 103.6267096  35.0617633  14.1839026 102.9336341  35.1361988  13.5279062
 103.3818848  34.2977977  14.7060543 110.1014221  45.7972229  13.1503543
 109.5288188  46.4162416  12.6974015 110.6747014  46.3471590  13.6843465
 116.1689611  35.0430869  25.3350092 117.1207033  35.1428966  25.3562316
 115.9993061  34.2509137  25.8448177 114.1903990  32.1286452  25.5209493
 113.5953922  32.4091465  24.8255982 113.9053687  32.6180353  26.2926234
 113.3211480  46.0809379  14.2812126 114.2542154  46.0154940  14.4845001
 113.2334693  46.9165646  13.8226658 118.6477688  38.2636988  24.4492392
 118.6154008  37.3252989  24.6352076 119.2578312  38.3421025  23.7158217
 110.3699712  41.1850787  31.9520253 111.2902721  41.3629386  32.1460299
 110.3349295  40.2406833  31.7999952  99.5881877  36.3789381  20.8773527
  99.2684661  35.5254689  20.5847902  99.0415305  36.5937959  21.6331495
 103.3661784  39.0951822  24.5943034 103.5847794  40.0268930  24.6131068
 103.7787558  38.7359797  25.3797838 108.2389650  34.6685028  33.9845783
 108.1386376  35.6179385  33.9157874 108.0211192  34.3403267  33.1121853
  99.4570137  39.9992293  22.8466649  98.7633608  39.5846245  22.3336603
 100.2043128  40.0412829  22.2500068 108.1020920  38.0982167  32.8010845
 107.6188001  38.8982527  33.0074734 108.1881859  38.1090112  31.8478289
 101.3706879  39.9310546  20.7232664 101.3477567  40.0298234  19.7714547
 101.6807516  40.7775697  21.0449830 104.0294257  41.9886701  24.8379278
 104.9837511  41.9570644  24.7709210 103.8306781  41.5277325  25.6529504
 104.6193639  40.5587817  27.4050076 105.4386528  41.0531896  27.4284913
 104.8930447  39.6419786  27.3767644 102.3844486  47.5306321  21.8549476
 102.2498954  46.7706722  21.2887474 101.9676548  48.2547221  21.3878265
 105.5413612  48.4275638  22.0667919 105.4245996  49.3721070  21.9646609
 104.7206058  48.1249199  22.4553718  99.8728553  34.8925951  28.1042273
 100.5187417  34.3824905  28.5929498  99.6645705  35.6294633  28.6785698
 112.3981946  41.9606799  33.6034414 113.2673105  42.1347451  33.2421049
 111.9188697  42.7801216  33.4810143 106.5668126  49.0803900  25.2823847
 107.4695373  49.1127510  25.5990342 106.3405496  48.1504351  25.2970183
 108.3221728  47.8334886  21.9433926 107.3717359  47.8336748  21.8298298
 108.6254214  47.0867621  21.4269961 104.2126044  32.0393568  32.2017287
 105.0757506  31.6830373  32.4120612 103.6391455  31.7007463  32.8892692
 120.8664128  53.6222853  22.9441213 120.5282639  53.5063918  22.0561748
 121.7353896  53.2214018  22.9242219 116.7250943  55.4758329  18.9338104
 116.1615809  55.3848266  18.1654392 116.6103338  54.6558234  19.4140597
 121.3483911  54.7757705  28.9027419 121.3372551  54.3810503  28.0307922
 121.5104550  54.0423777  29.4961190 114.2715375  56.9709521  21.7722324
 115.0636667  56.6300345  21.3568624 114.5112025  57.0804496  22.6924478
 116.2306129  56.2318434  14.6439703 117.0037005  55.6847421  14.5052579
 116.5831528  57.0962683  14.8554165 118.0691172  57.5594816  27.8506603
 117.7781038  58.4640447  27.7353269 118.7048156  57.6011344  28.5650672
 118.9947379  54.9371665  24.4407962 119.5910951  54.7127687  23.7264925
 119.0522350  54.1956410  25.0433410 118.2868696  54.2939206  14.4782528
 118.1704954  53.6184110  15.1463612 118.3970956  53.8071580  13.6614681
 120.6300237  53.7549353  18.1829217 120.2658444  53.2279974  18.8942139
 121.4867353  53.3647822  18.0095703 116.4793538  53.6970029  20.8793101
 115.5544035  53.5646243  21.0870792 116.7277952  54.4764248  21.3763043
 113.8402349  53.3403302  21.7136890 113.9694731  53.5937781  22.6276301
 113.1599801  53.9331010  21.3941545 118.0101837  64.0100552  17.8127364
 117.9325866  64.9608377  17.8915844 117.4063480  63.6646425  18.4702290
 120.5019066  51.1828418  30.4688731 119.7252401  51.7422338  30.4591595
 121.1409630  51.6685201  30.9903601 118.7565439  53.9913871  30.0306698
 119.4980123  54.5298915  29.7541521 118.0502424  54.6180160  30.1878250
 120.5851848  51.0715618  26.0012416 121.4313044  51.4955032  26.1447065
 120.5250486  50.4149243  26.6950979 120.1077555  56.4318610  19.6481233
 120.5715900  56.7106313  18.8585856 119.8434353  55.5302055  19.4654324
 117.0001636  55.9790092  22.5860997 117.5702993  56.4077360  21.9478481
 117.5909748  55.6972676  23.2845182 119.0446441  52.5541763  16.4570798
 119.7470484  53.0062806  16.9244725 118.7127070  51.9125581  17.0850692
 117.4926803  51.1453519  30.8322008 116.8625463  51.8269800  31.0657405
 117.3862890  51.0336601  29.8875146 112.7871775  50.8125315  21.7587932
 111.9970829  51.0682844  21.2828043 113.2783022  51.6273653  21.8639973
 114.7386520  51.1769894  18.7171409 113.9417684  51.2888589  19.2354904
 114.5112113  51.5156547  17.8512299 120.5692188  57.7014598  26.6653923
 120.6336620  58.1635005  27.5012095 119.8603112  57.0711963  26.7936233
 111.0709478  51.0655806  24.1902923 111.3217516  51.9502816  24.4560499
 111.6069026  50.8860407  23.4178015 120.2840206  59.3682705  16.5332904
 120.1485880  60.2134241  16.9617751 120.8250018  59.5701983  15.7698837
 116.7707545  45.4474285  33.1947259 116.3774491  44.8940484  33.8694903
 117.5873686  45.7584864  33.5853776 113.7369603  56.8858143  17.1060829
 114.2494124  57.6801393  17.2566393 114.3892316  56.1884434  17.0394430
 115.5464488  60.0023900  19.1883582 115.7231116  60.9241864  19.0004566
 116.3421321  59.6882319  19.6177962 119.6875506  46.8632164  30.7867515
 120.4285220  47.4639317  30.7071978 119.9193429  46.1209802  30.2285558
 114.8316844  52.0488531  29.0645745 114.7170359  51.1473789  29.3652844
 113.9761362  52.2952228  28.7130562 116.6695803  61.5202073  25.1893924
 117.2203228  61.3919137  24.4170918 115.8307279  61.8196962  24.8388817
 120.4662974  57.7853201  29.5338155 120.9991311  57.0241489  29.3037463
 119.9377055  57.4926853  30.2762310 111.7018520  55.2146798  17.8820399
 112.5393742  55.6243806  17.6654107 111.8796787  54.2746240  17.8520593
 118.9572095  45.3456652  22.0347212 119.8225092  45.1499461  21.6753102
 119.0249604  45.1167004  22.9616569 121.8315687  56.9139194  17.0456967
 121.3037049  56.1791953  16.7330205 121.3303190  57.6913870  16.7996936
 116.5634415  47.5758860  19.4063579 117.1378166  47.3534041  18.6736772
 117.1505397  47.6447554  20.1592180 111.7244691  52.5537513  18.5531133
 111.5269091  51.9606874  17.8282199 111.1691355  52.2489723  19.2707072
 119.7041415  52.4460619  20.6725726 119.7590024  51.4934456  20.5968202
 118.8932617  52.6020058  21.1567024 117.6433775  51.0637679  18.4316105
 116.8301640  51.3631850  18.8381297 118.1392769  50.6693368  19.1490587
 119.7942352  61.0595436  20.3650369 119.7518531  61.2856282  19.4358901
 120.7105051  60.8258811  20.5136171 117.1347849  48.6356035  24.0477340
 117.7747229  48.4944794  23.3500303 116.3025380  48.3490548  23.6715942
 117.9108153  57.9358465  20.1612332 118.7048752  57.4408785  19.9594907
 117.1999846  57.4076328  19.7980038 114.2190917  52.0801547  16.2372085
 113.2888505  52.0186002  16.4542047 114.3148389  51.5577500  15.4408726
 114.1376466  48.6056360  18.8250326 114.3983283  49.5201693  18.7159487
 114.9593638  48.1380802  18.9746939 115.6101391  50.0194117  25.9949151
 116.2824444  49.8111479  25.3461800 114.7831178  49.8216203  25.5554383
 121.5126963  46.6456058  28.0114812 120.8654878  47.3446007  27.9179288
 122.2827978  47.0792202  28.3791060 120.4879429  58.5087487  23.8410169
 120.3490515  58.1406271  24.7136107 119.6994025  59.0235126  23.6694127
 121.0827581  63.6096583  15.1835706 121.2579337  63.1384627  15.9981328
 120.3960369  64.2362350  15.4116966 122.0384644  57.8869090  21.2299007
 121.7034477  57.8469860  22.1256657 121.5388590  57.2213806  20.7569417
 116.0128888  53.2936720  26.7551588 115.8748686  52.5616959  27.3563127
 116.9233812  53.2045620  26.4735776 118.6411189  53.0056679  26.2435268
 119.3510807  52.3649871  26.2021886 118.5980497  53.2569574  27.1661449
 117.3540123  49.9921897  28.0630907 116.8177480  49.5412635  28.7152504
 116.7656831  50.1267806  27.3201372 115.6488666  66.7585946  21.9575566
 115.8885265  67.3904470  22.6354584 114.8057863  66.4073986  22.2440925
 108.2844522  54.2387708  20.7198878 108.9715562  53.9249438  20.1319893
 108.1292651  55.1429073  20.4466130 113.0879244  49.1277905  25.1483902
 113.0037433  48.5203574  24.4134312 112.2661951  49.6186923  25.1493398
 120.1616528  62.5665069  24.3617070 120.0886700  63.3720040  24.8736374
 119.7193921  62.7657034  23.5365091 119.9506308  61.8036839  17.8719891
 119.1673830  62.3458519  17.9658116 120.6499053  62.3210818  18.2714133
 119.8437927  49.7548851  20.2425781 119.4735714  49.2019892  20.9306687
 120.3397019  49.1506985  19.6900781 117.6727125  60.2146346  27.3380799
 118.3736585  60.8482829  27.4910194 117.2022240  60.5561078  26.5776439
 121.5215984  53.5110765  31.6499387 120.8456621  53.4104894  32.3201762
 122.3443618  53.3549978  32.1135384 113.2694843  59.7482701  24.2711902
 113.8548280  59.0026389  24.4039806 113.0719682  60.0586658  25.1548566
 116.1233499  62.7833949  19.2874344 115.4543874  63.2680076  18.8038385
 115.9846368  63.0303169  20.2017723 107.8612498  52.3188301  22.9916345
 107.8996598  51.7851892  23.7853463 107.3552791  51.7923507  22.3727322
 120.2638767  64.8177692  25.8857003 120.8157075  64.9809314  26.6506088
 120.6044961  65.4082130  25.2137028 115.2403260  47.1652842  26.4878888
 115.3044587  48.0267673  26.0756285 115.1770381  46.5526844  25.7551246
 114.7155533  49.2375974  30.1351922 115.3427572  48.8553052  30.7489446
 113.8583452  49.0190176  30.5007614 111.4921076  51.0452404  16.0670277
 111.7874517  50.1363082  16.0137330 110.5909111  51.0240143  15.7451279
 115.0215323  49.1208400  22.0497825 114.3001908  49.7344368  21.9105299
 115.8108578  49.6566165  21.9714471 117.8241636  46.4562827  28.3238477
 118.3476038  46.7025123  29.0864786 117.6053970  47.2882861  27.9041614
 113.2208917  48.7266501  16.1909602 112.8921623  47.8463880  16.0084708
 113.5748288  48.6714170  17.0785991 116.3350740  49.0139471  16.5585079
 116.6746813  49.5425392  15.8363688 116.7822861  49.3519877  17.3343646
 119.0294181  47.3976522  26.0088148 118.6891002  46.5984335  26.4108827
 118.3233188  47.6978233  25.4364981 119.6810653  44.4825834  24.4615471
 120.5036722  44.0086312  24.3394361 119.9248717  45.2616318  24.9614157
 117.2049232  51.1744955  22.2707449 117.0593813  51.4885258  23.1631731
 116.7274435  51.7929855  21.7178348 119.0645615  48.1647503  22.3188339
 119.0507184  47.2688596  21.9820637 119.7818043  48.1718167  22.9526625
 120.9171745  48.5984843  24.3641466 120.6589523  49.5201914  24.3625797
 120.3856786  48.2015278  25.0541930 111.6794894  53.7150299  25.2095110
 111.1348362  54.4910107  25.3415385 112.5574244  54.0621104  25.0514232
 118.4682511  47.0461883  17.5875909 118.5898422  46.1178529  17.7866796
 118.1784553  47.0600569  16.6754224 112.4660916  52.8420195  28.1025267
 111.7242652  52.9902831  28.6889898 112.1453660  53.1028461  27.2392017
 120.4104579  62.3836174  27.9005657 120.7191705  62.1385320  28.7728357
 121.2080061  62.5882812  27.4124527 120.4325191  64.5374083  20.1311034
 119.9930181  64.0450462  20.8243890 121.1833308  63.9947051  19.8903109
 112.9117530  60.7285624  20.1335662 113.7375549  60.4289396  19.7534305
 112.5611582  59.9593247  20.5825450 117.8799063  60.0812092  22.2033335
 117.2579072  59.4182797  21.9035563 118.5503930  60.1073224  21.5206983
 111.1126135  58.6471951  21.0924595 110.2758043  58.2194125  20.9108597
 111.0849780  58.8404394  22.0295387 117.9523590  48.5593880  31.7965841
 118.0011746  49.4356003  31.4143611 118.4946104  48.0171274  31.2237485
 117.4412570  58.6316016  15.6791796 117.5900690  59.3151480  15.0258469
 118.2479013  58.6121106  16.1941252 120.1822879  49.3125253  28.5512200
 119.3126188  49.6058819  28.2794789 120.4182359  49.8965698  29.2719464
 115.1965203  54.6581193  16.6852865 114.9511245  53.7543523  16.8833075
 115.3661117  54.6598344  15.7432343 114.4660850  50.3909551  14.1839026
 113.7730095  50.4653906  13.5279062 114.2212602  49.6269895  14.7060543
 120.9407975  61.1264146  13.1503543 120.3681942  61.7454333  12.6974015
 121.5140769  61.6763508  13.6843465 121.2093466  56.5142705  31.9520253
 122.1296476  56.6921304  32.1460299 121.1743049  55.5698750  31.7999952
 110.4275631  51.7081299  20.8773527 110.1078416  50.8546607  20.5847902
 109.8809059  51.9229877  21.6331495 114.2055539  54.4243740  24.5943034
 114.4241549  55.3560848  24.6131068 114.6181313  54.0651714  25.3797838
 119.0783404  49.9976946  33.9845783 118.9780131  50.9471302  33.9157874
 118.8604946  49.6695184  33.1121853 110.2963891  55.3284210  22.8466649
 109.6027363  54.9138163  22.3336603 111.0436882  55.3704747  22.2500068
 118.9414674  53.4274084  32.8010845 118.4581756  54.2274444  33.0074734
 119.0275613  53.4382029  31.8478289 112.2100634  55.2602464  20.7232664
 112.1871322  55.3590151  19.7714547 112.5201270  56.1067615  21.0449830
 114.8688012  57.3178619  24.8379278 115.8231265  57.2862561  24.7709210
 114.6700535  56.8569243  25.6529504 115.4587394  55.8879735  27.4050076
 116.2780283  56.3823814  27.4284913 115.7324201  54.9711703  27.3767644
 113.2238240  62.8598239  21.8549476 113.0892708  62.0998639  21.2887474
 112.8070303  63.5839138  21.3878265 116.3807366  63.7567556  22.0667919
 116.2639750  64.7012988  21.9646609 115.5599813  63.4541117  22.4553718
 110.7122308  50.2217869  28.1042273 111.3581172  49.7116823  28.5929498
 110.5039459  50.9586551  28.6785698 117.4061880  64.4095817  25.2823847
 118.3089127  64.4419428  25.5990342 117.1799250  63.4796268  25.2970183
 119.1615482  63.1626804  21.9433926 118.2111113  63.1628666  21.8298298
 119.4647969  62.4159539  21.4269961 115.0519799  47.3685486  32.2017287
 115.9151261  47.0122291  32.4120612 114.4785210  47.0299381  32.8892692
 121.9103232  66.3947723  24.1902923 122.1611271  67.2794733  24.4560499
 122.4462781  66.2152325  23.4178015 119.1238277  69.5679626  20.7198878
 119.8109316  69.2541356  20.1319893 118.9686405  70.4720990  20.4466130
 118.7006253  67.6480219  22.9916345 118.7390352  67.1143810  23.7853463
 118.1946545  67.1215425  22.3727322 121.9519889  73.9763868  21.0924595
 121.1151797  73.5486043  20.9108597 121.9243535  74.1696312  22.0295387
 121.2669386  67.0373216  20.8773527 120.9472170  66.1838525  20.5847902
 120.7202814  67.2521795  21.6331495 121.1357646  70.6576128  22.8466649
 120.4421117  70.2430081  22.3336603 121.8830637  70.6996664  22.2500068
 121.5516062  65.5509787  28.1042273 122.1974926  65.0408741  28.5929498
 121.3433214  66.2878468  28.6785698   4.8216516  54.4969308 100.5106341
   4.0680225  53.9276706 100.3550346   4.9564057  54.4631973 101.4576976
   1.6432264  54.4672058  98.4150008   2.0863410  53.7179384  98.0169132
   0.7658774  54.4582195  98.0323740   1.1865129  55.9377297 100.8072456
   2.0212020  56.3767101 100.9710016   1.3224257  55.4615950  99.9880702
   5.2322931  54.6544918 103.2426586   5.9626320  54.3930206 103.8034289
   4.6229877  53.9173640 103.2828654   3.3138228  52.7952781 103.8401037
   2.5871392  52.6608746 103.2317529   2.8985515  53.1029609 104.6457755
   0.9316023  49.0164633 101.1934469   1.5260514  48.7760369 100.4827777
   1.0042607  48.2971764 101.8208005   3.2387096  52.3230834  99.9677890
   2.6786654  52.3924023 100.7409452   2.6330599  52.1471818  99.2477386
   4.8243114  68.9987348 102.6607845   5.4621524  68.8794095 101.9571186
   4.7063957  69.9468192 102.7195798   1.6332821  68.9514776 102.5969370
   1.2951332  68.8355841 101.7089905   2.5022589  68.5505941 102.5770376
   3.0719195  74.4721220  93.8980726   2.4207175  75.0575300  93.5114740
   3.8663558  75.0027415  93.9575763   4.3784383  66.7238802  99.7361053
   5.1647472  66.3058225  99.3851471   4.6423087  67.6284894  99.9042702
   4.5494460  72.1611652  94.4349710   3.9140293  72.2346278  95.1470615
   4.2191867  72.7505251  93.7568790   9.7792810  66.6614035 100.6394032
  10.5117982  66.0913252 100.8731861   9.0232166  66.2735635 101.0800538
   1.3968930  69.0841276  97.8357374   1.0327137  68.5571897  98.5470296
   2.2536046  68.6939745  97.6623860   7.3018230  60.3735609 105.0988641
   6.9701555  61.2431020 104.8749856   6.7063844  60.0571893 105.7782671
   1.0374417  64.1131176  92.8318723   1.2048819  64.9811412  93.1989194
   0.8471586  64.2758458  91.9080012   3.7949750  72.5748155 104.4984553
   3.4950473  73.4773194 104.3900361   3.4500809  72.3080338 105.3505706
   7.1946894  65.0930695 102.1781991   6.2863771  65.0246104 101.8840752
   7.1434490  65.5702640 103.0063816   9.0608540  63.2947133 103.9559865
   8.4182920  63.5879667 103.3099659   8.5563469  63.1800054 104.7613061
   6.7148704  67.0410307  94.6445724   7.6266560  67.2737693  94.4693421
   6.2058351  67.6247351  94.0820802   4.9989471  71.4634935 108.2807016
   5.4072828  71.0217345 107.5361649   4.2766733  70.8887562 108.5341209
   1.3520542  66.4007541 105.6540573   2.1981737  66.8246955 105.7975222
   1.2919179  65.7441166 106.3479136   5.3218286  72.0236125 102.0359305
   4.6927149  72.1881839 101.3335373   4.9343948  72.4377735 102.8070269
   9.2007518  72.9590563  99.3903669   8.5158556  73.3389464  98.8400702
   9.2851367  73.5685890 100.1235617   4.5019987  64.0611910 107.3121747
   4.2580919  64.8153970 106.7756023   4.7779917  64.4397257 108.1468994
   6.4558450  70.6050522 105.9899013   6.6675345  71.2482282 105.3133394
   6.4088198  69.7712839 105.5220943   4.0584679  63.2168343 102.8935585
   3.1969158  63.5149596 103.1852322   4.0847113  63.4338742 101.9616617
   0.8746248  71.7610533  99.3009390   1.3384594  72.0398236  98.5114013
   0.6103046  70.8593978  99.1182481   7.5704278  73.4822477 104.1621370
   8.3921721  73.0802665 103.8804052   7.5666680  73.3790712 105.1137486
  15.6610271  69.8261226 100.5106341  14.9073979  69.2568624 100.3550346
  15.7957812  69.7923890 101.4576976   1.0508899  74.6974628  96.1861061
   0.9154573  75.5426164  96.6145909   1.5918711  74.8993906  95.4226995
   4.4001362  58.2205190 104.7159954   4.0565632  59.1106832 104.6399065
   4.7680325  58.0306848 103.8529539   4.3651645  68.2113801  93.2232389
   3.8498268  68.9818406  93.4620777   4.0928953  67.5378937  93.8465451
   1.9498756  63.0563502  98.2817628   1.0940352  62.6670352  98.1023266
   2.3625708  63.1355463  97.4217413   3.4797903  60.5909845 102.6809187
   2.9762698  60.5539980 101.8676993   3.7728510  61.5002588 102.7405844
   9.3385919  70.9646156  95.1585563   8.5615362  70.6257315  94.7140725
  10.0177400  70.9698779  94.4840528   4.1537948  66.0840893  95.0492171
   3.8488084  66.3987042  95.9002314   5.1068390  66.1622313  95.0919503
   2.5984380  72.2431117  96.6985124   2.0705742  71.5083876  96.3858362
   2.0971883  73.0205793  96.4525093   7.5777226  70.4380137 101.8152171
   6.9200900  71.1279398 101.9032299   8.3817625  70.8276569 102.1586157
   6.3882685  68.7924510  99.8656113   6.9014567  69.4254502 100.3677822
   7.0383909  68.1925705  99.4999473   3.6505059  78.7708834  92.6216784
   2.9766758  79.0740531  93.2301742   4.0370881  79.5737914  92.2722241
   2.8663516  66.2673965 102.1114453   1.9486077  66.4888912 101.9536141
   3.2823659  66.3420276 101.2526160   3.6498563  67.6665381  97.2417133
   4.3970382  68.1786778  96.9324255   3.9190153  67.3449434  98.1021527
   1.9225214  70.1623922  94.2244088   1.0136433  69.8782955  94.3216557
   1.9520297  70.5823000  93.3647394   7.1544481  73.7730511  97.9935255
   6.7006808  72.9321421  98.0500446   6.5238448  74.4091910  98.3310035
   6.0977401  64.7022497  99.2235923   5.3600157  64.1899883  99.5546165
   6.3504174  64.2622879  98.4119199   5.5977420  75.6107008  98.9285073
   5.8900395  76.1712065  98.2097439   6.1076041  75.9035569  99.6838232
   6.1989028  57.4798749  99.8177692   6.5047905  56.6196113  99.5303607
   6.9241633  58.0716369  99.6176686   1.6201301  71.7032665  91.5632166
   1.1820731  70.9868524  91.1037804   2.3611742  71.9308780  91.0017258
   0.5611045  76.3887359 100.0178527   0.5187224  76.6148205  99.0887059
   1.4773744  76.1550734 100.1664328   4.0076679  66.8571427 106.9159156
   4.3626067  67.0842900 107.7753621   4.6548810  67.1889803 106.2936411
   9.7374416  69.9789862  97.6208485   9.5992315  70.1691458  96.6929674
   9.3810635  70.7409245  98.0776536   9.7643796  72.0466389 102.6319756
  10.1980302  71.9541679 103.4802810  10.4775377  72.0223890 101.9939772
   3.4971691  75.6468484 104.1652857   3.5508713  76.2159420 104.9330573
   2.6286472  75.8170369 103.8006894  10.6259345  72.0890090 105.1652642
  10.8195235  72.9935901 105.4111917  10.5259964  71.6297509 105.9991227
   2.2795656  61.9747981 107.6642969   1.6323571  62.6737930 107.5707445
   3.0496671  62.4084125 108.0319217   2.4559790  69.8128746 105.7239789
   3.3851850  69.9639905 105.5508756   2.0350820  69.9012766 104.8688435
   1.8496274  78.9388506  94.8363863   2.0248030  78.4676550  95.6509486
   1.1629062  79.5654273  95.0645124   2.8053337  73.2161013 100.8827164
   2.4703170  73.1761783 101.7784814   2.3057283  72.5505729 100.4097574
   5.7412529  70.5617047  91.1564224   5.1241700  69.8363875  91.0597276
   5.2729017  71.3226407  90.8131298   7.3966661  75.2715955 108.8170004
   7.3379207  74.5875176 108.1500587   7.7986179  76.0134945 108.3650630
   7.3984068  73.2355539 107.0483984   6.5110847  72.8981461 107.1710383
   7.9682619  72.5038571 107.2852749   4.0271651  62.9423391 100.1682254
   4.5240351  62.1893354  99.8483324   3.2558633  62.9787708  99.6025463
  11.8801408  68.6463757 101.8100545  11.8691285  69.5288472 101.4394479
  11.0118788  68.2935308 101.6155083   5.1101432  71.6995078  97.7420677
   4.1757711  71.8196541  97.5725382   5.2878100  70.7967545  97.4780687
   8.4973983  67.5412398  98.2770711   8.9634435  68.3740389  98.2031014
   8.9481484  67.0757379  98.9815970   6.5650214  73.8856219  95.2756864
   6.8410058  73.7712814  96.1850738   5.6954713  73.4873704  95.2369037
   6.4690646  59.9092985 102.3161613   5.5553726  60.1397212 102.4843820
   6.8983747  59.9931429 103.1675645   6.2397104  68.0982877 104.8161507
   5.5868555  68.3458784 104.1613960   6.6177484  67.2847015 104.4823984
   3.2004278  78.1342570  98.9189677   3.3826673  77.3164226  99.3817429
   4.0237264  78.3510262  98.4814567   3.5346444  77.0610755  96.1804726
   4.0634210  76.5503210  95.5674888   3.7974663  76.7453285  97.0450259
   4.1675848  78.0951591 102.5248842   4.0426987  77.2941331 102.0159788
   4.8254939  78.5897784 102.0362812   6.2310756  75.8960611 104.1528392
   5.2841091  75.7765962 104.0806719   6.5793529  75.0083109 104.2354654
   3.2357189  75.6913327 100.3532744   3.0882152  74.7630034 100.5340314
   4.0610683  75.7133418  99.8689820   6.8391311  76.5141886 101.4397617
   7.7637859  76.3084747 101.3022068   6.6706614  76.2658287 102.3486959
   3.2318704  63.5451165  95.3464862   3.4482318  64.4275802  95.0453690
   2.7512771  63.1537378  94.6170504   1.6840439  63.9276766 104.0169623
   1.4258216  64.8493837 104.0153954   1.1525479  63.5307201 104.7070087
   6.6286627  77.0327553  96.7959709   6.8023505  76.4673976  96.0433561
   7.1215519  77.8328448  96.6139199   2.1042394  60.0608717 100.3770786
   2.1264091  60.1248050  99.4222765   2.5210453  59.2213225 100.5711292
  12.4826018  69.7963976  98.4150008  12.9257164  69.0471301  98.0169132
  11.6052529  69.7874112  98.0323740   7.6161800  76.3494318  93.8956607
   8.3112704  76.9701010  94.1143922   7.9584950  75.4989669  94.1708985
   9.5153223  73.7994023  95.4243938  10.0404547  74.1381296  94.6993258
   9.4275575  72.8641038  95.2407072   1.1993884  79.8666006  99.7839191
   0.7598874  79.3742385 100.4772048   1.9502001  79.3238974  99.5431266
   9.3245004  71.2819393 108.0427864   9.3743009  71.1169401 108.9843387
   9.2158927  70.4146652 107.6525745   6.6148766  67.2650321 109.3587171
   7.5158629  67.1256786 109.0671169   6.6896741  67.4304776 110.2985348
  10.8263201  73.7016335 108.2869886  10.5348009  74.0646315 109.1233347
  10.2135332  72.9883343 108.1083218  12.0258883  71.2669214 100.8072456
  12.8605775  71.7059018 100.9710016  12.1618012  70.7907868  99.9880702
   9.0750389  68.8248949 106.7549944   9.5504511  69.0176596 105.9468795
   8.1515954  68.8808135 106.5093327   3.6530606  60.8596793 105.7205778
   4.1712549  61.5957820 105.3952266   3.2985738  61.1660786 106.5552537
   3.9043200  57.2797075 101.2406674   4.1844954  56.6120264 101.8667101
   4.6893807  57.4726171 100.7281338   1.7076668  76.4556069  92.8031700
   1.1350635  77.0746256  92.3502172   2.2809462  77.0055431  93.3371622
   7.7752058  65.7014709 104.9878249   8.7269481  65.8012807 105.0090473
   7.6055508  64.9092978 105.4976334   5.7966438  62.7870293 105.1737650
   5.2016370  63.0675305 104.4784139   5.5116134  63.2764193 105.9454391
   4.9273928  76.7393219  93.9340283   5.8604601  76.6738781  94.1373158
   4.8397141  77.5749486  93.4754815   7.5561945  76.0559090  90.8944230
   7.4775576  75.7218953  91.7879988   8.3771611  76.5480858  90.8935703
  10.2540136  68.9220829 104.1020549  10.2216456  67.9836830 104.2880233
  10.8640760  69.0004866 103.3686374   2.0923467  67.7916882  90.1447753
   3.0382571  67.6623090  90.2136171   1.7137712  67.0531544  90.6217181
  10.4034624  65.7131872 104.1478832   9.8873673  64.9290329 103.9608761
  11.2874573  65.3850589 104.3125352   8.0645351  59.4572888 100.1074645
   7.8670172  59.1487976 100.9917977   8.6745057  60.1834527 100.2372575
  16.0716686  69.9836836 103.2426586  16.8020074  69.7222124 103.8034289
  15.4623631  69.2465558 103.2828654  14.1531983  68.1244698 103.8401037
  13.4265146  67.9900663 103.2317529  13.7379270  68.4321527 104.6457755
   1.8928450  60.2603748  96.2346880   1.0829178  59.9150833  96.6102126
   2.5812867  59.9511292  96.8234491   3.8218998  59.3381795  97.8571176
   4.3750037  59.7577248  98.5161199   4.0589084  58.4117543  97.8994132
   7.1997805  61.4482320  97.3649840   6.6196474  62.1067124  96.9827893
   6.9333738  60.6259665  96.9537258   5.6501371  60.8487378  99.5671161
   6.1501150  60.9603912  98.7585480   6.2936979  60.5448431 100.2071969
   5.9822683  63.6082410  96.4206189   5.0948538  63.8932061  96.2026383
   6.3976672  63.4476174  95.5733466   9.3337219  63.6328931 100.1360528
  10.1097609  64.1225384 100.4085145   8.6085353  64.0586986 100.5932397
  11.7709778  64.3456551 101.1934469  12.3654269  64.1052287 100.4827777
  11.8436361  63.6263681 101.8208005   5.1265896  73.3727085  90.5154209
   5.8301747  73.5777088  91.1311864   4.4028545  73.9403847  90.7803292
   5.9563707  69.1236946  96.6356479   5.8998908  69.5805498  95.7964111
   6.5092049  68.3627631  96.4579322   9.7668513  64.9126678  97.4606598
   9.5105447  64.5123314  98.2914806   9.1421381  65.6270472  97.3356737
  14.0780851  67.6522751  99.9677890  13.5180408  67.7215941 100.7409452
  13.4724354  67.4763736  99.2477386   7.0352594  73.8109614  92.5652669
   7.8698198  73.3790813  92.3830143   6.8736937  73.6391628  93.4929563
   6.6898486  70.3141728  93.9309008   6.6347290  70.1485999  92.9897452
   6.0644541  71.0217761  94.0871198   3.8146731  56.4092613  97.7640263
   3.0479127  55.8551100  97.9096946   4.2257436  56.4814482  98.6254415
  15.6636869  84.3279265 102.6607845  16.3015279  84.2086013 101.9571186
  15.5457712  85.2760109 102.7195798  12.4726575  84.2806694 102.5969370
  12.1345087  84.1647758 101.7089905  13.3416343  83.8797859 102.5770376
   8.3313391  86.1342170  98.5866261   7.7678256  86.0432107  97.8182549
   8.2165786  85.3142074  99.0668754  13.9112950  89.8013138  93.8980726
  13.2600929  90.3867218  93.5114740  14.7057312  90.3319333  93.9575763
   7.8368577  86.8902275  94.2967860   8.6099453  86.3431262  94.1580736
   8.1893976  87.7546524  94.5082322  10.6009826  85.5955506 104.0936119
  11.1973398  85.3711528 103.3793082  10.6584798  84.8540251 104.6961567
  10.1734855  83.0494941  91.9286310  10.4260375  82.5276462  91.1669773
   9.2359414  82.8861086  92.0312994  15.2178137  82.0530719  99.7361053
  16.0041227  81.6350142  99.3851471  15.4816842  82.9576811  99.9042702
  15.3888215  87.4903570  94.4349710  14.7534048  87.5638196  95.1470615
  15.0585621  88.0797168  93.7568790  20.6186565  81.9905952 100.6394032
  21.3511737  81.4205169 100.8731861  19.8625920  81.6027553 101.0800538
   9.8931143  84.9523047  94.1310685   9.7767401  84.2767950  94.7991770
  10.0033403  84.4655421  93.3142838  12.2362684  84.4133194  97.8357374
  11.8720892  83.8863815  98.5470296  13.0929800  84.0231663  97.6623860
  18.1411985  75.7027527 105.0988641  17.8095310  76.5722938 104.8749856
  17.5457598  75.3863811 105.7782671  11.8768171  79.4423094  92.8318723
  12.0442574  80.3103330  93.1989194  11.6865340  79.6050375  91.9080012
  14.6343504  87.9040073 104.4984553  14.3344228  88.8065111 104.3900361
  14.2894564  87.6372256 105.3505706   8.0855986  84.3553869 100.5321258
   7.1606482  84.2230084 100.7398950   8.3340399  85.1348089 101.0291200
  18.0340648  80.4222613 102.1781991  17.1257526  80.3538021 101.8840752
  17.9828244  80.8994558 103.0063816  11.8557392  81.8980751  93.8165390
  11.7357017  82.3437802  94.6550870  11.1609981  82.2466069  93.2578928
   9.6164284  94.6684393  97.4655521   9.5388314  95.6192218  97.5444002
   9.0125928  94.3230265  98.1230447  19.9002295  78.6239051 103.9559865
  19.2576675  78.9171584 103.3099659  19.3957223  78.5091971 104.7613061
  17.5542458  82.3702224  94.6445724  18.4660314  82.6029611  94.4693421
  17.0452105  82.9539269  94.0820802  15.8383226  86.7926852 108.2807016
  16.2466582  86.3509263 107.5361649  15.1160487  86.2179480 108.5341209
  12.1914296  81.7299459 105.6540573  13.0375491  82.1538873 105.7975222
  12.1312934  81.0733083 106.3479136  16.1612041  87.3528043 102.0359305
  15.5320903  87.5173757 101.3335373  15.7737703  87.7669652 102.8070269
  20.0401273  88.2882481  99.3903669  19.3552311  88.6681382  98.8400702
  20.1245122  88.8977807 100.1235617  15.3413741  79.3903827 107.3121747
  15.0974673  80.1445888 106.7756023  15.6173672  79.7689175 108.1468994
  17.2952204  85.9342440 105.9899013  17.5069099  86.5774200 105.3133394
  17.2481952  85.1004756 105.5220943  14.8978433  78.5460260 102.8935585
  14.0362912  78.8441514 103.1852322  14.9240868  78.7630659 101.9616617
  11.7140002  87.0902451  99.3009390  12.1778348  87.3690154  98.5114013
  11.4496801  86.1885895  99.1182481   8.6064084  86.6373932 102.2389154
   9.1765441  87.0661201 101.6006638   9.1972195  86.3556517 102.9373339
  10.6508889  83.2125603  96.1098956  11.3532932  83.6646647  96.5772882
  10.3189517  82.5709422  96.7378849   4.3934223  81.4709156 101.4116089
   3.6033276  81.7266684 100.9356200   4.8845470  82.2857494 101.5168130
  18.4098032  88.8114395 104.1621370  19.2315476  88.4094582 103.8804052
  18.4060435  88.7082629 105.1137486   6.3448968  81.8353735  98.3699566
   5.5480131  81.9472429  98.8883061   6.1174560  82.1740387  97.5040456
  26.5004025  85.1553144 100.5106341  25.7467734  84.5860542 100.3550346
  26.6351566  85.1215808 101.4576976  11.8902653  90.0266546  96.1861061
  11.7548328  90.8718082  96.6145909  12.4312466  90.2285824  95.4226995
   5.3432051  87.5441984  96.7588986   5.8556571  88.3385234  96.9094551
   5.9954763  86.8468274  96.6922587   7.1526935  90.6607740  98.8411739
   7.3293564  91.5825705  98.6532723   7.9483769  90.3466159  99.2706119
  11.2937954  77.5216005 110.4395673  12.0347667  78.1223158 110.3600135
  11.5255877  76.7793643 109.8813715  15.2395117  73.5497108 104.7159954
  14.8959386  74.4398749 104.6399065  15.6074079  73.3598765 103.8529539
   3.3080967  85.8730638  97.5348556   4.1456189  86.2827647  97.3182264
   3.4859235  84.9330080  97.5048750  15.2045399  83.5405719  93.2232389
  14.6892023  84.3110324  93.4620777  14.9322708  82.8670855  93.8465451
  12.7892510  78.3855420  98.2817628  11.9334107  77.9962270  98.1023266
  13.2019462  78.4647380  97.4217413  14.3191657  75.9201763 102.6809187
  13.8156453  75.8831898 101.8676993  14.6122264  76.8294506 102.7405844
  10.5634543  76.0040493 101.6875369  11.4287540  75.8083301 101.3281259
  10.6312052  75.7750844 102.6144726  20.1779674  86.2938074  95.1585563
  19.4009116  85.9549233  94.7140725  20.8571155  86.2990697  94.4840528
  14.9931703  81.4132811  95.0492171  14.6881838  81.7278960  95.9002314
  15.9462145  81.4914231  95.0919503  13.4378134  87.5723034  96.6985124
  12.9099496  86.8375794  96.3858362  12.9365637  88.3497711  96.4525093
  18.4170981  85.7672055 101.8152171  17.7594655  86.4571316 101.9032299
  19.2211380  86.1568487 102.1586157   8.1696862  78.2342701  99.0591736
   8.7440614  78.0117882  98.3264929   8.7567845  78.3031395  99.8120337
  17.2276439  84.1216427  99.8656113  17.7408321  84.7546419 100.3677822
  17.8777663  83.5217623  99.4999473   8.4966449  80.2647162  93.0787621
   7.6603761  80.6021848  93.3996896   8.3571219  80.1296141  92.1414758
  10.4719530  75.1083949  97.7866805   9.8183942  74.7932967  97.1623420
  10.4300004  74.4859690  98.5126628  11.5830735  85.3903245  89.7020098
  10.6757796  85.1592498  89.9011246  12.0801767  84.5940864  89.8894079
  14.4898814  94.1000752  92.6216784  13.8160512  94.4032448  93.2301742
  14.8764636  94.9029832  92.2722241  13.7057270  81.5965883 102.1114453
  12.7879832  81.8180830 101.9536141  14.1217414  81.6712193 101.2526160
  14.4892318  82.9957299  97.2417133  15.2364137  83.5078696  96.9324255
  14.7583907  82.6741351  98.1021527  12.7618968  85.4915839  94.2244088
  11.8530187  85.2074872  94.3216557  12.7914052  85.9114918  93.3647394
  17.9938236  89.1022429  97.9935255  17.5400563  88.2613339  98.0500446
  17.3632202  89.7383827  98.3310035  16.9371155  80.0314415  99.2235923
  16.1993912  79.5191801  99.5546165  17.1897929  79.5914797  98.4119199
  16.4371175  90.9398926  98.9285073  16.7294149  91.5003983  98.2097439
  16.9469795  91.2327487  99.6838232  17.0382782  72.8090667  99.8177692
  17.3441659  71.9488030  99.5303607  17.7635387  73.4008287  99.6176686
   3.3307138  83.2121354  98.2059290   3.1331538  82.6190714  97.4810356
   2.7753802  82.9073564  98.9235229  11.3103862  83.1044460 100.3253883
  11.3652472  82.1518296 100.2496360  10.4995064  83.2603899 100.8095181
  12.4595056  87.0324583  91.5632166  12.0214486  86.3160442  91.1037804
  13.2005497  87.2600698  91.0017258   9.2496222  81.7221520  98.0844262
   8.4364088  82.0215690  98.4909454   9.7455216  81.3277209  98.8018744
  11.4004800  91.7179277 100.0178527  11.3580979  91.9440123  99.0887059
  12.3167499  91.4842651 100.1664328  14.8470434  82.1863344 106.9159156
  15.2019821  82.4134817 107.7753621  15.4942565  82.5181721 106.2936411
  20.5768171  85.3081780  97.6208485  20.4386069  85.4983376  96.6929674
  20.2204389  86.0701163  98.0776536   8.7410297  79.2939875 103.7005497
   9.3809676  79.1528634 103.0028460   7.9087827  79.0074389 103.3244099
  20.6037550  87.3758307 102.6319756  21.0374057  87.2833596 103.4802810
  21.3169131  87.3515808 101.9939772   9.5170601  88.5942306  99.8140489
  10.3111199  88.0992626  99.6123064   8.8062293  88.0660169  99.4508195
  14.3365445  90.9760401 104.1652857  14.3902467  91.5451338 104.9330573
  13.4680227  91.1462286 103.8006894   5.8253364  82.7385387  95.8900242
   4.8950952  82.6769843  96.1070204   5.9210836  82.2161340  95.0936883
   5.7438913  79.2640200  98.4778484   6.0045731  80.1785534  98.3687644
   6.5656086  78.7964643  98.6275096  21.4653100  87.4182008 105.1652642
  21.6588990  88.3227818 105.4111917  21.3653718  86.9589427 105.9991227
  13.1189411  77.3039898 107.6642969  12.4717326  78.0029848 107.5707445
  13.8890426  77.7376042 108.0319217  13.2953545  85.1420663 105.7239789
  14.2245605  85.2931823 105.5508756  12.8744575  85.2304684 104.8688435
  12.0941877  89.1671328 103.4938326  11.9552962  88.7990112 104.3664264
  11.3056473  89.6818967 103.3222284  12.6890029  94.2680424  94.8363863
  12.8641784  93.7968467  95.6509486  12.0022817  94.8946190  95.0645124
  13.6447092  88.5452930 100.8827164  13.3096924  88.5053700 101.7784814
  13.1451038  87.8797646 100.4097574  16.5806284  85.8908965  91.1564224
  15.9635454  85.1655793  91.0597276  16.1122772  86.6518325  90.8131298
  18.2360415  90.6007873 108.8170004  18.1772961  89.9167093 108.1500587
  18.6379934  91.3426863 108.3650630   8.3704829  80.1094389  90.2785528
   7.4934296  79.9883190  89.9147775   8.8462582  79.3180467  90.0264417
  18.2377822  88.5647457 107.0483984  17.3504601  88.2273379 107.1710383
  18.8076374  87.8330488 107.2852749  11.5568755  92.4620679  97.5248049
  10.7736277  93.0042360  97.6186273  12.2561501  92.9794659  97.9242290
  14.8665406  78.2715309 100.1682254  15.3634105  77.5185271  99.8483324
  14.0952387  78.3079626  99.6025463  22.7195163  83.9755674 101.8100545
  22.7085039  84.8580390 101.4394479  21.8512542  83.6227225 101.6155083
  15.9495186  87.0286996  97.7420677  15.0151465  87.1488459  97.5725382
  16.1271855  86.1259463  97.4780687  11.4500374  80.4132692  99.8953939
  11.0798162  79.8603732 100.5834844  11.9459467  79.8090825  99.3428939
  19.3367738  82.8704315  98.2770711  19.8028190  83.7032307  98.2031014
  19.7875238  82.4049297  98.9815970  17.4043969  89.2148137  95.2756864
  17.6803813  89.1004731  96.1850738  16.5348467  88.8165622  95.2369037
  17.3084400  75.2384902 102.3161613  16.3947480  75.4689129 102.4843820
  17.7377502  75.3223346 103.1675645  17.0790859  83.4274794 104.8161507
  16.4262309  83.6750702 104.1613960  17.4571239  82.6138933 104.4823984
  14.0398033  93.4634487  98.9189677  14.2220427  92.6456143  99.3817429
  14.8631019  93.6802180  98.4814567  14.3740198  92.3902673  96.1804726
  14.9027965  91.8795127  95.5674888  14.6368418  92.0745203  97.0450259
   6.8465708  77.8236683 106.1407045   6.9107034  78.6851514 105.7284442
   6.7832828  77.2110684 105.4079403   3.0983523  81.7036244  95.7198434
   3.3936964  80.7946923  95.6665487   2.1971559  81.6823984  95.3979436
  15.0069602  93.4243508 102.5248842  14.8820741  92.6233248 102.0159788
  15.6648693  93.9189702 102.0362812   6.6277770  79.7792241 101.7025982
   5.9064356  80.3928209 101.5633456   7.4171026  80.3150006 101.6242628
  17.0704510  91.2252528 104.1528392  16.1234846  91.1057880 104.0806719
  17.4187284  90.3375026 104.2354654   9.4304084  77.1146667 107.9766634
   9.9538486  77.3608964 108.7392943   9.2116417  77.9466702 107.5569771
   4.8271365  79.3850342  95.8437759   4.4984071  78.5047721  95.6612865
   5.1810736  79.3298011  96.7314148  14.0750944  91.0205245 100.3532744
  13.9275906  90.0921952 100.5340314  14.9004437  91.0425335  99.8689820
   7.9413188  79.6723312  96.2113237   8.2809261  80.2009233  95.4891845
   8.3885308  80.0103718  96.9871803  17.6785066  91.8433803 101.4397617
  18.6031613  91.6376665 101.3022068  17.5100369  91.5950205 102.3486959
  10.6356629  78.0560362 105.6616305  10.2953449  77.2568176 106.0636984
   9.9295635  78.3562073 105.0893138  11.2873101  75.1409675 104.1143628
  12.1099170  74.6670153 103.9922518  11.5311164  75.9200159 104.6142314
   9.9281335  78.1697933  94.4106529  10.6489698  78.5479186  93.9070246
   9.3046639  78.8886810  94.5141507  14.0712458  78.8743082  95.3464862
  14.2876072  79.7567720  95.0453690  13.5906525  78.4829296  94.6170504
   8.8111679  81.8328796 101.9235606   8.6656260  82.1469099 102.8159888
   8.3336883  82.4513696 101.3706505  10.6708062  78.8231344 101.9716496
  10.6569631  77.9272437 101.6348794  11.3880490  78.8302007 102.6054782
  12.5234193  79.2568684 104.0169623  12.2651971  80.1785754 104.0153954
  11.9919233  78.8599118 104.7070087  17.4680382  92.3619471  96.7959709
  17.6417259  91.7965893  96.0433561  17.9609273  93.1620366  96.6139199
  10.0744958  77.7045724  97.2404066  10.1960869  76.7762370  97.4394953
   9.7847001  77.7184410  96.3282381  12.9436149  75.3900634 100.3770786
  12.9657845  75.4539967  99.4222765  13.3604208  74.5505143 100.5711292
  23.3219773  85.1255894  98.4150008  23.7650919  84.3763219  98.0169132
  22.4446283  85.1166030  98.0323740  18.4555554  91.6786235  93.8956607
  19.1506459  92.2992928  94.1143922  18.7978704  90.8281586  94.1708985
  20.3546977  89.1285941  95.4243938  20.8798301  89.4673214  94.6993258
  20.2669330  88.1932956  95.2407072  12.0387638  95.1957924  99.7839191
  11.5992628  94.7034303 100.4772048  12.7895755  94.6530892  99.5431266
  20.1638758  86.6111311 108.0427864  20.2136763  86.4461318 108.9843387
  20.0552682  85.7438570 107.6525745   9.0475017  89.2899856  95.3319953
   9.1963138  89.9735321  94.6786626   9.8541461  89.2704947  95.8469409
  17.4542521  82.5942239 109.3587171  18.3552384  82.4548704 109.0671169
  17.5290495  82.7596694 110.2985348  11.7885326  79.9709094 108.2040357
  10.9188636  80.2642660 107.9322946  12.0244807  80.5549539 108.9247621
  21.6656955  89.0308252 108.2869886  21.3741764  89.3938233 109.1233347
  21.0529087  88.3175261 108.1083218  22.8652638  86.5961132 100.8072456
  23.6999529  87.0350936 100.9710016  23.0011766  86.1199785  99.9880702
  19.9144144  84.1540867 106.7549944  20.3898265  84.3468513 105.9468795
  18.9909709  84.2100053 106.5093327   6.8027650  85.3165034  96.3381022
   6.5573692  84.4127364  96.5361232   6.9723565  85.3182185  95.3960500
  14.4924360  76.1888710 105.7205778  15.0106304  76.9249737 105.3952266
  14.1379493  76.4952704 106.5552537   6.0723298  81.0493392  93.8367183
   5.3792543  81.1237747  93.1807219   5.8275050  80.2853735  94.3588700
  14.7436954  72.6088993 101.2406674  15.0238708  71.9412182 101.8667101
  15.5287561  72.8018089 100.7281338  12.5470423  91.7847987  92.8031700
  11.9744390  92.4038174  92.3502172  13.1203216  92.3347349  93.3371622
  18.6145813  81.0306627 104.9878249  19.5663235  81.1304725 105.0090473
  18.4449263  80.2384896 105.4976334  16.6360192  78.1162210 105.1737650
  16.0410124  78.3967223 104.4784139  16.3509889  78.6056111 105.9454391
  15.7667683  92.0685137  93.9340283  16.6998356  92.0030699  94.1373158
  15.6790895  92.9041404  93.4754815  18.3955699  91.3851007  90.8944230
  18.3169331  91.0510871  91.7879988  19.2165366  91.8772775  90.8935703
  21.0933890  84.2512747 104.1020549  21.0610210  83.3128747 104.2880233
  21.7034514  84.3296783 103.3686374  12.9317221  83.1208800  90.1447753
  13.8776326  82.9915008  90.2136171  12.5531466  82.3823462  90.6217181
  21.2428379  81.0423790 104.1478832  20.7267427  80.2582247 103.9608761
  22.1268327  80.7142507 104.3125352  18.9039106  74.7864806 100.1074645
  18.7063927  74.4779894 100.9917977  19.5138811  75.5126445 100.2372575
  26.9110440  85.3128754 103.2426586  27.6413829  85.0514042 103.8034289
  26.3017386  84.5757475 103.2828654  24.9925737  83.4536616 103.8401037
  24.2658901  83.3192581 103.2317529  24.5773024  83.7613445 104.6457755
  11.1160138  81.0458776  90.0802638  10.2091594  80.7491889  90.1565352
  11.3936119  80.7488594  89.2136924  12.7322204  75.5895666  96.2346880
  11.9222932  75.2442751  96.6102126  13.4206621  75.2803210  96.8234491
  14.6612752  74.6673713  97.8571176  15.2143791  75.0869166  98.5161199
  14.8982839  73.7409461  97.8994132   9.8858923  77.9045711  90.2214617
  10.7478087  78.2300610  90.4810435  10.0709267  77.1177207  89.7087683
  18.0391559  76.7774238  97.3649840  17.4590229  77.4359042  96.9827893
  17.7727492  75.9551582  96.9537258  16.4895126  76.1779295  99.5671161
  16.9894904  76.2895830  98.7585480  17.1330734  75.8740348 100.2071969
  16.8216437  78.9374328  96.4206189  15.9342293  79.2223979  96.2026383
  17.2370427  78.7768091  95.5733466  20.1730974  78.9620849 100.1360528
  20.9491364  79.4517302 100.4085145  19.4479108  79.3878903 100.5932397
  22.6103532  79.6748468 101.1934469  23.2048023  79.4344204 100.4827777
  22.6830116  78.9555599 101.8208005  15.9659651  88.7019003  90.5154209
  16.6695501  88.9069005  91.1311864  15.2422300  89.2695765  90.7803292
  16.7957461  84.4528864  96.6356479  16.7392663  84.9097415  95.7964111
  17.3485804  83.6919549  96.4579322  20.6062267  80.2418596  97.4606598
  20.3499201  79.8415232  98.2914806  19.9815135  80.9562390  97.3356737
  24.9174605  82.9814669  99.9677890  24.3574163  83.0507858 100.7409452
  24.3118108  82.8055654  99.2477386  17.8746348  89.1401532  92.5652669
  18.7091952  88.7082730  92.3830143  17.7130691  88.9683546  93.4929563
  17.5292241  85.6433645  93.9309008  17.4741044  85.4777917  92.9897452
  16.9038296  86.3509678  94.0871198  10.8388366  75.1441754  93.5094326
  10.8267036  76.0883594  93.6662597  11.7311788  74.9611900  93.2153788
  14.6540485  71.7384531  97.7640263  13.8872881  71.1843018  97.9096946
  15.0651190  71.8106400  98.6254415  26.5030623  99.6571183 102.6607845
  27.1409033  99.5377930 101.9571186  26.3851466 100.6052027 102.7195798
  23.3120330  99.6098611 102.5969370  22.9738841  99.4939676 101.7089905
  24.1810098  99.2089776 102.5770376  19.1707145 101.4634088  98.5866261
  18.6072011 101.3724025  97.8182549  19.0559540 100.6433992  99.0668754
  24.7506704 105.1305055  93.8980726  24.0994684 105.7159136  93.5114740
  25.5451067 105.6611250  93.9575763  18.6762331 102.2194192  94.2967860
  19.4493207 101.6723180  94.1580736  19.0287730 103.0838442  94.5082322
  21.4403581 100.9247423 104.0936119  22.0367153 100.7003446 103.3793082
  21.4978552 100.1832169 104.6961567  21.0128609  98.3786859  91.9286310
  21.2654130  97.8568380  91.1669773  20.0753168  98.2153004  92.0312994
  26.0571892  97.3822637  99.7361053  26.8434981  96.9642060  99.3851471
  26.3210596  98.2868729  99.9042702  26.2281969 102.8195487  94.4349710
  25.5927802 102.8930114  95.1470615  25.8979376 103.4089086  93.7568790
  31.4580319  97.3197870 100.6394032  32.1905491  96.7497087 100.8731861
  30.7019675  96.9319471 101.0800538  20.7324898 100.2814965  94.1310685
  20.6161156  99.6059868  94.7991770  20.8427158  99.7947338  93.3142838
  23.0756439  99.7425112  97.8357374  22.7114646  99.2155733  98.5470296
  23.9323555  99.3523581  97.6623860  28.9805739  91.0319444 105.0988641
  28.6489064  91.9014855 104.8749856  28.3851353  90.7155728 105.7782671
  22.7161926  94.7715011  92.8318723  22.8836328  95.6395248  93.1989194
  22.5259095  94.9342293  91.9080012  25.4737259 103.2331990 104.4984553
  25.1737982 104.1357029 104.3900361  25.1288318 102.9664173 105.3505706
  18.9249740  99.6845787 100.5321258  18.0000237  99.5522001 100.7398950
  19.1734154 100.4640006 101.0291200  28.8734403  95.7514530 102.1781991
  27.9651280  95.6829939 101.8840752  28.8221999  96.2286475 103.0063816
  22.6951147  97.2272669  93.8165390  22.5750772  97.6729720  94.6550870
  22.0003735  97.5757987  93.2578928  20.4558039 109.9976311  97.4655521
  20.3782068 110.9484136  97.5444002  19.8519682 109.6522183  98.1230447
  30.7396049  93.9530969 103.9559865  30.0970429  94.2463502 103.3099659
  30.2350978  93.8383889 104.7613061  28.3936213  97.6994142  94.6445724
  29.3054069  97.9321529  94.4693421  27.8845860  98.2831186  94.0820802
  26.6776980 102.1218770 108.2807016  27.0860337 101.6801180 107.5361649
  25.9554242 101.5471397 108.5341209  23.0308051  97.0591377 105.6540573
  23.8769246  97.4830790 105.7975222  22.9706688  96.4025001 106.3479136
  27.0005795 102.6819960 102.0359305  26.3714658 102.8465675 101.3335373
  26.6131457 103.0961570 102.8070269  30.8795027 103.6174398  99.3903669
  30.1946065 103.9973300  98.8400702  30.9638876 104.2269725 100.1235617
  26.1807496  94.7195745 107.3121747  25.9368428  95.4737806 106.7756023
  26.4567426  95.0981093 108.1468994  28.1345959 101.2634357 105.9899013
  28.3462854 101.9066117 105.3133394  28.0875707 100.4296674 105.5220943
  25.7372188  93.8752178 102.8935585  24.8756667  94.1733432 103.1852322
  25.7634622  94.0922577 101.9616617  22.5533757 102.4194369  99.3009390
  23.0172103 102.6982072  98.5114013  22.2890555 101.5177813  99.1182481
  19.4457838 101.9665850 102.2389154  20.0159195 102.3953118 101.6006638
  20.0365950 101.6848435 102.9373339  21.4902643  98.5417521  96.1098956
  22.1926686  98.9938565  96.5772882  21.1583272  97.9001340  96.7378849
  15.2327977  96.8001074 101.4116089  14.4427031  97.0558602 100.9356200
  15.7239224  97.6149411 101.5168130  29.2491787 104.1406313 104.1621370
  30.0709230 103.7386500 103.8804052  29.2454189 104.0374547 105.1137486
  17.1842722  97.1645653  98.3699566  16.3873886  97.2764347  98.8883061
  16.9568315  97.5032305  97.5040456  37.3397780 100.4845061 100.5106341
  36.5861488  99.9152459 100.3550346  37.4745321 100.4507726 101.4576976
  22.7296408 105.3558464  96.1861061  22.5942082 106.2009999  96.6145909
  23.2706220 105.5577741  95.4226995  16.1825805 102.8733902  96.7588986
  16.6950326 103.6677152  96.9094551  16.8348518 102.1760192  96.6922587
  17.9920690 105.9899658  98.8411739  18.1687318 106.9117623  98.6532723
  18.7877523 105.6758077  99.2706119  22.1331708  92.8507922 110.4395673
  22.8741422  93.4515076 110.3600135  22.3649631  92.1085560 109.8813715
  26.0788871  88.8789025 104.7159954  25.7353141  89.7690667 104.6399065
  26.4467834  88.6890683 103.8529539  14.1474722 101.2022556  97.5348556
  14.9849944 101.6119564  97.3182264  14.3252990 100.2621998  97.5048750
  26.0439154  98.8697637  93.2232389  25.5285777  99.6402241  93.4620777
  25.7716462  98.1962773  93.8465451  23.6286265  93.7147337  98.2817628
  22.7727861  93.3254188  98.1023266  24.0413217  93.7939298  97.4217413
  25.1585412  91.2493681 102.6809187  24.6550207  91.2123816 101.8676993
  25.4516018  92.1586423 102.7405844  21.4028298  91.3332410 101.6875369
  22.2681294  91.1375219 101.3281259  21.4705806  91.1042762 102.6144726
  31.0173428 101.6229991  95.1585563  30.2402871 101.2841151  94.7140725
  31.6964909 101.6282614  94.4840528  25.8325457  96.7424729  95.0492171
  25.5275593  97.0570878  95.9002314  26.7855899  96.8206149  95.0919503
  24.2771889 102.9014952  96.6985124  23.7493251 102.1667712  96.3858362
  23.7759392 103.6789628  96.4525093  29.2564735 101.0963972 101.8152171
  28.5988409 101.7863234 101.9032299  30.0605134 101.4860404 102.1586157
  19.0090617  93.5634618  99.0591736  19.5834368  93.3409800  98.3264929
  19.5961599  93.6323313  99.8120337  28.0670194  99.4508345  99.8656113
  28.5802076 100.0838337 100.3677822  28.7171418  98.8509541  99.4999473
  19.3360204  95.5939079  93.0787621  18.4997516  95.9313766  93.3996896
  19.1964973  95.4588059  92.1414758  21.3113284  90.4375867  97.7866805
  20.6577697  90.1224884  97.1623420  21.2693758  89.8151608  98.5126628
  22.4224489 100.7195162  89.7020098  21.5151551 100.4884416  89.9011246
  22.9195521  99.9232781  89.8894079  25.3292568 109.4292669  92.6216784
  24.6554267 109.7324366  93.2301742  25.7158390 110.2321750  92.2722241
  24.5451025  96.9257801 102.1114453  23.6273586  97.1472748 101.9536141
  24.9611168  97.0004111 101.2526160  25.3286072  98.3249216  97.2417133
  26.0757891  98.8370614  96.9324255  25.5977662  98.0033269  98.1021527
  23.6012723 100.8207757  94.2244088  22.6923942 100.5366790  94.3216557
  23.6307806 101.2406836  93.3647394  28.8331990 104.4314347  97.9935255
  28.3794317 103.5905256  98.0500446  28.2025957 105.0675745  98.3310035
  27.7764910  95.3606333  99.2235923  27.0387666  94.8483719  99.5546165
  28.0291683  94.9206714  98.4119199  27.2764929 106.2690843  98.9285073
  27.5687904 106.8295900  98.2097439  27.7863550 106.5619404  99.6838232
  27.8776537  88.1382585  99.8177692  28.1835414  87.2779948  99.5303607
  28.6029142  88.7300205  99.6176686  14.1700893  98.5413271  98.2059290
  13.9725293  97.9482632  97.4810356  13.6147557  98.2365481  98.9235229
  22.1497617  98.4336378 100.3253883  22.2046226  97.4810214 100.2496360
  21.3388819  98.5895817 100.8095181  23.2988810 102.3616501  91.5632166
  22.8608240 101.6452360  91.1037804  24.0399251 102.5892616  91.0017258
  20.0889977  97.0513437  98.0844262  19.2757842  97.3507608  98.4909454
  20.5848971  96.6569126  98.8018744  22.2398554 107.0471194 100.0178527
  22.1974733 107.2732041  99.0887059  23.1561253 106.8134569 100.1664328
  25.6864188  97.5155262 106.9159156  26.0413576  97.7426735 107.7753621
  26.3336319  97.8473639 106.2936411  31.4161925 100.6373698  97.6208485
  31.2779824 100.8275294  96.6929674  31.0598144 101.3993081  98.0776536
  19.5804051  94.6231793 103.7005497  20.2203431  94.4820552 103.0028460
  18.7481582  94.3366306 103.3244099  31.4431305 102.7050225 102.6319756
  31.8767811 102.6125514 103.4802810  32.1562885 102.6807725 101.9939772
  20.3564355 103.9234223  99.8140489  21.1504954 103.4284544  99.6123064
  19.6456048 103.3952087  99.4508195  25.1759200 106.3052319 104.1652857
  25.2296222 106.8743255 104.9330573  24.3073981 106.4754204 103.8006894
  16.6647119  98.0677305  95.8900242  15.7344707  98.0061761  96.1070204
  16.7604591  97.5453258  95.0936883  16.5832668  94.5932118  98.4778484
  16.8439485  95.5077451  98.3687644  17.4049840  94.1256561  98.6275096
  32.3046854 102.7473925 105.1652642  32.4982744 103.6519736 105.4111917
  32.2047473 102.2881345 105.9991227  23.9583165  92.6331816 107.6642969
  23.3111080  93.3321766 107.5707445  24.7284180  93.0667960 108.0319217
  24.1347299 100.4712581 105.7239789  25.0639359 100.6223741 105.5508756
  23.7138329 100.5596602 104.8688435  22.9335631 104.4963245 103.4938326
  22.7946717 104.1282030 104.3664264  22.1450227 105.0110885 103.3222284
  23.5283783 109.5972342  94.8363863  23.7035539 109.1260385  95.6509486
  22.8416571 110.2238108  95.0645124  24.4840846 103.8744848 100.8827164
  24.1490679 103.8345618 101.7784814  23.9844792 103.2089564 100.4097574
  27.4200038 101.2200882  91.1564224  26.8029209 100.4947711  91.0597276
  26.9516526 101.9810243  90.8131298  29.0754170 105.9299791 108.8170004
  29.0166716 105.2459011 108.1500587  29.4773688 106.6718781 108.3650630
  19.2098584  95.4386307  90.2785528  18.3328050  95.3175107  89.9147775
  19.6856337  94.6472385  90.0264417  29.0771577 103.8939375 107.0483984
  28.1898356 103.5565296 107.1710383  29.6470128 103.1622406 107.2852749
  22.3962510 107.7912597  97.5248049  21.6130032 108.3334277  97.6186273
  23.0955255 108.3086577  97.9242290  25.7059160  93.6007227 100.1682254
  26.2027860  92.8477189  99.8483324  24.9346142  93.6371543  99.6025463
  33.5588917  99.3047592 101.8100545  33.5478794 100.1872307 101.4394479
  32.6906297  98.9519143 101.6155083  26.7888941 102.3578914  97.7420677
  25.8545219 102.4780376  97.5725382  26.9665609 101.4551381  97.4780687
  22.2894129  95.7424610  99.8953939  21.9191916  95.1895650 100.5834844
  22.7853221  95.1382743  99.3428939  30.1761492  98.1996233  98.2770711
  30.6421944  99.0324225  98.2031014  30.6268993  97.7341215  98.9815970
  28.2437723 104.5440054  95.2756864  28.5197567 104.4296649  96.1850738
  27.3742222 104.1457539  95.2369037  28.1478155  90.5676820 102.3161613
  27.2341235  90.7981047 102.4843820  28.5771256  90.6515264 103.1675645
  27.9184613  98.7566712 104.8161507  27.2656064  99.0042619 104.1613960
  28.2964993  97.9430850 104.4823984  24.8791787 108.7926405  98.9189677
  25.0614182 107.9748061  99.3817429  25.7024773 109.0094097  98.4814567
  25.2133953 107.7194590  96.1804726  25.7421719 107.2087045  95.5674888
  25.4762172 107.4037121  97.0450259  17.6859462  93.1528600 106.1407045
  17.7500789  94.0143431 105.7284442  17.6226583  92.5402602 105.4079403
  13.9377278  97.0328162  95.7198434  14.2330719  96.1238840  95.6665487
  13.0365314  97.0115901  95.3979436  25.8463357 108.7535426 102.5248842
  25.7214496 107.9525166 102.0159788  26.5042448 109.2481619 102.0362812
  17.4671525  95.1084159 101.7025982  16.7458111  95.7220126 101.5633456
  18.2564781  95.6441923 101.6242628  27.9098265 106.5544446 104.1528392
  26.9628600 106.4349797 104.0806719  28.2581038 105.6666944 104.2354654
  20.2697838  92.4438585 107.9766634  20.7932240  92.6900882 108.7392943
  20.0510172  93.2758620 107.5569771  15.6665119  94.7142260  95.8437759
  15.3377826  93.8339639  95.6612865  16.0204490  94.6589928  96.7314148
  24.9144698 106.3497162 100.3532744  24.7669661 105.4213870 100.5340314
  25.7398192 106.3717253  99.8689820  18.7806943  95.0015229  96.2113237
  19.1203015  95.5301151  95.4891845  19.2279063  95.3395636  96.9871803
  28.5178820 107.1725721 101.4397617  29.4425368 106.9668582 101.3022068
  28.3494123 106.9242122 102.3486959  21.4750383  93.3852280 105.6616305
  21.1347204  92.5860093 106.0636984  20.7689390  93.6853991 105.0893138
  22.1266855  90.4701593 104.1143628  22.9492924  89.9962071 103.9922518
  22.3704919  91.2492076 104.6142314  20.7675090  93.4989851  94.4106529
  21.4883452  93.8771104  93.9070246  20.1440394  94.2178728  94.5141507
  24.9106213  94.2035000  95.3464862  25.1269827  95.0859638  95.0453690
  24.4300280  93.8121213  94.6170504  19.6505434  97.1620713 101.9235606
  19.5050015  97.4761016 102.8159888  19.1730638  97.7805614 101.3706505
  21.5101817  94.1523261 101.9716496  21.4963386  93.2564354 101.6348794
  22.2274245  94.1593925 102.6054782  23.3627948  94.5860601 104.0169623
  23.1045725  95.5077672 104.0153954  22.8312988  94.1891036 104.7070087
  28.3074136 107.6911388  96.7959709  28.4811014 107.1257811  96.0433561
  28.8003028 108.4912283  96.6139199  20.9138713  93.0337641  97.2404066
  21.0354624  92.1054288  97.4394953  20.6240755  93.0476327  96.3282381
  23.7829903  90.7192552 100.3770786  23.8051600  90.7831885  99.4222765
  24.1997962  89.8797061 100.5711292  34.1613527 100.4547811  98.4150008
  34.6044673  99.7055137  98.0169132  33.2840038 100.4457948  98.0323740
  29.2949309 107.0078153  93.8956607  29.9900213 107.6284846  94.1143922
  29.6372459 106.1573504  94.1708985  31.1940732 104.4577858  95.4243938
  31.7192056 104.7965131  94.6993258  31.1063084 103.5224874  95.2407072
  22.8781393 110.5249842  99.7839191  22.4386383 110.0326220 100.4772048
  23.6289510 109.9822809  99.5431266  31.0032513 101.9403228 108.0427864
  31.0530518 101.7753236 108.9843387  30.8946436 101.0730487 107.6525745
  19.8868772 104.6191774  95.3319953  20.0356892 105.3027239  94.6786626
  20.6935215 104.5996864  95.8469409  28.2936275  97.9234156 109.3587171
  29.1946138  97.7840621 109.0671169  28.3684250  98.0888611 110.2985348
  22.6279081  95.3001011 108.2040357  21.7582390  95.5934577 107.9322946
  22.8638561  95.8841456 108.9247621  32.5050710 104.3600170 108.2869886
  32.2135518 104.7230151 109.1233347  31.8922841 103.6467178 108.1083218
  33.7046392 101.9253050 100.8072456  34.5393284 102.3642854 100.9710016
  33.8405521 101.4491703  99.9880702  30.7537898  99.4832785 106.7549944
  31.2292020  99.6760431 105.9468795  29.8303463  99.5391970 106.5093327
  17.6421405 100.6456952  96.3381022  17.3967447  99.7419282  96.5361232
  17.8117319 100.6474102  95.3960500  25.3318115  91.5180628 105.7205778
  25.8500058  92.2541655 105.3952266  24.9773247  91.8244621 106.5552537
  16.9117052  96.3785309  93.8367183  16.2186297  96.4529664  93.1807219
  16.6668804  95.6145653  94.3588700  25.5830709  87.9380911 101.2406674
  25.8632462  87.2704100 101.8667101  26.3681316  88.1310006 100.7281338
  23.3864177 107.1139905  92.8031700  22.8138144 107.7330092  92.3502172
  23.9596971 107.6639266  93.3371622  29.4539567  96.3598545 104.9878249
  30.4056990  96.4596642 105.0090473  29.2843017  95.5676813 105.4976334
  27.4753947  93.4454128 105.1737650  26.8803879  93.7259141 104.4784139
  27.1903643  93.9348029 105.9454391  26.6061437 107.3977055  93.9340283
  27.5392110 107.3322616  94.1373158  26.5184650 108.2333322  93.4754815
  29.2349454 106.7142925  90.8944230  29.1563085 106.3802789  91.7879988
  30.0559120 107.2064693  90.8935703  31.9327645  99.5804664 104.1020549
  31.9003965  98.6420665 104.2880233  32.5428268  99.6588701 103.3686374
  23.7710976  98.4500717  90.1447753  24.7170080  98.3206925  90.2136171
  23.3925221  97.7115379  90.6217181  32.0822133  96.3715708 104.1478832
  31.5661182  95.5874164 103.9608761  32.9662082  96.0434424 104.3125352
  29.7432860  90.1156723 100.1074645  29.5457681  89.8071812 100.9917977
  30.3532566  90.8418362 100.2372575  37.7504195 100.6420671 103.2426586
  38.4807583 100.3805959 103.8034289  37.1411140  99.9049393 103.2828654
  35.8319492  98.7828534 103.8401037  35.1052655  98.6484499 103.2317529
  35.4166779  99.0905362 104.6457755  21.9553893  96.3750694  90.0802638
  21.0485348  96.0783806  90.1565352  22.2329874  96.0780512  89.2136924
  23.5715959  90.9187583  96.2346880  22.7616687  90.5734668  96.6102126
  24.2600376  90.6095127  96.8234491  25.5006507  89.9965630  97.8571176
  26.0537545  90.4161084  98.5161199  25.7376593  89.0701378  97.8994132
  20.7252677  93.2337629  90.2214617  21.5871841  93.5592527  90.4810435
  20.9103022  92.4469125  89.7087683  28.8785314  92.1066155  97.3649840
  28.2983983  92.7650959  96.9827893  28.6121247  91.2843500  96.9537258
  27.3288880  91.5071213  99.5671161  27.8288659  91.6187748  98.7585480
  27.9724488  91.2032266 100.2071969  27.6610192  94.2666246  96.4206189
  26.7736047  94.5515896  96.2026383  28.0764181  94.1060009  95.5733466
  31.0124728  94.2912767 100.1360528  31.7885118  94.7809219 100.4085145
  30.2872862  94.7170821 100.5932397  33.4497287  95.0040386 101.1934469
  34.0441778  94.7636122 100.4827777  33.5223870  94.2847517 101.8208005
  26.8053405 104.0310920  90.5154209  27.5089256 104.2360923  91.1311864
  26.0816054 104.5987682  90.7803292  27.6351216  99.7820782  96.6356479
  27.5786417 100.2389333  95.7964111  28.1879558  99.0211466  96.4579322
  31.4456022  95.5710514  97.4606598  31.1892956  95.1707149  98.2914806
  30.8208890  96.2854308  97.3356737  35.7568359  98.3106587  99.9677890
  35.1967917  98.3799776 100.7409452  35.1511863  98.1347571  99.2477386
  28.7140103 104.4693450  92.5652669  29.5485707 104.0374648  92.3830143
  28.5524446 104.2975463  93.4929563  28.3685995 100.9725563  93.9309008
  28.3134799 100.8069834  92.9897452  27.7432050 101.6801596  94.0871198
  21.6782120  90.4733672  93.5094326  21.6660790  91.4175512  93.6662597
  22.5705542  90.2903817  93.2153788  25.4934240  87.0676449  97.7640263
  24.7266636  86.5134935  97.9096946  25.9044945  87.1398317  98.6254415
  37.3424378 114.9863101 102.6607845  37.9802788 114.8669848 101.9571186
  37.2245221 115.9343945 102.7195798  34.1514084 114.9390529 102.5969370
  33.8132596 114.8231594 101.7089905  35.0203852 114.5381694 102.5770376
  31.8522364 113.7078776  91.9286310  32.1047884 113.1860298  91.1669773
  30.9146923 113.5444922  92.0312994  36.8965646 112.7114555  99.7361053
  37.6828736 112.2933978  99.3851471  37.1604351 113.6160647  99.9042702
  42.2974074 112.6489788 100.6394032  43.0299246 112.0789005 100.8731861
  41.5413429 112.2611388 101.0800538  33.9150193 115.0717029  97.8357374
  33.5508401 114.5447650  98.5470296  34.7717309 114.6815498  97.6623860
  39.8199494 106.3611362 105.0988641  39.4882819 107.2306773 104.8749856
  39.2245107 106.0447646 105.7782671  33.5555680 110.1006929  92.8318723
  33.7230083 110.9687165  93.1989194  33.3652849 110.2634211  91.9080012
  39.7128157 111.0806448 102.1781991  38.8045035 111.0121857 101.8840752
  39.6615753 111.5578393 103.0063816  33.5344901 112.5564587  93.8165390
  33.4144526 113.0021637  94.6550870  32.8397490 112.9049904  93.2578928
  41.5789804 109.2822887 103.9559865  40.9364184 109.5755420 103.3099659
  41.0744732 109.1675807 104.7613061  39.2329967 113.0286060  94.6445724
  40.1447823 113.2613446  94.4693421  38.7239614 113.6123104  94.0820802
  37.5170735 117.4510688 108.2807016  37.9254091 117.0093098 107.5361649
  36.7947996 116.8763315 108.5341209  33.8701805 112.3883294 105.6540573
  34.7163000 112.8122708 105.7975222  33.8100443 111.7316919 106.3479136
  37.0201250 110.0487663 107.3121747  36.7762182 110.8029723 106.7756023
  37.2961181 110.4273010 108.1468994  38.9739713 116.5926275 105.9899013
  39.1856608 117.2358035 105.3133394  38.9269461 115.7588592 105.5220943
  36.5765942 109.2044096 102.8935585  35.7150421 109.5025349 103.1852322
  36.6028377 109.4214495 101.9616617  32.3296398 113.8709439  96.1098956
  33.0320441 114.3230482  96.5772882  31.9977026 113.2293257  96.7378849
  26.0721731 112.1292991 101.4116089  25.2820785 112.3850520 100.9356200
  26.5632979 112.9441329 101.5168130  28.0236477 112.4937571  98.3699566
  27.2267640 112.6056265  98.8883061  27.7962069 112.8324223  97.5040456
  48.1791534 115.8136979 100.5106341  47.4255242 115.2444377 100.3550346
  48.3139075 115.7799643 101.4576976  32.9725463 108.1799840 110.4395673
  33.7135176 108.7806993 110.3600135  33.2043386 107.4377478 109.8813715
  36.9182626 104.2080943 104.7159954  36.5746895 105.0982585 104.6399065
  37.2861588 104.0182601 103.8529539  36.8832908 114.1989554  93.2232389
  36.3679532 114.9694159  93.4620777  36.6110217 113.5254690  93.8465451
  34.4680019 109.0439255  98.2817628  33.6121616 108.6546105  98.1023266
  34.8806971 109.1231216  97.4217413  35.9979166 106.5785598 102.6809187
  35.4943962 106.5415733 101.8676993  36.2909773 107.4878341 102.7405844
  32.2422052 106.6624328 101.6875369  33.1075049 106.4667137 101.3281259
  32.3099561 106.4334680 102.6144726  41.8567183 116.9521909  95.1585563
  41.0796625 116.6133068  94.7140725  42.5358664 116.9574532  94.4840528
  36.6719212 112.0716646  95.0492171  36.3669347 112.3862795  95.9002314
  37.6249654 112.1498066  95.0919503  40.0958489 116.4255890 101.8152171
  39.4382164 117.1155152 101.9032299  40.8998889 116.8152322 102.1586157
  29.8484371 108.8926536  99.0591736  30.4228123 108.6701717  98.3264929
  30.4355354 108.9615230  99.8120337  38.9063948 114.7800263  99.8656113
  39.4195830 115.4130255 100.3677822  39.5565172 114.1801458  99.4999473
  30.1753958 110.9230997  93.0787621  29.3391270 111.2605683  93.3996896
  30.0358728 110.7879977  92.1414758  32.1507039 105.7667785  97.7866805
  31.4971451 105.4516802  97.1623420  32.1087513 105.1443525  98.5126628
  33.2618244 116.0487080  89.7020098  32.3545305 115.8176333  89.9011246
  33.7589276 115.2524699  89.8894079  35.3844779 112.2549718 102.1114453
  34.4667341 112.4764665 101.9536141  35.8004923 112.3296029 101.2526160
  36.1679827 113.6541134  97.2417133  36.9151646 114.1662531  96.9324255
  36.4371416 113.3325187  98.1021527  34.4406477 116.1499675  94.2244088
  33.5317696 115.8658708  94.3216557  34.4701561 116.5698753  93.3647394
  38.6158664 110.6898250  99.2235923  37.8781421 110.1775637  99.5546165
  38.8685438 110.2498632  98.4119199  38.7170291 103.4674502  99.8177692
  39.0229168 102.6071866  99.5303607  39.4422896 104.0592122  99.6176686
  32.9891371 113.7628295 100.3253883  33.0439981 112.8102132 100.2496360
  32.1782573 113.9187734 100.8095181  30.9283731 112.3805355  98.0844262
  30.1151597 112.6799526  98.4909454  31.4242725 111.9861044  98.8018744
  36.5257943 112.8447180 106.9159156  36.8807330 113.0718653 107.7753621
  37.1730074 113.1765556 106.2936411  42.2555680 115.9665615  97.6208485
  42.1173578 116.1567211  96.6929674  41.8991898 116.7284998  98.0776536
  30.4197806 109.9523711 103.7005497  31.0597185 109.8112470 103.0028460
  29.5875336 109.6658224 103.3244099  42.2825059 118.0342142 102.6319756
  42.7161566 117.9417432 103.4802810  42.9956640 118.0099643 101.9939772
  27.5040873 113.3969223  95.8900242  26.5738461 113.3353678  96.1070204
  27.5998345 112.8745176  95.0936883  27.4226422 109.9224036  98.4778484
  27.6833240 110.8369369  98.3687644  28.2443595 109.4548478  98.6275096
  43.1440609 118.0765843 105.1652642  43.3376499 118.9811654 105.4111917
  43.0441227 117.6173262 105.9991227  34.7976920 107.9623734 107.6642969
  34.1504835 108.6613683 107.5707445  35.5677935 108.3959878 108.0319217
  34.9741054 115.8004499 105.7239789  35.9033114 115.9515658 105.5508756
  34.5532084 115.8888519 104.8688435  38.2593792 116.5492800  91.1564224
  37.6422963 115.8239628  91.0597276  37.7910281 117.3102160  90.8131298
  30.0492338 110.7678224  90.2785528  29.1721805 110.6467025  89.9147775
  30.5250091 109.9764303  90.0264417  36.5452915 108.9299144 100.1682254
  37.0421614 108.1769107  99.8483324  35.7739896 108.9663461  99.6025463
  44.3982672 114.6339510 101.8100545  44.3872548 115.5164225 101.4394479
  43.5300051 114.2811061 101.6155083  33.1287883 111.0716527  99.8953939
  32.7585671 110.5187568 100.5834844  33.6246976 110.4674661  99.3428939
  41.0155247 113.5288151  98.2770711  41.4815699 114.3616142  98.2031014
  41.4662747 113.0633132  98.9815970  38.9871909 105.8968738 102.3161613
  38.0734989 106.1272965 102.4843820  39.4165011 105.9807182 103.1675645
  38.7578368 114.0858630 104.8161507  38.1049818 114.3334537 104.1613960
  39.1358748 113.2722768 104.4823984  28.5253217 108.4820518 106.1407045
  28.5894543 109.3435349 105.7284442  28.4620337 107.8694520 105.4079403
  24.7771032 112.3620080  95.7198434  25.0724473 111.4530758  95.6665487
  23.8759068 112.3407819  95.3979436  28.3065279 110.4376076 101.7025982
  27.5851865 111.0512044 101.5633456  29.0958535 110.9733841 101.6242628
  31.1091593 107.7730503 107.9766634  31.6325995 108.0192799 108.7392943
  30.8903926 108.6050538 107.5569771  26.5058874 110.0434177  95.8437759
  26.1771580 109.1631556  95.6612865  26.8598245 109.9881846  96.7314148
  29.6200697 110.3307147  96.2113237  29.9596769 110.8593068  95.4891845
  30.0672817 110.6687553  96.9871803  32.3144138 108.7144198 105.6616305
  31.9740958 107.9152011 106.0636984  31.6083144 109.0145909 105.0893138
  32.9660610 105.7993510 104.1143628  33.7886679 105.3253988 103.9922518
  33.2098673 106.5783994 104.6142314  31.6068844 108.8281769  94.4106529
  32.3277207 109.2063021  93.9070246  30.9834148 109.5470645  94.5141507
  35.7499967 109.5326918  95.3464862  35.9663581 110.4151556  95.0453690
  35.2694034 109.1413131  94.6170504  30.4899188 112.4912631 101.9235606
  30.3443769 112.8052934 102.8159888  30.0124392 113.1097531 101.3706505
  32.3495571 109.4815179 101.9716496  32.3357140 108.5856272 101.6348794
  33.0667999 109.4885843 102.6054782  34.2021702 109.9152519 104.0169623
  33.9439480 110.8369590 104.0153954  33.6706742 109.5182954 104.7070087
  31.7532467 108.3629559  97.2404066  31.8748378 107.4346205  97.4394953
  31.4634510 108.3768245  96.3282381  34.6223658 106.0484470 100.3770786
  34.6445354 106.1123803  99.4222765  35.0391717 105.2088978 100.5711292
  45.0007282 115.7839729  98.4150008  45.4438428 115.0347054  98.0169132
  44.1233792 115.7749865  98.0323740  41.8426267 117.2695146 108.0427864
  41.8924272 117.1045154 108.9843387  41.7340191 116.4022405 107.6525745
  39.1330030 113.2526074 109.3587171  40.0339893 113.1132539 109.0671169
  39.2078004 113.4180529 110.2985348  33.4672835 110.6292929 108.2040357
  32.5976145 110.9226495 107.9322946  33.7032316 111.2133374 108.9247621
  44.5440147 117.2544967 100.8072456  45.3787038 117.6934771 100.9710016
  44.6799275 116.7783621  99.9880702  41.5931653 114.8124702 106.7549944
  42.0685774 115.0052349 105.9468795  40.6697218 114.8683888 106.5093327
  36.1711869 106.8472546 105.7205778  36.6893813 107.5833573 105.3952266
  35.8167002 107.1536539 106.5552537  27.7510807 111.7077227  93.8367183
  27.0580052 111.7821582  93.1807219  27.5062559 110.9437571  94.3588700
  36.4224463 103.2672828 101.2406674  36.7026217 102.5996017 101.8667101
  37.2075070 103.4601924 100.7281338  40.2933322 111.6890462 104.9878249
  41.2450744 111.7888560 105.0090473  40.1236772 110.8968731 105.4976334
  38.3147701 108.7746046 105.1737650  37.7197633 109.0551058 104.4784139
  38.0297398 109.2639947 105.9454391  42.7721399 114.9096582 104.1020549
  42.7397719 113.9712583 104.2880233  43.3822023 114.9880619 103.3686374
  34.6104730 113.7792635  90.1447753  35.5563835 113.6498843  90.2136171
  34.2318975 113.0407297  90.6217181  42.9215888 111.7007625 104.1478832
  42.4054936 110.9166082 103.9608761  43.8055836 111.3726342 104.3125352
  40.5826615 105.4448641 100.1074645  40.3851436 105.1363729 100.9917977
  41.1926320 106.1710280 100.2372575  48.5897949 115.9712589 103.2426586
  49.3201338 115.7097877 103.8034289  47.9804895 115.2341311 103.2828654
  46.6713246 114.1120451 103.8401037  45.9446410 113.9776416 103.2317529
  46.2560533 114.4197280 104.6457755  32.7947647 111.7042611  90.0802638
  31.8879103 111.4075724  90.1565352  33.0723628 111.4072429  89.2136924
  34.4109713 106.2479501  96.2346880  33.6010441 105.9026586  96.6102126
  35.0994130 105.9387045  96.8234491  36.3400261 105.3257548  97.8571176
  36.8931300 105.7453001  98.5161199  36.5770348 104.3993296  97.8994132
  31.5646432 108.5629547  90.2214617  32.4265596 108.8884445  90.4810435
  31.7496776 107.7761043  89.7087683  39.7179068 107.4358073  97.3649840
  39.1377738 108.0942877  96.9827893  39.4515001 106.6135418  96.9537258
  38.1682635 106.8363131  99.5671161  38.6682413 106.9479665  98.7585480
  38.8118243 106.5324184 100.2071969  38.5003946 109.5958163  96.4206189
  37.6129801 109.8807814  96.2026383  38.9157936 109.4351927  95.5733466
  41.8518483 109.6204684 100.1360528  42.6278873 110.1101137 100.4085145
  41.1266617 110.0462739 100.5932397  44.2891041 110.3332304 101.1934469
  44.8835532 110.0928040 100.4827777  44.3617625 109.6139434 101.8208005
  38.4744970 115.1112699  96.6356479  38.4180172 115.5681251  95.7964111
  39.0273313 114.3503384  96.4579322  42.2849776 110.9002431  97.4606598
  42.0286710 110.4999067  98.2914806  41.6602644 111.6146225  97.3356737
  46.5962114 113.6398505  99.9677890  46.0361672 113.7091694 100.7409452
  45.9905617 113.4639489  99.2477386  39.2079750 116.3017481  93.9309008
  39.1528553 116.1361752  92.9897452  38.5825805 117.0093514  94.0871198
  32.5175875 105.8025590  93.5094326  32.5054545 106.7467430  93.6662597
  33.4099297 105.6195735  93.2153788  36.3327994 102.3968366  97.7640263
  35.5660390 101.8426853  97.9096946  36.7438699 102.4690235  98.6254415
  47.7576380 119.5372861 104.7159954  47.4140650 120.4274502 104.6399065
  48.1255343 119.3474518 103.8529539  49.5564046 118.7966420  99.8177692
  49.8622923 117.9363783  99.5303607  50.2816651 119.3884040  99.6176686
  49.8265664 121.2260655 102.3161613  48.9128744 121.4564882 102.4843820
  50.2558765 121.3099099 103.1675645  47.2618218 118.5964746 101.2406674
  47.5419971 117.9287935 101.8667101  48.0468825 118.7893842 100.7281338
  51.4220369 120.7740559 100.1074645  51.2245190 120.4655647 100.9917977
  52.0320075 121.5002198 100.2372575  47.1794016 120.6549466  97.8571176
  47.7325054 121.0744919  98.5161199  47.4164102 119.7285214  97.8994132
  47.1721749 117.7260284  97.7640263  46.4054145 117.1718771  97.9096946
  47.5832454 117.7982153  98.6254415   4.8216517  31.5031431  87.2351648
   4.0680226  30.9338829  87.0795652   4.9564059  31.4694095  88.1822283
   1.6432265  31.4734181  85.1395315   2.0863411  30.7241506  84.7414438
   0.7658776  31.4644317  84.7569047   1.1865130  32.9439419  87.5317763
   2.0212021  33.3829223  87.6955323   1.3224259  32.4678073  86.7126008
   5.2322932  31.6607041  89.9671892   5.9626321  31.3992329  90.5279596
   4.6229878  30.9235763  90.0073960   3.3138230  29.8014903  90.5646344
   2.5871393  29.6670868  89.9562835   2.8985516  30.1091732  91.3703062
   0.9316025  26.0226756  87.9179775   1.5260515  25.7822492  87.2073083
   1.0042608  25.3033886  88.5453311   3.2387097  29.3292956  86.6923196
   2.6786655  29.3986146  87.4654758   2.6330601  29.1533941  85.9722693
   4.8243116  46.0049470  89.3853152   5.4621526  45.8856218  88.6816492
   4.7063959  46.9530314  89.4441104   1.6332822  45.9576898  89.3214677
   1.2951334  45.8417963  88.4335212   2.5022590  45.5568064  89.3015683
   2.1152605  47.1111750  95.2800882   2.1041246  46.7164548  94.4081386
   2.2773244  46.3777823  95.8734654   3.0719196  51.4783343  80.6226033
   2.4207176  52.0637423  80.2360046   3.8663559  52.0089537  80.6821070
   4.3784384  43.7300924  86.4606360   5.1647473  43.3120347  86.1096777
   4.6423089  44.6347016  86.6288009   4.5494462  49.1673775  81.1595017
   3.9140295  49.2408401  81.8715922   4.2191868  49.7567373  80.4814096
   9.7792811  43.6676157  87.3639339  10.5117983  43.0975374  87.5977168
   9.0232167  43.2797758  87.8045844   1.3968931  46.0903399  84.5602681
   1.0327138  45.5634020  85.2715603   2.2536047  45.7001868  84.3869166
   7.3018232  37.3797732  91.8233947   6.9701556  38.2493142  91.5995162
   6.7063845  37.0634016  92.5027978   1.0374418  41.1193299  79.5564030
   1.2048820  41.9873535  79.9234501   0.8471587  41.2820580  78.6325319
   3.7949751  49.5810277  91.2229860   3.4950474  50.4835316  91.1145667
   3.4500811  49.3142461  92.0751013   7.1946895  42.0992818  88.9027297
   6.2863772  42.0308226  88.6086058   7.1434491  42.5764763  89.7309123
   1.2687761  43.5182463  96.8462195   0.4921095  44.0776383  96.8365059
   1.9078324  44.0039246  97.3677065   9.0608541  40.3009256  90.6805171
   8.4182922  40.5941789  90.0344966   8.5563470  40.1862176  91.4858368
   6.7148705  44.0472429  81.3691030   7.6266561  44.2799816  81.1938728
   6.2058352  44.6309473  80.8066109   4.9989473  48.4697057  95.0052323
   5.4072829  48.0279468  94.2606955   4.2766734  47.8949685  95.2586516
   1.3520543  43.4069664  92.3785880   2.1981738  43.8309077  92.5220529
   1.2919180  42.7503288  93.0724443   5.3218287  49.0298248  88.7604612
   4.6927150  49.1943962  88.0580680   4.9343949  49.4439857  89.5315576
   9.2007519  49.9652686  86.1148976   8.5158557  50.3451587  85.5646009
   9.2851369  50.5748012  86.8480923   4.5019988  41.0674032  94.0367054
   4.2580920  41.8216093  93.5001329   4.7779919  41.4459380  94.8714301
   6.4558451  47.6112645  92.7144319   6.6675346  48.2544404  92.0378700
   6.4088199  46.7774961  92.2466249   4.0584680  40.2230465  89.6180891
   3.1969159  40.5211719  89.9097629   4.0847115  40.4400864  88.6861924
   0.8746249  48.7672656  86.0254697   1.3384595  49.0460359  85.2359320
   0.6103047  47.8656100  85.8427788   7.5704279  50.4884600  90.8866677
   8.3921723  50.0864787  90.6049358   7.5666682  50.3852834  91.8382792
   1.3360882  50.0368643  93.0427387   1.4005315  50.4989051  93.8785559
   0.6271806  49.4066008  93.1709697  15.6610272  46.8323348  87.2351648
  14.9073980  46.2630747  87.0795652  15.7957813  46.7986013  88.1822283
   1.0508900  51.7036751  82.9106367   0.9154575  52.5488287  83.3391215
   1.5918712  51.9056028  82.1472301   2.6777376  52.3260317  97.0406709
   2.2341231  51.5396696  96.7227614   3.3394590  52.5139468  96.3750600
   4.7758614  52.6063117  95.0688111   4.7577090  53.4271998  94.5768380
   5.6978534  52.4817192  95.2938252   1.2331669  50.1207247  95.9111619
   1.7660005  49.3595535  95.6810927   0.7045750  49.8280899  96.6535774
   4.4001364  35.2267313  91.4405261   4.0565633  36.1168954  91.3644371
   4.7680326  35.0368970  90.5774846   4.3651646  45.2175924  79.9477696
   3.8498270  45.9880528  80.1866083   4.0928955  44.5441060  80.5710757
   1.9498757  40.0625625  85.0062934   1.0940354  39.6732475  84.8268573
   2.3625709  40.1417585  84.1462720   3.4797904  37.5971968  89.4054494
   2.9762699  37.5602103  88.5922299   3.7728511  38.5064711  89.4651151
   9.3385920  47.9708278  81.8830869   8.5615363  47.6319438  81.4386032
  10.0177401  47.9760902  81.2085834   4.1537949  43.0903016  81.7737477
   3.8488085  43.4049165  82.6247620   5.1068392  43.1684436  81.8164810
   2.5984381  49.2493239  83.4230431   2.0705743  48.5145999  83.1103669
   2.0971884  50.0267916  83.1770399   7.5777227  47.4442260  88.5397477
   6.9200902  48.1341521  88.6277606   8.3817626  47.8338692  88.8831464
   6.3882686  45.7986632  86.5901419   6.9014568  46.4316624  87.0923129
   7.0383910  45.1987828  86.2244779   3.6505060  55.7770957  79.3462090
   2.9766759  56.0802653  79.9547048   4.0370882  56.5800037  78.9967547
   2.8663517  43.2736088  88.8359760   1.9486078  43.4951035  88.6781448
   3.2823661  43.3482398  87.9771467   3.6498565  44.6727504  83.9662440
   4.3970384  45.1848901  83.6569562   3.9190154  44.3511556  84.8266834
   1.9225215  47.1686044  80.9489394   1.0136434  46.8845077  81.0461864
   1.9520299  47.5885123  80.0892701   7.1544482  50.7792634  84.7180562
   6.7006809  49.9383544  84.7745752   6.5238449  51.4154032  85.0555342
   6.0977402  41.7084620  85.9481229   5.3600159  41.1962006  86.2791472
   6.3504175  41.2685001  85.1364506   5.5977422  52.6169131  85.6530380
   5.8900396  53.1774188  84.9342746   6.1076042  52.9097692  86.4083539
   6.1989029  34.4860872  86.5422999   6.5047906  33.6258235  86.2548914
   6.9241634  35.0778492  86.3421992   1.6201303  48.7094788  78.2877473
   1.1820733  47.9930647  77.8283110   2.3611744  48.9370903  77.7262564
   0.5611047  53.3949482  86.7423833   0.5187226  53.6210328  85.8132365
   1.4773746  53.1612856  86.8909634   4.0076681  43.8633549  93.6404462
   4.3626068  44.0905022  94.4998928   4.6548812  44.1951926  93.0181718
   9.7374417  46.9851985  84.3453791   9.5992316  47.1753581  83.4174981
   9.3810636  47.7471368  84.8021843   9.7643797  49.0528512  89.3565063
  10.1980304  48.9603801  90.2048117  10.4775378  49.0286013  88.7185079
   3.4971692  52.6530606  90.8898163   3.5508714  53.2221542  91.6575879
   2.6286473  52.8232491  90.5252201  10.6259347  49.0952213  91.8897948
  10.8195237  49.9998023  92.1357223  10.5259965  48.6359632  92.7236533
   2.2795657  38.9810103  94.3888276   1.6323572  39.6800053  94.2952752
   3.0496673  39.4146247  94.7564524   5.6874455  49.2458955  97.4638829
   5.5359962  49.0169507  96.5468913   5.6779135  50.2029557  97.4770174
   2.4559792  46.8190868  92.4485095   3.3851852  46.9702028  92.2754063
   2.0350822  46.9074889  91.5933742   1.8496275  55.9450629  81.5609170
   2.0248031  55.4738672  82.3754792   1.1629063  56.5716395  81.7890430
   2.8053339  50.2223135  87.6072471   2.4703171  50.1823905  88.5030121
   2.3057284  49.5567851  87.1342881   5.7412530  47.5679170  77.8809530
   5.1241701  46.8425998  77.7842583   5.2729019  48.3288530  77.5376605
   7.3966662  52.2778078  95.5415311   7.3379208  51.5937298  94.8745894
   7.7986180  53.0197068  95.0895937   7.3984069  50.2417662  93.7729290
   6.5110848  49.9043584  93.8955689   7.9682620  49.5100693  94.0098056
   0.9285223  54.9019114  90.7390534   0.8555394  55.7074086  91.2509838
   0.4862616  55.1011080  89.9138555   4.0271652  39.9485514  86.8927561
   4.5240352  39.1955476  86.5728631   3.2558634  39.9849830  86.3270770
  11.8801410  45.6525879  88.5345852  11.8691286  46.5350595  88.1639785
  11.0118789  45.2997430  88.3400389   3.3883906  54.8005948  92.8948692
   4.1011878  55.4353413  92.8224594   2.8973935  54.8969814  92.0788694
   5.1101433  48.7057201  84.4665984   4.1757712  48.8258663  84.2970688
   5.2878101  47.8029668  84.2025994   8.4973984  44.5474520  85.0016018
   8.9634437  45.3802512  84.9276321   8.9481485  44.0819502  85.7061277
   6.5650215  50.8918342  82.0002170   6.8410059  50.7774936  82.9096044
   5.6954714  50.4935826  81.9614343   6.4690647  36.9155107  89.0406919
   5.5553727  37.1459334  89.2089126   6.8983749  36.9993551  89.8920952
   6.2397106  45.1044999  91.5406813   5.5868556  45.3520907  90.8859266
   6.6177486  44.2909137  91.2069291   3.2004280  55.1404692  85.6434984
   3.3826674  54.3226348  86.1062736   4.0237266  55.3572385  85.2059874
   3.5346445  54.0672878  82.9050032   4.0634211  53.5565332  82.2920194
   3.7974665  53.7515408  83.7695565   2.2884679  45.8464810  98.0272851
   1.6125316  45.7458940  98.6975226   3.1112313  45.6904024  98.4908848
   1.0307462  57.1531738  92.2630467   1.5825770  57.3163359  93.0279552
   1.3713655  57.7436176  91.5910491   5.8818336  51.9792995  98.1179121
   6.4258240  52.5922954  97.6234076   5.3005181  52.5372574  98.6346134
   4.1675849  55.1013713  89.2494149   4.0426988  54.3003453  88.7405094
   4.8254940  55.5959907  88.7608119   6.2310757  52.9022733  90.8773699
   5.2841093  52.7828085  90.8052026   6.5793530  52.0145231  90.9599960
   3.2357190  52.6975450  87.0778051   3.0882153  51.7692157  87.2585621
   4.0610684  52.7195540  86.5935126   6.8391312  53.5204008  88.1642924
   7.7637860  53.3146870  88.0267375   6.6706616  53.2720409  89.0732265
   3.2318705  40.5513287  82.0710168   3.4482319  41.4337925  81.7698996
   2.7512772  40.1599501  81.3415810   1.6840440  40.9338889  90.7414930
   1.4258218  41.8555959  90.7399260   1.1525480  40.5369323  91.4315394
   6.6286629  54.0389676  83.5205015   6.8023506  53.4736098  82.7678868
   7.1215520  54.8390571  83.3384505   2.1042395  37.0670839  87.1016092
   2.1264092  37.1310172  86.1468072   2.5210454  36.2275348  87.2956599
  12.4826020  46.8026099  85.1395315  12.9257166  46.0533424  84.7414438
  11.6052530  46.7936235  84.7569047   7.6161801  53.3556440  80.6201914
   8.3112706  53.9763133  80.8389228   7.9584951  52.5051791  80.8954291
   9.5153224  50.8056146  82.1489244  10.0404548  51.1443418  81.4238564
   9.4275577  49.8703161  81.9652379   1.1773273  54.7190219  94.2779121
   1.4860399  54.4739366  95.1501821   1.9748755  54.9236858  93.7897991
   1.1993885  56.8728129  86.5084497   0.7598875  56.3804508  87.2017354
   1.9502002  56.3301097  86.2676573   9.2047130  51.4389049  97.4540442
   8.4142674  51.4213188  96.9144942   8.9680485  51.9777343  98.2089479
   9.3245005  48.2881516  94.7673171   9.3743010  48.1231523  95.7088694
   9.2158929  47.4208775  94.3771052   6.6148768  44.2712444  96.0832477
   7.5158630  44.1318909  95.7916475   6.6896742  44.4366899  97.0230655
  10.8263202  50.7078457  95.0115192  10.5348010  51.0708438  95.8478653
  10.2135333  49.9945465  94.8328524  12.0258884  48.2731337  87.5317763
  12.8605776  48.7121141  87.6955323  12.1618013  47.7969990  86.7126008
   9.0750390  45.8311072  93.4795250   9.5504512  46.0238718  92.6714102
   8.1515956  45.8870258  93.2338634   3.6530607  37.8658915  92.4451084
   4.1712551  38.6019942  92.1197573   3.2985740  38.1722909  93.2797843
   3.9043201  34.2859198  87.9651981   4.1844955  33.6182387  88.5912407
   4.6893808  34.4788294  87.4526645   1.7076669  53.4618192  79.5277007
   1.1350637  54.0808379  79.0747479   2.2809463  54.0117554  80.0616929
   7.7752059  42.7076832  91.7123556   8.7269482  42.8074930  91.7335780
   7.6055510  41.9155100  92.2221640   5.7966439  39.7932415  91.8982957
   5.2016371  40.0737428  91.2029445   5.5116136  40.2826316  92.6699698
   4.9273929  53.7455342  80.6585589   5.8604602  53.6800904  80.8618465
   4.8397142  54.5811609  80.2000122   7.5561946  53.0621212  77.6189537
   7.4775577  52.7281076  78.5125295   8.3771613  53.5542980  77.6181009
  10.2540137  45.9282952  90.8265856  10.2216457  44.9898952  91.0125539
  10.8640761  46.0066988  90.0931680   2.0923468  44.7979005  76.8693060
   3.0382573  44.6685213  76.9381478   1.7137713  44.0593666  77.3462488
  10.4034626  42.7193995  90.8724139   9.8873674  41.9352452  90.6854068
  11.2874574  42.3912712  91.0370658   8.0645353  36.4635011  86.8319951
   7.8670174  36.1550099  87.7163283   8.6745058  37.1896650  86.9617881
  16.0716687  46.9898958  89.9671892  16.8020075  46.7284247  90.5279596
  15.4623632  46.2527680  90.0073960  14.1531984  45.1306821  90.5646344
  13.4265148  44.9962786  89.9562835  13.7379271  45.4383650  91.3703062
   1.9762161  48.8496751  98.3293717   2.8965170  49.0275350  98.5233763
   1.9411744  47.9052796  98.1773416   1.8928451  37.2665871  82.9592186
   1.0829179  36.9212956  83.3347432   2.5812868  36.9573414  83.5479798
   3.8218999  36.3443918  84.5816483   4.3750038  36.7639371  85.2406506
   4.0589086  35.4179666  84.6239439   7.1997806  38.4544443  84.0895147
   6.6196475  39.1129247  83.7073199   6.9333739  37.6321787  83.6782565
   5.6501373  37.8549500  86.2916467   6.1501151  37.9666035  85.4830786
   6.2936981  37.5510553  86.9317276   5.9822684  40.6144533  83.1451495
   5.0948539  40.8994184  82.9271690   6.3976673  40.4538296  82.2978772
   9.3337220  40.6391054  86.8605835  10.1097611  41.1287506  87.1330451
   8.6085355  41.0649108  87.3177704  11.7709779  41.3518673  87.9179775
  12.3654270  41.1114409  87.2073083  11.8436363  40.6325804  88.5453311
   5.1265898  50.3789208  77.2399515   5.8301748  50.5839210  77.8557171
   4.4028546  50.9465970  77.5048599   5.9563708  46.1299069  83.3601785
   5.8998909  46.5867620  82.5209418   6.5092050  45.3689754  83.1824628
   9.7668514  41.9188801  84.1851905   9.5105448  41.5185437  85.0160113
   9.1421382  42.6332595  84.0602044  14.0780852  44.6584874  86.6923196
  13.5180410  44.7278063  87.4654758  13.4724355  44.4825859  85.9722693
   7.0352595  50.8171737  79.2897975   7.8698199  50.3852935  79.1075450
   6.8736938  50.6453751  80.2174870   6.6898487  47.3203850  80.6554315
   6.6347291  47.1548122  79.7142759   6.0644543  48.0279883  80.8116504
   4.0044394  49.6252762  99.9807877   4.8735554  49.7993414  99.6194512
   3.5251146  50.4447179  99.8583607   3.8146732  33.4154736  84.4885570
   3.0479128  32.8613223  84.6342252   4.2257437  33.4876605  85.3499721
  15.6636870  61.3341388  89.3853152  16.3015280  61.2148135  88.6816492
  15.5457713  62.2822232  89.4441104  12.4726577  61.2868816  89.3214677
  12.1345088  61.1709881  88.4335212  13.3416345  60.8859981  89.3015683
   8.3313392  63.1404293  85.3111568   7.7678257  63.0494229  84.5427855
   8.2165787  62.3204197  85.7914060  12.9546359  62.4403668  95.2800882
  12.9435000  62.0456466  94.4081386  13.1166999  61.7069740  95.8734654
   5.8777824  64.6355484  88.1495788   6.6699116  64.2946309  87.7342087
   6.1174474  64.7450459  89.0697941  13.9112951  66.8075260  80.6226033
  13.2600931  67.3929341  80.2360046  14.7057314  67.3381455  80.6821070
   7.8368578  63.8964397  81.0213167   8.6099454  63.3493384  80.8826043
   8.1893977  64.7608647  81.2327628   9.6753621  65.2240780  94.2280066
   9.3843487  66.1286411  94.1126733  10.3110605  65.2657307  94.9424136
  10.6009827  62.6017628  90.8181426  11.1973400  62.3773651  90.1038389
  10.6584799  61.8602374  91.4206874  10.1734856  60.0557064  78.6531617
  10.4260377  59.5338585  77.8915080   9.2359415  59.8923209  78.7558300
  15.2178139  59.0592842  86.4606360  16.0041228  58.6412265  86.1096777
  15.4816843  59.9638934  86.6288009  15.3888216  64.4965692  81.1595017
  14.7534049  64.5700319  81.8715922  15.0585622  65.0859291  80.4814096
  20.6186566  58.9968075  87.3639339  21.3511738  58.4267292  87.5977168
  19.8625922  58.6089676  87.8045844   9.8931145  61.9585169  80.8555992
   9.7767403  61.2830073  81.5237076  10.0033405  61.4717543  80.0388145
  12.2362686  61.4195317  84.5602681  11.8720893  60.8925938  85.2715603
  13.0929801  61.0293786  84.3869166  18.1411986  52.7089649  91.8233947
  17.8095311  53.5785060  91.5995162  17.5457600  52.3925933  92.5027978
  11.8768173  56.4485216  79.5564030  12.0442575  57.3165453  79.9234501
  11.6865342  56.6112498  78.6325319  14.6343506  64.9102195  91.2229860
  14.3344229  65.8127234  91.1145667  14.2894565  64.6434378  92.0751013
   8.0855987  61.3615992  87.2566564   7.1606484  61.2292206  87.4644256
   8.3340400  62.1410211  87.7536507  18.0340650  57.4284735  88.9027297
  17.1257527  57.3600144  88.6086058  17.9828245  57.9056680  89.7309123
  11.8557393  58.9042874  80.5410696  11.7357019  59.3499925  81.3796177
  11.1609982  59.2528191  79.9824235   5.4464798  61.0049266  88.0910353
   5.5757179  61.2583744  89.0049765   4.7662250  61.5976974  87.7715009
   9.6164286  71.6746516  84.1900828   9.5388315  72.6254341  84.2689308
   9.0125929  71.3292388  84.8475754  12.1081515  58.8474381  96.8462195
  11.3314849  59.4068301  96.8365059  12.7472078  59.3331164  97.3677065
  19.9002296  55.6301174  90.6805171  19.2576676  55.9233707  90.0344966
  19.3957224  55.5154094  91.4858368  17.5542460  59.3764347  81.3691030
  18.4660316  59.6091734  81.1938728  17.0452107  59.9601391  80.8066109
  10.3627888  61.6559834  96.4080162  11.1042572  62.1944878  96.1314985
   9.6564873  62.2826123  96.5651713  15.8383227  63.7988975  95.0052323
  16.2466583  63.3571385  94.2606955  15.1160489  63.2241602  95.2586516
  12.1914297  58.7361582  92.3785880  13.0375492  59.1600995  92.5220529
  12.1312935  58.0795206  93.0724443  16.1612042  64.3590165  88.7604612
  15.5320904  64.5235880  88.0580680  15.7737704  64.7731775  89.5315576
  15.3413743  56.3965950  94.0367054  15.0974674  57.1508010  93.5001329
  15.6173673  56.7751298  94.8714301  17.2952205  62.9404562  92.7144319
  17.5069101  63.5836322  92.0378700  17.2481954  62.1066879  92.2466249
  14.8978434  55.5522383  89.6180891  14.0362913  55.8503636  89.9097629
  14.9240869  55.7692782  88.6861924  11.7140004  64.0964573  86.0254697
  12.1778349  64.3752276  85.2359320  11.4496802  63.1948018  85.8427788
   8.6064085  63.6436055  88.9634460   9.1765442  64.0723323  88.3251945
   9.1972197  63.3618640  89.6618646  10.6508890  60.2187726  82.8344262
  11.3532933  60.6708770  83.3018189  10.3189518  59.5771545  83.4624155
   9.0989251  58.8099482  97.2095472   8.4687912  59.4915763  97.4430868
   8.9925339  58.6982564  96.2648610   4.3934224  58.4771279  88.1361396
   3.6033278  58.7328807  87.6601506   4.8845471  59.2919616  88.2413436
  18.4098033  65.8176518  90.8866677  19.2315477  65.4156705  90.6049358
  18.4060436  65.7144752  91.8382792   6.3448969  58.8415858  85.0944872
   5.5480132  58.9534552  85.6128368   6.1174561  59.1802510  84.2285763
  12.1754637  65.3660561  93.0427387  12.2399069  65.8280968  93.8785559
  11.4665561  64.7357926  93.1709697   2.6771927  58.7301769  90.5676387
   2.9279965  59.6148779  90.8333962   3.2131475  58.5506370  89.7951478
  11.8902654  67.0328668  82.9106367  11.7548329  67.8780204  83.3391215
  12.4312467  67.2347946  82.1472301   8.3769994  53.1120248  99.5720723
   7.9836940  52.5586447 100.2468367   9.1936134  53.4230827  99.9627240
   5.3432052  64.5504107  83.4834292   5.8556572  65.3447357  83.6339857
   5.9954765  63.8530397  83.4167894   7.1526937  67.6669863  85.5657046
   7.3293565  68.5887827  85.3778030   7.9483770  67.3528282  85.9951425
  11.2937955  54.5278127  97.1640979  12.0347668  55.1285281  97.0845442
  11.5255878  53.7855765  96.6059022   6.4379293  59.7134495  95.4419209
   6.3232808  58.8119752  95.7426308   5.5823811  59.9598191  95.0904025
  13.5171131  67.6552235  97.0406709  13.0734985  66.8688614  96.7227614
  14.1788344  67.8431385  96.3750600   8.2758252  69.1848037  91.5667388
   8.8265677  69.0565100  90.7944382   7.4369728  69.4842926  91.2162281
  15.6152369  67.9355035  95.0688111  15.5970844  68.7563916  94.5768380
  16.5372289  67.8109110  95.2938252  12.0725423  65.4499164  95.9111619
  12.6053760  64.6887453  95.6810927  11.5439504  65.1572816  96.6535774
  15.2395118  50.5559230  91.4405261  14.8959387  51.4460872  91.3644371
  15.6074081  50.3660888  90.5774846   3.3080969  62.8792761  84.2593863
   4.1456191  63.2889769  84.0427571   3.4859236  61.9392203  84.2294057
  15.2045401  60.5467841  79.9477696  14.6892024  61.3172446  80.1866083
  14.9322709  59.8732978  80.5710757  12.7892512  55.3917542  85.0062934
  11.9334108  55.0024393  84.8268573  13.2019464  55.4709503  84.1462720
  14.3191658  52.9263886  89.4054494  13.8156454  52.8894021  88.5922299
  14.6122265  53.8356628  89.4651151  10.5634544  53.0102615  88.4120676
  11.4287541  52.8145424  88.0526565  10.6312053  52.7812967  89.3390033
  20.1779675  63.3000196  81.8830869  19.4009118  62.9611356  81.4386032
  20.8571156  63.3052819  81.2085834  14.9931704  58.4194934  81.7737477
  14.6881839  58.7341083  82.6247620  15.9462146  58.4976353  81.8164810
  13.4378136  64.5785157  83.4230431  12.9099497  63.8437916  83.1103669
  12.9365638  65.3559833  83.1770399  18.4170982  62.7734177  88.5397477
  17.7594656  63.4633439  88.6277606  19.2211381  63.1630609  88.8831464
   8.1696863  55.2404823  85.7837043   8.7440615  55.0180005  85.0510236
   8.7567846  55.3093518  86.5365644  17.2276441  61.1278550  86.5901419
  17.7408322  61.7608542  87.0923129  17.8777664  60.5279746  86.2244779
   8.4966450  57.2709284  79.8032928   7.6603763  57.6083971  80.1242203
   8.3571220  57.1358264  78.8660065  10.4719531  52.1146072  84.5112112
   9.8183943  51.7995089  83.8868727  10.4300005  51.4921813  85.2371935
  11.5830736  62.3965367  76.4265404  10.6757798  62.1654621  76.6256553
  12.0801768  61.6002986  76.6139386  14.4898815  71.1062874  79.3462090
  13.8160514  71.4094571  79.9547048  14.8764637  71.9091955  78.9967547
  13.7057271  58.6028006  88.8359760  12.7879833  58.8242953  88.6781448
  14.1217415  58.6774316  87.9771467  14.4892319  60.0019421  83.9662440
  15.2364138  60.5140819  83.6569562  14.7583909  59.6803474  84.8266834
  12.7618969  62.4977962  80.9489394  11.8530189  62.2136995  81.0461864
  12.7914053  62.9177041  80.0892701  17.9938237  66.1084552  84.7180562
  17.5400564  65.2675461  84.7745752  17.3632203  66.7445950  85.0555342
  16.9371156  57.0376538  85.9481229  16.1993913  56.5253924  86.2791472
  17.1897930  56.5976919  85.1364506  16.4371176  67.9461048  85.6530380
  16.7294150  68.5066105  84.9342746  16.9469797  68.2389609  86.4083539
  17.0382784  49.8152790  86.5422999  17.3441660  48.9550153  86.2548914
  17.7635388  50.4070410  86.3421992   3.3307140  60.2183476  84.9304596
   3.1331540  59.6252837  84.2055663   2.7753804  59.9135686  85.6480535
  11.3103863  60.1106583  87.0499190  11.3652473  59.1580419  86.9741666
  10.4995065  60.2666022  87.5340488  12.4595057  64.0386706  78.2877473
  12.0214487  63.3222565  77.8283110  13.2005498  64.2662821  77.7262564
   9.2496223  58.7283642  84.8089568   8.4364089  59.0277813  85.2154761
   9.7455218  58.3339331  85.5264051  11.4004801  68.7241399  86.7423833
  11.3580980  68.9502246  85.8132365  12.3167500  68.4904774  86.8909634
  14.8470435  59.1925467  93.6404462  15.2019823  59.4196940  94.4998928
  15.4942566  59.5243844  93.0181718  20.5768172  62.3143903  84.3453791
  20.4386071  62.5045499  83.4174981  20.2204391  63.0763286  84.8021843
   8.7410298  56.3001998  90.4250803   9.3809677  56.1590757  89.7273767
   7.9087829  56.0136511  90.0489405  20.6037552  64.3820430  89.3565063
  21.0374058  64.2895719  90.2048117  21.3169132  64.3577930  88.7185079
   9.5170602  65.6004428  86.5385796  10.3111200  65.1054748  86.3368371
   8.8062294  65.0722291  86.1753501  14.3365446  67.9822524  90.8898163
  14.3902469  68.5513460  91.6575879  13.4680228  68.1524409  90.5252201
   5.8253365  59.7447510  82.6145549   4.8950954  59.6831966  82.8315511
   5.9210837  59.2223463  81.8182190   5.7438914  56.2702323  85.2023790
   6.0045732  57.1847656  85.0932951   6.5656087  55.8026765  85.3520403
   7.2163840  57.6840080  92.3722615   7.8886893  57.4757442  91.7235264
   6.3893626  57.4862166  91.9327847  21.4653101  64.4244130  91.8897948
  21.6588991  65.3289941  92.1357223  21.3653719  63.9651549  92.7236533
  13.1189412  54.3102021  94.3888276  12.4717327  55.0091971  94.2952752
  13.8890427  54.7438165  94.7564524  16.5268210  64.5750873  97.4638829
  16.3753716  64.3461425  96.5468913  16.5172889  65.5321475  97.4770174
  13.2953546  62.1482786  92.4485095  14.2245606  62.2993945  92.2754063
  12.8744576  62.2366807  91.5933742  12.0941878  66.1733450  90.2183633
  11.9552964  65.8052235  91.0909571  11.3056474  66.6881090  90.0467591
  12.6890030  71.2742547  81.5609170  12.8641786  70.8030590  82.3754792
  12.0022818  71.9008313  81.7890430  13.6447093  65.5515053  87.6072471
  13.3096926  65.5115823  88.5030121  13.1451039  64.8859769  87.1342881
   7.6191337  60.9582683  93.1325052   7.4811135  60.2262922  93.7336591
   8.5296261  60.8691583  92.8509240  16.5806285  62.8971087  77.8809530
  15.9635455  62.1717915  77.7842583  16.1122773  63.6580448  77.5376605
  10.2473638  60.6702642  92.6208732  10.9573256  60.0295835  92.5795350
  10.2042946  60.9215537  93.5434912  18.2360416  67.6069996  95.5415311
  18.1772963  66.9229216  94.8745894  18.6379935  68.3488986  95.0895937
   8.9602572  57.6567860  94.4404371   8.4239929  57.2058599  95.0925967
   8.3719280  57.7913769  93.6974835   7.2551115  74.4231910  88.3349030
   7.4947713  75.0550434  89.0128048   6.4120312  74.0719950  88.6214389
   8.3704831  57.1156512  77.0030835   7.4934297  56.9945312  76.6393081
   8.8462584  56.3242590  76.7509723  18.2377824  65.5709580  93.7729290
  17.3504602  65.2335501  93.8955689  18.8076375  64.8392611  94.0098056
   4.6941693  56.7923868  91.5257366   4.6099882  56.1849537  90.7907775
   3.8724399  57.2832886  91.5266862  11.7678977  70.2311032  90.7390534
  11.6949149  71.0366003  91.2509838  11.3256370  70.4302998  89.9138555
  11.5568757  69.4682802  84.2493355  10.7736279  70.0104482  84.3431580
  12.2561502  69.9856782  84.6487596  14.8665407  55.2777431  86.8927561
  15.3634106  54.5247394  86.5728631  14.0952388  55.3141748  86.3270770
  22.7195164  60.9817797  88.5345852  22.7085040  61.8642512  88.1639785
  21.8512544  60.6289348  88.3400389  14.2277661  70.1297866  92.8948692
  14.9405633  70.7645331  92.8224594  13.7367689  70.2261732  92.0788694
  15.9495188  64.0349119  84.4665984  15.0151466  64.1550581  84.2970688
  16.1271856  63.1321585  84.2025994  11.4500376  57.4194814  86.6199245
  11.0798163  56.8665855  87.3080151  11.9459468  56.8152948  86.0674245
  19.3367739  59.8766438  85.0016018  19.8028191  60.7094430  84.9276321
  19.7875239  59.4111420  85.7061277   9.2789574  67.8792309  93.7154263
   9.9799034  68.5128792  93.8683657   8.8084689  68.2207041  92.9549902
  17.4043970  66.2210259  82.0002170  17.6803814  66.1066854  82.9096044
  16.5348469  65.8227744  81.9614343  17.3084402  52.2447025  89.0406919
  16.3947481  52.4751252  89.2089126  17.7377503  52.3285469  89.8920952
  17.0790860  60.4336917  91.5406813  16.4262310  60.6812824  90.8859266
  17.4571240  59.6201055  91.2069291  14.0398034  70.4696610  85.6434984
  14.2220429  69.6518266  86.1062736  14.8631020  70.6864302  85.2059874
  14.3740199  69.3964795  82.9050032  14.9027966  68.8857250  82.2920194
  14.6368419  69.0807325  83.7695565  13.1278433  61.1756728  98.0272851
  12.4519070  61.0750857  98.6975226  13.9506067  61.0195942  98.4908848
   4.8757292  67.4128664  90.6485366   5.4610729  66.6672352  90.7813270
   4.6782131  67.7232621  91.5322030   7.7295947  70.4479912  85.6647808
   7.0606323  70.9326040  85.1811848   7.5908817  70.6949132  86.5791187
  11.8701216  72.4823655  92.2630467  12.4219524  72.6455277  93.0279552
  12.2107409  73.0728093  91.5910491   6.8465709  54.8298805  92.8652351
   6.9107036  55.6913636  92.4529749   6.7832829  54.2172807  92.1324710
   6.3217982  56.9021938  96.5125386   6.9490021  56.5199015  97.1262910
   5.4645901  56.6836140  96.8781078  16.7212090  67.3084913  98.1179121
  17.2651994  67.9214871  97.6234076  16.1398935  67.8664491  98.6346134
   3.0983525  58.7098367  82.4443740   3.3936966  57.8009045  82.3910794
   2.1971560  58.6886106  82.1224743  15.0069603  70.4305631  89.2494149
  14.8820743  69.6295371  88.7405094  15.6648694  70.9251824  88.7608119
   6.6277772  56.7854363  88.4271289   5.9064357  57.3990331  88.2878762
   7.4171027  57.3212128  88.3487935  17.0704512  68.2314651  90.8773699
  16.1234847  68.1120002  90.8052026  17.4187285  67.3437149  90.9599960
   9.4304085  54.1208790  94.7011941   9.9538487  54.3671086  95.4638250
   9.2116418  54.9528825  94.2815078   4.8271366  56.3912465  82.5683066
   4.4984072  55.5109843  82.3858171   5.1810737  56.3360133  83.4559455
  14.0750945  68.0267367  87.0778051  13.9275907  67.0984075  87.2585621
  14.9004438  68.0487458  86.5935126   7.9413189  56.6785434  82.9358543
   8.2809262  57.2071356  82.2137152   8.3885310  57.0165840  83.7117110
  17.6785067  68.8495926  88.1642924  18.6031614  68.6438787  88.0267375
  17.5100370  68.6012327  89.0732265  10.6356630  55.0622485  92.3861611
  10.2953450  54.2630298  92.7882291   9.9295636  55.3624196  91.8138444
  11.2873102  52.1471797  90.8388934  12.1099171  51.6732276  90.7167825
  11.5311165  52.9262281  91.3387621   9.9281336  55.1760056  81.1351836
  10.6489699  55.5541309  80.6315553   9.3046641  55.8948933  81.2386814
  14.0712459  55.8805205  82.0710168  14.2876074  56.7629843  81.7698996
  13.5906526  55.4891418  81.3415810   8.8111681  58.8390918  88.6480913
   8.6656261  59.1531221  89.5405194   8.3336884  59.4575818  88.0951812
  10.6708064  55.8293466  88.6961802  10.6569632  54.9334559  88.3594100
  11.3880492  55.8364130  89.3300088  12.5234194  56.2630806  90.7414930
  12.2651972  57.1847877  90.7399260  11.9919235  55.8661241  91.4315394
  17.4680383  69.3681593  83.5205015  17.6417261  68.8028016  82.7678868
  17.9609274  70.1682488  83.3384505   3.2857343  61.3796263  91.5868574
   2.7410811  62.1556070  91.7188848   4.1636693  61.7267067  91.4287695
  10.0744959  54.7107846  83.9649373  10.1960871  53.7824493  84.1640260
   9.7847002  54.7246532  83.0527688  12.9436150  52.3962757  87.1016092
  12.9657847  52.4602090  86.1468072  13.3604209  51.5567265  87.2956599
  18.4555556  68.6848358  80.6201914  19.1506460  69.3055051  80.8389228
  18.7978706  67.8343709  80.8954291   4.0723365  60.5066159  94.4798731
   3.3305101  60.6548794  95.0663361   3.7516109  60.7674424  93.6165480
  20.3546979  66.1348063  82.1489244  20.8798303  66.4735336  81.4238564
  20.2669331  65.1995079  81.9652379  12.0167027  70.0482137  94.2779121
  12.3254154  69.8031284  95.1501821  12.8142509  70.2528775  93.7897991
  12.0387639  72.2020047  86.5084497  11.5992630  71.7096425  87.2017354
  12.7895756  71.6593014  86.2676573   4.5179978  68.3931587  86.5109126
   5.3437998  68.0935359  86.1307769   4.1674030  67.6239210  86.9598914
   9.4861512  67.7458056  88.5806799   8.8641521  67.0828761  88.2809027
  10.1566378  67.7719188  87.8980447   2.7188583  66.3117914  87.4698059
   1.8820492  65.8840088  87.2882060   2.6912229  66.5050357  88.4068850
   9.5586039  56.2239844  98.1739305   9.6074195  57.1001967  97.7917075
  10.1008553  55.6817237  97.6010948  20.0440885  66.7680967  97.4540442
  19.2536428  66.7505106  96.9144942  19.8074239  67.3069261  98.2089479
  20.1638760  63.6173433  94.7673171  20.2136765  63.4523441  95.7088694
  20.0552683  62.7500692  94.3771052   9.0475018  66.2961979  82.0565260
   9.1963139  66.9797443  81.4031932   9.8541462  66.2767069  82.5714715
  17.4542522  59.6004361  96.0832477  18.3552385  59.4610826  95.7916475
  17.5290497  59.7658816  97.0230655  11.7885327  56.9771216  94.9285664
  10.9188637  57.2704782  94.6568252  12.0244808  57.5611661  95.6492927
  21.6656957  66.0370375  95.0115192  21.3741765  66.4000355  95.8478653
  21.0529088  65.3237383  94.8328524  19.9144145  61.1602990  93.4795250
  20.3898266  61.3530636  92.6714102  18.9909710  61.2162175  93.2338634
   6.8027651  62.3227157  83.0626329   6.5573693  61.4189487  83.2606539
   6.9723566  62.3244307  82.1205807  14.4924361  53.1950833  92.4451084
  15.0106305  53.9311860  92.1197573  14.1379494  53.5014826  93.2797843
   6.0723299  58.0555514  80.5612490   5.3792544  58.1299869  79.9052526
   5.8275051  57.2915858  81.0834007  14.7436955  49.6151116  87.9651981
  15.0238709  48.9474305  88.5912407  15.5287562  49.8080211  87.4526645
  12.5470424  68.7910110  79.5277007  11.9744391  69.4100297  79.0747479
  13.1203218  69.3409471  80.0616929  18.6145814  58.0368750  91.7123556
  19.5663237  58.1366847  91.7335780  18.4449264  57.2447018  92.2221640
  16.6360193  55.1224333  91.8982957  16.0410125  55.4029346  91.2029445
  16.3509890  55.6118234  92.6699698  15.7667684  69.0747260  80.6585589
  16.6998357  69.0092821  80.8618465  15.6790897  69.9103526  80.2000122
  18.3955700  68.3913130  77.6189537  18.3169332  68.0572994  78.5125295
  19.2165367  68.8834898  77.6181009  21.0933892  61.2574869  90.8265856
  21.0610212  60.3190870  91.0125539  21.7034515  61.3358906  90.0931680
  12.9317222  60.1270922  76.8693060  13.8776327  59.9977130  76.9381478
  12.5531467  59.3885584  77.3462488  21.2428380  58.0485913  90.8724139
  20.7267429  57.2644369  90.6854068  22.1268329  57.7204629  91.0370658
  18.9039107  51.7926928  86.8319951  18.7063928  51.4842016  87.7163283
  19.5138813  52.5188567  86.9617881  26.9110441  62.3190876  89.9671892
  27.6413830  62.0576164  90.5279596  26.3017387  61.5819598  90.0073960
  24.9925739  60.4598739  90.5646344  24.2658902  60.3254704  89.9562835
  24.5773025  60.7675567  91.3703062  12.8155915  64.1788668  98.3293717
  13.7358924  64.3567267  98.5233763  12.7805498  63.2344714  98.1773416
  11.1160140  58.0520899  76.8047945  10.2091595  57.7554011  76.8810658
  11.3936121  57.7550717  75.9382231   2.0338080  59.3727262  87.2546991
   1.7140864  58.5192570  86.9621365   1.4871508  59.5875840  88.0104959
   5.8117988  62.0889703  90.9716498   6.0303997  63.0206811  90.9904532
   6.2243761  61.7297677  91.7571302  12.7322205  52.5957788  82.9592186
  11.9222934  52.2504873  83.3347432  13.4206622  52.2865332  83.5479798
  14.6612754  51.6735835  84.5816483  15.2143792  52.0931289  85.2406506
  14.8982840  50.7471583  84.6239439  10.6845853  57.6622909 100.3619247
  10.5842580  58.6117266 100.2931338  10.4667395  57.3341148  99.4895317
   9.8858924  54.9107834  76.9459924  10.7478088  55.2362732  77.2055741
  10.0709268  54.1239330  76.4332990   1.9026340  62.9930174  89.2240113
   1.2089811  62.5784126  88.7110067   2.6499331  63.0350710  88.6273532
  18.0391561  53.7836360  84.0895147  17.4590230  54.4421164  83.7073199
  17.7727493  52.9613705  83.6782565  16.4895127  53.1841418  86.2916467
  16.9894905  53.2957953  85.4830786  17.1330735  52.8802471  86.9317276
  10.5477123  61.0920048  99.1784308  10.0644205  61.8920408  99.3848197
  10.6338062  61.1027993  98.2251752   3.8163083  62.9248427  87.1006128
   3.7933771  63.0236115  86.1488011   4.1263719  63.7713578  87.4223294
   6.4750460  64.9824582  91.2152742   7.4293714  64.9508525  91.1482674
   6.2762984  64.5215206  92.0302968   7.0649843  63.5525698  93.7823540
   7.8842732  64.0469777  93.8058377   7.3386650  62.6357667  93.7541107
  16.8216439  55.9436451  83.1451495  15.9342294  56.2286101  82.9271690
  17.2370428  55.7830214  82.2978772  20.1730975  55.9682972  86.8605835
  20.9491365  56.4579424  87.1330451  19.4479109  56.3941026  87.3177704
  22.6103534  56.6810591  87.9179775  23.2048024  56.4406327  87.2073083
  22.6830117  55.9617721  88.5453311   4.8300689  70.5244202  88.2322940
   4.6955157  69.7644603  87.6660938   4.4132751  71.2485102  87.7651729
  15.9659652  65.7081125  77.2399515  16.6695502  65.9131128  77.8557171
  15.2422301  66.2757887  77.5048599  16.7957462  61.4590987  83.3601785
  16.7392664  61.9159538  82.5209418  17.3485805  60.6981671  83.1824628
  20.6062268  57.2480719  84.1851905  20.3499203  56.8477354  85.0160113
  19.9815136  57.9624512  84.0602044  24.9174606  59.9876792  86.6923196
  24.3574164  60.0569981  87.4654758  24.3118110  59.8117776  85.9722693
   7.9869815  71.4213519  88.4441383   7.8702199  72.3658951  88.3420073
   7.1662261  71.1187080  88.8327182  17.8746350  66.1463655  79.2897975
  18.7091954  65.7144853  79.1075450  17.7130693  65.9745668  80.2174870
  17.5292242  62.6495768  80.6554315  17.4741046  62.4840039  79.7142759
  16.9038297  63.3571801  80.8116504   2.3184757  57.8863832  94.4815737
   2.9643620  57.3762786  94.9702962   2.1101908  58.6232514  95.0559162
  14.8438149  64.9544680  99.9807877  15.7129309  65.1285332  99.6194512
  14.3644900  65.7739097  99.8583607  10.8388367  52.1503877  80.2339633
  10.8267037  53.0945717  80.3907904  11.7311789  51.9674022  79.9399094
   9.0124329  72.0741781  91.6597311   9.9151576  72.1065391  91.9763806
   8.7861699  71.1442232  91.6743647  10.7677931  70.8272767  88.3207390
   9.8173562  70.8274629  88.2071762  11.0710417  70.0805502  87.8043424
  14.6540487  48.7446654  84.4885570  13.8872883  48.1905140  84.6342252
  15.0651192  48.8168522  85.3499721   6.6582248  55.0331449  98.5790751
   7.5213709  54.6768254  98.7894076   6.0847658  54.6945344  99.2666155
  23.3120331  76.6160734  89.3214677  22.9738843  76.5001799  88.4335212
  24.1810099  76.2151899  89.3015683  19.1707147  78.4696210  85.3111568
  18.6072012  78.3786147  84.5427855  19.0559542  77.6496115  85.7914060
  23.7940114  77.7695586  95.2800882  23.7828755  77.3748384  94.4081386
  23.9560753  77.0361658  95.8734654  16.7171579  79.9647402  88.1495788
  17.5092871  79.6238226  87.7342087  16.9568229  80.0742377  89.0697941
  24.7506705  82.1367178  80.6226033  24.0994685  82.7221258  80.2360046
  25.5451068  82.6673373  80.6821070  18.6762333  79.2256315  81.0213167
  19.4493209  78.6785302  80.8826043  19.0287731  80.0900564  81.2327628
  20.5147375  80.5532697  94.2280066  20.2237241  81.4578328  94.1126733
  21.1504359  80.5949225  94.9424136  21.4403582  77.9309546  90.8181426
  22.0367154  77.7065568  90.1038389  21.4978554  77.1894291  91.4206874
  21.0128610  75.3848981  78.6531617  21.2654131  74.8630502  77.8915080
  20.0753169  75.2215127  78.7558300  26.2281971  79.8257610  81.1595017
  25.5927804  79.8992236  81.8715922  25.8979377  80.4151209  80.4814096
  20.7324899  77.2877087  80.8555992  20.6161157  76.6121991  81.5237076
  20.8427159  76.8009461  80.0388145  25.4737260  80.2394113  91.2229860
  25.1737983  81.1419152  91.1145667  25.1288320  79.9726296  92.0751013
  18.9249742  76.6907910  87.2566564  18.0000238  76.5584124  87.4644256
  19.1734155  77.4702129  87.7536507  16.2858553  76.3341183  88.0910353
  16.4150934  76.5875662  89.0049765  15.6056004  76.9268891  87.7715009
  20.4558040  87.0038433  84.1900828  20.3782070  87.9546258  84.2689308
  19.8519684  86.6584306  84.8475754  22.9475270  74.1766299  96.8462195
  22.1708604  74.7360219  96.8365059  23.5865833  74.6623082  97.3677065
  21.2021642  76.9851752  96.4080162  21.9436326  77.5236796  96.1314985
  20.4958628  77.6118041  96.5651713  26.6776982  79.1280892  95.0052323
  27.0860338  78.6863303  94.2606955  25.9554243  78.5533520  95.2586516
  23.0308052  74.0653499  92.3785880  23.8769247  74.4892913  92.5220529
  22.9706689  73.4087124  93.0724443  27.0005796  79.6882083  88.7604612
  26.3714659  79.8527797  88.0580680  26.6131458  80.1023693  89.5315576
  26.1807497  71.7257868  94.0367054  25.9368429  72.4799928  93.5001329
  26.4567428  72.1043215  94.8714301  28.1345960  78.2696480  92.7144319
  28.3462855  78.9128240  92.0378700  28.0875708  77.4358797  92.2466249
  22.5533758  79.4256491  86.0254697  23.0172104  79.7044194  85.2359320
  22.2890556  78.5239936  85.8427788  19.4457839  78.9727973  88.9634460
  20.0159196  79.4015241  88.3251945  20.0365951  78.6910557  89.6618646
  21.4902644  75.5479644  82.8344262  22.1926688  76.0000687  83.3018189
  21.1583273  74.9063462  83.4624155  19.9383006  74.1391400  97.2095472
  19.3081666  74.8207681  97.4430868  19.8319094  74.0274482  96.2648610
  15.2327978  73.8063196  88.1361396  14.4427032  74.0620725  87.6601506
  15.7239226  74.6211534  88.2413436  29.2491788  81.1468435  90.8866677
  30.0709232  80.7448623  90.6049358  29.2454191  81.0436670  91.8382792
  17.1842724  74.1707775  85.0944872  16.3873887  74.2826470  85.6128368
  16.9568316  74.5094428  84.2285763  23.0148391  80.6952479  93.0427387
  23.0792824  81.1572886  93.8785559  22.3059315  80.0649844  93.1709697
  13.5165681  74.0593687  90.5676387  13.7673720  74.9440697  90.8333962
  14.0525230  73.8798288  89.7951478  22.7296409  82.3620586  82.9106367
  22.5942084  83.2072122  83.3391215  23.2706221  82.5639864  82.1472301
  19.2163749  68.4412166  99.5720723  18.8230694  67.8878365 100.2468367
  20.0329889  68.7522744  99.9627240  16.1825806  79.8796024  83.4834292
  16.6950327  80.6739274  83.6339857  16.8348519  79.1822315  83.4167894
  17.9920691  82.9961780  85.5657046  18.1687319  83.9179745  85.3778030
  18.7877525  82.6820200  85.9951425  22.1331710  69.8570045  97.1640979
  22.8741423  70.4577198  97.0845442  22.3649632  69.1147683  96.6059022
  17.2773048  75.0426412  95.4419209  17.1626563  74.1411670  95.7426308
  16.4217565  75.2890109  95.0904025  24.3564885  82.9844153  97.0406709
  23.9128739  82.1980531  96.7227614  25.0182099  83.1723303  96.3750600
  19.1152006  84.5139954  91.5667388  19.6659432  84.3857018  90.7944382
  18.2763482  84.8134843  91.2162281  26.4546123  83.2646953  95.0688111
  26.4364599  84.0855834  94.5768380  27.3766043  83.1401028  95.2938252
  22.9119178  80.7791082  95.9111619  23.4447514  80.0179370  95.6810927
  22.3833259  80.4864734  96.6535774  26.0788872  65.8851148  91.4405261
  25.7353142  66.7752790  91.3644371  26.4467835  65.6952806  90.5774846
  14.1474723  78.2084678  84.2593863  14.9849945  78.6181687  84.0427571
  14.3252991  77.2684121  84.2294057  24.2771890  79.9077075  83.4230431
  23.7493252  79.1729834  83.1103669  23.7759393  80.6851751  83.1770399
  19.0090618  70.5696741  85.7837043  19.5834370  70.3471922  85.0510236
  19.5961600  70.6385435  86.5365644  19.3360205  72.6001202  79.8032928
  18.4997517  72.9375888  80.1242203  19.1964975  72.4650182  78.8660065
  22.4224490  77.7257285  76.4265404  21.5151552  77.4946538  76.6256553
  22.9195522  76.9294904  76.6139386  25.3292569  86.4354792  79.3462090
  24.6554268  86.7386489  79.9547048  25.7158391  87.2383872  78.9967547
  28.8331991  81.4376469  84.7180562  28.3794318  80.5967379  84.7745752
  28.2025958  82.0737868  85.0555342  27.2764931  83.2752966  85.6530380
  27.5687905  83.8358023  84.9342746  27.7863551  83.5681527  86.4083539
  14.1700894  75.5475394  84.9304596  13.9725294  74.9544755  84.2055663
  13.6147558  75.2427604  85.6480535  23.2988812  79.3678623  78.2877473
  22.8608242  78.6514482  77.8283110  24.0399253  79.5954738  77.7262564
  20.0889978  74.0575560  84.8089568  19.2757843  74.3569731  85.2154761
  20.5848972  73.6631249  85.5264051  22.2398556  84.0533317  86.7423833
  22.1974734  84.2794163  85.8132365  23.1561255  83.8196692  86.8909634
  25.6864189  74.5217385  93.6404462  26.0413577  74.7488858  94.4998928
  26.3336321  74.8535761  93.0181718  19.5804053  71.6293916  90.4250803
  20.2203432  71.4882675  89.7273767  18.7481583  71.3428429  90.0489405
  31.4431306  79.7112347  89.3565063  31.8767813  79.6187636  90.2048117
  32.1562887  79.6869848  88.7185079  20.3564356  80.9296346  86.5385796
  21.1504955  80.4346666  86.3368371  19.6456049  80.4014209  86.1753501
  25.1759201  83.3114442  90.8898163  25.2296223  83.8805378  91.6575879
  24.3073982  83.4816327  90.5252201  16.6647120  75.0739428  82.6145549
  15.7344708  75.0123883  82.8315511  16.7604592  74.5515380  81.8182190
  16.5832669  71.5994241  85.2023790  16.8439486  72.5139574  85.0932951
  17.4049841  71.1318683  85.3520403  18.0557594  73.0131998  92.3722615
  18.7280648  72.8049360  91.7235264  17.2287381  72.8154084  91.9327847
  32.3046856  79.7536048  91.8897948  32.4982746  80.6581859  92.1357223
  32.2047474  79.2943467  92.7236533  23.9583166  69.6393939  94.3888276
  23.3111081  70.3383888  94.2952752  24.7284182  70.0730083  94.7564524
  27.3661964  79.9042791  97.4638829  27.2147471  79.6753342  96.5468913
  27.3566644  80.8613392  97.4770174  24.1347301  77.4774704  92.4485095
  25.0639361  77.6285863  92.2754063  23.7138331  77.5658724  91.5933742
  22.9335632  81.5025368  90.2183633  22.7946718  81.1344152  91.0909571
  22.1450229  82.0173007  90.0467591  23.5283784  86.6034464  81.5609170
  23.7035540  86.1322508  82.3754792  22.8416572  87.2300231  81.7890430
  24.4840848  80.8806971  87.6072471  24.1490680  80.8407741  88.5030121
  23.9844793  80.2151687  87.1342881  18.4585092  76.2874601  93.1325052
  18.3204890  75.5554840  93.7336591  19.3690015  76.1983501  92.8509240
  21.0867392  75.9994560  92.6208732  21.7967011  75.3587752  92.5795350
  21.0436700  76.2507455  93.5434912  29.0754171  82.9361913  95.5415311
  29.0166717  82.2521133  94.8745894  29.4773689  83.6780903  95.0895937
  19.7996326  72.9859778  94.4404371  19.2633683  72.5350516  95.0925967
  19.2113035  73.1205687  93.6974835  18.0944870  89.7523827  88.3349030
  18.3341468  90.3842351  89.0128048  17.2514066  89.4011867  88.6214389
  19.2098585  72.4448429  77.0030835  18.3328051  72.3237230  76.6393081
  19.6856338  71.6534508  76.7509723  29.0771578  80.9001497  93.7729290
  28.1898357  80.5627419  93.8955689  29.6470129  80.1684529  94.0098056
  10.7300725  77.2325589  87.0972342  11.4171765  76.9187319  86.5093357
  10.5748854  78.1366954  86.8239593  15.5335447  72.1215786  91.5257366
  15.4493636  71.5141455  90.7907775  14.7118154  72.6124804  91.5266862
  22.6072732  85.5602950  90.7390534  22.5342903  86.3657921  91.2509838
  22.1650125  85.7594915  89.9138555  22.3962511  84.7974720  84.2493355
  21.6130033  85.3396400  84.3431580  23.0955256  85.3148699  84.6487596
  25.0671415  85.4589784  92.8948692  25.7799387  86.0937248  92.8224594
  24.5761444  85.5553650  92.0788694  20.1183329  83.2084227  93.7154263
  20.8192788  83.8420710  93.8683657  19.6478444  83.5498959  92.9549902
  28.2437724  81.5502177  82.0002170  28.5197568  81.4358771  82.9096044
  27.3742223  81.1519662  81.9614343  24.8791788  85.7988528  85.6434984
  25.0614183  84.9810184  86.1062736  25.7024775  86.0156220  85.2059874
  25.2133954  84.7256713  82.9050032  25.7421720  84.2149167  82.2920194
  25.4762174  84.4099243  83.7695565  23.9672188  76.5048646  98.0272851
  23.2912825  76.4042775  98.6975226  24.7899822  76.3487859  98.4908848
  15.7151047  82.7420582  90.6485366  16.3004484  81.9964270  90.7813270
  15.5175885  83.0524539  91.5322030  18.5689702  85.7771830  85.6647808
  17.9000077  86.2617957  85.1811848  18.4302572  86.0241050  86.5791187
  10.3068701  75.3126182  89.3689809  10.3452801  74.7789773  90.1626927
   9.8008994  74.7861388  88.7500786  22.7094971  87.8115573  92.2630467
  23.2613279  87.9747195  93.0279552  23.0501164  88.4020011  91.5910491
  17.6859464  70.1590723  92.8652351  17.7500790  71.0205554  92.4529749
  17.6226584  69.5464725  92.1324710  17.1611736  72.2313855  96.5125386
  17.7883775  71.8490933  97.1262910  16.3039655  72.0128057  96.8781078
  27.5605845  82.6376831  98.1179121  28.1045749  83.2506789  97.6234076
  26.9792690  83.1956409  98.6346134  13.9377279  74.0390285  82.4443740
  14.2330720  73.1300963  82.3910794  13.0365315  74.0178024  82.1224743
  25.8463358  85.7597549  89.2494149  25.7214497  84.9587288  88.7405094
  26.5042449  86.2543742  88.7608119  17.4671526  72.1146281  88.4271289
  16.7458112  72.7282249  88.2878762  18.2564782  72.6504046  88.3487935
  27.9098266  83.5606569  90.8773699  26.9628602  83.4411920  90.8052026
  28.2581039  82.6729067  90.9599960  20.2697840  69.4500708  94.7011941
  20.7932241  69.6963004  95.4638250  20.0510173  70.2820742  94.2815078
  15.6665121  71.7204382  82.5683066  15.3377827  70.8401761  82.3858171
  16.0204491  71.6652051  83.4559455  24.9144699  83.3559285  87.0778051
  24.7669662  82.4275992  87.2585621  25.7398193  83.3779376  86.5935126
  18.7806944  72.0077352  82.9358543  19.1203016  72.5363273  82.2137152
  19.2279064  72.3457758  83.7117110  28.5178821  84.1787844  88.1642924
  29.4425369  83.9730705  88.0267375  28.3494125  83.9304245  89.0732265
  21.4750385  70.3914403  92.3861611  21.1347205  69.5922216  92.7882291
  20.7689391  70.6916114  91.8138444  22.1266856  67.4763715  90.8388934
  22.9492926  67.0024193  90.7167825  22.3704920  68.2554199  91.3387621
  19.6505435  74.1682836  88.6480913  19.5050016  74.4823139  89.5405194
  19.1730639  74.7867736  88.0951812  21.5101818  71.1585384  88.6961802
  21.4963387  70.2626477  88.3594100  22.2274246  71.1656048  89.3300088
  23.3627949  71.5922724  90.7414930  23.1045727  72.5139795  90.7399260
  22.8312989  71.1953159  91.4315394  14.1251097  76.7088180  91.5868574
  13.5804565  77.4847988  91.7188848  15.0030447  77.0558985  91.4287695
  14.9117119  75.8358076  94.4798731  14.1698855  75.9840712  95.0663361
  14.5909863  76.0966342  93.6165480  22.8560782  85.3774055  94.2779121
  23.1647908  85.1323201  95.1501821  23.6536264  85.5820693  93.7897991
  22.8781394  87.5311964  86.5084497  22.4386384  87.0388343  87.2017354
  23.6289511  86.9884932  86.2676573  15.3573733  83.7223505  86.5109126
  16.1831753  83.4227277  86.1307769  15.0067785  82.9531128  86.9598914
  20.3255266  83.0749973  88.5806799  19.7035275  82.4120678  88.2809027
  20.9960133  83.1011105  87.8980447  13.5582338  81.6409832  87.4698059
  12.7214246  81.2132006  87.2882060  13.5305983  81.8342275  88.4068850
  20.3979794  71.5531761  98.1739305  20.4467949  72.4293884  97.7917075
  20.9402308  71.0109154  97.6010948  30.8834639  82.0972885  97.4540442
  30.0930183  82.0797024  96.9144942  30.6467994  82.6361178  98.2089479
  31.0032514  78.9465351  94.7673171  31.0530519  78.7815358  95.7088694
  30.8946438  78.0792610  94.3771052  19.8868773  81.6253897  82.0565260
  20.0356893  82.3089361  81.4031932  20.6935216  81.6058987  82.5714715
  22.6279082  72.3063134  94.9285664  21.7582391  72.5996700  94.6568252
  22.8638562  72.8903579  95.6492927  32.5050711  81.3662293  95.0115192
  32.2135519  81.7292273  95.8478653  31.8922842  80.6529301  94.8328524
  17.6421406  77.6519074  83.0626329  17.3967448  76.7481404  83.2606539
  17.8117320  77.6536225  82.1205807  25.3318116  68.5242751  92.4451084
  25.8500060  69.2603778  92.1197573  24.9773249  68.8306744  93.2797843
  16.9117053  73.3847432  80.5612490  16.2186298  73.4591787  79.9052526
  16.6668805  72.6207776  81.0834007  23.3864178  84.1202027  79.5277007
  22.8138146  84.7392214  79.0747479  23.9596972  84.6701389  80.0616929
  26.6061438  84.4039177  80.6585589  27.5392111  84.3384739  80.8618465
  26.5184651  85.2395444  80.2000122  23.6549669  79.5080586  98.3293717
  24.5752679  79.6859185  98.5233763  23.6199253  78.5636631  98.1773416
  21.9553894  73.3812816  76.8047945  21.0485350  73.0845929  76.8810658
  22.2329875  73.0842634  75.9382231  12.8731834  74.7019180  87.2546991
  12.5534619  73.8484488  86.9621365  12.3265263  74.9167758  88.0104959
  16.6511742  77.4181621  90.9716498  16.8697752  78.3498729  90.9904532
  17.0637516  77.0589595  91.7571302  21.5239607  72.9914826 100.3619247
  21.4236334  73.9409183 100.2931338  21.3061149  72.6633065  99.4895317
  20.7252679  70.2399752  76.9459924  21.5871843  70.5654650  77.2055741
  20.9103023  69.4531247  76.4332990  12.7420095  78.3222091  89.2240113
  12.0483566  77.9076044  88.7110067  13.4893086  78.3642628  88.6273532
  21.3870877  76.4211965  99.1784308  20.9037959  77.2212325  99.3848197
  21.4731816  76.4319910  98.2251752  14.6556837  78.2540345  87.1006128
  14.6327525  78.3528032  86.1488011  14.9657474  79.1005496  87.4223294
  17.3144215  80.3116500  91.2152742  18.2687468  80.2800442  91.1482674
  17.1156738  79.8507124  92.0302968  17.9043597  78.8817616  93.7823540
  18.7236486  79.3761695  93.8058377  18.1780405  77.9649584  93.7541107
  15.6694444  85.8536120  88.2322940  15.5348912  85.0936520  87.6660938
  15.2526506  86.5777019  87.7651729  26.8053407  81.0373043  77.2399515
  27.5089257  81.2423046  77.8557171  26.0816055  81.6049805  77.5048599
  18.8263570  86.7505437  88.4441383  18.7095954  87.6950869  88.3420073
  18.0056016  86.4478998  88.8327182  13.1578511  73.2155750  94.4815737
  13.8037375  72.7054704  94.9702962  12.9495662  73.9524432  95.0559162
  25.6831903  80.2836597  99.9807877  26.5523063  80.4577250  99.6194512
  25.2038655  81.1031014  99.8583607  19.8518084  87.4033698  91.6597311
  20.7545330  87.4357309  91.9763806  19.6255454  86.4734149  91.6743647
  21.6071686  86.1564685  88.3207390  20.6567317  86.1566547  88.2071762
  21.9104172  85.4097420  87.8043424  17.4976002  70.3623367  98.5790751
  18.3607464  70.0060172  98.7894076  16.9241413  70.0237262  99.2666155
  37.3424379  91.9925223  89.3853152  37.9802789  91.8731971  88.6816492
  37.2245222  92.9406067  89.4441104  34.1514085  91.9452651  89.3214677
  33.8132597  91.8293716  88.4335212  35.0203854  91.5443817  89.3015683
  30.0100901  93.7988128  85.3111568  29.4465766  93.7078065  84.5427855
  29.8953296  92.9788032  85.7914060  34.6333868  93.0987503  95.2800882
  34.6222509  92.7040301  94.4081386  34.7954508  92.3653576  95.8734654
  27.5565333  95.2939319  88.1495788  28.3486625  94.9530144  87.7342087
  27.7961983  95.4034295  89.0697941  35.5900460  97.4659096  80.6226033
  34.9388440  98.0513176  80.2360046  36.3844823  97.9965291  80.6821070
  29.5156087  94.5548233  81.0213167  30.2886963  94.0077220  80.8826043
  29.8681486  95.4192482  81.2327628  31.3541130  95.8824615  94.2280066
  31.0630996  96.7870246  94.1126733  31.9898114  95.9241143  94.9424136
  32.2797336  93.2601464  90.8181426  32.8760909  93.0357486  90.1038389
  32.3372308  92.5186209  91.4206874  37.0675725  95.1549528  81.1595017
  36.4321558  95.2284154  81.8715922  36.7373131  95.7443126  80.4814096
  31.5718654  92.6169005  80.8555992  31.4554912  91.9413908  81.5237076
  31.6820914  92.1301379  80.0388145  33.9150195  92.0779152  84.5602681
  33.5508402  91.5509773  85.2715603  34.7717310  91.6877621  84.3869166
  36.3131015  95.5686031  91.2229860  36.0131738  96.4711069  91.1145667
  35.9682074  95.3018214  92.0751013  29.7643496  92.0199827  87.2566564
  28.8393993  91.8876041  87.4644256  30.0127909  92.7994047  87.7536507
  27.1252307  91.6633101  88.0910353  27.2544688  91.9167580  89.0049765
  26.4449759  92.2560809  87.7715009  31.2951795 102.3330351  84.1900828
  31.2175824 103.2838176  84.2689308  30.6913438 101.9876223  84.8475754
  33.7869024  89.5058216  96.8462195  33.0102358  90.0652136  96.8365059
  34.4259587  89.9914999  97.3677065  32.0415397  92.3143670  96.4080162
  32.7830081  92.8528714  96.1314985  31.3352382  92.9409958  96.5651713
  37.5170736  94.4572810  95.0052323  37.9254092  94.0155221  94.2606955
  36.7947998  93.8825438  95.2586516  33.8701806  89.3945417  92.3785880
  34.7163001  89.8184830  92.5220529  33.8100444  88.7379041  93.0724443
  37.8399551  95.0174001  88.7604612  37.2108413  95.1819715  88.0580680
  37.4525213  95.4315610  89.5315576  41.7188783  95.9528439  86.1148976
  41.0339821  96.3327340  85.5646009  41.8032632  96.5623765  86.8480923
  37.0201252  87.0549785  94.0367054  36.7762183  87.8091846  93.5001329
  37.2961182  87.4335133  94.8714301  38.9739714  93.5988398  92.7144319
  39.1856610  94.2420158  92.0378700  38.9269463  92.7650714  92.2466249
  33.3927513  94.7548409  86.0254697  33.8565858  95.0336112  85.2359320
  33.1284311  93.8531853  85.8427788  30.2851594  94.3019890  88.9634460
  30.8552951  94.7307159  88.3251945  30.8759706  94.0202475  89.6618646
  30.7776760  89.4683318  97.2095472  30.1475421  90.1499599  97.4430868
  30.6712848  89.3566399  96.2648610  26.0721733  89.1355114  88.1361396
  25.2820787  89.3912642  87.6601506  26.5632980  89.9503452  88.2413436
  40.0885542  96.4760353  90.8866677  40.9102986  96.0740540  90.6049358
  40.0847945  96.3728587  91.8382792  28.0236478  89.4999693  85.0944872
  27.2267641  89.6118387  85.6128368  27.7962070  89.8386345  84.2285763
  33.8542146  96.0244396  93.0427387  33.9186578  96.4864804  93.8785559
  33.1453070  95.3941761  93.1709697  24.3559436  89.3885604  90.5676387
  24.6067474  90.2732614  90.8333962  24.8918984  89.2090206  89.7951478
  33.5690163  97.6912504  82.9106367  33.4335838  98.5364040  83.3391215
  34.1099976  97.8931781  82.1472301  30.0557503  83.7704084  99.5720723
  29.6624449  83.2170282 100.2468367  30.8723643  84.0814662  99.9627240
  27.0219561  95.2087942  83.4834292  27.5344081  96.0031192  83.6339857
  27.6742274  94.5114232  83.4167894  28.8314446  98.3253698  85.5657046
  29.0081074  99.2471663  85.3778030  29.6271279  98.0112117  85.9951425
  32.9725464  85.1861963  97.1640979  33.7135177  85.7869116  97.0845442
  33.2043387  84.4439601  96.6059022  28.1166802  90.3718330  95.4419209
  28.0020317  89.4703587  95.7426308  27.2611320  90.6182027  95.0904025
  35.1958640  98.3136070  97.0406709  34.7522494  97.5272449  96.7227614
  35.8575853  98.5015221  96.3750600  29.9545761  99.8431872  91.5667388
  30.5053186  99.7148935  90.7944382  29.1157237 100.1426761  91.2162281
  37.2939878  98.5938870  95.0688111  37.2758353  99.4147751  94.5768380
  38.2159798  98.4692945  95.2938252  33.7512932  96.1083000  95.9111619
  34.2841269  95.3471288  95.6810927  33.2227013  95.8156652  96.6535774
  24.9868478  93.5376596  84.2593863  25.8243700  93.9473605  84.0427571
  25.1646745  92.5976038  84.2294057  36.8832910  91.2051677  79.9477696
  36.3679533  91.9756281  80.1866083  36.6110218  90.5316813  80.5710757
  32.2422053  83.6686451  88.4120676  33.1075050  83.4729259  88.0526565
  32.3099562  83.4396802  89.3390033  41.8567184  93.9584031  81.8830869
  41.0796627  93.6195191  81.4386032  42.5358665  93.9636655  81.2085834
  35.1165645  95.2368992  83.4230431  34.5887006  94.5021752  83.1103669
  34.6153147  96.0143669  83.1770399  40.0958491  93.4318013  88.5397477
  39.4382165  94.1217274  88.6277606  40.8998890  93.8214445  88.8831464
  38.9063950  91.7862385  86.5901419  39.4195831  92.4192377  87.0923129
  39.5565173  91.1863581  86.2244779  33.2618245  93.0549202  76.4265404
  32.3545307  92.8238456  76.6256553  33.7589277  92.2586822  76.6139386
  36.1686324 101.7646710  79.3462090  35.4948023 102.0678406  79.9547048
  36.5552146 102.5675790  78.9967547  35.3844780  89.2611841  88.8359760
  34.4667342  89.4826788  88.6781448  35.8004924  89.3358151  87.9771467
  34.4406478  93.1561797  80.9489394  33.5317698  92.8720830  81.0461864
  34.4701562  93.5760876  80.0892701  39.6725746  96.7668387  84.7180562
  39.2188073  95.9259297  84.7745752  39.0419712  97.4029785  85.0555342
  38.1158685  98.6044884  85.6530380  38.4081659  99.1649941  84.9342746
  38.6257306  98.8973445  86.4083539  25.0094649  90.8767311  84.9304596
  24.8119049  90.2836672  84.2055663  24.4541313  90.5719522  85.6480535
  32.9891372  90.7690418  87.0499190  33.0439982  89.8164254  86.9741666
  32.1782574  90.9249857  87.5340488  34.1382566  94.6970541  78.2877473
  33.7001996  93.9806400  77.8283110  34.8793007  94.9246656  77.7262564
  30.9283732  89.3867478  84.8089568  30.1151598  89.6861648  85.2154761
  31.4242726  88.9923166  85.5264051  33.0792310  99.3825235  86.7423833
  33.0368489  99.6086081  85.8132365  33.9955009  99.1488609  86.8909634
  36.5257944  89.8509302  93.6404462  36.8807332  90.0780775  94.4998928
  37.1730075  90.1827679  93.0181718  42.2555681  92.9727738  84.3453791
  42.1173580  93.1629334  83.4174981  41.8991900  93.7347121  84.8021843
  30.4197807  86.9585833  90.4250803  31.0597186  86.8174592  89.7273767
  29.5875338  86.6720347  90.0489405  42.2825061  95.0404265  89.3565063
  42.7161567  94.9479554  90.2048117  42.9956641  95.0161766  88.7185079
  31.1958111  96.2588264  86.5385796  31.9898709  95.7638584  86.3368371
  30.4849803  95.7306127  86.1753501  36.0152955  98.6406359  90.8898163
  36.0689978  99.2097295  91.6575879  35.1467737  98.8108244  90.5252201
  27.5040874  90.4031345  82.6145549  26.5738463  90.3415801  82.8315511
  27.5998346  89.8807298  81.8182190  27.4226423  86.9286158  85.2023790
  27.6833241  87.8431491  85.0932951  28.2443596  86.4610601  85.3520403
  28.8951349  88.3423915  92.3722615  29.5674402  88.1341278  91.7235264
  28.0681135  88.1446001  91.9327847  43.1440610  95.0827966  91.8897948
  43.3376500  95.9873776  92.1357223  43.0441228  94.6235385  92.7236533
  34.7976921  84.9685856  94.3888276  34.1504836  85.6675806  94.2952752
  35.5677936  85.4022000  94.7564524  38.2055719  95.2334708  97.4638829
  38.0541225  95.0045260  96.5468913  38.1960398  96.1905310  97.4770174
  34.9741055  92.8066621  92.4485095  35.9033115  92.9577781  92.2754063
  34.5532085  92.8950642  91.5933742  33.7729387  96.8317286  90.2183633
  33.6340473  96.4636070  91.0909571  32.9843983  97.3464925  90.0467591
  34.3677539 101.9326382  81.5609170  34.5429295 101.4614425  82.3754792
  33.6810327 102.5592148  81.7890430  35.3234602  96.2098888  87.6072471
  34.9884435  96.1699658  88.5030121  34.8238548  95.5443604  87.1342881
  29.2978846  91.6166518  93.1325052  29.1598644  90.8846757  93.7336591
  30.2083770  91.5275418  92.8509240  38.2593794  93.5554923  77.8809530
  37.6422964  92.8301751  77.7842583  37.7910282  94.3164283  77.5376605
  31.9261147  91.3286478  92.6208732  32.6360765  90.6879670  92.5795350
  31.8830455  91.5799373  93.5434912  39.9147925  98.2653831  95.5415311
  39.8560472  97.5813051  94.8745894  40.3167444  99.0072821  95.0895937
  30.6390081  88.3151696  94.4404371  30.1027438  87.8642434  95.0925967
  30.0506789  88.4497604  93.6974835  28.9338624 105.0815745  88.3349030
  29.1735222 105.7134269  89.0128048  28.0907821 104.7303785  88.6214389
  39.9165333  96.2293415  93.7729290  39.0292111  95.8919337  93.8955689
  40.4863884  95.4976446  94.0098056  21.5694480  92.5617507  87.0972342
  22.2565520  92.2479237  86.5093357  21.4142608  93.4658871  86.8239593
  26.3729202  87.4507703  91.5257366  26.2887391  86.8433373  90.7907775
  25.5511908  87.9416722  91.5266862  33.4466486 100.8894867  90.7390534
  33.3736658 101.6949839  91.2509838  33.0043879 101.0886833  89.9138555
  33.2356266 100.1266637  84.2493355  32.4523788 100.6688318  84.3431580
  33.9349011 100.6440617  84.6487596  35.9065170 100.7881701  92.8948692
  36.6193142 101.4229166  92.8224594  35.4155198 100.8845567  92.0788694
  37.6282697  94.6932954  84.4665984  36.6938975  94.8134416  84.2970688
  37.8059365  93.7905421  84.2025994  33.1287885  88.0778650  86.6199245
  32.7585672  87.5249690  87.3080151  33.6246977  87.4736783  86.0674245
  30.9577083  98.5376145  93.7154263  31.6586543  99.1712628  93.8683657
  30.4872198  98.8790876  92.9549902  39.0831479  96.8794095  82.0002170
  39.3591323  96.7650689  82.9096044  38.2135978  96.4811579  81.9614343
  38.7578369  91.0920752  91.5406813  38.1049819  91.3396660  90.8859266
  39.1358749  90.2784890  91.2069291  35.7185543 101.1280445  85.6434984
  35.9007938 100.3102101  86.1062736  36.5418529 101.3448138  85.2059874
  36.0527708 100.0548631  82.9050032  36.5815475  99.5441085  82.2920194
  36.3155928  99.7391161  83.7695565  34.8065942  91.8340563  98.0272851
  34.1306579  91.7334693  98.6975226  35.6293576  91.6779777  98.4908848
  26.5544801  98.0712500  90.6485366  27.1398238  97.3256188  90.7813270
  26.3569640  98.3816457  91.5322030  29.4083456 101.1063747  85.6647808
  28.7393832 101.5909875  85.1811848  29.2696326 101.3532968  86.5791187
  21.1462456  90.6418100  89.3689809  21.1846555  90.1081691  90.1626927
  20.6402749  90.1153306  88.7500786  33.5488725 103.1407491  92.2630467
  34.1007033 103.3039112  93.0279552  33.8894918 103.7311929  91.5910491
  28.5253218  85.4882641  92.8652351  28.5894545  86.3497471  92.4529749
  28.4620338  84.8756642  92.1324710  28.0005491  87.5605773  96.5125386
  28.6277530  87.1782850  97.1262910  27.1433410  87.3419975  96.8781078
  38.3999599  97.9668748  98.1179121  38.9439503  98.5798707  97.6234076
  37.8186444  98.5248327  98.6346134  24.7771034  89.3682202  82.4443740
  25.0724475  88.4592881  82.3910794  23.8759069  89.3469942  82.1224743
  36.6857112 101.0889466  89.2494149  36.5608252 100.2879206  88.7405094
  37.3436203 101.5835660  88.7608119  28.3065281  87.4438199  88.4271289
  27.5851866  88.0574167  88.2878762  29.0958536  87.9795964  88.3487935
  38.7492021  98.8898486  90.8773699  37.8022356  98.7703838  90.8052026
  39.0974794  98.0020984  90.9599960  31.1091594  84.7792625  94.7011941
  31.6325996  85.0254922  95.4638250  30.8903927  85.6112660  94.2815078
  26.5058875  87.0496300  82.5683066  26.1771581  86.1693679  82.3858171
  26.8598246  86.9943969  83.4559455  35.7538454  98.6851203  87.0778051
  35.6063416  97.7567910  87.2585621  36.5791947  98.7071293  86.5935126
  39.3572576  99.5079761  88.1642924  40.2819123  99.3022623  88.0267375
  39.1887879  99.2596162  89.0732265  32.3144139  85.7206320  92.3861611
  31.9740959  84.9214133  92.7882291  31.6083145  86.0208031  91.8138444
  32.9660611  82.8055633  90.8388934  33.7886680  82.3316111  90.7167825
  33.2098674  83.5846117  91.3387621  30.4899190  89.4974753  88.6480913
  30.3443770  89.8115057  89.5405194  30.0124393  90.1159654  88.0951812
  32.3495573  86.4877301  88.6961802  32.3357141  85.5918395  88.3594100
  33.0668001  86.4947965  89.3300088  34.2021703  86.9214642  90.7414930
  33.9439481  87.8431712  90.7399260  33.6706744  86.5245076  91.4315394
  39.1467892 100.0265429  83.5205015  39.3204770  99.4611851  82.7678868
  39.6396783 100.8266324  83.3384505  24.9644852  92.0380098  91.5868574
  24.4198320  92.8139906  91.7188848  25.8424202  92.3850902  91.4287695
  40.1343065  99.3432193  80.6201914  40.8293969  99.9638886  80.8389228
  40.4766215  98.4927544  80.8954291  25.7510874  91.1649994  94.4798731
  25.0092610  91.3132629  95.0663361  25.4303618  91.4258260  93.6165480
  42.0334488  96.7931899  82.1489244  42.5585812  97.1319171  81.4238564
  41.9456840  95.8578914  81.9652379  33.6954536 100.7065972  94.2779121
  34.0041663 100.4615119  95.1501821  34.4930018 100.9112611  93.7897991
  33.7175148 102.8603882  86.5084497  33.2780139 102.3680261  87.2017354
  34.4683265 102.3176850  86.2676573  26.1967487  99.0515423  86.5109126
  27.0225507  98.7519195  86.1307769  25.8461539  98.2823045  86.9598914
  31.1649021  98.4041891  88.5806799  30.5429030  97.7412596  88.2809027
  31.8353887  98.4303023  87.8980447  24.3976092  96.9701749  87.4698059
  23.5608001  96.5423924  87.2882060  24.3699738  97.1634193  88.4068850
  31.2373548  86.8823679  98.1739305  31.2861703  87.7585802  97.7917075
  31.7796062  86.3401072  97.6010948  41.7228394  97.4264802  97.4540442
  40.9323937  97.4088941  96.9144942  41.4861748  97.9653096  98.2089479
  41.8426269  94.2757269  94.7673171  41.8924274  94.1107276  95.7088694
  41.7340192  93.4084528  94.3771052  30.7262527  96.9545814  82.0565260
  30.8750648  97.6381279  81.4031932  31.5328971  96.9350904  82.5714715
  39.1330031  90.2588197  96.0832477  40.0339894  90.1194662  95.7916475
  39.2078006  90.4242652  97.0230655  33.4672836  87.6355052  94.9285664
  32.5976146  87.9288618  94.6568252  33.7032317  88.2195497  95.6492927
  43.3444466  96.6954210  95.0115192  43.0529274  97.0584191  95.8478653
  42.7316597  95.9821219  94.8328524  44.5440148  94.2607090  87.5317763
  45.3787039  94.6996894  87.6955323  44.6799277  93.7845743  86.7126008
  41.5931654  91.8186825  93.4795250  42.0685775  92.0114471  92.6714102
  40.6697219  91.8746011  93.2338634  28.4815160  92.9810992  83.0626329
  28.2361202  92.0773322  83.2606539  28.6511075  92.9828143  82.1205807
  36.1711870  83.8534668  92.4451084  36.6893814  84.5895695  92.1197573
  35.8167003  84.1598662  93.2797843  27.7510808  88.7139350  80.5612490
  27.0580053  88.7883705  79.9052526  27.5062560  87.9499693  81.0834007
  34.2257933  99.4493945  79.5277007  33.6531900 100.0684132  79.0747479
  34.7990727  99.9993307  80.0616929  37.4455193  99.7331095  80.6585589
  38.3785866  99.6676657  80.8618465  37.3578406 100.5687362  80.2000122
  40.0743209  99.0496965  77.6189537  39.9956841  98.7156829  78.5125295
  40.8952876  99.5418733  77.6181009  42.7721401  91.9158705  90.8265856
  42.7397721  90.9774705  91.0125539  43.3822024  91.9942741  90.0931680
  34.6104731  90.7854758  76.8693060  35.5563836  90.6560966  76.9381478
  34.2318976  90.0469420  77.3462488  34.4943424  94.8372504  98.3293717
  35.4146433  95.0151103  98.5233763  34.4593007  93.8928549  98.1773416
  23.7125589  90.0311097  87.2546991  23.3928373  89.1776406  86.9621365
  23.1659017  90.2459676  88.0104959  27.4905497  92.7473538  90.9716498
  27.7091506  93.6790646  90.9904532  27.9031270  92.3881513  91.7571302
  32.3633362  88.3206744 100.3619247  32.2630089  89.2701101 100.2931338
  32.1454904  87.9924983  99.4895317  23.5813849  93.6514009  89.2240113
  22.8877320  93.2367962  88.7110067  24.3286840  93.6934545  88.6273532
  32.2264632  91.7503883  99.1784308  31.7431714  92.5504243  99.3848197
  32.3125571  91.7611828  98.2251752  25.4950592  93.5832263  87.1006128
  25.4721280  93.6819950  86.1488011  25.8051228  94.4297413  87.4223294
  28.1537969  95.6408418  91.2152742  29.1081223  95.6092360  91.1482674
  27.9550493  95.1799041  92.0302968  28.7437352  94.2109534  93.7823540
  29.5630241  94.7053612  93.8058377  29.0174159  93.2941502  93.7541107
  26.5088198 101.1828037  88.2322940  26.3742666 100.4228438  87.6660938
  26.0920260 101.9068937  87.7651729  37.6447161  96.3664961  77.2399515
  38.3483011  96.5714963  77.8557171  36.9209810  96.9341723  77.5048599
  38.4744971  92.1174822  83.3601785  38.4180173  92.5743373  82.5209418
  39.0273314  91.3565507  83.1824628  29.6657324 102.0797354  88.4441383
  29.5489708 103.0242787  88.3420073  28.8449770 101.7770916  88.8327182
  39.5533859  96.8047490  79.2897975  40.3879463  96.3728688  79.1075450
  39.3918202  96.6329504  80.2174870  39.2079751  93.3079603  80.6554315
  39.1528555  93.1423875  79.7142759  38.5825806  94.0155636  80.8116504
  23.9972266  88.5447668  94.4815737  24.6431129  88.0346622  94.9702962
  23.7889417  89.2816349  95.0559162  36.5225658  95.6128515  99.9807877
  37.3916818  95.7869167  99.6194512  36.0432409  96.4322932  99.8583607
  30.6911838 102.7325616  91.6597311  31.5939085 102.7649226  91.9763806
  30.4649208 101.8026067  91.6743647  32.4465440 101.4856603  88.3207390
  31.4961071 101.4858464  88.2071762  32.7497926 100.7389337  87.8043424
  28.3369757  85.6915285  98.5790751  29.2001218  85.3352090  98.7894076
  27.7635167  85.3529180  99.2666155  48.1818134 107.3217141  89.3853152
  48.8196544 107.2023888  88.6816492  48.0638977 108.2697985  89.4441104
  44.9907840 107.2744569  89.3214677  44.6526351 107.1585634  88.4335212
  45.8597608 106.8735734  89.3015683  40.8494656 109.1280046  85.3111568
  40.2859521 109.0369983  84.5427855  40.7347051 108.3079950  85.7914060
  45.4727623 108.4279421  95.2800882  45.4616264 108.0332219  94.4081386
  45.6348262 107.6945493  95.8734654  38.3959088 110.6231237  88.1495788
  39.1880380 110.2822062  87.7342087  38.6355738 110.7326212  89.0697941
  46.4294214 112.7951013  80.6226033  45.7782194 113.3805094  80.2360046
  47.2238577 113.3257208  80.6821070  40.3549842 109.8840150  81.0213167
  41.1280718 109.3369138  80.8826043  40.7075240 110.7484400  81.2327628
  42.1934884 111.2116533  94.2280066  41.9024750 112.1162164  94.1126733
  42.8291868 111.2533060  94.9424136  43.1191091 108.5893381  90.8181426
  43.7154663 108.3649404  90.1038389  43.1766062 107.8478127  91.4206874
  42.6916119 106.0432817  78.6531617  42.9441640 105.5214338  77.8915080
  41.7540678 105.8798962  78.7558300  47.7359402 105.0468595  86.4606360
  48.5222491 104.6288018  86.1096777  47.9998107 105.9514687  86.6288009
  47.9069480 110.4841445  81.1595017  47.2715313 110.5576072  81.8715922
  47.5766886 111.0735044  80.4814096  53.1367829 104.9843828  87.3639339
  53.8693001 104.4143045  87.5977168  52.3807185 104.5965429  87.8045844
  42.4112408 107.9460922  80.8555992  42.2948666 107.2705826  81.5237076
  42.5214668 107.4593296  80.0388145  44.7543949 107.4071070  84.5602681
  44.3902156 106.8801691  85.2715603  45.6111065 107.0169539  84.3869166
  50.6593250  98.6965402  91.8233947  50.3276574  99.5660813  91.5995162
  50.0638863  98.3801686  92.5027978  44.3949436 102.4360969  79.5564030
  44.5623838 103.3041206  79.9234501  44.2046605 102.5988251  78.6325319
  47.1524769 110.8977948  91.2229860  46.8525492 111.8002987  91.1145667
  46.8075829 110.6310131  92.0751013  40.6037251 107.3491745  87.2566564
  39.6787747 107.2167959  87.4644256  40.8521664 108.1285964  87.7536507
  50.5521913 103.4160488  88.9027297  49.6438790 103.3475897  88.6086058
  50.5009509 103.8932433  89.7309123  44.3738657 104.8918627  80.5410696
  44.2538282 105.3375678  81.3796177  43.6791245 105.2403944  79.9824235
  37.9646062 106.9925019  88.0910353  38.0938443 107.2459498  89.0049765
  37.2843513 107.5852727  87.7715009  42.1345549 117.6622269  84.1900828
  42.0569579 118.6130094  84.2689308  41.5307193 117.3168141  84.8475754
  44.6262779 104.8350134  96.8462195  43.8496113 105.3944054  96.8365059
  45.2653342 105.3206917  97.3677065  52.4183559 101.6176927  90.6805171
  51.7757940 101.9109460  90.0344966  51.9138488 101.5029847  91.4858368
  50.0723723 105.3640100  81.3691030  50.9841579 105.5967487  81.1938728
  49.5633370 105.9477144  80.8066109  42.8809151 107.6435587  96.4080162
  43.6223835 108.1820631  96.1314985  42.1746137 108.2701876  96.5651713
  48.3564491 109.7864728  95.0052323  48.7647847 109.3447138  94.2606955
  47.6341752 109.2117355  95.2586516  44.7095561 104.7237335  92.3785880
  45.5556756 105.1476748  92.5220529  44.6494198 104.0670959  93.0724443
  48.6793305 110.3465918  88.7604612  48.0502168 110.5111633  88.0580680
  48.2918967 110.7607528  89.5315576  52.5582537 111.2820356  86.1148976
  51.8733575 111.6619258  85.5646009  52.6426387 111.8915683  86.8480923
  47.8595006 102.3841703  94.0367054  47.6155938 103.1383763  93.5001329
  48.1354937 102.7627051  94.8714301  49.8133469 108.9280315  92.7144319
  50.0250364 109.5712075  92.0378700  49.7663217 108.0942632  92.2466249
  47.4159698 101.5398136  89.6180891  46.5544177 101.8379390  89.9097629
  47.4422132 101.7568535  88.6861924  44.2321267 110.0840327  86.0254697
  44.6959613 110.3628030  85.2359320  43.9678065 109.1823771  85.8427788
  41.1245348 109.6311808  88.9634460  41.6946705 110.0599076  88.3251945
  41.7153460 109.3494393  89.6618646  43.1690153 106.2063479  82.8344262
  43.8714197 106.6584523  83.3018189  42.8370782 105.5647298  83.4624155
  41.6170515 104.7975236  97.2095472  40.9869175 105.4791516  97.4430868
  41.5106603 104.6858317  96.2648610  36.9115487 104.4647032  88.1361396
  36.1214541 104.7204560  87.6601506  37.4026735 105.2795369  88.2413436
  50.9279297 111.8052271  90.8866677  51.7496741 111.4032458  90.6049358
  50.9241700 111.7020505  91.8382792  38.8630233 104.8291611  85.0944872
  38.0661396 104.9410305  85.6128368  38.6355825 105.1678263  84.2285763
  44.6935900 111.3536314  93.0427387  44.7580333 111.8156721  93.8785559
  43.9846824 110.7233679  93.1709697  35.1953190 104.7177522  90.5676387
  35.4461229 105.6024532  90.8333962  35.7312739 104.5382124  89.7951478
  59.0185290 108.1491019  87.2351648  58.2648998 107.5798417  87.0795652
  59.1532831 108.1153684  88.1822283  44.4083918 113.0204422  82.9106367
  44.2729593 113.8655957  83.3391215  44.9493730 113.2223699  82.1472301
  40.8951258  99.0996001  99.5720723  40.5018203  98.5462200 100.2468367
  41.7117398  99.4106580  99.9627240  37.8613315 110.5379860  83.4834292
  38.3737836 111.3323110  83.6339857  38.5136028 109.8406150  83.4167894
  39.6708200 113.6545616  85.5657046  39.8474828 114.5763581  85.3778030
  40.4665034 113.3404035  85.9951425  43.8119219 100.5153880  97.1640979
  44.5528932 101.1161034  97.0845442  44.0437141  99.7731518  96.6059022
  38.9560557 105.7010248  95.4419209  38.8414072 104.7995505  95.7426308
  38.1005074 105.9473944  95.0904025  46.0352394 113.6427988  97.0406709
  45.5916248 112.8564367  96.7227614  46.6969608 113.8307139  96.3750600
  40.7939515 115.1723790  91.5667388  41.3446941 115.0440853  90.7944382
  39.9550991 115.4718679  91.2162281  48.1333632 113.9230788  95.0688111
  48.1152108 114.7439669  94.5768380  49.0553552 113.7984863  95.2938252
  44.5906687 111.4374917  95.9111619  45.1235023 110.6763206  95.6810927
  44.0620768 111.1448569  96.6535774  47.7576381  96.5434983  91.4405261
  47.4140651  97.4336625  91.3644371  48.1255344  96.3536641  90.5774846
  35.8262232 108.8668514  84.2593863  36.6637454 109.2765522  84.0427571
  36.0040500 107.9267956  84.2294057  47.7226664 106.5343594  79.9477696
  47.2073288 107.3048199  80.1866083  47.4503973 105.8608731  80.5710757
  45.3073775 101.3793295  85.0062934  44.4515372 100.9900146  84.8268573
  45.7200727 101.4585256  84.1462720  46.8372922  98.9139639  89.4054494
  46.3337717  98.8769774  88.5922299  47.1303529  99.8232381  89.4651151
  43.0815808  98.9978368  88.4120676  43.9468805  98.8021177  88.0526565
  43.1493317  98.7688720  89.3390033  52.6960938 109.2875949  81.8830869
  51.9190381 108.9487109  81.4386032  53.3752419 109.2928572  81.2085834
  47.5112967 104.4070687  81.7737477  47.2063103 104.7216836  82.6247620
  48.4643409 104.4852106  81.8164810  45.9559399 110.5660910  83.4230431
  45.4280761 109.8313669  83.1103669  45.4546902 111.3435586  83.1770399
  50.9352245 108.7609930  88.5397477  50.2775920 109.4509192  88.6277606
  51.7392644 109.1506362  88.8831464  40.6878127 101.2280576  85.7837043
  41.2621879 101.0055758  85.0510236  41.2749109 101.2969271  86.5365644
  49.7457704 107.1154303  86.5901419  50.2589586 107.7484295  87.0923129
  50.3958928 106.5155499  86.2244779  41.0147714 103.2585037  79.8032928
  40.1785026 103.5959724  80.1242203  40.8752484 103.1234017  78.8660065
  42.9900795  98.1021825  84.5112112  42.3365207  97.7870842  83.8868727
  42.9481269  97.4797566  85.2371935  44.1011999 108.3841120  76.4265404
  43.1939061 108.1530374  76.6256553  44.5983031 107.5878739  76.6139386
  47.0080078 117.0938627  79.3462090  46.3341777 117.3970324  79.9547048
  47.3945900 117.8967708  78.9967547  46.2238535 104.5903759  88.8359760
  45.3061096 104.8118706  88.6781448  46.6398679 104.6650069  87.9771467
  47.0073583 105.9895174  83.9662440  47.7545402 106.5016572  83.6569562
  47.2765172 105.6679227  84.8266834  45.2800233 108.4853715  80.9489394
  44.3711452 108.2012748  81.0461864  45.3095317 108.9052794  80.0892701
  50.5119500 112.0960305  84.7180562  50.0581827 111.2551214  84.7745752
  49.8813467 112.7321703  85.0555342  49.4552420 103.0252291  85.9481229
  48.7175177 102.5129677  86.2791472  49.7079193 102.5852672  85.1364506
  48.9552439 113.9336801  85.6530380  49.2475414 114.4941858  84.9342746
  49.4651060 114.2265362  86.4083539  49.5564047  95.8028543  86.5422999
  49.8622924  94.9425906  86.2548914  50.2816652  96.3946163  86.3421992
  35.8488403 106.2059229  84.9304596  35.6512803 105.6128590  84.2055663
  35.2935067 105.9011439  85.6480535  43.8285127 106.0982336  87.0499190
  43.8833737 105.1456172  86.9741666  43.0176329 106.2541775  87.5340488
  44.9776321 110.0262459  78.2877473  44.5395751 109.3098318  77.8283110
  45.7186762 110.2538574  77.7262564  41.7677487 104.7159395  84.8089568
  40.9545352 105.0153566  85.2154761  42.2636481 104.3215084  85.5264051
  43.9186065 114.7117152  86.7423833  43.8762243 114.9377999  85.8132365
  44.8348764 114.4780527  86.8909634  47.3651698 105.1801220  93.6404462
  47.7201086 105.4072693  94.4998928  48.0123830 105.5119597  93.0181718
  53.0949435 108.3019656  84.3453791  52.9567334 108.4921252  83.4174981
  52.7385654 109.0639039  84.8021843  41.2591562 102.2877751  90.4250803
  41.8990941 102.1466510  89.7273767  40.4269092 102.0012264  90.0489405
  53.1218815 110.3696183  89.3565063  53.5555322 110.2771472  90.2048117
  53.8350396 110.3453683  88.7185079  42.0351865 111.5880181  86.5385796
  42.8292464 111.0930501  86.3368371  41.3243558 111.0598044  86.1753501
  46.8546710 113.9698277  90.8898163  46.9083732 114.5389213  91.6575879
  45.9861491 114.1400162  90.5252201  38.3434629 105.7323263  82.6145549
  37.4132217 105.6707719  82.8315511  38.4392101 105.2099216  81.8182190
  38.2620178 102.2578076  85.2023790  38.5226995 103.1723409  85.0932951
  39.0837350 101.7902518  85.3520403  39.7345103 103.6715833  92.3722615
  40.4068157 103.4633195  91.7235264  38.9074890 103.4737919  91.9327847
  53.9834365 110.4119883  91.8897948  54.1770255 111.3165694  92.1357223
  53.8834983 109.9527302  92.7236533  45.6370675 100.2977774  94.3888276
  44.9898590 100.9967724  94.2952752  46.4071691 100.7313918  94.7564524
  49.0449473 110.5626626  97.4638829  48.8934980 110.3337178  96.5468913
  49.0354153 111.5197228  97.4770174  45.8134810 108.1358539  92.4485095
  46.7426870 108.2869699  92.2754063  45.3925840 108.2242560  91.5933742
  44.6123141 112.1609203  90.2183633  44.4734227 111.7927988  91.0909571
  43.8237738 112.6756843  90.0467591  45.2071293 117.2618300  81.5609170
  45.3823049 116.7906343  82.3754792  44.5204081 117.8884066  81.7890430
  46.1628357 111.5390806  87.6072471  45.8278189 111.4991576  88.5030121
  45.6632302 110.8735522  87.1342881  40.1372601 106.9458436  93.1325052
  39.9992398 106.2138675  93.7336591  41.0477524 106.8567336  92.8509240
  49.0987548 108.8846840  77.8809530  48.4816719 108.1593669  77.7842583
  48.6304037 109.6456201  77.5376605  42.7654901 106.6578395  92.6208732
  43.4754520 106.0171588  92.5795350  42.7224209 106.9091290  93.5434912
  50.7541680 113.5945749  95.5415311  50.6954226 112.9104969  94.8745894
  51.1561198 114.3364739  95.0895937  41.4783835 103.6443613  94.4404371
  40.9421192 103.1934352  95.0925967  40.8900544 103.7789522  93.6974835
  40.8886094 103.1032265  77.0030835  40.0115560 102.9821065  76.6393081
  41.3643847 102.3118343  76.7509723  50.7559087 111.5585333  93.7729290
  49.8685866 111.2211254  93.8955689  51.3257638 110.8268364  94.0098056
  32.4088234 107.8909424  87.0972342  33.0959274 107.5771154  86.5093357
  32.2536363 108.7950789  86.8239593  37.2122956 102.7799621  91.5257366
  37.1281145 102.1725291  90.7907775  36.3905663 103.2708639  91.5266862
  44.2860241 116.2186785  90.7390534  44.2130412 117.0241756  91.2509838
  43.8437634 116.4178751  89.9138555  44.0750020 115.4558555  84.2493355
  43.2917542 115.9980235  84.3431580  44.7742765 115.9732535  84.6487596
  47.3846670 101.2653184  86.8927561  47.8815370 100.5123147  86.5728631
  46.6133652 101.3017501  86.3270770  55.2376428 106.9693550  88.5345852
  55.2266304 107.8518265  88.1639785  54.3693807 106.6165101  88.3400389
  46.7458924 116.1173619  92.8948692  47.4586896 116.7521084  92.8224594
  46.2548953 116.2137485  92.0788694  48.4676451 110.0224872  84.4665984
  47.5332730 110.1426334  84.2970688  48.6453119 109.1197338  84.2025994
  43.9681639 103.4070567  86.6199245  43.5979427 102.8541608  87.3080151
  44.4640732 102.8028701  86.0674245  51.8549002 105.8642191  85.0016018
  52.3209455 106.6970183  84.9276321  52.3056503 105.3987173  85.7061277
  41.7970838 113.8668062  93.7154263  42.4980297 114.5004545  93.8683657
  41.3265953 114.2082794  92.9549902  49.9225233 112.2086012  82.0002170
  50.1985077 112.0942607  82.9096044  49.0529732 111.8103497  81.9614343
  49.8265665  98.2322778  89.0406919  48.9128745  98.4627005  89.2089126
  50.2558767  98.3161222  89.8920952  49.5972124 106.4212670  91.5406813
  48.9443574 106.6688577  90.8859266  49.9752503 105.6076808  91.2069291
  46.5579297 116.4572363  85.6434984  46.7401692 115.6394019  86.1062736
  47.3812283 116.6740055  85.2059874  46.8921463 115.3840548  82.9050032
  47.4209229 114.8733003  82.2920194  47.1549683 115.0683078  83.7695565
  45.6459697 107.1632481  98.0272851  44.9700334 107.0626610  98.6975226
  46.4687330 107.0071695  98.4908848  37.3938556 113.4004418  90.6485366
  37.9791993 112.6548105  90.7813270  37.1963394 113.7108374  91.5322030
  40.2477211 116.4355665  85.6647808  39.5787586 116.9201793  85.1811848
  40.1090081 116.6824885  86.5791187  31.9856210 105.9710018  89.3689809
  32.0240310 105.4373608  90.1626927  31.4796503 105.4445223  88.7500786
  44.3882479 118.4699408  92.2630467  44.9400788 118.6331030  93.0279552
  44.7288673 119.0603846  91.5910491  39.3646973 100.8174558  92.8652351
  39.4288299 101.6789389  92.4529749  39.3014093 100.2048560  92.1324710
  38.8399245 102.8897691  96.5125386  39.4671284 102.5074768  97.1262910
  37.9827164 102.6711893  96.8781078  49.2393354 113.2960666  98.1179121
  49.7833258 113.9090624  97.6234076  48.6580199 113.8540244  98.6346134
  35.6164788 104.6974120  82.4443740  35.9118229 103.7884798  82.3910794
  34.7152824 104.6761859  82.1224743  47.5250867 116.4181384  89.2494149
  47.4002006 115.6171124  88.7405094  48.1829958 116.9127577  88.7608119
  39.1459035 102.7730116  88.4271289  38.4245621 103.3866084  88.2878762
  39.9352291 103.3087881  88.3487935  49.5885775 114.2190404  90.8773699
  48.6416111 114.0995755  90.8052026  49.9368548 113.3312902  90.9599960
  41.9485349 100.1084543  94.7011941  42.4719750 100.3546840  95.4638250
  41.7297682 100.9404578  94.2815078  37.3452630 102.3788218  82.5683066
  37.0165336 101.4985596  82.3858171  37.6992000 102.3235886  83.4559455
  46.5932208 114.0143120  87.0778051  46.4457171 113.0859828  87.2585621
  47.4185702 114.0363211  86.5935126  40.4594453 102.6661187  82.9358543
  40.7990525 103.1947109  82.2137152  40.9066573 103.0041593  83.7117110
  50.1966330 114.8371679  88.1642924  51.1212878 114.6314540  88.0267375
  50.0281634 114.5888080  89.0732265  43.1537894 101.0498238  92.3861611
  42.8134714 100.2506051  92.7882291  42.4476900 101.3499949  91.8138444
  43.8054365  98.1347550  90.8388934  44.6280435  97.6608029  90.7167825
  44.0492429  98.9138034  91.3387621  42.4462600 101.1635809  81.1351836
  43.1670962 101.5417062  80.6315553  41.8227904 101.8824686  81.2386814
  46.5893723 101.8680958  82.0710168  46.8057337 102.7505596  81.7698996
  46.1087790 101.4767171  81.3415810  41.3292944 104.8266671  88.6480913
  41.1837525 105.1406974  89.5405194  40.8518148 105.4451571  88.0951812
  43.1889327 101.8169219  88.6961802  43.1750896 100.9210312  88.3594100
  43.9061755 101.8239883  89.3300088  45.0415458 102.2506559  90.7414930
  44.7833236 103.1723630  90.7399260  44.5100498 101.8536994  91.4315394
  49.9861647 115.3557346  83.5205015  50.1598524 114.7903769  82.7678868
  50.4790538 116.1558241  83.3384505  35.8038606 107.3672016  91.5868574
  35.2592074 108.1431823  91.7188848  36.6817956 107.7142820  91.4287695
  42.5926223 100.6983599  83.9649373  42.7142134  99.7700246  84.1640260
  42.3028265 100.7122285  83.0527688  45.4617413  98.3838510  87.1016092
  45.4839110  98.4477843  86.1468072  45.8785472  97.5443018  87.2956599
  55.8401038 108.1193769  85.1395315  56.2832184 107.3701095  84.7414438
  54.9627548 108.1103906  84.7569047  50.9736819 114.6724111  80.6201914
  51.6687724 115.2930804  80.8389228  51.3159969 113.8219462  80.8954291
  36.5904628 106.4941912  94.4798731  35.8486364 106.6424547  95.0663361
  36.2697372 106.7550177  93.6165480  52.8728242 112.1223816  82.1489244
  53.3979566 112.4611089  81.4238564  52.7850595 111.1870832  81.9652379
  44.5348291 116.0357890  94.2779121  44.8435417 115.7907037  95.1501821
  45.3323773 116.2404528  93.7897991  44.5568903 118.1895800  86.5084497
  44.1173893 117.6972178  87.2017354  45.3077020 117.6468767  86.2676573
  37.0361242 114.3807341  86.5109126  37.8619262 114.0811112  86.1307769
  36.6855294 113.6114963  86.9598914  42.0042775 113.7333809  88.5806799
  41.3822784 113.0704514  88.2809027  42.6747642 113.7594941  87.8980447
  35.2369847 112.2993667  87.4698059  34.4001755 111.8715841  87.2882060
  35.2093492 112.4926110  88.4068850  42.0767303 102.2115597  98.1739305
  42.1255458 103.0877720  97.7917075  42.6189817 101.6692990  97.6010948
  52.5622148 112.7556720  97.4540442  51.7717692 112.7380859  96.9144942
  52.3255503 113.2945014  98.2089479  52.6820023 109.6049186  94.7673171
  52.7318028 109.4399194  95.7088694  52.5733947 108.7376445  94.3771052
  41.5656282 112.2837732  82.0565260  41.7144402 112.9673196  81.4031932
  42.3722725 112.2642822  82.5714715  49.9723786 105.5880114  96.0832477
  50.8733648 105.4486579  95.7916475  50.0471760 105.7534569  97.0230655
  44.3066591 102.9646969  94.9285664  43.4369900 103.2580535  94.6568252
  44.5426071 103.5487414  95.6492927  54.1838220 112.0246128  95.0115192
  53.8923028 112.3876108  95.8478653  53.5710351 111.3113136  94.8328524
  55.3833902 109.5899008  87.5317763  56.2180794 110.0288812  87.6955323
  55.5193031 109.1137661  86.7126008  52.4325408 107.1478743  93.4795250
  52.9079530 107.3406389  92.6714102  51.5090974 107.2037928  93.2338634
  39.3208915 108.3102910  83.0626329  39.0754957 107.4065240  83.2606539
  39.4904829 108.3120060  82.1205807  47.0105625  99.1826586  92.4451084
  47.5287569  99.9187613  92.1197573  46.6560758  99.4890579  93.2797843
  38.5904562 104.0431267  80.5612490  37.8973807 104.1175622  79.9052526
  38.3456314 103.2791611  81.0834007  47.2618219  95.6026869  87.9651981
  47.5419973  94.9350058  88.5912407  48.0468826  95.7955964  87.4526645
  45.0651687 114.7785863  79.5277007  44.4925655 115.3976050  79.0747479
  45.6384481 115.3285224  80.0616929  51.1327077 104.0244503  91.7123556
  52.0844500 104.1242600  91.7335780  50.9630528 103.2322771  92.2221640
  49.1541457 101.1100086  91.8982957  48.5591389 101.3905099  91.2029445
  48.8691153 101.5993987  92.6699698  48.2848947 115.0623013  80.6585589
  49.2179620 114.9968574  80.8618465  48.1972160 115.8979280  80.2000122
  50.9136964 114.3788883  77.6189537  50.8350595 114.0448747  78.5125295
  51.7346631 114.8710651  77.6181009  53.6115155 107.2450622  90.8265856
  53.5791475 106.3066623  91.0125539  54.2215779 107.3234659  90.0931680
  45.4498486 106.1146675  76.8693060  46.3957591 105.9852883  76.9381478
  45.0712731 105.3761337  77.3462488  53.7609644 104.0361666  90.8724139
  53.2448692 103.2520122  90.6854068  54.6449592 103.7080382  91.0370658
  51.4220370  97.7802681  86.8319951  51.2245192  97.4717770  87.7163283
  52.0320076  98.5064320  86.9617881  59.4291705 108.3066629  89.9671892
  60.1595093 108.0451917  90.5279596  58.8198650 107.5695351  90.0073960
  57.5107002 106.4474492  90.5646344  56.7840166 106.3130457  89.9562835
  57.0954289 106.7551320  91.3703062  45.3337178 110.1664421  98.3293717
  46.2540188 110.3443020  98.5233763  45.2986762 109.2220467  98.1773416
  43.6341403 104.0396652  76.8047945  42.7272858 103.7429764  76.8810658
  43.9117384 103.7426470  75.9382231  34.5519343 105.3603015  87.2546991
  34.2322128 104.5068323  86.9621365  34.0052772 105.5751593  88.0104959
  38.3299251 108.0765456  90.9716498  38.5485261 109.0082564  90.9904532
  38.7425025 107.7173430  91.7571302  45.2503469  98.5833541  82.9592186
  44.4404197  98.2380626  83.3347432  45.9387886  98.2741085  83.5479798
  47.1794017  97.6611588  84.5816483  47.7325056  98.0807042  85.2406506
  47.4164103  96.7347336  84.6239439  43.2027116 103.6498662 100.3619247
  43.1023843 104.5993019 100.2931338  42.9848658 103.3216901  99.4895317
  42.4040188 100.8983587  76.9459924  43.2659352 101.2238485  77.2055741
  42.5890532 100.1115083  76.4332990  34.4207603 108.9805927  89.2240113
  33.7271075 108.5659879  88.7110067  35.1680594 109.0226463  88.6273532
  50.5572824  99.7712113  84.0895147  49.9771493 100.4296917  83.7073199
  50.2908757  98.9489458  83.6782565  49.0076391  99.1717171  86.2916467
  49.5076169  99.2833706  85.4830786  49.6511998  98.8678224  86.9317276
  43.0658386 107.0795801  99.1784308  42.5825468 107.8796161  99.3848197
  43.1519325 107.0903746  98.2251752  36.3344346 108.9124180  87.1006128
  36.3115034 109.0111868  86.1488011  36.6444983 109.7589331  87.4223294
  38.9931724 110.9700335  91.2152742  39.9474977 110.9384278  91.1482674
  38.7944247 110.5090959  92.0302968  39.5831106 109.5401451  93.7823540
  40.4023995 110.0345530  93.8058377  39.8567914 108.6233420  93.7541107
  49.3397702 101.9312204  83.1451495  48.4523557 102.2161854  82.9271690
  49.7551691 101.7705967  82.2978772  52.6912238 101.9558725  86.8605835
  53.4672628 102.4455177  87.1330451  51.9660373 102.3816779  87.3177704
  55.1284797 102.6686344  87.9179775  55.7229288 102.4282080  87.2073083
  55.2011381 101.9493475  88.5453311  37.3481953 116.5119955  88.2322940
  37.2136421 115.7520356  87.6660938  36.9314015 117.2360855  87.7651729
  48.4840916 111.6956878  77.2399515  49.1876766 111.9006881  77.8557171
  47.7603564 112.2633640  77.5048599  49.3138726 107.4466740  83.3601785
  49.2573927 107.9035291  82.5209418  49.8667068 106.6857424  83.1824628
  53.1243532 103.2356472  84.1851905  52.8680466 102.8353107  85.0160113
  52.4996400 103.9500265  84.0602044  57.4355870 105.9752545  86.6923196
  56.8755428 106.0445734  87.4654758  56.8299373 105.7993529  85.9722693
  40.5051079 117.4089272  88.4441383  40.3883463 118.3534704  88.3420073
  39.6843525 117.1062833  88.8327182  50.3927613 112.1339408  79.2897975
  51.2273217 111.7020606  79.1075450  50.2311956 111.9621421  80.2174870
  50.0473505 108.6371521  80.6554315  49.9922309 108.4715792  79.7142759
  49.4219561 109.3447554  80.8116504  34.8366020 103.8739585  94.4815737
  35.4824884 103.3638539  94.9702962  34.6283171 104.6108267  95.0559162
  47.3619412 110.9420433  99.9807877  48.2310572 111.1161085  99.6194512
  46.8826164 111.7614850  99.8583607  43.3569631  98.1379630  80.2339633
  43.3448301  99.0821470  80.3907904  44.2493053  97.9549775  79.9399094
  41.5305593 118.0617534  91.6597311  42.4332839 118.0941144  91.9763806
  41.3042963 117.1317985  91.6743647  43.2859195 116.8148520  88.3207390
  42.3354826 116.8150382  88.2071762  43.5891681 116.0681255  87.8043424
  39.1763511 101.0207202  98.5790751  40.0394973 100.6644007  98.7894076
  38.6028922 100.6821097  99.2666155  59.0211888 122.6509059  89.3853152
  59.6590298 122.5315806  88.6816492  58.9032731 123.5989903  89.4441104
  55.8301594 122.6036487  89.3214677  55.4920106 122.4877552  88.4335212
  56.6991363 122.2027652  89.3015683  56.3121377 123.7571339  95.2800882
  56.3010018 123.3624137  94.4081386  56.4742017 123.0237411  95.8734654
  53.5309874 121.3724734  78.6531617  53.7835395 120.8506255  77.8915080
  52.5934433 121.2090880  78.7558300  58.5753157 120.3760513  86.4606360
  59.3616246 119.9579936  86.1096777  58.8391861 121.2806605  86.6288009
  63.9761584 120.3135746  87.3639339  64.7086756 119.7434963  87.5977168
  63.2200940 119.9257346  87.8045844  55.5937704 122.7362987  84.5602681
  55.2295911 122.2093608  85.2715603  56.4504819 122.3461456  84.3869166
  61.4987004 114.0257320  91.8233947  61.1670329 114.8952731  91.5995162
  60.9032618 113.7093604  92.5027978  55.2343191 117.7652887  79.5564030
  55.4017593 118.6333123  79.9234501  55.0440360 117.9280169  78.6325319
  61.3915667 118.7452406  88.9027297  60.4832545 118.6767814  88.6086058
  61.3403263 119.2224351  89.7309123  55.2132411 120.2210544  80.5410696
  55.0932037 120.6667595  81.3796177  54.5185000 120.5695862  79.9824235
  55.4656533 120.1642052  96.8462195  54.6889867 120.7235972  96.8365059
  56.1047096 120.6498835  97.3677065  63.2577314 116.9468844  90.6805171
  62.6151694 117.2401378  90.0344966  62.7532242 116.8321765  91.4858368
  60.9117478 120.6932018  81.3691030  61.8235334 120.9259404  81.1938728
  60.4027125 121.2769062  80.8066109  59.1958245 125.1156645  95.0052323
  59.6041601 124.6739056  94.2606955  58.4735507 124.5409273  95.2586516
  55.5489315 120.0529252  92.3785880  56.3950510 120.4768666  92.5220529
  55.4887953 119.3962877  93.0724443  58.6988761 117.7133621  94.0367054
  58.4549692 118.4675681  93.5001329  58.9748691 118.0918968  94.8714301
  60.6527223 124.2572233  92.7144319  60.8644119 124.9003993  92.0378700
  60.6056972 123.4234550  92.2466249  58.2553452 116.8690054  89.6180891
  57.3937931 117.1671307  89.9097629  58.2815887 117.0860453  88.6861924
  54.0083908 121.5355397  82.8344262  54.7107951 121.9876440  83.3018189
  53.6764536 120.8939215  83.4624155  52.4564269 120.1267153  97.2095472
  51.8262930 120.8083434  97.4430868  52.3500357 120.0150235  96.2648610
  47.7509242 119.7938949  88.1361396  46.9608296 120.0496478  87.6601506
  48.2420489 120.6087287  88.2413436  49.7023987 120.1583528  85.0944872
  48.9055150 120.2702223  85.6128368  49.4749579 120.4970181  84.2285763
  69.8579044 123.4782937  87.2351648  69.1042753 122.9090335  87.0795652
  69.9926586 123.4445601  88.1822283  51.7345012 114.4287919  99.5720723
  51.3411958 113.8754118 100.2468367  52.5511152 114.7398498  99.9627240
  54.6512973 115.8445798  97.1640979  55.3922686 116.4452951  97.0845442
  54.8830896 115.1023436  96.6059022  49.7954311 121.0302165  95.4419209
  49.6807826 120.1287423  95.7426308  48.9398829 121.2765862  95.0904025
  58.5970136 111.8726901  91.4405261  58.2534405 112.7628543  91.3644371
  58.9649099 111.6828559  90.5774846  58.5620419 121.8635512  79.9477696
  58.0467042 122.6340117  80.1866083  58.2897727 121.1900648  80.5710757
  56.1467530 116.7085213  85.0062934  55.2909126 116.3192063  84.8268573
  56.5594481 116.7877174  84.1462720  57.6766676 114.2431556  89.4054494
  57.1731472 114.2061691  88.5922299  57.9697283 115.1524299  89.4651151
  53.9209562 114.3270286  88.4120676  54.7862559 114.1313095  88.0526565
  53.9887071 114.0980638  89.3390033  63.5354693 124.6167867  81.8830869
  62.7584136 124.2779026  81.4386032  64.2146174 124.6220490  81.2085834
  58.3506722 119.7362604  81.7737477  58.0456857 120.0508753  82.6247620
  59.3037164 119.8144024  81.8164810  61.7746000 124.0901848  88.5397477
  61.1169674 124.7801109  88.6277606  62.5786399 124.4798280  88.8831464
  51.5271881 116.5572494  85.7837043  52.1015633 116.3347675  85.0510236
  52.1142864 116.6261188  86.5365644  60.5851459 122.4446221  86.5901419
  61.0983340 123.0776213  87.0923129  61.2352682 121.8447416  86.2244779
  51.8541468 118.5876955  79.8032928  51.0178781 118.9251641  80.1242203
  51.7146238 118.4525935  78.8660065  53.8294549 113.4313743  84.5112112
  53.1758961 113.1162760  83.8868727  53.7875023 112.8089483  85.2371935
  54.9405754 123.7133038  76.4265404  54.0332816 123.4822291  76.6256553
  55.4376786 122.9170657  76.6139386  57.0632289 119.9195676  88.8359760
  56.1454851 120.1410623  88.6781448  57.4792433 119.9941987  87.9771467
  57.8467337 121.3187092  83.9662440  58.5939156 121.8308489  83.6569562
  58.1158927 120.9971145  84.8266834  56.1193987 123.8145633  80.9489394
  55.2105207 123.5304666  81.0461864  56.1489071 124.2344711  80.0892701
  60.2946174 118.3544208  85.9481229  59.5568931 117.8421594  86.2791472
  60.5472948 117.9144590  85.1364506  60.3957802 111.1320460  86.5422999
  60.7016678 110.2717824  86.2548914  61.1210406 111.7238080  86.3421992
  54.6678881 121.4274253  87.0499190  54.7227491 120.4748090  86.9741666
  53.8570083 121.5833692  87.5340488  52.6071241 120.0451313  84.8089568
  51.7939107 120.3445484  85.2154761  53.1030235 119.6507002  85.5264051
  58.2045453 120.5093138  93.6404462  58.5594841 120.7364611  94.4998928
  58.8517584 120.8411514  93.0181718  63.9343190 123.6311573  84.3453791
  63.7961088 123.8213169  83.4174981  63.5779409 124.3930956  84.8021843
  52.0985316 117.6169669  90.4250803  52.7384695 117.4758428  89.7273767
  51.2662847 117.3304182  90.0489405  63.9612570 125.6988100  89.3565063
  64.3949076 125.6063390  90.2048117  64.6744150 125.6745601  88.7185079
  49.1828383 121.0615181  82.6145549  48.2525972 120.9999636  82.8315511
  49.2785855 120.5391134  81.8182190  49.1013932 117.5869994  85.2023790
  49.3620750 118.5015327  85.0932951  49.9231105 117.1194436  85.3520403
  50.5738858 119.0007751  92.3722615  51.2461911 118.7925113  91.7235264
  49.7468644 118.8029837  91.9327847  64.8228119 125.7411801  91.8897948
  65.0164009 126.6457612  92.1357223  64.7228737 125.2819220  92.7236533
  56.4764430 115.6269692  94.3888276  55.8292345 116.3259641  94.2952752
  57.2465445 116.0605836  94.7564524  56.6528564 123.4650457  92.4485095
  57.5820624 123.6161616  92.2754063  56.2319594 123.5534477  91.5933742
  50.9766355 122.2750354  93.1325052  50.8386153 121.5430593  93.7336591
  51.8871279 122.1859254  92.8509240  59.9381303 124.2138758  77.8809530
  59.3210473 123.4885586  77.7842583  59.4697791 124.9748118  77.5376605
  53.6048656 121.9870313  92.6208732  54.3148274 121.3463505  92.5795350
  53.5617964 122.2383208  93.5434912  52.3177590 118.9735531  94.4404371
  51.7814947 118.5226269  95.0925967  51.7294298 119.1081440  93.6974835
  51.7279849 118.4324182  77.0030835  50.8509315 118.3112983  76.6393081
  52.2037602 117.6410261  76.7509723  48.0516711 118.1091539  91.5257366
  47.9674900 117.5017208  90.7907775  47.2299417 118.6000557  91.5266862
  58.2240425 116.5945102  86.8927561  58.7209124 115.8415064  86.5728631
  57.4527406 116.6309419  86.3270770  66.0770182 122.2985468  88.5345852
  66.0660058 123.1810183  88.1639785  65.2087562 121.9457019  88.3400389
  54.8075394 118.7362485  86.6199245  54.4373181 118.1833526  87.3080151
  55.3034486 118.1320619  86.0674245  62.6942757 121.1934109  85.0016018
  63.1603209 122.0262100  84.9276321  63.1450257 120.7279090  85.7061277
  60.6659420 113.5614696  89.0406919  59.7522499 113.7918922  89.2089126
  61.0952521 113.6453140  89.8920952  60.4365878 121.7504588  91.5406813
  59.7837328 121.9980495  90.8859266  60.8146258 120.9368726  91.2069291
  56.4853451 122.4924399  98.0272851  55.8094088 122.3918528  98.6975226
  57.3081085 122.3363612  98.4908848  50.2040727 116.1466476  92.8652351
  50.2682054 117.0081307  92.4529749  50.1407847 115.5340478  92.1324710
  49.6793000 118.2189608  96.5125386  50.3065039 117.8366686  97.1262910
  48.8220919 118.0003810  96.8781078  46.4558542 120.0266038  82.4443740
  46.7511984 119.1176716  82.3910794  45.5546578 120.0053777  82.1224743
  49.9852789 118.1022034  88.4271289  49.2639375 118.7158002  88.2878762
  50.7746045 118.6379799  88.3487935  52.7879103 115.4376461  94.7011941
  53.3113505 115.6838757  95.4638250  52.5691436 116.2696495  94.2815078
  48.1846384 117.7080135  82.5683066  47.8559090 116.8277514  82.3858171
  48.5385755 117.6527804  83.4559455  51.2988207 117.9953105  82.9358543
  51.6384280 118.5239026  82.2137152  51.7460328 118.3333511  83.7117110
  53.9931648 116.3790156  92.3861611  53.6528468 115.5797969  92.7882291
  53.2870654 116.6791867  91.8138444  54.6448120 113.4639468  90.8388934
  55.4674189 112.9899946  90.7167825  54.8886183 114.2429952  91.3387621
  53.2856354 116.4927727  81.1351836  54.0064717 116.8708979  80.6315553
  52.6621659 117.2116603  81.2386814  57.4287477 117.1972876  82.0710168
  57.6451092 118.0797513  81.7698996  56.9481544 116.8059089  81.3415810
  52.1686699 120.1558589  88.6480913  52.0231279 120.4698892  89.5405194
  51.6911902 120.7743489  88.0951812  54.0283082 117.1461137  88.6961802
  54.0144650 116.2502230  88.3594100  54.7455510 117.1531801  89.3300088
  55.8809212 117.5798477  90.7414930  55.6226990 118.5015548  90.7399260
  55.3494253 117.1828912  91.4315394  53.4319977 116.0275517  83.9649373
  53.5535889 115.0992163  84.1640260  53.1422020 116.0414203  83.0527688
  56.3011168 113.7130428  87.1016092  56.3232865 113.7769761  86.1468072
  56.7179227 112.8734936  87.2956599  66.6794792 123.4485687  85.1395315
  67.1225938 122.6993012  84.7414438  65.8021302 123.4395823  84.7569047
  52.9161057 117.5407514  98.1739305  52.9649212 118.4169637  97.7917075
  53.4583571 116.9984908  97.6010948  63.5213778 124.9341104  94.7673171
  63.5711783 124.7691112  95.7088694  63.4127701 124.0668363  94.3771052
  60.8117540 120.9172032  96.0832477  61.7127403 120.7778497  95.7916475
  60.8865515 121.0826487  97.0230655  55.1460345 118.2938887  94.9285664
  54.2763655 118.5872453  94.6568252  55.3819826 118.8779332  95.6492927
  66.2227657 124.9190925  87.5317763  67.0574548 125.3580729  87.6955323
  66.3586786 124.4429579  86.7126008  63.2719163 122.4770660  93.4795250
  63.7473284 122.6698307  92.6714102  62.3484728 122.5329846  93.2338634
  57.8499379 114.5118504  92.4451084  58.3681323 115.2479531  92.1197573
  57.4954512 114.8182497  93.2797843  49.4298317 119.3723185  80.5612490
  48.7367562 119.4467540  79.9052526  49.1850069 118.6083529  81.0834007
  58.1011973 110.9318786  87.9651981  58.3813727 110.2641975  88.5912407
  58.8862580 111.1247882  87.4526645  61.9720832 119.3536420  91.7123556
  62.9238255 119.4534518  91.7335780  61.8024282 118.5614689  92.2221640
  59.9935211 116.4392004  91.8982957  59.3985143 116.7197016  91.2029445
  59.7084908 116.9285904  92.6699698  64.4508910 122.5742540  90.8265856
  64.4185230 121.6358541  91.0125539  65.0609533 122.6526577  90.0931680
  56.2892240 121.4438593  76.8693060  57.2351345 121.3144801  76.9381478
  55.9106485 120.7053255  77.3462488  64.6003398 119.3653583  90.8724139
  64.0842447 118.5812040  90.6854068  65.4843347 119.0372300  91.0370658
  62.2614125 113.1094599  86.8319951  62.0638946 112.8009687  87.7163283
  62.8713831 113.8356238  86.9617881  70.2685459 123.6358547  89.9671892
  70.9988848 123.3743835  90.5279596  69.6592405 122.8987269  90.0073960
  68.3500757 121.7766409  90.5646344  67.6233920 121.6422374  89.9562835
  67.9348043 122.0843238  91.3703062  54.4735158 119.3688569  76.8047945
  53.5666613 119.0721682  76.8810658  54.7511139 119.0718387  75.9382231
  56.0897223 113.9125459  82.9592186  55.2797952 113.5672544  83.3347432
  56.7781640 113.6033003  83.5479798  58.0187772 112.9903506  84.5816483
  58.5718810 113.4098959  85.2406506  58.2557858 112.0639254  84.6239439
  54.0420871 118.9790580 100.3619247  53.9417598 119.9284936 100.2931338
  53.8242413 118.6508818  99.4895317  53.2433942 116.2275505  76.9459924
  54.1053106 116.5530403  77.2055741  53.4284286 115.4407000  76.4332990
  61.3966579 115.1004031  84.0895147  60.8165248 115.7588835  83.7073199
  61.1302511 114.2781376  83.6782565  59.8470145 114.5009089  86.2916467
  60.3469923 114.6125623  85.4830786  60.4905753 114.1970142  86.9317276
  53.9052141 122.4087718  99.1784308  53.4219223 123.2088078  99.3848197
  53.9913080 122.4195663  98.2251752  60.1791457 117.2604121  83.1451495
  59.2917312 117.5453772  82.9271690  60.5945446 117.0997885  82.2978772
  63.5305993 117.2850642  86.8605835  64.3066383 117.7747095  87.1330451
  62.8054127 117.7108697  87.3177704  65.9678551 117.9978262  87.9179775
  66.5623042 117.7573998  87.2073083  66.0405135 117.2785392  88.5453311
  60.1532480 122.7758657  83.3601785  60.0967682 123.2327209  82.5209418
  60.7060823 122.0149342  83.1824628  63.9637286 118.5648389  84.1851905
  63.7074221 118.1645025  85.0160113  63.3390154 119.2792183  84.0602044
  68.2749624 121.3044462  86.6923196  67.7149182 121.3737652  87.4654758
  67.6693128 121.1285447  85.9722693  60.8867260 123.9663439  80.6554315
  60.8316064 123.8007710  79.7142759  60.2613315 124.6739472  80.8116504
  45.6759775 119.2031503  94.4815737  46.3218638 118.6930457  94.9702962
  45.4676926 119.9400185  95.0559162  54.1963385 113.4671548  80.2339633
  54.1842055 114.4113388  80.3907904  55.0886807 113.2841693  79.9399094
  58.0115505 110.0614324  84.4885570  57.2447900 109.5072811  84.6342252
  58.4226210 110.1336193  85.3499721  50.0157266 116.3499120  98.5790751
  50.8788727 115.9935925  98.7894076  49.4422676 116.0113015  99.2666155
  69.4363890 127.2018819  91.4405261  69.0928160 128.0920460  91.3644371
  69.8042853 127.0120476  90.5774846  71.2351556 126.4612378  86.5422999
  71.5410433 125.6009741  86.2548914  71.9604161 127.0529998  86.3421992
  71.5053174 128.8906613  89.0406919  70.5916254 129.1210840  89.2089126
  71.9346276 128.9745057  89.8920952  68.9405728 126.2610704  87.9651981
  69.2207482 125.5933893  88.5912407  69.7256335 126.4539800  87.4526645
  73.1007879 128.4386517  86.8319951  72.9032701 128.1301605  87.7163283
  73.7107585 129.1648156  86.9617881  68.8581526 128.3195424  84.5816483
  69.4112565 128.7390877  85.2406506  69.0951612 127.3931172  84.6239439
  68.8509259 125.3906242  84.4885570  68.0841655 124.8364729  84.6342252
  69.2619964 125.4628111  85.3499721   4.8243117  23.0111593  76.1098459
   5.4621527  22.8918340  75.4061799   4.7063960  23.9592437  76.1686411
   1.6332823  22.9639021  76.0459983   1.2951335  22.8480086  75.1580518
   2.5022591  22.5630186  76.0260990   2.1152606  24.1173873  82.0046189
   2.1041247  23.7226671  81.1326693   2.2773246  23.3839945  82.5979960
   3.0719198  28.4845465  67.3471339   2.4207177  29.0699546  66.9605353
   3.8663560  29.0151660  67.4066377   4.3784385  20.7363047  73.1851667
   5.1647475  20.3182470  72.8342084   4.6423090  21.6409139  73.3533315
   4.5494463  26.1735897  67.8840324   3.9140296  26.2470524  68.5961228
   4.2191869  26.7629496  67.2059403   9.7792813  20.6738280  74.0884645
  10.5117985  20.1037497  74.3222475   9.0232168  20.2859880  74.5291151
   1.3968932  23.0965521  71.2847988   1.0327140  22.5696142  71.9960909
   2.2536048  22.7063991  71.1114473   7.3018233  14.3859854  78.5479254
   6.9701558  15.2555265  78.3240469   6.7063846  14.0696138  79.2273284
   1.0374419  18.1255421  66.2809336   1.2048822  18.9935658  66.6479807
   0.8471588  18.2882703  65.3570625   3.7949752  26.5872400  77.9475167
   3.4950476  27.4897439  77.8390974   3.4500812  26.3204583  78.7996319
   7.1946896  19.1054940  75.6272604   6.2863774  19.0370349  75.3331365
   7.1434492  19.5826885  76.4554429   1.2687762  20.5244586  83.5707501
   0.4921096  21.0838506  83.5610366   1.9078325  21.0101369  84.0922371
   9.0608543  17.3071379  77.4050478   8.4182923  17.6003912  76.7590272
   8.5563471  17.1924299  78.2103675   6.7148706  21.0534552  68.0936337
   7.6266562  21.2861939  67.9184035   6.2058353  21.6371596  67.5311416
   4.9989474  25.4759180  81.7297630   5.4072830  25.0341590  80.9852262
   4.2766736  24.9011807  81.9831823   1.3520544  20.4131786  79.1031187
   2.1981739  20.8371200  79.2465836   1.2919182  19.7565411  79.7969750
   5.3218289  26.0360370  75.4849919   4.6927151  26.2006084  74.7825986
   4.9343951  26.4501980  76.2560883   9.2007521  26.9714808  72.8394282
   8.5158559  27.3513710  72.2891316   9.2851370  27.5810135  73.5726230
   4.5019989  18.0736155  80.7612360   4.2580921  18.8278215  80.2246636
   4.7779920  18.4521502  81.5959607   6.4558452  24.6174767  79.4389626
   6.6675347  25.2606527  78.7624007   6.4088200  23.7837084  78.9711556
   4.0584681  17.2292588  76.3426198   3.1969160  17.5273841  76.6342936
   4.0847116  17.4462987  75.4107231   0.8746251  25.7734778  72.7500004
   1.3384596  26.0522481  71.9604626   0.6103049  24.8718223  72.5673094
   7.5704280  27.4946723  77.6111983   8.3921724  27.0926910  77.3294665
   7.5666683  27.3914957  78.5628099   1.3360884  27.0430766  79.7672694
   1.4005316  27.5051173  80.6030866   0.6271807  26.4128131  79.8955004
  15.6610273  23.8385471  73.9596955  14.9073982  23.2692869  73.8040959
  15.7957814  23.8048136  74.9067589   1.0508901  28.7098873  69.6351674
   0.9154576  29.5550409  70.0636522   1.5918714  28.9118151  68.8717608
   2.6777378  29.3322440  83.7652016   2.2341232  28.5458818  83.4472921
   3.3394591  29.5201590  83.0995907   4.7758616  29.6125240  81.7933417
   4.7577091  30.4334121  81.3013687   5.6978536  29.4879315  82.0183559
   1.2331670  27.1269369  82.6356926   1.7660007  26.3657657  82.4056234
   0.7045751  26.8343021  83.3781080   4.3651647  22.2238046  66.6723003
   3.8498271  22.9942651  66.9111390   4.0928956  21.5503183  67.2956064
   9.3385922  24.9770401  68.6076176   8.5615364  24.6381561  68.1631338
  10.0177403  24.9823024  67.9331141   4.1537951  20.0965138  68.4982784
   3.8488086  20.4111288  69.3492927   5.1068393  20.1746558  68.5410117
   2.5984383  26.2555362  70.1475738   2.0705744  25.5208121  69.8348975
   2.0971885  27.0330038  69.9015706   7.5777229  24.4504382  75.2642784
   6.9200903  25.1403644  75.3522913   8.3817628  24.8400814  75.6076770
   6.3882687  22.8048755  73.3146726   6.9014569  23.4378747  73.8168436
   7.0383911  22.2049950  72.9490086   3.6505062  32.7833079  66.0707397
   2.9766760  33.0864776  66.6792355   4.0370884  33.5862160  65.7212854
   2.8663518  20.2798211  75.5605066   1.9486080  20.5013158  75.4026754
   3.2823662  20.3544521  74.7016774   3.6498566  21.6789626  70.6907747
   4.3970385  22.1911023  70.3814869   3.9190155  21.3573679  71.5512140
   1.9225216  24.1748167  67.6734701   1.0136435  23.8907200  67.7707171
   1.9520300  24.5947245  66.8138008   7.1544484  27.7854756  71.4425868
   6.7006811  26.9445666  71.4991059   6.5238450  28.4216155  71.7800649
   6.0977403  18.7146742  72.6726536   5.3600160  18.2024129  73.0036778
   6.3504177  18.2747124  71.8609813   5.5977423  29.6231253  72.3775687
   5.8900397  30.1836310  71.6588052   6.1076043  29.9159814  73.1328846
   1.6201304  25.7156911  65.0122779   1.1820734  24.9992770  64.5528417
   2.3611745  25.9433025  64.4507871   0.5611048  30.4011604  73.4669140
   0.5187227  30.6272451  72.5377672   1.4773747  30.1674979  73.6154941
   4.0076682  20.8695672  80.3649769   4.3626069  21.0967145  81.2244235
   4.6548813  21.2014049  79.7427024   9.7374419  23.9914108  71.0699098
   9.5992317  24.1815704  70.1420287   9.3810638  24.7533490  71.5267149
   9.7643798  26.0590635  76.0810370  10.1980305  25.9665924  76.9293424
  10.4775379  26.0348135  75.4430386   3.4971693  29.6592729  77.6143470
   3.5508716  30.2283665  78.3821186   2.6286475  29.8294614  77.2497507
  10.6259348  26.1014335  78.6143255  10.8195238  27.0060146  78.8602530
  10.5259966  25.6421754  79.4481840   5.6874457  26.2521078  84.1884136
   5.5359963  26.0231630  83.2714219   5.6779136  27.2091679  84.2015481
   2.4559793  23.8252991  79.1730402   3.3851853  23.9764150  78.9999369
   2.0350823  23.9137012  78.3179049   1.8496277  32.9512752  68.2854476
   2.0248032  32.4800795  69.1000099   1.1629065  33.5778518  68.5135737
   2.8053340  27.2285258  74.3317777   2.4703172  27.1886028  75.2275427
   2.3057286  26.5629974  73.8588188   5.7412532  24.5741292  64.6054837
   5.1241702  23.8488120  64.5087890   5.2729020  25.3350653  64.2621911
   7.3966663  29.2840201  82.2660617   7.3379209  28.5999421  81.5991200
   7.7986182  30.0259191  81.8141243   7.3984070  27.2479785  80.4974597
   6.5110849  26.9105706  80.6200996   7.9682622  26.5162816  80.7343362
   0.9285224  31.9081237  77.4635840   0.8555395  32.7136208  77.9755145
   0.4862617  32.1073203  76.6383862   4.0271654  16.9547636  73.6172867
   4.5240353  16.2017599  73.2973937   3.2558635  16.9911953  73.0516077
  11.8801411  22.6588002  75.2591159  11.8691287  23.5412717  74.8885092
  11.0118790  22.3059553  75.0645696   3.3883907  31.8068071  79.6193999
   4.1011880  32.4415536  79.5469900   2.8973936  31.9031937  78.8034001
   5.1101434  25.7119324  71.1911291   4.1757713  25.8320786  71.0215995
   5.2878103  24.8091790  70.9271300   8.4973986  21.5536643  71.7261325
   8.9634438  22.3864634  71.6521627   8.9481486  21.0881624  72.4306583
   6.5650217  27.8980464  68.7247477   6.8410061  27.7837059  69.6341351
   5.6954715  27.4997949  68.6859650   6.2397107  22.1107122  78.2652120
   5.5868557  22.3583029  77.6104573   6.6177487  21.2971260  77.9314597
   3.2004281  32.1466815  72.3680290   3.3826675  31.3288471  72.8308043
   4.0237267  32.3634507  71.9305180   3.5346446  31.0735000  69.6295339
   4.0634213  30.5627455  69.0165501   3.7974666  30.7577530  70.4940872
   2.2884680  22.8526933  84.7518157   1.6125317  22.7521062  85.4220532
   3.1112314  22.6966147  85.2154154   1.0307463  34.1593860  78.9875773
   1.5825771  34.3225482  79.7524858   1.3713656  34.7498298  78.3155798
   5.8818337  28.9855118  84.8424428   6.4258241  29.5985076  84.3479382
   5.3005182  29.5434696  85.3591441   4.1675850  32.1075836  75.9739455
   4.0426990  31.3065576  75.4650401   4.8254941  32.6022029  75.4853425
   6.2310758  29.9084856  77.6019005   5.2841094  29.7890207  77.5297332
   6.5793532  29.0207354  77.6845267   3.2357192  29.7037572  73.8023358
   3.0882154  28.7754280  73.9830928   4.0610685  29.7257663  73.3180433
   6.8391314  30.5266131  74.8888230   7.7637861  30.3208992  74.7512682
   6.6706617  30.2782532  75.7977572   3.2318706  17.5575410  68.7955475
   3.4482320  18.4400048  68.4944303   2.7512773  17.1661623  68.0661117
   6.6286630  31.0451798  70.2450322   6.8023507  30.4798221  69.4924174
   7.1215521  31.8452693  70.0629812  12.4826021  23.8088221  71.8640622
  12.9257167  23.0595546  71.4659745  11.6052531  23.7998358  71.4814354
   7.6161802  30.3618563  67.3447220   8.3112707  30.9825255  67.5634535
   7.9584952  29.5113914  67.6199598   9.5153225  27.8118268  68.8734551
  10.0404549  28.1505541  68.1483871   9.4275578  26.8765284  68.6897686
   1.1773274  31.7252342  81.0024428   1.4860401  31.4801489  81.8747127
   1.9748756  31.9298980  80.5143298   1.1993886  33.8790252  73.2329804
   0.7598876  33.3866630  73.9262661   1.9502003  33.3363219  72.9921879
   9.2047131  28.4451172  84.1785749   8.4142675  28.4275311  83.6390248
   8.9680486  28.9839466  84.9334785   9.3245007  25.2943638  81.4918477
   9.3743011  25.1293646  82.4334000   9.2158930  24.4270897  81.1016358
   6.6148769  21.2774566  82.8077784   7.5158632  21.1381031  82.5161782
   6.6896743  21.4429021  83.7475962  10.8263203  27.7140580  81.7360499
  10.5348012  28.0770560  82.5723960  10.2135335  27.0007588  81.5573831
  12.0258886  25.2793460  74.2563069  12.8605777  25.7183264  74.4200630
  12.1618014  24.8032113  73.4371315   9.0750392  22.8373194  80.2040557
   9.5504513  23.0300841  79.3959408   8.1515957  22.8932380  79.9583941
   1.7076671  30.4680314  66.2522314   1.1350638  31.0870502  65.7992786
   2.2809464  31.0179676  66.7862236   7.7752061  19.7138955  78.4368863
   8.7269483  19.8137052  78.4581087   7.6055511  18.9217223  78.9466947
   5.7966440  16.7994538  78.6228263   5.2016372  17.0799550  77.9274752
   5.5116137  17.2888439  79.3945005   4.9273931  30.7517465  67.3830896
   5.8604604  30.6863026  67.5863772   4.8397143  31.5873731  66.9245429
   7.5561947  30.0683335  64.3434844   7.4775579  29.7343199  65.2370602
   8.3771614  30.5605103  64.3426316  10.2540138  22.9345074  77.5511162
  10.2216458  21.9961075  77.7370846  10.8640762  23.0129111  76.8176987
   2.0923469  21.8041127  63.5938366   3.0382574  21.6747335  63.6626784
   1.7137714  21.0655789  64.0707794  10.4034627  19.7256118  77.5969445
   9.8873676  18.9414574  77.4099374  11.2874575  19.3974834  77.7615965
   8.0645354  13.4697133  73.5565258   7.8670175  13.1612221  74.4408590
   8.6745059  14.1958772  73.6863188  16.0716688  23.9961081  76.6917199
  16.8020077  23.7346369  77.2524902  15.4623634  23.2589803  76.7319267
  14.1531985  22.1368944  77.2891650  13.4265149  22.0024909  76.6808142
  13.7379272  22.4445772  78.0948368   1.9762162  25.8558873  85.0539023
   2.8965171  26.0337472  85.2479070   1.9411745  24.9114919  84.9018722
   7.1997807  15.4606565  70.8140454   6.6196477  16.1191369  70.4318506
   6.9333740  14.6383910  70.4027871   5.6501374  14.8611623  73.0161774
   6.1501152  14.9728157  72.2076093   6.2936982  14.5572676  73.6562582
   5.9822686  17.6206656  69.8696802   5.0948541  17.9056306  69.6516997
   6.3976675  17.4600419  69.0224079   9.3337222  17.6453177  73.5851141
  10.1097612  18.1349629  73.8575758   8.6085356  18.0711231  74.0423011
  11.7709780  18.3580796  74.6425082  12.3654271  18.1176532  73.9318390
  11.8436364  17.6387926  75.2698618   5.1265899  27.3851330  63.9644822
   5.8301749  27.5901333  64.5802478   4.4028548  27.9528092  64.2293905
   5.9563709  23.1361192  70.0847092   5.8998911  23.5929743  69.2454724
   6.5092052  22.3751876  69.9069935   9.7668515  18.9250923  70.9097212
   9.5105449  18.5247559  71.7405419   9.1421383  19.6394717  70.7847351
  14.0780853  21.6646997  73.4168503  13.5180411  21.7340186  74.1900065
  13.4724356  21.4887981  72.6967999   7.0352596  27.8233860  66.0143282
   7.8698200  27.3915058  65.8320757   6.8736939  27.6515873  66.9420176
   6.6898489  24.3265973  67.3799621   6.6347292  24.1610244  66.4388065
   6.0644544  25.0342006  67.5361811   4.0044396  26.6314885  86.7053184
   4.8735555  26.8055537  86.3439819   3.5251147  27.4509302  86.5828913
  15.6636871  38.3403511  76.1098459  16.3015281  38.2210258  75.4061799
  15.5457714  39.2884355  76.1686411  12.4726578  38.2930939  76.0459983
  12.1345089  38.1772003  75.1580518  13.3416346  37.8922104  76.0260990
   8.3313393  40.1466415  72.0356874   7.7678259  40.0556352  71.2673162
   8.2165788  39.3266320  72.5159367  12.9546361  39.4465790  82.0046189
  12.9435002  39.0518589  81.1326693  13.1167000  38.7131863  82.5979960
   5.8777825  41.6417607  74.8741095   6.6699117  41.3008431  74.4587394
   6.1174476  41.7512582  75.7943248  13.9112952  43.8137383  67.3471339
  13.2600932  44.3991463  66.9605353  14.7057315  44.3443578  67.4066377
   7.8368579  40.9026520  67.7458474   8.6099455  40.3555507  67.6071349
   8.1893978  41.7670769  67.9572935   9.6753622  42.2302902  80.9525373
   9.3843488  43.1348533  80.8372039  10.3110606  42.2719430  81.6669442
  10.6009829  39.6079751  77.5426733  11.1973401  39.3835773  76.8283695
  10.6584800  38.8664496  78.1452180  10.1734857  37.0619186  65.3776924
  10.4260378  36.5400707  64.6160387   9.2359416  36.8985332  65.4803607
  15.2178140  36.0654964  73.1851667  16.0041229  35.6474388  72.8342084
  15.4816844  36.9701057  73.3533315  15.3888217  41.5027815  67.8840324
  14.7534050  41.5762441  68.5961228  15.0585624  42.0921414  67.2059403
  20.6186567  36.0030198  74.0884645  21.3511739  35.4329414  74.3222475
  19.8625923  35.6151798  74.5291151   9.8931146  38.9647292  67.5801298
   9.7767404  38.2892195  68.2482383  10.0033406  38.4779666  66.7633452
  12.2362687  38.4257439  71.2847988  11.8720894  37.8988060  71.9960909
  13.0929803  38.0355908  71.1114473  18.1411987  29.7151772  78.5479254
  17.8095312  30.5847183  78.3240469  17.5457601  29.3988056  79.2273284
  11.8768174  33.4547339  66.2809336  12.0442576  34.3227575  66.6479807
  11.6865343  33.6174621  65.3570625  14.6343507  41.9164318  77.9475167
  14.3344230  42.8189357  77.8390974  14.2894566  41.6496501  78.7996319
   8.0855988  38.3678115  73.9811871   7.1606485  38.2354329  74.1889563
   8.3340402  39.1472334  74.4781813  18.0340651  34.4346858  75.6272604
  17.1257528  34.3662266  75.3331365  17.9828247  34.9118803  76.4554429
  11.8557395  35.9104996  67.2656003  11.7357020  36.3562047  68.1041483
  11.1609983  36.2590314  66.7069541   5.4464799  38.0111388  74.8155660
   5.5757181  38.2645867  75.7295072   4.7662251  38.6039096  74.4960315
   9.6164287  48.6808638  70.9146134   9.5388316  49.6316463  70.9934615
   9.0125930  48.3354511  71.5721061  12.1081517  35.8536504  83.5707501
  11.3314851  36.4130424  83.5610366  12.7472080  36.3393287  84.0922371
  19.9002297  32.6363296  77.4050478  19.2576677  32.9295830  76.7590272
  19.3957226  32.5216217  78.2103675  17.5542461  36.3826470  68.0936337
  18.4660317  36.6153856  67.9184035  17.0452108  36.9663514  67.5311416
  10.3627889  38.6621957  83.1325468  11.1042573  39.2007001  82.8560292
   9.6564874  39.2888246  83.2897020  15.8383228  40.8051097  81.7297630
  16.2466585  40.3633508  80.9852262  15.1160490  40.2303725  81.9831823
  12.1914299  35.7423704  79.1031187  13.0375494  36.1663118  79.2465836
  12.1312936  35.0857328  79.7969750  16.1612043  41.3652288  75.4849919
  15.5320906  41.5298002  74.7825986  15.7737705  41.7793898  76.2560883
  20.0401275  42.3006726  72.8394282  19.3552313  42.6805627  72.2891316
  20.1245124  42.9102052  73.5726230  15.3413744  33.4028072  80.7612360
  15.0974676  34.1570133  80.2246636  15.6173674  33.7813420  81.5959607
  17.2952207  39.9466685  79.4389626  17.5069102  40.5898445  78.7624007
  17.2481955  39.1129001  78.9711556  14.8978436  32.5584506  76.3426198
  14.0362915  32.8565759  76.6342936  14.9240870  32.7754904  75.4107231
  11.7140005  41.1026696  72.7500004  12.1778351  41.3814399  71.9604626
  11.4496803  40.2010141  72.5673094   8.6064086  40.6498178  75.6879767
   9.1765443  41.0785446  75.0497251   9.1972198  40.3680762  76.3863953
  10.6508891  37.2249848  69.5589569  11.3532934  37.6770892  70.0263495
  10.3189520  36.5833667  70.1869462   9.0989253  35.8161605  83.9340778
   8.4687913  36.4977886  84.1676175   8.9925340  35.7044687  82.9893916
   4.3934225  35.4833401  74.8606702   3.6033279  35.7390930  74.3846813
   4.8845472  36.2981739  74.9658743  18.4098035  42.8238640  77.6111983
  19.2315478  42.4218828  77.3294665  18.4060437  42.7206874  78.5628099
   6.3448970  35.8477980  71.8190179   5.5480134  35.9596675  72.3373675
   6.1174563  36.1864633  70.9531070  12.1754638  42.3722684  79.7672694
  12.2399071  42.8343091  80.6030866  11.4665562  41.7420049  79.8955004
   2.6771928  35.7363892  77.2921693   2.9279966  36.6210901  77.5579269
   3.2131476  35.5568493  76.5196785  26.5004028  39.1677389  73.9596955
  25.7467736  38.5984787  73.8040959  26.6351569  39.1340053  74.9067589
  11.8902656  44.0390791  69.6351674  11.7548330  44.8842327  70.0636522
  12.4312468  44.2410069  68.8717608   8.3769995  30.1182371  86.2966029
   7.9836941  29.5648569  86.9713673   9.1936136  30.4292949  86.6872547
   5.3432053  41.5566229  70.2079599   5.8556574  42.3509479  70.3585164
   5.9954766  40.8592520  70.1413201   7.1526938  44.6731985  72.2902352
   7.3293566  45.5949950  72.1023336   7.9483771  44.3590405  72.7196732
  11.2937956  31.5340250  83.8886286  12.0347670  32.1347403  83.8090748
  11.5255879  30.7917888  83.3304328   6.4379294  36.7196617  82.1664515
   6.3232809  35.8181875  82.4671614   5.5823812  36.9660314  81.8149332
  13.5171132  44.6614358  83.7652016  13.0734986  43.8750736  83.4472921
  14.1788346  44.8493508  83.0995907   8.2758253  46.1910159  78.2912695
   8.8265678  46.0627223  77.5189689   7.4369729  46.4905048  77.9407587
  15.6152370  44.9417158  81.7933417  15.5970845  45.7626039  81.3013687
  16.5372290  44.8171233  82.0183559  12.0725424  42.4561287  82.6356926
  12.6053761  41.6949575  82.4056234  11.5439505  42.1634939  83.3781080
  15.2395119  27.5621353  78.1650567  14.8959389  28.4522995  78.0889678
  15.6074082  27.3723011  77.3020153   3.3080970  39.8854883  70.9839170
   4.1456192  40.2951892  70.7672877   3.4859238  38.9454326  70.9539364
  15.2045402  37.5529964  66.6723003  14.6892025  38.3234569  66.9111390
  14.9322710  36.8795100  67.2956064  12.7892513  32.3979665  71.7308241
  11.9334109  32.0086515  71.5513880  13.2019465  32.4771626  70.8708027
  14.3191660  29.9326008  76.1299801  13.8156455  29.8956143  75.3167606
  14.6122267  30.8418751  76.1896457  10.5634546  30.0164738  75.1365982
  11.4287542  29.8207547  74.7771872  10.6312054  29.7875090  76.0635339
  20.1779676  40.3062319  68.6076176  19.4009119  39.9673478  68.1631338
  20.8571157  40.3114942  67.9331141  14.9931705  35.4257056  68.4982784
  14.6881841  35.7403205  69.3492927  15.9462147  35.5038476  68.5410117
  13.4378137  41.5847279  70.1475738  12.9099499  40.8500039  69.8348975
  12.9365640  42.3621956  69.9015706  18.4170983  39.7796300  75.2642784
  17.7594657  40.4695561  75.3522913  19.2211382  40.1692732  75.6076770
   8.1696865  32.2466946  72.5082349   8.7440617  32.0242127  71.7755542
   8.7567847  32.3155640  73.2610951  17.2276442  38.1340673  73.3146726
  17.7408324  38.7670664  73.8168436  17.8777666  37.5341868  72.9490086
   8.4966452  34.2771407  66.5278235   7.6603764  34.6146093  66.8487509
   8.3571221  34.1420387  65.5905372  10.4719532  29.1208195  71.2357419
   9.8183945  28.8057212  70.6114033  10.4300006  28.4983935  71.9617242
  11.5830737  39.4027490  63.1510711  10.6757799  39.1716743  63.3501860
  12.0801769  38.6065109  63.3384692  14.4898816  48.1124997  66.0707397
  13.8160515  48.4156694  66.6792355  14.8764638  48.9154077  65.7212854
  13.7057273  35.6090128  75.5605066  12.7879834  35.8305075  75.4026754
  14.1217416  35.6836439  74.7016774  14.4892320  37.0081544  70.6907747
  15.2364139  37.5202941  70.3814869  14.7583910  36.6865597  71.5512140
  12.7618971  39.5040085  67.6734701  11.8530190  39.2199117  67.7707171
  12.7914054  39.9239163  66.8138008  17.9938238  43.1146674  71.4425868
  17.5400565  42.2737584  71.4991059  17.3632205  43.7508072  71.7800649
  16.9371158  34.0438660  72.6726536  16.1993914  33.5316046  73.0036778
  17.1897931  33.6039042  71.8609813  16.4371177  44.9523171  72.3775687
  16.7294152  45.5128228  71.6588052  16.9469798  45.2451732  73.1328846
  17.0382785  26.8214912  73.2668305  17.3441662  25.9612276  72.9794220
  17.7635390  27.4132532  73.0667299   3.3307141  37.2245599  71.6549903
   3.1331541  36.6314959  70.9300970   2.7753805  36.9197809  72.3725842
  11.3103865  37.1168705  73.7744496  11.3652474  36.1642542  73.6986973
  10.4995067  37.2728144  74.2585795  12.4595058  41.0448828  65.0122779
  12.0214488  40.3284687  64.5528417  13.2005499  41.2724943  64.4507871
   9.2496225  35.7345765  71.5334875   8.4364090  36.0339936  71.9400067
   9.7455219  35.3401454  72.2509357  11.4004802  45.7303522  73.4669140
  11.3580981  45.9564368  72.5377672  12.3167501  45.4966896  73.6154941
  14.8470436  36.1987589  80.3649769  15.2019824  36.4259063  81.2244235
  15.4942567  36.5305966  79.7427024  20.5768173  39.3206025  71.0699098
  20.4386072  39.5107621  70.1420287  20.2204392  40.0825408  71.5267149
   8.7410299  33.3064120  77.1496110   9.3809679  33.1652880  76.4519073
   7.9087830  33.0198634  76.7734712  20.6037553  41.3882552  76.0810370
  21.0374059  41.2957841  76.9293424  21.3169134  41.3640053  75.4430386
   9.5170603  42.6066551  73.2631103  10.3111202  42.1116871  73.0613677
   8.8062296  42.0784414  72.8998808  14.3365448  44.9884646  77.6143470
  14.3902470  45.5575583  78.3821186  13.4680229  45.1586531  77.2497507
   5.8253367  36.7509633  69.3390855   4.8950955  36.6894088  69.5560817
   5.9210839  36.2285585  68.5427496   5.7438916  33.2764445  71.9269097
   6.0045733  34.1909779  71.8178257   6.5656088  32.8088888  72.0765710
   7.2163841  34.6902203  79.0967921   7.8886895  34.4819565  78.4480570
   6.3893628  34.4924289  78.6573154  21.4653102  41.4306253  78.6143255
  21.6588992  42.3352063  78.8602530  21.3653721  40.9713672  79.4481840
  13.1189413  31.3164144  81.1133582  12.4717328  32.0154093  81.0198059
  13.8890429  31.7500287  81.4809830  16.5268211  41.5812996  84.1884136
  16.3753717  41.3523547  83.2714219  16.5172891  42.5383597  84.2015481
  13.2953547  39.1544908  79.1730402  14.2245607  39.3056068  78.9999369
  12.8744577  39.2428929  78.3179049  12.0941879  43.1795573  76.9428940
  11.9552965  42.8114357  77.8154878  11.3056475  43.6943212  76.7712897
  12.6890031  48.2804669  68.2854476  12.8641787  47.8092713  69.1000099
  12.0022819  48.9070436  68.5135737  13.6447094  42.5577176  74.3317777
  13.3096927  42.5177946  75.2275427  13.1451040  41.8921891  73.8588188
   7.6191338  37.9644806  79.8570359   7.4811136  37.2325044  80.4581898
   8.5296262  37.8753706  79.5754546  16.5806286  39.9033210  64.6054837
  15.9635457  39.1780038  64.5087890  16.1122774  40.6642570  64.2621911
  10.2473639  37.6764765  79.3454038  10.9573258  37.0357957  79.3040657
  10.2042947  37.9277660  80.2680219  18.2360418  44.6132118  82.2660617
  18.1772964  43.9291338  81.5991200  18.6379936  45.3551108  81.8141243
   8.9602573  34.6629983  81.1649678   8.4239930  34.2120721  81.8171274
   8.3719281  34.7975892  80.4220142   7.2551116  51.4294032  75.0594336
   7.4947715  52.0612556  75.7373355   6.4120313  51.0782072  75.3459696
   8.3704832  34.1218634  63.7276141   7.4934298  34.0007435  63.3638388
   8.8462585  33.3304713  63.4755030  18.2377825  42.5771702  80.4974597
  17.3504604  42.2397624  80.6200996  18.8076376  41.8454733  80.7343362
   4.6941694  33.7985991  78.2502672   4.6099883  33.1911660  77.5153082
   3.8724401  34.2895009  78.2512169  11.7678978  47.2373155  77.4635840
  11.6949150  48.0428126  77.9755145  11.3256371  47.4365120  76.6383862
  11.5568758  46.4744925  70.9738662  10.7736280  47.0166605  71.0676886
  12.2561503  46.9918904  71.3732903  14.8665408  32.2839554  73.6172867
  15.3634108  31.5309516  73.2973937  14.0952390  32.3203871  73.0516077
  22.7195165  37.9879920  75.2591159  22.7085042  38.8704635  74.8885092
  21.8512545  37.6351470  75.0645696  14.2277662  47.1359989  79.6193999
  14.9405634  47.7707453  79.5469900  13.7367691  47.2323855  78.8034001
  15.9495189  41.0411241  71.1911291  15.0151468  41.1612704  71.0215995
  16.1271857  40.1383708  70.9271300  11.4500377  34.4256937  73.3444552
  11.0798164  33.8727977  74.0325457  11.9459469  33.8215071  72.7919552
  19.3367740  36.8828561  71.7261325  19.8028192  37.7156552  71.6521627
  19.7875241  36.4173542  72.4306583   9.2789575  44.8854432  80.4399570
   9.9799035  45.5190915  80.5928964   8.8084690  45.2269164  79.6795209
  17.4043971  43.2272382  68.7247477  17.6803815  43.1128976  69.6341351
  16.5348470  42.8289867  68.6859650  17.3084403  29.2509148  75.7652226
  16.3947483  29.4813374  75.9334433  17.7377504  29.3347592  76.6166258
  17.0790861  37.4399040  78.2652120  16.4262312  37.6874947  77.6104573
  17.4571241  36.6263178  77.9314597  14.0398035  47.4758733  72.3680290
  14.2220430  46.6580389  72.8308043  14.8631021  47.6926425  71.9305180
  14.3740201  46.4026918  69.6295339  14.9027967  45.8919372  69.0165501
  14.6368420  46.0869448  70.4940872  13.1278434  38.1818851  84.7518157
  12.4519071  38.0812980  85.4220532  13.9506068  38.0258064  85.2154154
   4.8757293  44.4190787  77.3730672   5.4610730  43.6734475  77.5058577
   4.6782132  44.7294744  78.2567336   7.7295949  47.4542034  72.3893115
   7.0606324  47.9388162  71.9057155   7.5908818  47.7011255  73.3036493
  11.8701217  49.4885778  78.9875773  12.4219525  49.6517400  79.7524858
  12.2107411  50.0790216  78.3155798   6.8465710  31.8360928  79.5897658
   6.9107037  32.6975759  79.1775056   6.7832831  31.2234929  78.8570016
   6.3217983  33.9084060  83.2370692   6.9490022  33.5261138  83.8508216
   5.4645902  33.6898262  83.6026385  16.7212092  44.3147036  84.8424428
  17.2651996  44.9276994  84.3479382  16.1398936  44.8726614  85.3591441
   3.0983526  35.7160489  69.1689047   3.3936967  34.8071168  69.1156101
   2.1971562  35.6948229  68.8470049  15.0069605  47.4367754  75.9739455
  14.8820744  46.6357493  75.4650401  15.6648696  47.9313947  75.4853425
   6.6277773  33.7916486  75.1516596   5.9064359  34.4052454  75.0124069
   7.4171029  34.3274251  75.0733242  17.0704513  45.2376774  77.6019005
  16.1234848  45.1182125  77.5297332  17.4187286  44.3499272  77.6845267
   9.4304086  31.1270913  81.4257247   9.9538488  31.3733209  82.1883557
   9.2116420  31.9590947  81.0060385   4.8271367  33.3974587  69.2928372
   4.4984074  32.5171966  69.1103478   5.1810738  33.3422256  70.1804761
  14.0750946  45.0329490  73.8023358  13.9275909  44.1046197  73.9830928
  14.9004440  45.0549581  73.3180433   7.9413191  33.6847557  69.6603850
   8.2809263  34.2133478  68.9382458   8.3885311  34.0227963  70.4362416
  17.6785068  45.8558049  74.8888230  18.6031616  45.6500910  74.7512682
  17.5100371  45.6074450  75.7977572  10.6356631  32.0684608  79.1106918
  10.2953452  31.2692421  79.5127598   9.9295638  32.3686318  78.5383751
  11.2873103  29.1533920  77.5634241  12.1099172  28.6794398  77.4413131
  11.5311167  29.9324404  78.0632927   9.9281338  32.1822179  67.8597143
  10.6489700  32.5603431  67.3560859   9.3046642  32.9011055  67.9632121
  14.0712461  32.8867327  68.7955475  14.2876075  33.7691965  68.4944303
  13.5906528  32.4953541  68.0661117   8.8111682  35.8453041  75.3726220
   8.6656263  36.1593344  76.2650501   8.3336886  36.4637941  74.8197118
  10.6708065  32.8355589  75.4207109  10.6569634  31.9396682  75.0839407
  11.3880493  32.8426252  76.0545395  12.5234196  33.2692929  77.4660236
  12.2651973  34.1910000  77.4644567  11.9919236  32.8723363  78.1560701
  17.4680384  46.3743716  70.2450322  17.6417262  45.8090139  69.4924174
  17.9609276  47.1744611  70.0629812   3.2857344  38.3858385  78.3113881
   2.7410812  39.1618193  78.4434155   4.1636694  38.7329190  78.1533002
  10.0744961  31.7169969  70.6894679  10.1960872  30.7886615  70.8885567
   9.7847003  31.7308655  69.7772995  12.9436151  29.4024879  73.8261399
  12.9657848  29.4664213  72.8713379  13.3604210  28.5629388  74.0201905
  23.3219775  39.1380139  71.8640622  23.7650921  38.3887464  71.4659745
  22.4446286  39.1290275  71.4814354  18.4555557  45.6910480  67.3447220
  19.1506461  46.3117173  67.5634535  18.7978707  44.8405832  67.6199598
   4.0723366  37.5128281  81.2044038   3.3305102  37.6610917  81.7908668
   3.7516110  37.7736547  80.3410787  20.3546980  43.1410186  68.8734551
  20.8798304  43.4797459  68.1483871  20.2669332  42.2057201  68.6897686
  12.0167029  47.0544260  81.0024428  12.3254155  46.8093406  81.8747127
  12.8142511  47.2590898  80.5143298  12.0387641  49.2082169  73.2329804
  11.5992631  48.7158548  73.9262661  12.7895758  48.6655137  72.9921879
   4.5179980  45.3993710  73.2354432   5.3438000  45.0997482  72.8553076
   4.1674032  44.6301333  73.6844221   9.4861513  44.7520178  75.3052106
   8.8641522  44.0890883  75.0054334  10.1566380  44.7781310  74.6225754
   2.7188585  43.3180037  74.1943366   1.8820493  42.8902211  74.0127367
   2.6912230  43.5112480  75.1314157   9.5586040  33.2301966  84.8984612
   9.6074196  34.1064089  84.5162381  10.1008554  32.6879359  84.3256255
  20.0440886  43.7743090  84.1785749  19.2536430  43.7567228  83.6390248
  19.8074241  44.3131383  84.9334785  20.1638761  40.6235556  81.4918477
  20.2136766  40.4585563  82.4334000  20.0552684  39.7562815  81.1016358
   9.0475020  43.3024102  68.7810566   9.1963140  43.9859566  68.1277239
   9.8541463  43.2829192  69.2960022  17.4542523  36.6066484  82.8077784
  18.3552386  36.4672949  82.5161782  17.5290498  36.7720939  83.7475962
  11.7885329  33.9833339  81.6530970  10.9188638  34.2766905  81.3813559
  12.0244809  34.5673784  82.3738234  21.6656958  43.0432497  81.7360499
  21.3741766  43.4062478  82.5723960  21.0529089  42.3299506  81.5573831
  22.8652640  40.6085377  74.2563069  23.6999532  41.0475181  74.4200630
  23.0011769  40.1324030  73.4371315  19.9144146  38.1665112  80.2040557
  20.3898268  38.3592758  79.3959408  18.9909711  38.2224298  79.9583941
   6.8027653  39.3289279  69.7871635   6.5573695  38.4251609  69.9851845
   6.9723567  39.3306430  68.8451113  14.4924363  30.2012956  79.1696391
  15.0106306  30.9373983  78.8442879  14.1379495  30.5076949  80.0043150
   6.0723300  35.0617637  67.2857797   5.3792545  35.1361992  66.6297833
   5.8275052  34.2977981  67.8079314  14.7436957  26.6213238  74.6897287
  15.0238711  25.9536427  75.3157714  15.5287564  26.8142334  74.1771951
  12.5470425  45.7972232  66.2522314  11.9744392  46.4162419  65.7992786
  13.1203219  46.3471594  66.7862236  18.6145815  35.0430872  78.4368863
  19.5663238  35.1428970  78.4581087  18.4449266  34.2509141  78.9466947
  16.6360195  32.1286455  78.6228263  16.0410127  32.4091468  77.9274752
  16.3509891  32.6180356  79.3945005  15.7667685  46.0809382  67.3830896
  16.6998358  46.0154944  67.5863772  15.6790898  46.9165649  66.9245429
  18.3955702  45.3975253  64.3434844  18.3169333  45.0635116  65.2370602
  19.2165368  45.8897020  64.3426316  21.0933893  38.2636992  77.5511162
  21.0610213  37.3252993  77.7370846  21.7034517  38.3421029  76.8176987
  12.9317224  37.1333045  63.5938366  13.8776328  37.0039253  63.6626784
  12.5531469  36.3947707  64.0707794  21.2428381  35.0548035  77.5969445
  20.7267430  34.2706492  77.4099374  22.1268330  34.7266752  77.7615965
  18.9039108  28.7989051  73.5565258  18.7063929  28.4904139  74.4408590
  19.5138814  29.5250690  73.6863188  26.9110443  39.3252999  76.6917199
  27.6413831  39.0638287  77.2524902  26.3017388  38.5881721  76.7319267
  24.9925740  37.4660861  77.2891650  24.2658903  37.3316826  76.6808142
  24.5773027  37.7737690  78.0948368  12.8155916  41.1850791  85.0539023
  13.7358926  41.3629390  85.2479070  12.7805499  40.2406836  84.9018722
  11.1160141  35.0583021  63.5293251  10.2091596  34.7616134  63.6055965
  11.3936122  34.7612839  62.6627538   2.0338081  36.3789385  73.9792298
   1.7140866  35.5254693  73.6866672   1.4871509  36.5937963  74.7350265
   5.8117989  39.0951826  77.6961804   6.0303999  40.0268933  77.7149838
   6.2243763  38.7359800  78.4816608  12.7322207  29.6019911  69.6837493
  11.9222935  29.2566996  70.0592739  13.4206624  29.2927455  70.2725104
  14.6612755  28.6797958  71.3061789  15.2143794  29.0993411  71.9651813
  14.8982841  27.7533706  71.3484745  10.6845854  34.6685031  87.0864553
  10.5842581  35.6179388  87.0176644  10.4667396  34.3403270  86.2140623
   9.8858926  31.9169956  63.6705231  10.7478090  32.2424855  63.9301048
  10.0709270  31.1301452  63.1578296   1.9026341  39.9992296  75.9485419
   1.2089813  39.5846249  75.4355374   2.6499332  40.0412833  75.3518838
  18.0391562  30.7898483  70.8140454  17.4590231  31.4483287  70.4318506
  17.7727495  29.9675828  70.4027871  16.4895128  30.1903541  73.0161774
  16.9894907  30.3020075  72.2076093  17.1330736  29.8864593  73.6562582
  10.5477124  38.0982170  85.9029615  10.0644206  38.8982530  86.1093504
  10.6338063  38.1090115  84.9497059   3.8163084  39.9310550  73.8251434
   3.7933772  40.0298237  72.8733317   4.1263720  40.7775701  74.1468600
   6.4750462  41.9886705  77.9398049   7.4293715  41.9570647  77.8727980
   6.2762985  41.5277329  78.7548275   7.0649844  40.5587821  80.5068846
   7.8842733  41.0531900  80.5303684   7.3386652  39.6419789  80.4786414
  16.8216440  32.9498573  69.8696802  15.9342295  33.2348224  69.6516997
  17.2370429  32.7892337  69.0224079  20.1730976  32.9745094  73.5851141
  20.9491366  33.4641547  73.8575758  19.4479110  33.4003148  74.0423011
  22.6103535  33.6872714  74.6425082  23.2048026  33.4468449  73.9318390
  22.6830118  32.9679844  75.2698618   4.8300690  47.5306324  74.9568247
   4.6955158  46.7706725  74.3906245   4.4132753  48.2547224  74.4897036
  15.9659653  42.7143248  63.9644822  16.6695504  42.9193250  64.5802478
  15.2422302  43.2820010  64.2293905  16.7957464  38.4653109  70.0847092
  16.7392665  38.9221661  69.2454724  17.3485806  37.7043794  69.9069935
  20.6062270  34.2542841  70.9097212  20.3499204  33.8539477  71.7405419
  19.9815138  34.9686635  70.7847351  24.9174608  36.9938914  73.4168503
  24.3574165  37.0632104  74.1900065  24.3118111  36.8179899  72.6967999
   7.9869816  48.4275641  75.1686689   7.8702200  49.3721074  75.0665380
   7.1662263  48.1249203  75.5572488  17.8746351  43.1525777  66.0143282
  18.7091955  42.7206976  65.8320757  17.7130694  42.9807791  66.9420176
  17.5292243  39.6557890  67.3799621  17.4741047  39.4902162  66.4388065
  16.9038298  40.3633923  67.5361811   2.3184758  34.8925955  81.2061043
   2.9643622  34.3824909  81.6948269   2.1101909  35.6294637  81.7804469
  14.8438150  41.9606802  86.7053184  15.7129310  42.1347455  86.3439819
  14.3644902  42.7801219  86.5828913  10.8388369  29.1565999  66.9584940
  10.8267038  30.1007839  67.1153211  11.7311790  28.9736145  66.6644401
   9.0124330  49.0803903  78.3842618   9.9151577  49.1127514  78.7009113
   8.7861701  48.1504354  78.3988953  10.7677932  47.8334890  75.0452696
   9.8173563  47.8336752  74.9317069  11.0710419  47.0867624  74.5288731
  14.6540488  25.7508776  71.2130876  13.8872884  25.1967263  71.3587559
  15.0651193  25.8230645  72.0745028   6.6582249  32.0393572  85.3036058
   7.5213711  31.6830377  85.5139382   6.0847660  31.7007467  85.9911462
  26.5030626  53.6695428  76.1098459  27.1409036  53.5502176  75.4061799
  26.3851469  54.6176272  76.1686411  23.3120332  53.6222856  76.0459983
  22.9738844  53.5063921  75.1580518  24.1810100  53.2214021  76.0260990
  19.1707148  55.4758333  72.0356874  18.6072013  55.3848270  71.2673162
  19.0559543  54.6558237  72.5159367  23.7940115  54.7757708  82.0046189
  23.7828756  54.3810506  81.1326693  23.9560755  54.0423781  82.5979960
  16.7171580  56.9709524  74.8741095  17.5092872  56.6300349  74.4587394
  16.9568230  57.0804499  75.7943248  24.7506707  59.1429301  67.3471339
  24.0994686  59.7283381  66.9605353  25.5451069  59.6735495  67.4066377
  18.6762334  56.2318438  67.7458474  19.4493210  55.6847425  67.6071349
  19.0287733  57.0962687  67.9572935  20.5147376  57.5594820  80.9525373
  20.2237242  58.4640451  80.8372039  21.1504361  57.6011348  81.6669442
  21.4403583  54.9371668  77.5426733  22.0367155  54.7127691  76.8283695
  21.4978555  54.1956414  78.1452180  21.0128612  52.3911104  65.3776924
  21.2654132  51.8692625  64.6160387  20.0753171  52.2277249  65.4803607
  26.0571894  51.3946882  73.1851667  26.8434984  50.9766305  72.8342084
  26.3210599  52.2992974  73.3533315  26.2281972  56.8319732  67.8840324
  25.5927805  56.9054359  68.5961228  25.8979378  57.4213331  67.2059403
  31.4580322  51.3322115  74.0884645  32.1905494  50.7621332  74.3222475
  30.7019677  50.9443716  74.5291151  20.7324900  54.2939210  67.5801298
  20.6161158  53.6184113  68.2482383  20.8427160  53.8071584  66.7633452
  23.0756441  53.7549357  71.2847988  22.7114649  53.2279978  71.9960909
  23.9323557  53.3647826  71.1114473  28.9805742  45.0443689  78.5479254
  28.6489067  45.9139100  78.3240469  28.3851355  44.7279973  79.2273284
  22.7161928  48.7839257  66.2809336  22.8836331  49.6519493  66.6479807
  22.5259097  48.9466538  65.3570625  25.4737261  57.2456235  77.9475167
  25.1737985  58.1481274  77.8390974  25.1288321  56.9788419  78.7996319
  18.9249743  53.6970032  73.9811871  18.0000239  53.5646246  74.1889563
  19.1734156  54.4764252  74.4781813  28.8734405  49.7638776  75.6272604
  27.9651283  49.6954184  75.3331365  28.8222001  50.2410721  76.4554429
  22.6951149  51.2396914  67.2656003  22.5750774  51.6853965  68.1041483
  22.0003738  51.5882232  66.7069541  16.2858554  53.3403306  74.8155660
  16.4150935  53.5937785  75.7295072  15.6056005  53.9331014  74.4960315
  20.4558041  64.0100556  70.9146134  20.3782071  64.9608381  70.9934615
  19.8519685  63.6646428  71.5721061  22.9475271  51.1828421  83.5707501
  22.1708605  51.7422341  83.5610366  23.5865834  51.6685204  84.0922371
  30.7396052  47.9655214  77.4050478  30.0970432  48.2587747  76.7590272
  30.2350980  47.8508134  78.2103675  28.3936215  51.7118387  68.0936337
  29.3054071  51.9445774  67.9184035  27.8845862  52.2955431  67.5311416
  21.2021643  53.9913875  83.1325468  21.9436328  54.5298919  82.8560292
  20.4958629  54.6180163  83.2897020  26.6776983  56.1343015  81.7297630
  27.0860339  55.6925426  80.9852262  25.9554244  55.5595643  81.9831823
  23.0308053  51.0715622  79.1031187  23.8769248  51.4955035  79.2465836
  22.9706691  50.4149246  79.7969750  27.0005798  56.6944206  75.4849919
  26.3714660  56.8589920  74.7825986  26.6131460  57.1085815  76.2560883
  30.8795030  57.6298644  72.8394282  30.1946068  58.0097545  72.2891316
  30.9638879  58.2393970  73.5726230  26.1807498  48.7319990  80.7612360
  25.9368430  49.4862051  80.2246636  26.4567429  49.1105338  81.5959607
  28.1345961  55.2758603  79.4389626  28.3462856  55.9190362  78.7624007
  28.0875709  54.4420919  78.9711556  25.7372190  47.8876423  76.3426198
  24.8756669  48.1857677  76.6342936  25.7634625  48.1046822  75.4107231
  22.5533760  56.4318614  72.7500004  23.0172105  56.7106317  71.9604626
  22.2890558  55.5302058  72.5673094  19.4457841  55.9790095  75.6879767
  20.0159198  56.4077364  75.0497251  20.0365952  55.6972680  76.3863953
  21.4902646  52.5541766  69.5589569  22.1926689  53.0062810  70.0263495
  21.1583274  51.9125585  70.1869462  19.9383007  51.1453523  83.9340778
  19.3081668  51.8269804  84.1676175  19.8319095  51.0336604  82.9893916
  15.2327980  50.8125319  74.8606702  14.4427034  51.0682847  74.3846813
  15.7239227  51.6273657  74.9658743  29.2491789  58.1530558  77.6111983
  30.0709233  57.7510745  77.3294665  29.2454192  58.0498792  78.5628099
  17.1842725  51.1769898  71.8190179  16.3873888  51.2888592  72.3373675
  16.9568317  51.5156550  70.9531070  23.0148393  57.7014601  79.7672694
  23.0792825  58.1635008  80.6030866  22.3059316  57.0711966  79.8955004
  13.5165683  51.0655809  77.2921693  13.7673721  51.9502819  77.5579269
  14.0525231  50.8860411  76.5196785  22.7296410  59.3682709  69.6351674
  22.5942085  60.2134244  70.0636522  23.2706223  59.5701986  68.8717608
  19.2163750  45.4474289  86.2966029  18.8230695  44.8940487  86.9713673
  20.0329890  45.7584867  86.6872547  16.1825808  56.8858147  70.2079599
  16.6950328  57.6801397  70.3585164  16.8348520  56.1884437  70.1413201
  17.9920692  60.0023903  72.2902352  18.1687321  60.9241868  72.1023336
  18.7877526  59.6882322  72.7196732  22.1331711  46.8632168  83.8886286
  22.8741424  47.4639321  83.8090748  22.3649634  46.1209805  83.3304328
  17.2773049  52.0488535  82.1664515  17.1626564  51.1473792  82.4671614
  16.4217567  52.2952232  81.8149332  24.3564887  59.9906275  83.7652016
  23.9128741  59.2042654  83.4472921  25.0182100  60.1785426  83.0995907
  19.1152008  61.5202077  78.2912695  19.6659433  61.3919140  77.5189689
  18.2763484  61.8196966  77.9407587  26.4546125  60.2709075  81.7933417
  26.4364600  61.0917956  81.3013687  27.3766045  60.1463150  82.0183559
  22.9119179  57.7853205  82.6356926  23.4447516  57.0241493  82.4056234
  22.3833260  57.4926856  83.3781080  26.0788874  42.8913271  78.1650567
  25.7353143  43.7814912  78.0889678  26.4467836  42.7014928  77.3020153
  14.1474724  55.2146801  70.9839170  14.9849946  55.6243809  70.7672877
  14.3252992  54.2746243  70.9539364  26.0439156  52.8821882  66.6723003
  25.5285780  53.6526486  66.9111390  25.7716465  52.2087018  67.2956064
  23.6286268  47.7271583  71.7308241  22.7727864  47.3378433  71.5513880
  24.0413219  47.8063543  70.8708027  25.1585414  45.2617926  76.1299801
  24.6550210  45.2248061  75.3167606  25.4516021  46.1710669  76.1896457
  21.4028300  45.3456656  75.1365982  22.2681297  45.1499464  74.7771872
  21.4705809  45.1167007  76.0635339  31.0173431  55.6354236  68.6076176
  30.2402873  55.2965396  68.1631338  31.6964912  55.6406860  67.9331141
  25.8325460  50.7548974  68.4982784  25.5275595  51.0695123  69.3492927
  26.7855902  50.8330394  68.5410117  24.2771891  56.9139197  70.1475738
  23.7493253  56.1791957  69.8348975  23.7759394  57.6913873  69.9015706
  29.2564738  55.1088218  75.2642784  28.5988412  55.7987479  75.3522913
  30.0605137  55.4984650  75.6076770  19.0090619  47.5758863  72.5082349
  19.5834371  47.3534045  71.7755542  19.5961602  47.6447558  73.2610951
  28.0670196  53.4632590  73.3146726  28.5802078  54.0962582  73.8168436
  28.7171420  52.8633786  72.9490086  19.3360206  49.6063324  66.5278235
  18.4997518  49.9438011  66.8487509  19.1964976  49.4712304  65.5905372
  21.3113287  44.4500112  71.2357419  20.6577699  44.1349130  70.6114033
  21.2693761  43.8275853  71.9617242  22.4224492  54.7319407  63.1510711
  21.5151553  54.5008661  63.3501860  22.9195524  53.9357027  63.3384692
  25.3292571  63.4416915  66.0707397  24.6554269  63.7448611  66.6792355
  25.7158393  64.2445995  65.7212854  24.5451027  50.9382046  75.5605066
  23.6273589  51.1596993  75.4026754  24.9611171  51.0128356  74.7016774
  25.3286075  52.3373462  70.6907747  26.0757894  52.8494859  70.3814869
  25.5977664  52.0157514  71.5512140  23.6012725  54.8332002  67.6734701
  22.6923944  54.5491035  67.7707171  23.6307809  55.2531081  66.8138008
  28.8331993  58.4438592  71.4425868  28.3794320  57.6029502  71.4991059
  28.2025959  59.0799990  71.7800649  27.7764912  49.3730578  72.6726536
  27.0387669  48.8607964  73.0036778  28.0291686  48.9330959  71.8609813
  27.2764932  60.2815088  72.3775687  27.5687906  60.8420146  71.6588052
  27.7863552  60.5743649  73.1328846  27.8776539  42.1506830  73.2668305
  28.1835416  41.2904193  72.9794220  28.6029144  42.7424450  73.0667299
  14.1700895  52.5537516  71.6549903  13.9725295  51.9606877  70.9300970
  13.6147559  52.2489727  72.3725842  22.1497619  52.4460623  73.7744496
  22.2046229  51.4934459  73.6986973  21.3388821  52.6020062  74.2585795
  23.2988813  56.3740746  65.0122779  22.8608243  55.6576605  64.5528417
  24.0399254  56.6016861  64.4507871  20.0889979  51.0637683  71.5334875
  19.2757845  51.3631853  71.9400067  20.5848973  50.6693371  72.2509357
  22.2398557  61.0595440  73.4669140  22.1974736  61.2856286  72.5377672
  23.1561256  60.8258814  73.6154941  25.6864191  51.5279507  80.3649769
  26.0413578  51.7550980  81.2244235  26.3336322  51.8597884  79.7427024
  31.4161928  54.6497943  71.0699098  31.2779826  54.8399539  70.1420287
  31.0598147  55.4117326  71.5267149  19.5804054  48.6356038  77.1496110
  20.2203433  48.4944797  76.4519073  18.7481584  48.3490552  76.7734712
  31.4431307  56.7174470  76.0810370  31.8767814  56.6249759  76.9293424
  32.1562888  56.6931970  75.4430386  20.3564358  57.9358469  73.2631103
  21.1504956  57.4408789  73.0613677  19.6456050  57.4076332  72.8998808
  25.1759202  60.3176564  77.6143470  25.2296224  60.8867500  78.3821186
  24.3073984  60.4878449  77.2497507  16.6647121  52.0801550  69.3390855
  15.7344709  52.0186006  69.5560817  16.7604593  51.5577503  68.5427496
  16.5832670  48.6056363  71.9269097  16.8439488  49.5201696  71.8178257
  17.4049843  48.1380806  72.0765710  18.0557596  50.0194120  79.0967921
  18.7280649  49.8111482  78.4480570  17.2287382  49.8216206  78.6573154
  32.3046857  56.7598171  78.6143255  32.4982747  57.6643981  78.8602530
  32.2047475  56.3005590  79.4481840  23.9583168  46.6456061  81.1133582
  23.3111083  47.3446011  81.0198059  24.7284183  47.0792205  81.4809830
  27.3661966  56.9104913  84.1884136  27.2147472  56.6815465  83.2714219
  27.3566645  57.8675515  84.2015481  24.1347302  54.4836826  79.1730402
  25.0639362  54.6347986  78.9999369  23.7138332  54.5720847  78.3179049
  22.9335634  58.5087491  76.9428940  22.7946719  58.1406275  77.8154878
  22.1450230  59.0235130  76.7712897  23.5283786  63.6096587  68.2854476
  23.7035541  63.1384630  69.1000099  22.8416574  64.2362353  68.5135737
  24.4840849  57.8869093  74.3317777  24.1490681  57.8469863  75.2275427
  23.9844795  57.2213809  73.8588188  18.4585093  53.2936723  79.8570359
  18.3204891  52.5616962  80.4581898  19.3690016  53.2045623  79.5754546
  27.4200041  55.2325128  64.6054837  26.8029211  54.5071956  64.5087890
  26.9516529  55.9934488  64.2621911  21.0867393  53.0056683  79.3454038
  21.7967012  52.3649875  79.3040657  21.0436702  53.2569577  80.2680219
  29.0754172  59.9424036  82.2660617  29.0166718  59.2583256  81.5991200
  29.4773691  60.6843026  81.8141243  19.7996327  49.9921900  81.1649678
  19.2633684  49.5412639  81.8171274  19.2113036  50.1267809  80.4220142
  18.0944871  66.7585950  75.0594336  18.3341469  67.3904474  75.7373355
  17.2514067  66.4073990  75.3459696  19.2098586  49.4510552  63.7276141
  18.3328053  49.3299353  63.3638388  19.6856339  48.6596630  63.4755030
  29.0771579  57.9063620  80.4974597  28.1898358  57.5689542  80.6200996
  29.6470131  57.1746651  80.7343362  10.7300727  54.2387712  73.8217648
  11.4171766  53.9249442  73.2338664  10.5748855  55.1429076  73.5484900
  15.5335449  49.1277908  78.2502672  15.4493637  48.5203578  77.5153082
  14.7118155  49.6186927  78.2512169  22.6072733  62.5665072  77.4635840
  22.5342904  63.3720044  77.9755145  22.1650126  62.7657038  76.6383862
  22.3962512  61.8036842  70.9738662  21.6130034  62.3458522  71.0676886
  23.0955258  62.3210822  71.3732903  25.7059163  47.6131472  73.6172867
  26.2027862  46.8601434  73.2973937  24.9346144  47.6495788  73.0516077
  33.5588920  53.3171837  75.2591159  33.5478796  54.1996553  74.8885092
  32.6906299  52.9643388  75.0645696  26.7888943  56.3703159  71.1911291
  25.8545222  56.4904621  71.0215995  26.9665612  55.4675626  70.9271300
  22.2894131  49.7548855  73.3444552  21.9191919  49.2019895  74.0325457
  22.7853224  49.1506988  72.7919552  30.1761495  52.2120478  71.7261325
  30.6421947  53.0448470  71.6521627  30.6268995  51.7465460  72.4306583
  20.1183330  60.2146350  80.4399570  20.8192789  60.8482833  80.5928964
  19.6478445  60.5561081  79.6795209  28.2437726  58.5564300  68.7247477
  28.5197570  58.4420894  69.6341351  27.3742224  58.1581784  68.6859650
  28.1478157  44.5801065  75.7652226  27.2341237  44.8105292  75.9334433
  28.5771259  44.6639509  76.6166258  27.9184616  52.7690957  78.2652120
  27.2656066  53.0166865  77.6104573  28.2964996  51.9555095  77.9314597
  24.8791790  62.8050650  72.3680290  25.0614184  61.9872306  72.8308043
  25.7024776  63.0218343  71.9305180  25.2133955  61.7318835  69.6295339
  25.7421722  61.2211290  69.0165501  25.4762175  61.4161366  70.4940872
  23.9672189  53.5110768  84.7518157  23.2912826  53.4104898  85.4220532
  24.7899823  53.3549982  85.2154154  15.7151048  59.7482705  77.3730672
  16.3004485  59.0026393  77.5058577  15.5175886  60.0586661  78.2567336
  18.5689703  62.7833952  72.3893115  17.9000078  63.2680080  71.9057155
  18.4302573  63.0303173  73.3036493  10.3068703  52.3188305  76.0935116
  10.3452802  51.7851896  76.8872234   9.8008996  51.7923510  75.4746093
  17.6859465  47.1652845  79.5897658  17.7500791  48.0267676  79.1775056
  17.6226585  46.5526847  78.8570016  17.1611738  49.2375978  83.2370692
  17.7883776  48.8553055  83.8508216  16.3039656  49.0190180  83.6026385
  13.9377280  51.0452407  69.1689047  14.2330721  50.1363086  69.1156101
  13.0365316  51.0240147  68.8470049  17.4671527  49.1208404  75.1516596
  16.7458113  49.7344371  75.0124069  18.2564783  49.6566169  75.0733242
  27.9098267  60.5668691  77.6019005  26.9628603  60.4474042  77.5297332
  28.2581041  59.6791189  77.6845267  20.2697841  46.4562830  81.4257247
  20.7932243  46.7025127  82.1883557  20.0510174  47.2882865  81.0060385
  15.6665122  48.7266505  69.2928372  15.3377828  47.8463884  69.1103478
  16.0204493  48.6714173  70.1804761  24.9144701  60.3621408  73.8023358
  24.7669663  59.4338115  73.9830928  25.7398194  60.3841498  73.3180433
  18.7806945  49.0139475  69.6603850  19.1203018  49.5425396  68.9382458
  19.2279065  49.3519881  70.4362416  28.5178823  61.1849966  74.8888230
  29.4425370  60.9792828  74.7512682  28.3494126  60.9366367  75.7977572
  21.4750386  47.3976525  79.1106918  21.1347206  46.5984338  79.5127598
  20.7689392  47.6978236  78.5383751  22.1266858  44.4825838  77.5634241
  22.9492927  44.0086316  77.4413131  22.3704921  45.2616322  78.0632927
  20.7675092  47.5114096  67.8597143  21.4883455  47.8895349  67.3560859
  20.1440396  48.2302973  67.9632121  24.9106215  48.2159245  68.7955475
  25.1269829  49.0983883  68.4944303  24.4300282  47.8245459  68.0661117
  19.6505436  51.1744958  75.3726220  19.5050017  51.4885261  76.2650501
  19.1730640  51.7929859  74.8197118  21.5101819  48.1647506  75.4207109
  21.4963388  47.2688600  75.0839407  22.2274247  48.1718170  76.0545395
  23.3627950  48.5984847  77.4660236  23.1045728  49.5201917  77.4644567
  22.8312990  48.2015281  78.1560701  28.3074139  61.7035634  70.2450322
  28.4811016  61.1382056  69.4924174  28.8003030  62.5036529  70.0629812
  14.1251099  53.7150303  78.3113881  13.5804567  54.4910111  78.4434155
  15.0030448  54.0621107  78.1533002  20.9138715  47.0461887  70.6894679
  21.0354626  46.1178533  70.8885567  20.6240758  47.0600573  69.7772995
  23.7829906  44.7316797  73.8261399  23.8051602  44.7956130  72.8713379
  24.1997965  43.8921306  74.0201905  34.1613530  54.4672057  71.8640622
  34.6044676  53.7179382  71.4659745  33.2840040  54.4582193  71.4814354
  29.2949311  61.0202398  67.3447220  29.9900216  61.6409091  67.5634535
  29.6372461  60.1697749  67.6199598  14.9117120  52.8420199  81.2044038
  14.1698856  52.9902834  81.7908668  14.5909865  53.1028465  80.3410787
  31.1940734  58.4702104  68.8734551  31.7192058  58.8089376  68.1483871
  31.1063087  57.5349119  68.6897686  22.8560783  62.3836177  81.0024428
  23.1647910  62.1385324  81.8747127  23.6536265  62.5882816  80.5143298
  22.8781395  64.5374087  73.2329804  22.4386385  64.0450466  73.9262661
  23.6289512  63.9947055  72.9921879  15.3573734  60.7285628  73.2354432
  16.1831754  60.4289400  72.8553076  15.0067786  59.9593250  73.6844221
  20.3255267  60.0812096  75.3052106  19.7035277  59.4182801  75.0054334
  20.9960134  60.1073228  74.6225754  13.5582339  58.6471954  74.1943366
  12.7214247  58.2194129  74.0127367  13.5305985  58.8404398  75.1314157
  20.3979795  48.5593884  84.8984612  20.4467950  49.4356007  84.5162381
  20.9402309  48.0171277  84.3256255  31.0032516  55.9527474  81.4918477
  31.0530520  55.7877481  82.4334000  30.8946439  55.0854733  81.1016358
  19.8868774  58.6316019  68.7810566  20.0356895  59.3151484  68.1277239
  20.6935218  58.6121109  69.2960022  28.2936278  51.9358402  82.8077784
  29.1946141  51.7964867  82.5161782  28.3684252  52.1012857  83.7475962
  22.6279083  49.3125256  81.6530970  21.7582393  49.6058822  81.3813559
  22.8638564  49.8965701  82.3738234  32.5050712  58.3724415  81.7360499
  32.2135521  58.7354396  82.5723960  31.8922844  57.6591423  81.5573831
  33.7046395  55.9377295  74.2563069  34.5393286  56.3767099  74.4200630
  33.8405523  55.4615948  73.4371315  30.7537901  53.4957030  80.2040557
  31.2292022  53.6884676  79.3959408  29.8303466  53.5516216  79.9583941
  17.6421407  54.6581197  69.7871635  17.3967449  53.7543527  69.9851845
  17.8117322  54.6598347  68.8451113  25.3318117  45.5304873  79.1696391
  25.8500061  46.2665900  78.8442879  24.9773250  45.8368867  80.0043150
  16.9117055  50.3909555  67.2857797  16.2186300  50.4653910  66.6297833
  16.6668807  49.6269898  67.8079314  25.5830711  41.9505156  74.6897287
  25.8632465  41.2828345  75.3157714  26.3681318  42.1434251  74.1771951
  23.3864180  61.1264150  66.2522314  22.8138147  61.7454337  65.7992786
  23.9596973  61.6763511  66.7862236  29.4539570  50.3722790  78.4368863
  30.4056992  50.4720888  78.4581087  29.2843020  49.5801058  78.9466947
  27.4753949  47.4578373  78.6228263  26.8803881  47.7383386  77.9274752
  27.1903646  47.9472274  79.3945005  26.6061440  61.4101300  67.3830896
  27.5392113  61.3446862  67.5863772  26.5184652  62.2457567  66.9245429
  29.2349456  60.7267170  64.3434844  29.1563088  60.3927034  65.2370602
  30.0559123  61.2188938  64.3426316  31.9327647  53.5928910  77.5511162
  31.9003967  52.6544910  77.7370846  32.5428271  53.6712946  76.8176987
  23.7710978  52.4624963  63.5938366  24.7170083  52.3331171  63.6626784
  23.3925223  51.7239624  64.0707794  29.7432863  44.1280969  73.5565258
  29.5457684  43.8196057  74.4408590  30.3532568  44.8542607  73.6863188
  23.6549671  56.5142709  85.0539023  24.5752680  56.6921308  85.2479070
  23.6199254  55.5698754  84.9018722  21.9553895  50.3874939  63.5293251
  21.0485351  50.0908052  63.6055965  22.2329876  50.0904757  62.6627538
  12.8731836  51.7081302  73.9792298  12.5534620  50.8546611  73.6866672
  12.3265264  51.9229880  74.7350265  16.6511743  54.4243743  77.6961804
  16.8697753  55.3560851  77.7149838  17.0637517  54.0651718  78.4816608
  23.5715961  44.9311829  69.6837493  22.7616689  44.5858914  70.0592739
  24.2600378  44.6219372  70.2725104  25.5006509  44.0089875  71.3061789
  26.0537548  44.4285329  71.9651813  25.7376596  43.0825624  71.3484745
  21.5239609  49.9976949  87.0864553  21.4236336  50.9471306  87.0176644
  21.3061151  49.6695188  86.2140623  20.7252680  47.2461874  63.6705231
  21.5871844  47.5716772  63.9301048  20.9103024  46.4593370  63.1578296
  12.7420096  55.3284214  75.9485419  12.0483567  54.9138167  75.4355374
  13.4893087  55.3704750  75.3518838  28.8785316  46.1190401  70.8140454
  28.2983986  46.7775205  70.4318506  28.6121249  45.2967745  70.4027871
  27.3288883  45.5195458  73.0161774  27.8288661  45.6311993  72.2076093
  27.9724491  45.2156511  73.6562582  21.3870879  53.4274088  85.9029615
  20.9037960  54.2274448  86.1093504  21.4731818  53.4382033  84.9497059
  14.6556838  55.2602468  73.8251434  14.6327526  55.3590155  72.8733317
  14.9657475  56.1067618  74.1468600  17.3144216  57.3178623  77.9398049
  18.2687470  57.2862565  77.8727980  17.1156740  56.8569246  78.7548275
  17.9043598  55.8879739  80.5068846  18.7236487  56.3823817  80.5303684
  18.1780406  54.9711707  80.4786414  27.6610194  48.2790491  69.8696802
  26.7736050  48.5640142  69.6516997  28.0764184  48.1184254  69.0224079
  31.0124731  48.3037012  73.5851141  31.7885121  48.7933464  73.8575758
  30.2872865  48.7295066  74.0423011  33.4497289  49.0164631  74.6425082
  34.0441780  48.7760367  73.9318390  33.5223873  48.2971762  75.2698618
  15.6694445  62.8598242  74.9568247  15.5348913  62.0998643  74.3906245
  15.2526507  63.5839142  74.4897036  26.8053408  58.0435166  63.9644822
  27.5089258  58.2485168  64.5802478  26.0816057  58.6111928  64.2293905
  27.6351218  53.7945027  70.0847092  27.5786420  54.2513578  69.2454724
  28.1879561  53.0335712  69.9069935  31.4456024  49.5834759  70.9097212
  31.1892958  49.1831394  71.7405419  30.8208892  50.2978553  70.7847351
  18.8263571  63.7567559  75.1686689  18.7095955  64.7012992  75.0665380
  18.0056017  63.4541121  75.5572488  28.7140105  58.4817695  66.0143282
  29.5485709  58.0498893  65.8320757  28.5524448  58.3099709  66.9420176
  28.3685998  54.9849808  67.3799621  28.3134801  54.8194080  66.4388065
  27.7432053  55.6925841  67.5361811  13.1578513  50.2217873  81.2061043
  13.8037376  49.7116827  81.6948269  12.9495664  50.9586554  81.7804469
  25.6831905  57.2898720  86.7053184  26.5523064  57.4639372  86.3439819
  25.2038656  58.1093137  86.5828913  21.6782123  44.4857917  66.9584940
  21.6660793  45.4299757  67.1153211  22.5705545  44.3028063  66.6644401
  19.8518085  64.4095821  78.3842618  20.7545332  64.4419431  78.7009113
  19.6255455  63.4796272  78.3988953  21.6071687  63.1626808  75.0452696
  20.6567318  63.1628669  74.9317069  21.9104173  62.4159542  74.5288731
  25.4934242  41.0800694  71.2130876  24.7266638  40.5259181  71.3587559
  25.9044947  41.1522563  72.0745028  17.4976004  47.3685490  85.3036058
  18.3607465  47.0122294  85.5139382  16.9241414  47.0299384  85.9911462
  29.5156088  71.5610355  67.7458474  30.2886964  71.0139342  67.6071349
  29.8681487  72.4254605  67.9572935  31.8522366  67.7203021  65.3776924
  32.1047887  67.1984543  64.6160387  30.9146925  67.5569167  65.4803607
  31.5718655  69.6231127  67.5801298  31.4554913  68.9476031  68.2482383
  31.6820915  69.1363501  66.7633452  33.5555683  64.1131174  66.2809336
  33.7230085  64.9811411  66.6479807  33.3652852  64.2758456  65.3570625
  33.5344904  66.5688832  67.2656003  33.4144529  67.0145882  68.1041483
  32.8397492  66.9174149  66.7069541  32.3296400  67.8833684  69.5589569
  33.0320443  68.3354727  70.0263495  31.9977029  67.2417503  70.1869462
  28.0236479  66.5061816  71.8190179  27.2267643  66.6180510  72.3373675
  27.7962072  66.8448468  70.9531070  36.9182628  58.2205188  78.1650567
  36.5746898  59.1106830  78.0889678  37.2861591  58.0306846  77.3020153
  34.4680022  63.0563500  71.7308241  33.6121618  62.6670351  71.5513880
  34.8806974  63.1355461  70.8708027  35.9979169  60.5909843  76.1299801
  35.4943964  60.5539979  75.3167606  36.2909775  61.5002586  76.1896457
  29.8484374  62.9050781  72.5082349  30.4228125  62.6825963  71.7755542
  30.4355356  62.9739476  73.2610951  30.1753961  64.9355242  66.5278235
  29.3391273  65.2729929  66.8487509  30.0358730  64.8004222  65.5905372
  32.1507041  59.7792030  71.2357419  31.4971454  59.4641047  70.6114033
  32.1087515  59.1567770  71.9617242  25.0094650  67.8829434  71.6549903
  24.8119050  67.2898795  70.9300970  24.4541314  67.5781644  72.3725842
  30.9283734  66.3929600  71.5334875  30.1151599  66.6923771  71.9400067
  31.4242728  65.9985289  72.2509357  27.5040876  67.4093468  69.3390855
  26.5738464  67.3477923  69.5560817  27.5998348  66.8869421  68.5427496
  27.4226425  63.9348281  71.9269097  27.6833242  64.8493614  71.8178257
  28.2443597  63.4672723  72.0765710  30.0492341  64.7802470  63.7276141
  29.1721807  64.6591270  63.3638388  30.5250094  63.9888548  63.4755030
  21.5694481  69.5679629  73.8217648  22.2565521  69.2541359  73.2338664
  21.4142610  70.4720994  73.5484900  36.5452917  62.9423389  73.6172867
  37.0421617  62.1893352  73.2973937  35.7739899  62.9787706  73.0516077
  21.1462457  67.6480223  76.0935116  21.1846557  67.1143813  76.8872234
  20.6402750  67.1215428  75.4746093  28.5253219  62.4944763  79.5897658
  28.5894546  63.3559594  79.1775056  28.4620340  61.8818765  78.8570016
  24.7771035  66.3744325  69.1689047  25.0724476  65.4655003  69.1156101
  23.8759071  66.3532064  68.8470049  28.3065282  64.4500321  75.1516596
  27.5851868  65.0636289  75.0124069  29.0958538  64.9858086  75.0733242
  26.5058876  64.0558422  69.2928372  26.1771583  63.1755801  69.1103478
  26.8598247  64.0006091  70.1804761  29.6200700  64.3431392  69.6603850
  29.9596772  64.8717314  68.9382458  30.0672820  64.6811798  70.4362416
  32.3144140  62.7268443  79.1106918  31.9740961  61.9276256  79.5127598
  31.6083147  63.0270154  78.5383751  32.9660612  59.8117755  77.5634241
  33.7886681  59.3378234  77.4413131  33.2098676  60.5908239  78.0632927
  31.6068847  62.8406014  67.8597143  32.3277209  63.2187267  67.3560859
  30.9834151  63.5594891  67.9632121  32.3495574  63.4939424  75.4207109
  32.3357143  62.5980517  75.0839407  33.0668002  63.5010088  76.0545395
  31.7532470  62.3753804  70.6894679  31.8748381  61.4470451  70.8885567
  31.4634512  62.3892490  69.7772995  34.6223660  60.0608715  73.8261399
  34.6445357  60.1248048  72.8713379  35.0391719  59.2213223  74.0201905
  28.4815162  69.9873115  69.7871635  28.2361204  69.0835445  69.9851845
  28.6511076  69.9890265  68.8451113  36.1711872  60.8596791  79.1696391
  36.6893815  61.5957818  78.8442879  35.8167004  61.1660784  80.0043150
  27.7510809  65.7201472  67.2857797  27.0580054  65.7945827  66.6297833
  27.5062561  64.9561816  67.8079314  36.4224466  57.2797074  74.6897287
  36.7026219  56.6120263  75.3157714  37.2075073  57.4726169  74.1771951
  34.6104733  67.7916880  63.5938366  35.5563837  67.6623088  63.6626784
  34.2318978  67.0531542  64.0707794  32.7947650  65.7166857  63.5293251
  31.8879105  65.4199969  63.6055965  33.0723631  65.4196675  62.6627538
  23.7125590  67.0373220  73.9792298  23.3928375  66.1838528  73.6866672
  23.1659018  67.2521798  74.7350265  34.4109716  60.2603746  69.6837493
  33.6010444  59.9150831  70.0592739  35.0994133  59.9511290  70.2725104
  36.3400264  59.3381793  71.3061789  36.8931302  59.7577247  71.9651813
  36.5770350  58.4117541  71.3484745  31.5646434  62.5753792  63.6705231
  32.4265598  62.9008690  63.9301048  31.7496779  61.7885288  63.1578296
  32.5175878  59.8149835  66.9584940  32.5054547  60.7591675  67.1153211
  33.4099299  59.6319980  66.6644401  36.3327997  56.4092611  71.2130876
  35.5660393  55.8551098  71.3587559  36.7438702  56.4814480  72.0745028
  40.8494657  86.1342168  72.0356874  40.2859522  86.0432105  71.2673162
  40.7347052  85.3142073  72.5159367  46.4294216  89.8013136  67.3471339
  45.7782195  90.3867216  66.9605353  47.2238578  90.3319331  67.4066377
  40.3549843  86.8902273  67.7458474  41.1280719  86.3431260  67.6071349
  40.7075242  87.7546522  67.9572935  42.6916121  83.0494939  65.3776924
  42.9441641  82.5276460  64.6160387  41.7540680  82.8861085  65.4803607
  47.9069481  87.4903568  67.8840324  47.2715314  87.5638194  68.5961228
  47.5766887  88.0797167  67.2059403  42.4112409  84.9523045  67.5801298
  42.2948667  84.2767948  68.2482383  42.5214669  84.4655419  66.7633452
  44.7543950  84.4133192  71.2847988  44.3902158  83.8863813  71.9960909
  45.6111066  84.0231661  71.1114473  42.1345550  94.6684391  70.9146134
  42.0569580  95.6192216  70.9934615  41.5307194  94.3230264  71.5721061
  50.0723724  82.3702223  68.0936337  50.9841580  82.6029609  67.9184035
  49.5633371  82.9539267  67.5311416  59.0185291  85.1553142  73.9596955
  58.2648999  84.5860540  73.8040959  59.1532832  85.1215806  74.9067589
  44.4083919  90.0266544  69.6351674  44.2729594  90.8718080  70.0636522
  44.9493732  90.2285822  68.8717608  37.8613317  87.5441982  70.2079599
  38.3737837  88.3385232  70.3585164  38.5136029  86.8468273  70.1413201
  39.6708201  90.6607738  72.2902352  39.8474830  91.5825703  72.1023336
  40.4665035  90.3466158  72.7196732  40.7939517  92.1785912  78.2912695
  41.3446942  92.0502976  77.5189689  39.9550993  92.4780801  77.9407587
  35.8262233  85.8730636  70.9839170  36.6637455  86.2827645  70.7672877
  36.0040501  84.9330079  70.9539364  47.7226665  83.5405717  66.6723003
  47.2073289  84.3110322  66.9111390  47.4503974  82.8670853  67.2956064
  52.6960940  86.2938072  68.6076176  51.9190382  85.9549231  68.1631338
  53.3752421  86.2990695  67.9331141  45.9559400  87.5723033  70.1475738
  45.4280762  86.8375792  69.8348975  45.4546903  88.3497709  69.9015706
  44.1012001  85.3903243  63.1510711  43.1939062  85.1592496  63.3501860
  44.5983033  84.5940862  63.3384692  47.0080080  94.1000750  66.0707397
  46.3341778  94.4032447  66.6792355  47.3945901  94.9029830  65.7212854
  45.2800234  85.4915838  67.6734701  44.3711453  85.2074870  67.7707171
  45.3095318  85.9114916  66.8138008  48.9552441  90.9398924  72.3775687
  49.2475415  91.5003981  71.6588052  49.4651061  91.2327485  73.1328846
  35.8488404  83.2121352  71.6549903  35.6512804  82.6190712  70.9300970
  35.2935068  82.9073562  72.3725842  44.9776322  87.0324581  65.0122779
  44.5395752  86.3160440  64.5528417  45.7186763  87.2600696  64.4507871
  43.9186066  91.7179275  73.4669140  43.8762245  91.9440121  72.5377672
  44.8348765  91.4842649  73.6154941  53.0949437  85.3081778  71.0699098
  52.9567335  85.4983374  70.1420287  52.7385655  86.0701161  71.5267149
  42.0351867  88.5942304  73.2631103  42.8292465  88.0992624  73.0613677
  41.3243559  88.0660167  72.8998808  45.2071295  94.2680422  68.2854476
  45.3823050  93.7968466  69.1000099  44.5204083  94.8946189  68.5135737
  49.0987550  85.8908963  64.6054837  48.4816720  85.1655791  64.5087890
  48.6304038  86.6518323  64.2621911  39.7732380  97.4169785  75.0594336
  40.0128978  98.0488309  75.7373355  38.9301576  97.0657825  75.3459696
  44.0750021  92.4620678  70.9738662  43.2917543  93.0042358  71.0676886
  44.7742767  92.9794657  71.3732903  48.4676452  87.0286994  71.1911291
  47.5332731  87.1488457  71.0215995  48.6453121  86.1259461  70.9271300
  51.8549004  82.8704314  71.7261325  52.3209456  83.7032305  71.6521627
  52.3056504  82.4049295  72.4306583  49.9225235  89.2148135  68.7247477
  50.1985079  89.1004729  69.6341351  49.0529733  88.8165620  68.6859650
  46.5579299  93.4634486  72.3680290  46.7401693  92.6456142  72.8308043
  47.3812285  93.6802178  71.9305180  46.8921464  92.3902671  69.6295339
  47.4209231  91.8795125  69.0165501  47.1549684  92.0745201  70.4940872
  37.3938557  90.4066540  77.3730672  37.9791994  89.6610228  77.5058577
  37.1963395  90.7170497  78.2567336  40.2477212  93.4417788  72.3893115
  39.5787587  93.9263915  71.9057155  40.1090082  93.6887008  73.3036493
  44.3882481  95.4761531  78.9875773  44.9400789  95.6393153  79.7524858
  44.7288674  96.0665969  78.3155798  47.5250868  93.4243507  75.9739455
  47.4002007  92.6233246  75.4650401  48.1829959  93.9189700  75.4853425
  46.5932210  91.0205243  73.8023358  46.4457172  90.0921950  73.9830928
  47.4185703  91.0425334  73.3180433  49.9861648  92.3619469  70.2450322
  50.1598525  91.7965892  69.4924174  50.4790539  93.1620364  70.0629812
  55.8401039  85.1255892  71.8640622  56.2832185  84.3763217  71.4659745
  54.9627549  85.1166028  71.4814354  50.9736820  91.6786233  67.3447220
  51.6687725  92.2992926  67.5634535  51.3159970  90.8281585  67.6199598
  52.8728243  89.1285939  68.8734551  53.3979567  89.4673212  68.1483871
  52.7850596  88.1932954  68.6897686  44.5568904  95.1957922  73.2329804
  44.1173894  94.7034301  73.9262661  45.3077021  94.6530890  72.9921879
  37.0361243  91.3869463  73.2354432  37.8619263  91.0873235  72.8553076
  36.6855295  90.6177086  73.6844221  42.0042776  90.7395931  75.3052106
  41.3822786  90.0766636  75.0054334  42.6747643  90.7657063  74.6225754
  35.2369848  89.3055790  74.1943366  34.4001756  88.8777964  74.0127367
  35.2093494  89.4988233  75.1314157  41.5656283  89.2899855  68.7810566
  41.7144404  89.9735319  68.1277239  42.3722727  89.2704945  69.2960022
  39.3208916  85.3165032  69.7871635  39.0754958  84.4127362  69.9851845
  39.4904831  85.3182183  68.8451113  45.0651689  91.7847985  66.2522314
  44.4925656  92.4038172  65.7992786  45.6384482  92.3347347  66.7862236
  48.2848948  92.0685135  67.3830896  49.2179622  92.0030697  67.5863772
  48.1972161  92.9041402  66.9245429  50.9136965  91.3851006  64.3434844
  50.8350597  91.0510869  65.2370602  51.7346632  91.8772774  64.3426316
  45.4498487  83.1208798  63.5938366  46.3957592  82.9915006  63.6626784
  45.0712732  82.3823460  64.0707794  37.3481954  93.5182077  74.9568247
  37.2136422  92.7582478  74.3906245  36.9314016  94.2422977  74.4897036
  48.4840917  88.7019001  63.9644822  49.1876767  88.9069004  64.5802478
  47.7603566  89.2695763  64.2293905  53.1243533  80.2418594  70.9097212
  52.8680467  79.8415230  71.7405419  52.4996401  80.9562388  70.7847351
  40.5051080  94.4151395  75.1686689  40.3883464  95.3596827  75.0665380
  39.6843526  94.1124956  75.5572488  50.3927614  89.1401530  66.0143282
  51.2273218  88.7082729  65.8320757  50.2311957  88.9683544  66.9420176
  50.0473507  85.6433644  67.3799621  49.9922310  85.4777915  66.4388065
  49.4219562  86.3509676  67.5361811  41.5305594  95.0679656  78.3842618
  42.4332841  95.1003267  78.7009113  41.3042964  94.1380107  78.3988953
  43.2859196  93.8210643  75.0452696  42.3354827  93.8212505  74.9317069
  43.5891682  93.0743378  74.5288731  59.0211889  99.6571181  76.1098459
  59.6590299  99.5377929  75.4061799  58.9032732 100.6052025  76.1686411
  55.8301596  99.6098609  76.0459983  55.4920107  99.4939674  75.1580518
  56.6991364  99.2089775  76.0260990  51.6888411 101.4634086  72.0356874
  51.1253277 101.3724023  71.2673162  51.5740806 100.6433990  72.5159367
  56.3121379 100.7633461  82.0046189  56.3010019 100.3686259  81.1326693
  56.4742018 100.0299534  82.5979960  49.2352843 102.9585277  74.8741095
  50.0274135 102.6176102  74.4587394  49.4749494 103.0680252  75.7943248
  57.2687970 105.1305054  67.3471339  56.6175950 105.7159134  66.9605353
  58.0632333 105.6611248  67.4066377  51.1943597 102.2194191  67.7458474
  51.9674473 101.6723178  67.6071349  51.5468996 103.0838440  67.9572935
  53.0328640 103.5470573  80.9525373  52.7418506 104.4516204  80.8372039
  53.6685624 103.5887101  81.6669442  53.9584847 100.9247421  77.5426733
  54.5548419 100.7003444  76.8283695  54.0159818 100.1832167  78.1452180
  53.5309875  98.3786857  65.3776924  53.7835396  97.8568378  64.6160387
  52.5934434  98.2153002  65.4803607  58.5753158  97.3822635  73.1851667
  59.3616247  96.9642058  72.8342084  58.8391862  98.2868727  73.3533315
  58.7463235 102.8195485  67.8840324  58.1109068 102.8930112  68.5961228
  58.4160642 103.4089084  67.2059403  63.9761585  97.3197868  74.0884645
  64.7086757  96.7497085  74.3222475  63.2200941  96.9319469  74.5291151
  53.2506164 100.2814963  67.5801298  53.1342422  99.6059866  68.2482383
  53.3608424  99.7947337  66.7633452  55.5937705  99.7425110  71.2847988
  55.2295912  99.2155731  71.9960909  56.4504821  99.3523579  71.1114473
  55.2343192  94.7715010  66.2809336  55.4017594  95.6395246  66.6479807
  55.0440361  94.9342291  65.3570625  57.9918525 103.2331988  77.9475167
  57.6919248 104.1357027  77.8390974  57.6469584 102.9664172  78.7996319
  51.4431006  99.6845785  73.9811871  50.5181503  99.5521999  74.1889563
  51.6915420 100.4640005  74.4781813  61.3915669  95.7514529  75.6272604
  60.4832546  95.6829937  75.3331365  61.3403265  96.2286474  76.4554429
  55.2132413  97.2272667  67.2656003  55.0932038  97.6729718  68.1041483
  54.5185001  97.5757985  66.7069541  48.8039817  99.3279059  74.8155660
  48.9332199  99.5813538  75.7295072  48.1237269  99.9206767  74.4960315
  52.9739305 109.9976309  70.9146134  52.8963334 110.9484134  70.9934615
  52.3700948 109.6522181  71.5721061  63.2577315  93.9530967  77.4050478
  62.6151695  94.2463500  76.7590272  62.7532244  93.8383887  78.2103675
  60.9117479  97.6994140  68.0936337  61.8235335  97.9321527  67.9184035
  60.4027126  98.2831184  67.5311416  53.7202907  99.9789628  83.1325468
  54.4617591 100.5174672  82.8560292  53.0139892 100.6055916  83.2897020
  59.1958246 102.1218768  81.7297630  59.6041602 101.6801179  80.9852262
  58.4735508 101.5471396  81.9831823  55.5489317  97.0591375  79.1031187
  56.3950512  97.4830788  79.2465836  55.4887954  96.4024999  79.7969750
  59.5187061 102.6819959  75.4849919  58.8895924 102.8465673  74.7825986
  59.1312723 103.0961568  76.2560883  63.3976293 103.6174397  72.8394282
  62.7127331 103.9973298  72.2891316  63.4820142 104.2269723  73.5726230
  60.6527225 101.2634356  79.4389626  60.8644120 101.9066115  78.7624007
  60.6056973 100.4296672  78.9711556  58.2553454  93.8752176  76.3426198
  57.3937933  94.1733430  76.6342936  58.2815888  94.0922575  75.4107231
  55.0715023 102.4194367  72.7500004  55.5353369 102.6982070  71.9604626
  54.8071821 101.5177811  72.5673094  51.9639104 101.9665848  75.6879767
  52.5340461 102.3953117  75.0497251  52.5547216 101.6848433  76.3863953
  54.0083909  98.5417519  69.5589569  54.7107952  98.9938563  70.0263495
  53.6764538  97.9001338  70.1869462  52.4564271  97.1329276  83.9340778
  51.8262931  97.8145557  84.1676175  52.3500358  97.0212357  82.9893916
  47.7509243  96.8001072  74.8606702  46.9608297  97.0558600  74.3846813
  48.2420490  97.6149410  74.9658743  61.7673053 104.1406311  77.6111983
  62.5890496 103.7386498  77.3294665  61.7635455 104.0374545  78.5628099
  49.7023988  97.1645651  71.8190179  48.9055152  97.2764345  72.3373675
  49.4749581  97.5032303  70.9531070  55.5329656 103.6890354  79.7672694
  55.5974089 104.1510762  80.6030866  54.8240580 103.0587719  79.8955004
  46.0346946  97.0531562  77.2921693  46.2854984  97.9378572  77.5579269
  46.5706494  96.8736164  76.5196785  69.8579046 100.4845059  73.9596955
  69.1042754  99.9152458  73.8040959  69.9926587 100.4507724  74.9067589
  55.2477674 105.3558462  69.6351674  55.1123348 106.2009998  70.0636522
  55.7887486 105.5577739  68.8717608  48.7007071 102.8733900  70.2079599
  49.2131592 103.6677150  70.3585164  49.3529784 102.1760190  70.1413201
  50.5101956 105.9899656  72.2902352  50.6868584 106.9117621  72.1023336
  51.3058789 105.6758075  72.7196732  49.7954312  98.0364288  82.1664515
  49.6807827  97.1349545  82.4671614  48.9398830  98.2827985  81.8149332
  56.8746150 105.9782028  83.7652016  56.4310004 105.1918407  83.4472921
  57.5363364 106.1661179  83.0995907  51.6333271 107.5077830  78.2912695
  52.1840696 107.3794893  77.5189689  50.7944747 107.8072719  77.9407587
  58.9727388 106.2584828  81.7933417  58.9545863 107.0793709  81.3013687
  59.8947308 106.1338903  82.0183559  55.4300442 103.7728958  82.6356926
  55.9628779 103.0117246  82.4056234  54.9014523 103.4802610  83.3781080
  46.6655988 101.2022554  70.9839170  47.5031210 101.6119562  70.7672877
  46.8434256 100.2621996  70.9539364  58.5620420  98.8697635  66.6723003
  58.0467043  99.6402239  66.9111390  58.2897728  98.1962771  67.2956064
  56.1467531  93.7147336  71.7308241  55.2909127  93.3254186  71.5513880
  56.5594483  93.7939296  70.8708027  57.6766678  91.2493679  76.1299801
  57.1731473  91.2123814  75.3167606  57.9697284  92.1586422  76.1896457
  63.5354694 101.6229989  68.6076176  62.7584137 101.2841149  68.1631338
  64.2146175 101.6282613  67.9331141  58.3506723  96.7424727  68.4982784
  58.0456859  97.0570876  69.3492927  59.3037165  96.8206147  68.5410117
  56.7953155 102.9014950  70.1475738  56.2674517 102.1667710  69.8348975
  56.2940658 103.6789627  69.9015706  61.7746001 101.0963971  75.2642784
  61.1169675 101.7863232  75.3522913  62.5786400 101.4860403  75.6076770
  51.5271883  93.5634616  72.5082349  52.1015634  93.3409798  71.7755542
  52.1142865  93.6323311  73.2610951  60.5851460  99.4508343  73.3146726
  61.0983342 100.0838335  73.8168436  61.2352684  98.8509539  72.9490086
  51.8541470  95.5939077  66.5278235  51.0178782  95.9313764  66.8487509
  51.7146239  95.4588057  65.5905372  53.8294550  90.4375865  71.2357419
  53.1758963  90.1224883  70.6114033  53.7875024  89.8151606  71.9617242
  54.9405755 100.7195160  63.1510711  54.0332817 100.4884414  63.3501860
  55.4376787  99.9232780  63.3384692  57.8473834 109.4292668  66.0707397
  57.1735533 109.7324364  66.6792355  58.2339656 110.2321748  65.7212854
  57.0632291  96.9257799  75.5605066  56.1454852  97.1472746  75.4026754
  57.4792434  97.0004109  74.7016774  57.8467338  98.3249215  70.6907747
  58.5939157  98.8370612  70.3814869  58.1158928  98.0033267  71.5512140
  56.1193989 100.8207755  67.6734701  55.2105208 100.5366788  67.7707171
  56.1489072 101.2406834  66.8138008  61.3513256 104.4314345  71.4425868
  60.8975583 103.5905255  71.4991059  60.7207223 105.0675743  71.7800649
  60.2946176  95.3606331  72.6726536  59.5568932  94.8483717  73.0036778
  60.5472949  94.9206712  71.8609813  59.7946195 106.2690842  72.3775687
  60.0869170 106.8295899  71.6588052  60.3044816 106.5619402  73.1328846
  60.3957803  88.1382583  73.2668305  60.7016680  87.2779946  72.9794220
  61.1210408  88.7300203  73.0667299  46.6882159  98.5413269  71.6549903
  46.4906559  97.9482630  70.9300970  46.1328823  98.2365480  72.3725842
  54.6678883  98.4336376  73.7744496  54.7227492  97.4810212  73.6986973
  53.8570085  98.5895815  74.2585795  55.8170076 102.3616499  65.0122779
  55.3789506 101.6452358  64.5528417  56.5580517 102.5892614  64.4507871
  52.6071243  97.0513436  71.5334875  51.7939108  97.3507606  71.9400067
  53.1030237  96.6569124  72.2509357  54.7579820 107.0471193  73.4669140
  54.7155999 107.2732039  72.5377672  55.6742519 106.8134567  73.6154941
  58.2045454  97.5155260  80.3649769  58.5594842  97.7426733  81.2244235
  58.8517585  97.8473637  79.7427024  63.9343191 100.6373696  71.0699098
  63.7961090 100.8275292  70.1420287  63.5779410 101.3993079  71.5267149
  52.0985317  94.6231791  77.1496110  52.7384697  94.4820550  76.4519073
  51.2662848  94.3366305  76.7734712  63.9612571 102.7050223  76.0810370
  64.3949077 102.6125512  76.9293424  64.6744151 102.6807723  75.4430386
  52.8745621 103.9234222  73.2631103  53.6686220 103.4284542  73.0613677
  52.1637314 103.3952085  72.8998808  57.6940466 106.3052317  77.6143470
  57.7477488 106.8743253  78.3821186  56.8255247 106.4754202  77.2497507
  49.1828385  98.0677303  69.3390855  48.2525973  98.0061759  69.5560817
  49.2785857  97.5453256  68.5427496  49.1013934  94.5932116  71.9269097
  49.3620751  95.5077449  71.8178257  49.9231106  94.1256559  72.0765710
  50.5738859  96.0069873  79.0967921  51.2461912  95.7987235  78.4480570
  49.7468646  95.8091959  78.6573154  64.8228120 102.7473924  78.6143255
  65.0164010 103.6519734  78.8602530  64.7228738 102.2881343  79.4481840
  59.8843229 102.8980666  84.1884136  59.7328735 102.6691218  83.2714219
  59.8747908 103.8551268  84.2015481  56.6528565 100.4712579  79.1730402
  57.5820625 100.6223739  78.9999369  56.2319595 100.5596600  78.3179049
  55.4516897 104.4963244  76.9428940  55.3127983 104.1282028  77.8154878
  54.6631493 105.0110883  76.7712897  56.0465049 109.5972340  68.2854476
  56.2216805 109.1260383  69.1000099  55.3597837 110.2238106  68.5135737
  57.0022112 103.8744846  74.3317777  56.6671945 103.8345616  75.2275427
  56.5026058 103.2089562  73.8588188  50.9766356  99.2812476  79.8570359
  50.8386154  98.5492715  80.4581898  51.8871280  99.1921376  79.5754546
  59.9381304 101.2200881  64.6054837  59.3210475 100.4947709  64.5087890
  59.4697792 101.9810241  64.2621911  53.6048657  98.9932436  79.3454038
  54.3148275  98.3525628  79.3040657  53.5617965  99.2445330  80.2680219
  61.5935436 105.9299789  82.2660617  61.5347982 105.2459009  81.5991200
  61.9954954 106.6718779  81.8141243  52.3177591  95.9797654  81.1649678
  51.7814948  95.5288392  81.8171274  51.7294299  96.1143562  80.4220142
  50.6126134 112.7461703  75.0594336  50.8522733 113.3780227  75.7373355
  49.7695331 112.3949743  75.3459696  51.7279850  95.4386305  63.7276141
  50.8509316  95.3175106  63.3638388  52.2037603  94.6472383  63.4755030
  61.5952843 103.8939373  80.4974597  60.7079622 103.5565295  80.6200996
  62.1651394 103.1622404  80.7343362  43.2481990 100.2263465  73.8217648
  43.9353030  99.9125195  73.2338664  43.0930119 101.1304829  73.5484900
  48.0516712  95.1153661  78.2502672  47.9674901  94.5079331  77.5153082
  47.2299419  95.6062680  78.2512169  55.1253996 108.5540825  77.4635840
  55.0524168 109.3595797  77.9755145  54.6831389 108.7532791  76.6383862
  54.9143776 107.7912595  70.9738662  54.1311298 108.3334275  71.0676886
  55.6136521 108.3086575  71.3732903  58.2240426  93.6007225  73.6172867
  58.7209126  92.8477187  73.2973937  57.4527408  93.6371541  73.0516077
  66.0770183  99.3047590  75.2591159  66.0660060 100.1872306  74.8885092
  65.2087563  98.9519141  75.0645696  57.5852680 108.4527659  79.6193999
  58.2980652 109.0875124  79.5469900  57.0942708 108.5491525  78.8034001
  59.3070207 102.3578912  71.1911291  58.3726485 102.4780374  71.0215995
  59.4846875 101.4551379  70.9271300  54.8075395  95.7424608  73.3444552
  54.4373182  95.1895648  74.0325457  55.3034487  95.1382741  72.7919552
  62.6942758  98.1996231  71.7261325  63.1603210  99.0324223  71.6521627
  63.1450259  97.7341213  72.4306583  52.6364593 106.2022103  80.4399570
  53.3374053 106.8358586  80.5928964  52.1659708 106.5436834  79.6795209
  60.7618989 104.5440053  68.7247477  61.0378833 104.4296647  69.6341351
  59.8923488 104.1457537  68.6859650  60.4365879  98.7566710  78.2652120
  59.7837330  99.0042618  77.6104573  60.8146259  97.9430848  77.9314597
  57.3973053 108.7926403  72.3680290  57.5795448 107.9748059  72.8308043
  58.2206039 109.0094096  71.9305180  57.7315219 107.7194589  69.6295339
  58.2602985 107.2087043  69.0165501  57.9943438 107.4037119  70.4940872
  48.2332311 105.7358458  77.3730672  48.8185748 104.9902146  77.5058577
  48.0357150 106.0462415  78.2567336  51.0870967 108.7709705  72.3893115
  50.4181342 109.2555833  71.9057155  50.9483836 109.0178926  73.3036493
  42.8249966  98.3064058  76.0935116  42.8634066  97.7727649  76.8872234
  42.3190259  97.7799264  75.4746093  55.2276235 110.8053449  78.9875773
  55.7794543 110.9685070  79.7524858  55.5682429 111.3957887  78.3155798
  49.6793001  95.2251731  83.2370692  50.3065040  94.8428808  83.8508216
  48.8220920  95.0065933  83.6026385  60.0787110 105.6314706  84.8424428
  60.6227014 106.2444665  84.3479382  59.4973954 106.1894285  85.3591441
  46.4558544  97.0328160  69.1689047  46.7511985  96.1238839  69.1156101
  45.5546580  97.0115900  68.8470049  58.3644623 108.7535424  75.9739455
  58.2395762 107.9525164  75.4650401  59.0223714 109.2481618  75.4853425
  49.9852791  95.1084157  75.1516596  49.2639377  95.7220124  75.0124069
  50.7746047  95.6441922  75.0733242  60.4279531 106.5544444  77.6019005
  59.4809866 106.4349796  77.5297332  60.7762304 105.6666942  77.6845267
  48.1846385  94.7142258  69.2928372  47.8559091  93.8339637  69.1103478
  48.5385756  94.6589927  70.1804761  57.4325964 106.3497161  73.8023358
  57.2850927 105.4213868  73.9830928  58.2579458 106.3717251  73.3180433
  51.2988208  95.0015228  69.6603850  51.6384281  95.5301149  68.9382458
  51.7460329  95.3395634  70.4362416  61.0360086 107.1725719  74.8888230
  61.9606634 106.9668581  74.7512682  60.8675389 106.9242120  75.7977572
  53.2856356  93.4989849  67.8597143  54.0064718  93.8771102  67.3560859
  52.6621660  94.2178726  67.9632121  57.4287479  94.2034998  68.7955475
  57.6451093  95.0859636  68.4944303  56.9481546  93.8121212  68.0661117
  52.1686700  97.1620711  75.3726220  52.0231281  97.4761014  76.2650501
  51.6911904  97.7805612  74.8197118  54.0283083  94.1523259  75.4207109
  54.0144652  93.2564353  75.0839407  54.7455511  94.1593923  76.0545395
  55.8809213  94.5860600  77.4660236  55.6226991  95.5077670  77.4644567
  55.3494254  94.1891034  78.1560701  60.8255402 107.6911387  70.2450322
  60.9992280 107.1257809  69.4924174  61.3184293 108.4912282  70.0629812
  46.6432362  99.7026056  78.3113881  46.0985830 100.4785864  78.4434155
  47.5211712 100.0496860  78.1533002  53.4319979  93.0337640  70.6894679
  53.5535890  92.1054286  70.8885567  53.1422021  93.0476326  69.7772995
  56.3011169  90.7192550  73.8261399  56.3232866  90.7831883  72.8713379
  56.7179228  89.8797059  74.0201905  66.6794793 100.4547810  71.8640622
  67.1225939  99.7055135  71.4659745  65.8021304 100.4457946  71.4814354
  61.8130575 107.0078151  67.3447220  62.5081479 107.6284844  67.5634535
  62.1553725 106.1573502  67.6199598  47.4298384  98.8295952  81.2044038
  46.6880120  98.9778587  81.7908668  47.1091128  99.0904218  80.3410787
  63.7121998 104.4577857  68.8734551  64.2373322 104.7965129  68.1483871
  63.6244350 103.5224872  68.6897686  55.3742047 108.3711930  81.0024428
  55.6829173 108.1261077  81.8747127  56.1717529 108.5758569  80.5143298
  55.3962659 110.5249840  73.2329804  54.9567649 110.0326219  73.9262661
  56.1470776 109.9822808  72.9921879  47.8754998 106.7161381  73.2354432
  48.7013018 106.4165153  72.8553076  47.5249050 105.9469003  73.6844221
  52.8436531 106.0687849  75.3052106  52.2216540 105.4058554  75.0054334
  53.5141398 106.0948981  74.6225754  46.0763603 104.6347707  74.1943366
  45.2395511 104.2069882  74.0127367  46.0487248 104.8280151  75.1314157
  63.4015904 105.0910760  84.1785749  62.6111448 105.0734899  83.6390248
  63.1649258 105.6299054  84.9334785  63.5213779 101.9403227  81.4918477
  63.5711784 101.7753234  82.4334000  63.4127702 101.0730486  81.1016358
  52.4050038 104.6191772  68.7810566  52.5538158 105.3027237  68.1277239
  53.2116481 104.5996862  69.2960022  60.8117541  97.9234155  82.8077784
  61.7127404  97.7840620  82.5161782  60.8865516  98.0888610  83.7475962
  65.0231976 104.3600168  81.7360499  64.7316784 104.7230149  82.5723960
  64.4104107 103.6467176  81.5573831  66.2227658 101.9253048  74.2563069
  67.0574550 102.3642852  74.4200630  66.3586787 101.4491701  73.4371315
  63.2719164  99.4832783  80.2040557  63.7473286  99.6760429  79.3959408
  62.3484729  99.5391969  79.9583941  50.1602671 100.6456950  69.7871635
  49.9148713  99.7419280  69.9851845  50.3298585 100.6474100  68.8451113
  49.4298318  96.3785308  67.2857797  48.7367563  96.4529663  66.6297833
  49.1850070  95.6145651  67.8079314  55.9045443 107.1139903  66.2522314
  55.3319410 107.7330090  65.7992786  56.4778237 107.6639265  66.7862236
  61.9720833  96.3598543  78.4368863  62.9238256  96.4596641  78.4581087
  61.8024283  95.5676811  78.9466947  59.1242703 107.3977053  67.3830896
  60.0573376 107.3322615  67.5863772  59.0365916 108.2333320  66.9245429
  61.7530720 106.7142923  64.3434844  61.6744351 106.3802787  65.2370602
  62.5740386 107.2064691  64.3426316  64.4508911  99.5804663  77.5511162
  64.4185231  98.6420663  77.7370846  65.0609534  99.6588699  76.8176987
  56.2892242  98.4500716  63.5938366  57.2351346  98.3206924  63.6626784
  55.9106487  97.7115377  64.0707794  64.6003399  96.3715706  77.5969445
  64.0842448  95.5874163  77.4099374  65.4843348  96.0434423  77.7615965
  62.2614126  90.1156722  73.5565258  62.0638947  89.8071810  74.4408590
  62.8713832  90.8418361  73.6863188  70.2685461 100.6420669  76.6917199
  70.9988849 100.3805958  77.2524902  69.6592406  99.9049391  76.7319267
  68.3500758  98.7828532  77.2891650  67.6233921  98.6484497  76.6808142
  67.9348045  99.0905361  78.0948368  56.1730934 102.5018462  85.0539023
  57.0933944 102.6797061  85.2479070  56.1380517 101.5574507  84.9018722
  54.4735159  96.3750692  63.5293251  53.5666614  96.0783805  63.6055965
  54.7511140  96.0780510  62.6627538  45.3913099  97.6957055  73.9792298
  45.0715884  96.8422364  73.6866672  44.8446527  97.9105634  74.7350265
  49.1693007 100.4119496  77.6961804  49.3879017 101.3436604  77.7149838
  49.5818781 100.0527471  78.4816608  56.0897225  90.9187582  69.6837493
  55.2797953  90.5734667  70.0592739  56.7781642  90.6095125  70.2725104
  58.0187773  89.9965628  71.3061789  58.5718811  90.4161082  71.9651813
  58.2557859  89.0701377  71.3484745  53.2433943  93.2337627  63.6705231
  54.1053107  93.5592525  63.9301048  53.4284288  92.4469123  63.1578296
  45.2601359 101.3159967  75.9485419  44.5664831 100.9013920  75.4355374
  46.0074350 101.3580503  75.3518838  61.3966580  92.1066154  70.8140454
  60.8165249  92.7650958  70.4318506  61.1302513  91.2843498  70.4027871
  59.8470146  91.5071211  73.0161774  60.3469925  91.6187746  72.2076093
  60.4905754  91.2032264  73.6562582  47.1738102 101.2478221  73.8251434
  47.1508790 101.3465908  72.8733317  47.4838738 102.0943371  74.1468600
  49.8325480 103.3054376  77.9398049  50.7868733 103.2738318  77.8727980
  49.6338003 102.8444999  78.7548275  50.4224862 101.8755492  80.5068846
  51.2417751 102.3699570  80.5303684  50.6961669 100.9587460  80.4786414
  60.1791458  94.2666244  69.8696802  59.2917313  94.5515895  69.6516997
  60.5945447  94.1060007  69.0224079  63.5305994  94.2912765  73.5851141
  64.3066384  94.7809217  73.8575758  62.8054128  94.7170819  74.0423011
  65.9678553  95.0040384  74.6425082  66.5623044  94.7636120  73.9318390
  66.0405136  94.2847515  75.2698618  48.1875708 108.8473995  74.9568247
  48.0530176 108.0874396  74.3906245  47.7707771 109.5714895  74.4897036
  59.3234671 104.0310919  63.9644822  60.0270522 104.2360921  64.5802478
  58.5997320 104.5987681  64.2293905  60.1532482  99.7820780  70.0847092
  60.0967683 100.2389331  69.2454724  60.7060824  99.0211465  69.9069935
  63.9637288  95.5710512  70.9097212  63.7074222  95.1707147  71.7405419
  63.3390156  96.2854306  70.7847351  68.2749625  98.3106585  73.4168503
  67.7149183  98.3799774  74.1900065  67.6693129  98.1347570  72.6967999
  51.3444834 109.7443312  75.1686689  51.2277218 110.6888745  75.0665380
  50.5237281 109.4416874  75.5572488  61.2321369 104.4693448  66.0143282
  62.0666973 104.0374646  65.8320757  61.0705712 104.2975462  66.9420176
  60.8867261 100.9725561  67.3799621  60.8316065 100.8069833  66.4388065
  60.2613316 101.6801594  67.5361811  45.6759776  96.2093626  81.2061043
  46.3218640  95.6992580  81.6948269  45.4676927  96.9462307  81.7804469
  58.2013168 103.2774473  86.7053184  59.0704328 103.4515125  86.3439819
  57.7219920 104.0968890  86.5828913  54.1963386  90.4733670  66.9584940
  54.1842056  91.4175510  67.1153211  55.0886808  90.2903816  66.6644401
  52.3699348 110.3971574  78.3842618  53.2726595 110.4295184  78.7009113
  52.1436718 109.4672025  78.3988953  54.1252950 109.1502561  75.0452696
  53.1748581 109.1504422  74.9317069  54.4285437 108.4035295  74.5288731
  58.0115506  87.0676447  71.2130876  57.2447902  86.5134934  71.3587559
  58.4226211  87.1398316  72.0745028  50.0157267  93.3561243  85.3036058
  50.8788729  92.9998048  85.5139382  49.4422678  93.0175137  85.9911462
  69.8605644 114.9863099  76.1098459  70.4984054 114.8669846  75.4061799
  69.7426487 115.9343943  76.1686411  66.6695350 114.9390527  76.0459983
  66.3313862 114.8231592  75.1580518  67.5385118 114.5381692  76.0260990
  62.5282166 116.7926004  72.0356874  61.9647031 116.7015940  71.2673162
  62.4134561 115.9725908  72.5159367  67.1515133 116.0925379  82.0046189
  67.1403774 115.6978177  81.1326693  67.3135773 115.3591451  82.5979960
  60.0746598 118.2877195  74.8741095  60.8667890 117.9468020  74.4587394
  60.3143248 118.3972170  75.7943248  68.1081725 120.4596971  67.3471339
  67.4569704 121.0451052  66.9605353  68.9026087 120.9903166  67.4066377
  62.0337352 117.5486108  67.7458474  62.8068228 117.0015095  67.6071349
  62.3862751 118.4130358  67.9572935  63.8722394 118.8762491  80.9525373
  63.5812260 119.7808121  80.8372039  64.5079379 118.9179018  81.6669442
  64.7978601 116.2539339  77.5426733  65.3942173 116.0295362  76.8283695
  64.8553573 115.5124085  78.1452180  64.3703630 113.7078774  65.3776924
  64.6229150 113.1860296  64.6160387  63.4328189 113.5444920  65.4803607
  69.4146912 112.7114553  73.1851667  70.2010002 112.2933976  72.8342084
  69.6785617 113.6160645  73.3533315  69.5856990 118.1487403  67.8840324
  68.9502823 118.2222030  68.5961228  69.2554396 118.7381002  67.2059403
  74.8155340 112.6489786  74.0884645  75.5480511 112.0789003  74.3222475
  74.0594695 112.2611386  74.5291151  64.0899918 115.6106880  67.5801298
  63.9736176 114.9351784  68.2482383  64.2002178 115.1239254  66.7633452
  66.4331459 115.0717028  71.2847988  66.0689666 114.5447649  71.9960909
  67.2898575 114.6815497  71.1114473  72.3380760 106.3611360  78.5479254
  72.0064085 107.2306771  78.3240469  71.7426373 106.0447644  79.2273284
  66.0736946 110.1006927  66.2809336  66.2411349 110.9687164  66.6479807
  65.8834115 110.2634209  65.3570625  68.8312279 118.5623906  77.9475167
  68.5313003 119.4648945  77.8390974  68.4863339 118.2956089  78.7996319
  62.2824761 115.0137703  73.9811871  61.3575257 114.8813917  74.1889563
  62.5309174 115.7931922  74.4781813  72.2309423 111.0806446  75.6272604
  71.3226301 111.0121855  75.3331365  72.1797019 111.5578391  76.4554429
  66.0526167 112.5564585  67.2656003  65.9325792 113.0021636  68.1041483
  65.3578756 112.9049902  66.7069541  59.6433572 114.6570977  74.8155660
  59.7725953 114.9105455  75.7295072  58.9631023 115.2498685  74.4960315
  63.8133059 125.3268226  70.9146134  63.7357089 126.2776052  70.9934615
  63.2094703 124.9814099  71.5721061  66.3050289 112.4996092  83.5707501
  65.5283623 113.0590012  83.5610366  66.9440852 112.9852875  84.0922371
  74.0971070 109.2822885  77.4050478  73.4545450 109.5755418  76.7590272
  73.5925998 109.1675805  78.2103675  71.7511233 113.0286058  68.0936337
  72.6629089 113.2613445  67.9184035  71.2420880 113.6123102  67.5311416
  64.5596661 115.3081545  83.1325468  65.3011346 115.8466589  82.8560292
  63.8533647 115.9347834  83.2897020  70.0352001 117.4510686  81.7297630
  70.4435357 117.0093096  80.9852262  69.3129262 116.8763313  81.9831823
  66.3883071 112.3883293  79.1031187  67.2344266 112.8122706  79.2465836
  66.3281709 111.7316917  79.7969750  70.3580816 118.0111876  75.4849919
  69.7289678 118.1757591  74.7825986  69.9706478 118.4253486  76.2560883
  74.2370047 118.9466314  72.8394282  73.5521086 119.3265216  72.2891316
  74.3213897 119.5561641  73.5726230  69.5382516 110.0487661  80.7612360
  69.2943448 110.8029721  80.2246636  69.8142447 110.4273008  81.5959607
  71.4920979 116.5926273  79.4389626  71.7037874 117.2358033  78.7624007
  71.4450727 115.7588590  78.9711556  69.0947208 109.2044094  76.3426198
  68.2331687 109.5025347  76.6342936  69.1209643 109.4214493  75.4107231
  65.9108777 117.7486284  72.7500004  66.3747123 118.0273987  71.9604626
  65.6465576 116.8469729  72.5673094  62.8032859 117.2957766  75.6879767
  63.3734216 117.7245034  75.0497251  63.3940970 117.0140351  76.3863953
  64.8477664 113.8709437  69.5589569  65.5501707 114.3230480  70.0263495
  64.5158292 113.2293256  70.1869462  63.2958025 112.4621193  83.9340778
  62.6656686 113.1437474  84.1676175  63.1894113 112.3504275  82.9893916
  58.5902997 112.1292989  74.8606702  57.8002051 112.3850518  74.3846813
  59.0814245 112.9441327  74.9658743  72.6066807 119.4698229  77.6111983
  73.4284251 119.0678416  77.3294665  72.6029210 119.3666463  78.5628099
  60.5417743 112.4937569  71.8190179  59.7448906 112.6056263  72.3373675
  60.3143335 112.8324221  70.9531070  66.3723410 119.0182272  79.7672694
  66.4367843 119.4802679  80.6030866  65.6634334 118.3879637  79.8955004
  56.8740700 112.3823480  77.2921693  57.1248739 113.2670490  77.5579269
  57.4100249 112.2028081  76.5196785  80.6972800 115.8136977  73.9596955
  79.9436508 115.2444375  73.8040959  80.8320341 115.7799642  74.9067589
  66.0871428 120.6850379  69.6351674  65.9517103 121.5301915  70.0636522
  66.6281241 120.8869657  68.8717608  62.5738768 106.7641959  86.2966029
  62.1805713 106.2108158  86.9713673  63.3904908 107.0752538  86.6872547
  59.5400826 118.2025817  70.2079599  60.0525346 118.9969068  70.3585164
  60.1923538 117.5052108  70.1413201  61.3495710 121.3191574  72.2902352
  61.5262339 122.2409538  72.1023336  62.1452544 121.0049993  72.7196732
  65.4906729 108.1799838  83.8886286  66.2316442 108.7806992  83.8090748
  65.7224652 107.4377476  83.3304328  60.6348067 113.3656206  82.1664515
  60.5201582 112.4641463  82.4671614  59.7792585 113.6119902  81.8149332
  67.7139905 121.3073946  83.7652016  67.2703759 120.5210325  83.4472921
  68.3757118 121.4953096  83.0995907  62.4727026 122.8369748  78.2912695
  63.0234451 122.7086811  77.5189689  61.6338502 123.1364637  77.9407587
  69.8121143 121.5876746  81.7933417  69.7939618 122.4085627  81.3013687
  70.7341063 121.4630821  82.0183559  66.2694197 119.1020875  82.6356926
  66.8022534 118.3409164  82.4056234  65.7408278 118.8094527  83.3781080
  69.4363892 104.2080941  78.1650567  69.0928161 105.0982583  78.0889678
  69.8042854 104.0182599  77.3020153  57.5049742 116.5314472  70.9839170
  58.3424964 116.9411480  70.7672877  57.6828010 115.5913914  70.9539364
  69.4014174 114.1989552  66.6723003  68.8860798 114.9694157  66.9111390
  69.1291483 113.5254689  67.2956064  66.9861285 109.0439253  71.7308241
  66.1302882 108.6546104  71.5513880  67.3988237 109.1231214  70.8708027
  68.5160432 106.5785596  76.1299801  68.0125228 106.5415732  75.3167606
  68.8091039 107.4878339  76.1896457  64.7603318 106.6624326  75.1365982
  65.6256315 106.4667135  74.7771872  64.8280827 106.4334678  76.0635339
  74.3748449 116.9521907  68.6076176  73.5977891 116.6133067  68.1631338
  75.0539930 116.9574530  67.9331141  69.1900478 112.0716645  68.4982784
  68.8850613 112.3862794  69.3492927  70.1430920 112.1498064  68.5410117
  67.6346909 118.2306868  70.1475738  67.1068271 117.4959627  69.8348975
  67.1334412 119.0081544  69.9015706  72.6139755 116.4255888  75.2642784
  71.9563430 117.1155150  75.3522913  73.4180155 116.8152320  75.6076770
  62.3665637 108.8926534  72.5082349  62.9409389 108.6701716  71.7755542
  62.9536619 108.9615229  73.2610951  71.4245214 114.7800261  73.3146726
  71.9377096 115.4130253  73.8168436  72.0746438 114.1801457  72.9490086
  62.6935224 110.9230995  66.5278235  61.8572536 111.2605682  66.8487509
  62.5539994 110.7879975  65.5905372  64.6688305 105.7667783  71.2357419
  64.0152717 105.4516800  70.6114033  64.6268779 105.1443524  71.9617242
  65.7799510 116.0487078  63.1510711  64.8726571 115.8176332  63.3501860
  66.2770542 115.2524697  63.3384692  68.6867589 124.7584585  66.0707397
  68.0129287 125.0616282  66.6792355  69.0733410 125.5613666  65.7212854
  67.9026045 112.2549717  75.5605066  66.9848607 112.4764664  75.4026754
  68.3186189 112.3296027  74.7016774  68.6861093 113.6541132  70.6907747
  69.4332912 114.1662529  70.3814869  68.9552682 113.3325185  71.5512140
  66.9587743 116.1499673  67.6734701  66.0498962 115.8658706  67.7707171
  66.9882827 116.5698752  66.8138008  72.1907010 119.7606262  71.4425868
  71.7369338 118.9197172  71.4991059  71.5600977 120.3967661  71.7800649
  71.1339930 110.6898249  72.6726536  70.3962687 110.1775635  73.0036778
  71.3866704 110.2498630  71.8609813  70.6339950 121.5982759  72.3775687
  70.9262924 122.1587816  71.6588052  71.1438570 121.8911320  73.1328846
  71.2351557 103.4674501  73.2668305  71.5410434 102.6071864  72.9794220
  71.9604162 104.0592121  73.0667299  57.5275913 113.8705187  71.6549903
  57.3300313 113.2774548  70.9300970  56.9722577 113.5657397  72.3725842
  65.5072637 113.7628294  73.7744496  65.5621247 112.8102130  73.6986973
  64.6963839 113.9187733  74.2585795  66.6563831 117.6908417  65.0122779
  66.2183261 116.9744276  64.5528417  67.3974272 117.9184531  64.4507871
  63.4464997 112.3805353  71.5334875  62.6332863 112.6799524  71.9400067
  63.9423991 111.9861042  72.2509357  65.5973575 122.3763110  73.4669140
  65.5549754 122.6023957  72.5377672  66.5136274 122.1426485  73.6154941
  69.0439209 112.8447178  80.3649769  69.3988596 113.0718651  81.2244235
  69.6911340 113.1765555  79.7427024  74.7736946 115.9665614  71.0699098
  74.6354844 116.1567210  70.1420287  74.4173164 116.7284997  71.5267149
  62.9379072 109.9523709  77.1496110  63.5778451 109.8112468  76.4519073
  62.1056602 109.6658222  76.7734712  74.8006325 118.0342141  76.0810370
  75.2342832 117.9417430  76.9293424  75.5137906 118.0099641  75.4430386
  63.7139376 119.2526139  73.2631103  64.5079974 118.7576459  73.0613677
  63.0031068 118.7244002  72.8998808  68.5334220 121.6344235  77.6143470
  68.5871242 122.2035171  78.3821186  67.6649002 121.8046120  77.2497507
  60.0222139 113.3969221  69.3390855  59.0919727 113.3353677  69.5560817
  60.1179611 112.8745174  68.5427496  59.9407688 109.9224034  71.9269097
  60.2014506 110.8369367  71.8178257  60.7624861 109.4548476  72.0765710
  61.4132614 111.3361791  79.0967921  62.0855667 111.1279153  78.4480570
  60.5862400 111.1383877  78.6573154  75.6621875 118.0765841  78.6143255
  75.8557765 118.9811652  78.8602530  75.5622493 117.6173260  79.4481840
  67.3158186 107.9623732  81.1133582  66.6686101 108.6613682  81.0198059
  68.0859201 108.3959876  81.4809830  70.7236983 118.2272584  84.1884136
  70.5722490 117.9983136  83.2714219  70.7141663 119.1843186  84.2015481
  67.4922320 115.8004497  79.1730402  68.4214380 115.9515656  78.9999369
  67.0713350 115.8888518  78.3179049  66.2910652 119.8255161  76.9428940
  66.1521737 119.4573946  77.8154878  65.5025248 120.3402801  76.7712897
  66.8858804 124.9264258  68.2854476  67.0610559 124.4552301  69.1000099
  66.1991592 125.5530024  68.5135737  67.8415867 119.2036764  74.3317777
  67.5065699 119.1637534  75.2275427  67.3419813 118.5381480  73.8588188
  61.8160111 114.6104394  79.8570359  61.6779909 113.8784633  80.4581898
  62.7265034 114.5213294  79.5754546  70.7775058 116.5492798  64.6054837
  70.1604229 115.8239626  64.5087890  70.3091547 117.3102159  64.2621911
  64.4442411 114.3224353  79.3454038  65.1542030 113.6817546  79.3040657
  64.4011720 114.5737248  80.2680219  72.4329190 121.2591707  82.2660617
  72.3741736 120.5750927  81.5991200  72.8348709 122.0010697  81.8141243
  63.1571345 111.3089571  81.1649678  62.6208702 110.8580310  81.8171274
  62.5688054 111.4435480  80.4220142  62.5673604 110.7678223  63.7276141
  61.6903071 110.6467023  63.3638388  63.0431357 109.9764301  63.4755030
  72.4346597 119.2231291  80.4974597  71.5473376 118.8857212  80.6200996
  73.0045148 118.4914322  80.7343362  54.0875745 115.5555382  73.8217648
  54.7746784 115.2417112  73.2338664  53.9323873 116.4596747  73.5484900
  58.8910467 110.4445579  78.2502672  58.8068655 109.8371248  77.5153082
  58.0693173 110.9354597  78.2512169  65.9647751 123.8832743  77.4635840
  65.8917922 124.6887714  77.9755145  65.5225144 124.0824709  76.6383862
  65.7537530 123.1204513  70.9738662  64.9705052 123.6626193  71.0676886
  66.4530276 123.6378493  71.3732903  69.0634181 108.9299142  73.6172867
  69.5602880 108.1769105  73.2973937  68.2921162 108.9663459  73.0516077
  76.9163938 114.6339508  75.2591159  76.9053814 115.5164223  74.8885092
  76.0481317 114.2811059  75.0645696  68.4246434 123.7819577  79.6193999
  69.1374407 124.4167042  79.5469900  67.9336463 123.8783443  78.8034001
  70.1463961 117.6870830  71.1911291  69.2120240 117.8072292  71.0215995
  70.3240630 116.7843296  70.9271300  65.6469149 111.0716525  73.3444552
  65.2766937 110.5187566  74.0325457  66.1428242 110.4674659  72.7919552
  73.5336513 113.5288149  71.7261325  73.9996965 114.3616141  71.6521627
  73.9844013 113.0633131  72.4306583  63.4758348 121.5314020  80.4399570
  64.1767807 122.1650503  80.5928964  63.0053463 121.8728752  79.6795209
  71.6012744 119.8731970  68.7247477  71.8772588 119.7588565  69.6341351
  70.7317242 119.4749455  68.6859650  71.5053175 105.8968736  75.7652226
  70.5916255 106.1272963  75.9334433  71.9346277 105.9807180  76.6166258
  71.2759634 114.0858628  78.2652120  70.6231084 114.3334535  77.6104573
  71.6540014 113.2722766  77.9314597  68.2366808 124.1218321  72.3680290
  68.4189202 123.3039977  72.8308043  69.0599794 124.3386013  71.9305180
  68.5708973 123.0486506  69.6295339  69.0996740 122.5378961  69.0165501
  68.8337193 122.7329036  70.4940872  67.3247207 114.8278439  84.7518157
  66.6487844 114.7272568  85.4220532  68.1474841 114.6717653  85.2154154
  59.0726066 121.0650375  77.3730672  59.6579503 120.3194063  77.5058577
  58.8750904 121.3754332  78.2567336  61.9264721 124.1001623  72.3893115
  61.2575096 124.5847751  71.9057155  61.7877591 124.3470843  73.3036493
  53.6643721 113.6355976  76.0935116  53.7027820 113.1019566  76.8872234
  53.1584013 113.1091181  75.4746093  66.0669990 126.1345366  78.9875773
  66.6188298 126.2976988  79.7524858  66.4076183 126.7249804  78.3155798
  61.0434483 108.4820516  79.5897658  61.1075809 109.3435347  79.1775056
  60.9801603 107.8694518  78.8570016  60.5186755 110.5543649  83.2370692
  61.1458794 110.1720726  83.8508216  59.6614674 110.3357851  83.6026385
  70.9180864 120.9606624  84.8424428  71.4620768 121.5736582  84.3479382
  70.3367709 121.5186202  85.3591441  57.2952298 112.3620078  69.1689047
  57.5905739 111.4530756  69.1156101  56.3940334 112.3407817  68.8470049
  69.2038377 124.0827342  75.9739455  69.0789516 123.2817082  75.4650401
  69.8617468 124.5773535  75.4853425  60.8246545 110.4376074  75.1516596
  60.1033131 111.0512042  75.0124069  61.6139801 110.9733839  75.0733242
  71.2673285 121.8836362  77.6019005  70.3203621 121.7641713  77.5297332
  71.6156059 120.9958860  77.6845267  63.6272859 107.7730501  81.4257247
  64.1507261 108.0192797  82.1883557  63.4085192 108.6050536  81.0060385
  59.0240140 110.0434176  69.2928372  58.6952846 109.1631554  69.1103478
  59.3779511 109.9881844  70.1804761  68.2719719 121.6789078  73.8023358
  68.1244681 120.7505786  73.9830928  69.0973212 121.7009169  73.3180433
  62.1381963 110.3307145  69.6603850  62.4778035 110.8593067  68.9382458
  62.5854083 110.6687551  70.4362416  71.8753841 122.5017637  74.8888230
  72.8000388 122.2960498  74.7512682  71.7069144 122.2534038  75.7977572
  64.8325404 108.7144196  79.1106918  64.4922224 107.9152009  79.5127598
  64.1264410 109.0145907  78.5383751  65.4841876 105.7993508  77.5634241
  66.3067945 105.3253987  77.4413131  65.7279939 106.5783992  78.0632927
  64.1250110 108.8281767  67.8597143  64.8458473 109.2063020  67.3560859
  63.5015414 109.5470644  67.9632121  68.2681233 109.5326916  68.7955475
  68.4844847 110.4151554  68.4944303  67.7875300 109.1413129  68.0661117
  63.0080454 112.4912629  75.3726220  62.8625035 112.8052932  76.2650501
  62.5305658 113.1097529  74.8197118  64.8676837 109.4815177  75.4207109
  64.8538406 108.5856270  75.0839407  65.5849265 109.4885841  76.0545395
  66.7202968 109.9152517  77.4660236  66.4620746 110.8369588  77.4644567
  66.1888008 109.5182952  78.1560701  71.6649157 123.0203304  70.2450322
  71.8386034 122.4549727  69.4924174  72.1578048 123.8204199  70.0629812
  57.4826117 115.0317973  78.3113881  56.9379585 115.8077781  78.4434155
  58.3605466 115.3788778  78.1533002  64.2713733 108.3629557  70.6894679
  64.3929644 107.4346204  70.8885567  63.9815776 108.3768243  69.7772995
  67.1404924 106.0484468  73.8261399  67.1626620 106.1123801  72.8713379
  67.5572983 105.2088976  74.0201905  77.5188548 115.7839727  71.8640622
  77.9619694 115.0347053  71.4659745  76.6415058 115.7749864  71.4814354
  72.6524329 122.3370069  67.3447220  73.3475234 122.9576761  67.5634535
  72.9947479 121.4865420  67.6199598  58.2692138 114.1587870  81.2044038
  57.5273874 114.3070505  81.7908668  57.9484883 114.4196135  80.3410787
  74.5515752 119.7869774  68.8734551  75.0767076 120.1257047  68.1483871
  74.4638105 118.8516790  68.6897686  66.2135801 123.7003848  81.0024428
  66.5222927 123.4552995  81.8747127  67.0111283 123.9050486  80.5143298
  66.2356413 125.8541758  73.2329804  65.7961403 125.3618136  73.9262661
  66.9864530 125.3114725  72.9921879  58.7148752 122.0453298  73.2354432
  59.5406772 121.7457070  72.8553076  58.3642804 121.2760921  73.6844221
  63.6830285 121.3979767  75.3052106  63.0610295 120.7350472  75.0054334
  64.3535152 121.4240899  74.6225754  56.9157357 119.9639625  74.1943366
  56.0789265 119.5361799  74.0127367  56.8881003 120.1572068  75.1314157
  63.7554813 109.8761555  84.8984612  63.8042968 110.7523678  84.5162381
  64.2977327 109.3338948  84.3256255  74.2409658 120.4202678  84.1785749
  73.4505202 120.4026817  83.6390248  74.0043013 120.9590972  84.9334785
  74.3607533 117.2695144  81.4918477  74.4105538 117.1045152  82.4334000
  74.2521457 116.4022403  81.1016358  63.2443792 119.9483690  68.7810566
  63.3931913 120.6319154  68.1277239  64.0510236 119.9288780  69.2960022
  71.6511296 113.2526072  82.8077784  72.5521159 113.1132537  82.5161782
  71.7259270 113.4180527  83.7475962  65.9854101 110.6292927  81.6530970
  65.1157411 110.9226493  81.3813559  66.2213582 111.2133372  82.3738234
  75.8625730 119.6892086  81.7360499  75.5710539 120.0522066  82.5723960
  75.2497862 118.9759094  81.5573831  77.0621413 117.2544966  74.2563069
  77.8968304 117.6934770  74.4200630  77.1980541 116.7783619  73.4371315
  74.1112919 114.8124700  80.2040557  74.5867040 115.0052347  79.3959408
  73.1878484 114.8683886  79.9583941  60.9996425 115.9748868  69.7871635
  60.7542467 115.0711198  69.9851845  61.1692340 115.9766018  68.8451113
  68.6893135 106.8472544  79.1696391  69.2075079 107.5833571  78.8442879
  68.3348268 107.1536537  80.0043150  60.2692073 111.7077225  67.2857797
  59.5761318 111.7821580  66.6297833  60.0243825 110.9437569  67.8079314
  68.9405729 103.2672827  74.6897287  69.2207483 102.5996016  75.3157714
  69.7256336 103.4601922  74.1771951  66.7439198 122.4431820  66.2522314
  66.1713165 123.0622008  65.7992786  67.3171991 122.9931182  66.7862236
  72.8114588 111.6890461  78.4368863  73.7632010 111.7888558  78.4581087
  72.6418038 110.8968729  78.9466947  70.8328967 108.7746044  78.6228263
  70.2378899 109.0551057  77.9274752  70.5478664 109.2639945  79.3945005
  69.9636457 122.7268971  67.3830896  70.8967131 122.6614532  67.5863772
  69.8759670 123.5625237  66.9245429  72.5924474 122.0434841  64.3434844
  72.5138106 121.7094705  65.2370602  73.4134141 122.5356609  64.3426316
  75.2902665 114.9096580  77.5511162  75.2578985 113.9712581  77.7370846
  75.9003289 114.9880617  76.8176987  67.1285996 113.7792633  63.5938366
  68.0745101 113.6498841  63.6626784  66.7500241 113.0407295  64.0707794
  75.4397154 111.7007624  77.5969445  74.9236202 110.9166080  77.4099374
  76.3237102 111.3726340  77.7615965  73.1007881 105.4448639  73.5565258
  72.9032702 105.1363727  74.4408590  73.7107586 106.1710278  73.6863188
  81.1079215 115.9712587  76.6917199  81.8382604 115.7097875  77.2524902
  80.4986161 115.2341309  76.7319267  79.1894512 114.1120450  77.2891650
  78.4627676 113.9776415  76.6808142  78.7741799 114.4197278  78.0948368
  67.0124689 117.8310379  85.0539023  67.9327698 118.0088978  85.2479070
  66.9774272 116.8866425  84.9018722  65.3128913 111.7042610  63.5293251
  64.4060369 111.4075722  63.6055965  65.5904894 111.4072428  62.6627538
  56.2306854 113.0248973  73.9792298  55.9109638 112.1714281  73.6866672
  55.6840282 113.2397551  74.7350265  60.0086761 115.7411414  77.6961804
  60.2272771 116.6728522  77.7149838  60.4212535 115.3819388  78.4816608
  66.9290979 106.2479499  69.6837493  66.1191707 105.9026584  70.0592739
  67.6175396 105.9387043  70.2725104  68.8581527 105.3257546  71.3061789
  69.4112566 105.7453000  71.9651813  69.0951614 104.3993294  71.3484745
  64.8814627 111.3144620  87.0864553  64.7811353 112.2638977  87.0176644
  64.6636169 110.9862859  86.2140623  64.0827698 108.5629545  63.6705231
  64.9446862 108.8884443  63.9301048  64.2678042 107.7761041  63.1578296
  56.0995114 116.6451885  75.9485419  55.4058585 116.2305837  75.4355374
  56.8468105 116.6872421  75.3518838  72.2360334 107.4358071  70.8140454
  71.6559003 108.0942875  70.4318506  71.9696267 106.6135416  70.4027871
  70.6863901 106.8363129  73.0161774  71.1863679 106.9479664  72.2076093
  71.3299509 106.5324182  73.6562582  64.7445897 114.7441759  85.9029615
  64.2612978 115.5442119  86.1093504  64.8306836 114.7549704  84.9497059
  58.0131856 116.5770138  73.8251434  57.9902544 116.6757826  72.8733317
  58.3232493 117.4235289  74.1468600  60.6719234 118.6346293  77.9398049
  61.6262488 118.6030236  77.8727980  60.4731758 118.1736917  78.7548275
  61.2618616 117.2047409  80.5068846  62.0811505 117.6991488  80.5303684
  61.5355424 116.2879378  80.4786414  71.0185212 109.5958162  69.8696802
  70.1311067 109.8807812  69.6516997  71.4339202 109.4351925  69.0224079
  74.3699749 109.6204683  73.5851141  75.1460139 110.1101135  73.8575758
  73.6447883 110.0462737  74.0423011  76.8072307 110.3332302  74.6425082
  77.4016798 110.0928038  73.9318390  76.8798891 109.6139432  75.2698618
  59.0269463 124.1765913  74.9568247  58.8923931 123.4166314  74.3906245
  58.6101525 124.9006813  74.4897036  70.1628426 119.3602836  63.9644822
  70.8664276 119.5652839  64.5802478  69.4391075 119.9279598  64.2293905
  70.9926236 115.1112698  70.0847092  70.9361438 115.5681249  69.2454724
  71.5454579 114.3503382  69.9069935  74.8031042 110.9002429  70.9097212
  74.5467976 110.4999065  71.7405419  74.1783910 111.6146223  70.7847351
  79.1143380 113.6398503  73.4168503  78.5542938 113.7091692  74.1900065
  78.5086883 113.4639487  72.6967999  62.1838589 125.0735230  75.1686689
  62.0670973 126.0180662  75.0665380  61.3631035 124.7708791  75.5572488
  72.0715123 119.7985366  66.0143282  72.9060727 119.3666564  65.8320757
  71.9099466 119.6267379  66.9420176  71.7261016 116.3017479  67.3799621
  71.6709819 116.1361750  66.4388065  71.1007071 117.0093512  67.5361811
  56.5153530 111.5385543  81.2061043  57.1612394 111.0284497  81.6948269
  56.3070682 112.2754225  81.7804469  69.0406923 118.6066391  86.7053184
  69.9098082 118.7807043  86.3439819  68.5613674 119.4260808  86.5828913
  65.0357141 105.8025588  66.9584940  65.0235811 106.7467428  67.1153211
  65.9280563 105.6195733  66.6644401  63.2093103 125.7263492  78.3842618
  64.1120350 125.7587102  78.7009113  62.9830473 124.7963943  78.3988953
  64.9646705 124.4794478  75.0452696  64.0142336 124.4796340  74.9317069
  65.2679191 123.7327213  74.5288731  68.8509260 102.3968365  71.2130876
  68.0841656 101.8426851  71.3587559  69.2619965 102.4690233  72.0745028
  60.8551021 108.6853160  85.3036058  61.7182483 108.3289965  85.5139382
  60.2816432 108.3467055  85.9911462  80.6999398 130.3155017  76.1098459
  81.3377808 130.1961764  75.4061799  80.5820241 131.2635861  76.1686411
  77.5089105 130.2682445  76.0459983  77.1707616 130.1523509  75.1580518
  78.3778873 129.8673610  76.0260990  77.9908888 131.4217297  82.0046189
  77.9797528 131.0270095  81.1326693  78.1529527 130.6883369  82.5979960
  75.2097384 129.0370692  65.3776924  75.4622905 128.5152213  64.6160387
  74.2721943 128.8736838  65.4803607  80.2540667 128.0406471  73.1851667
  81.0403756 127.6225894  72.8342084  80.5179371 128.9452563  73.3533315
  85.6549094 127.9781704  74.0884645  86.3874266 127.4080921  74.3222475
  84.8988450 127.5903304  74.5291151  77.2725214 130.4008945  71.2847988
  76.9083421 129.8739566  71.9960909  78.1292330 130.0107414  71.1114473
  83.1774514 121.6903278  78.5479254  82.8457839 122.5598689  78.3240469
  82.5820128 121.3739562  79.2273284  76.9130701 125.4298845  66.2809336
  77.0805103 126.2979081  66.6479807  76.7227870 125.5926127  65.3570625
  83.0703178 126.4098364  75.6272604  82.1620055 126.3413772  75.3331365
  83.0190773 126.8870309  76.4554429  76.8919922 127.8856502  67.2656003
  76.7719547 128.3313553  68.1041483  76.1972510 128.2341820  66.7069541
  77.1444043 127.8288010  83.5707501  76.3677378 128.3881930  83.5610366
  77.7834607 128.3144793  84.0922371  84.9364824 124.6114802  77.4050478
  84.2939204 124.9047336  76.7590272  84.4319753 124.4967723  78.2103675
  82.5904988 128.3577976  68.0936337  83.5022844 128.5905362  67.9184035
  82.0814635 128.9415020  67.5311416  80.8745755 132.7802603  81.7297630
  81.2829111 132.3385014  80.9852262  80.1523017 132.2055231  81.9831823
  77.2276825 127.7175210  79.1031187  78.0738021 128.1414624  79.2465836
  77.1675463 127.0608835  79.7969750  80.3776271 125.3779579  80.7612360
  80.1337203 126.1321639  80.2246636  80.6536201 125.7564926  81.5959607
  82.3314734 131.9218191  79.4389626  82.5431629 132.5649951  78.7624007
  82.2844482 131.0880507  78.9711556  79.9340963 124.5336012  76.3426198
  79.0725442 124.8317265  76.6342936  79.9603397 124.7506410  75.4107231
  75.6871418 129.2001355  69.5589569  76.3895461 129.6522398  70.0263495
  75.3552047 128.5585173  70.1869462  74.1351780 127.7913111  83.9340778
  73.5050440 128.4729392  84.1676175  74.0287867 127.6796193  82.9893916
  69.4296752 127.4584907  74.8606702  68.6395806 127.7142436  74.3846813
  69.9207999 128.2733245  74.9658743  71.3811497 127.8229486  71.8190179
  70.5842661 127.9348181  72.3373675  71.1537090 128.1616139  70.9531070
  73.4132522 122.0933877  86.2966029  73.0199468 121.5400076  86.9713673
  74.2298663 122.4044455  86.6872547  76.3300483 123.5091756  83.8886286
  77.0710197 124.1098909  83.8090748  76.5618406 122.7669394  83.3304328
  71.4741821 128.6948123  82.1664515  71.3595336 127.7933381  82.4671614
  70.6186339 128.9411820  81.8149332  80.2757646 119.5372859  78.1650567
  79.9321916 120.4274501  78.0889678  80.6436609 119.3474517  77.3020153
  80.2407929 129.5281470  66.6723003  79.7254552 130.2986075  66.9111390
  79.9685237 128.8546606  67.2956064  77.8255040 124.3731171  71.7308241
  76.9696636 123.9838021  71.5513880  78.2381992 124.4523132  70.8708027
  79.3554187 121.9077514  76.1299801  78.8518982 121.8707649  75.3167606
  79.6484793 122.8170257  76.1896457  75.5997072 121.9916244  75.1365982
  76.4650069 121.7959053  74.7771872  75.6674581 121.7626596  76.0635339
  80.0294232 127.4008562  68.4982784  79.7244368 127.7154711  69.3492927
  80.9824674 127.4789982  68.5410117  73.2059392 124.2218452  72.5082349
  73.7803143 123.9993633  71.7755542  73.7930374 124.2907146  73.2610951
  82.2638969 130.1092179  73.3146726  82.7770851 130.7422171  73.8168436
  82.9140193 129.5093374  72.9490086  73.5328979 126.2522913  66.5278235
  72.6966291 126.5897599  66.8487509  73.3933748 126.1171893  65.5905372
  75.5082059 121.0959701  71.2357419  74.8546472 120.7808718  70.6114033
  75.4662533 120.4735441  71.9617242  76.6193264 131.3778996  63.1510711
  75.7120326 131.1468249  63.3501860  77.1164296 130.5816615  63.3384692
  78.7419800 127.5841634  75.5605066  77.8242361 127.8056581  75.4026754
  79.1579943 127.6587945  74.7016774  79.5254847 128.9833050  70.6907747
  80.2726666 129.4954447  70.3814869  79.7946437 128.6617103  71.5512140
  77.7981498 131.4791591  67.6734701  76.8892717 131.1950623  67.7707171
  77.8276581 131.8990669  66.8138008  81.9733685 126.0190166  72.6726536
  81.2356441 125.5067552  73.0036778  82.2260458 125.5790548  71.8609813
  82.0745312 118.7966418  73.2668305  82.3804189 117.9363782  72.9794220
  82.7997917 119.3884038  73.0667299  76.3466392 129.0920211  73.7744496
  76.4015001 128.1394048  73.6986973  75.5357594 129.2479650  74.2585795
  74.2858752 127.7097271  71.5334875  73.4726617 128.0091442  71.9400067
  74.7817746 127.3152960  72.2509357  79.8832963 128.1739095  80.3649769
  80.2382351 128.4010569  81.2244235  80.5305094 128.5057472  79.7427024
  73.7772826 125.2815627  77.1496110  74.4172206 125.1404386  76.4519073
  72.9450357 124.9950140  76.7734712  70.8615894 128.7261139  69.3390855
  69.9313482 128.6645594  69.5560817  70.9573366 128.2037091  68.5427496
  70.7801443 125.2515952  71.9269097  71.0408260 126.1661285  71.8178257
  71.6018615 124.7840394  72.0765710  72.2526368 126.6653709  79.0967921
  72.9249421 126.4571071  78.4480570  71.4256155 126.4675795  78.6573154
  78.1551940 123.2915650  81.1133582  77.5079855 123.9905599  81.0198059
  78.9252955 123.7251794  81.4809830  78.3316074 131.1296415  79.1730402
  79.2608134 131.2807574  78.9999369  77.9107104 131.2180435  78.3179049
  72.6553865 129.9396312  79.8570359  72.5173663 129.2076550  80.4581898
  73.5658789 129.8505212  79.5754546  81.6168813 131.8784716  64.6054837
  80.9997984 131.1531544  64.5087890  81.1485301 132.6394076  64.2621911
  75.2836166 129.6516271  79.3454038  75.9935784 129.0109463  79.3040657
  75.2405474 129.9029166  80.2680219  73.9965100 126.6381489  81.1649678
  73.4602457 126.1872227  81.8171274  73.4081808 126.7727398  80.4220142
  73.4067359 126.0970140  63.7276141  72.5296825 125.9758941  63.3638388
  73.8825112 125.3056219  63.4755030  69.7304221 125.7737497  78.2502672
  69.6462410 125.1663166  77.5153082  68.9086928 126.2646515  78.2512169
  79.9027935 124.2591060  73.6172867  80.3996635 123.5061022  73.2973937
  79.1314917 124.2955377  73.0516077  76.4862904 126.4008443  73.3444552
  76.1160691 125.8479483  74.0325457  76.9821996 125.7966577  72.7919552
  84.3730267 128.8580067  71.7261325  84.8390719 129.6908058  71.6521627
  84.8237768 128.3925048  72.4306583  82.3446930 121.2260654  75.7652226
  81.4310010 121.4564880  75.9334433  82.7740031 121.3099098  76.6166258
  82.1153388 129.4150546  78.2652120  81.4624839 129.6626453  77.6104573
  82.4933768 128.6014684  77.9314597  78.1640961 130.1570357  84.7518157
  77.4881598 130.0564486  85.4220532  78.9868595 130.0009570  85.2154154
  71.8828237 123.8112434  79.5897658  71.9469564 124.6727265  79.1775056
  71.8195358 123.1986436  78.8570016  71.3580510 125.8835566  83.2370692
  71.9852549 125.5012644  83.8508216  70.5008429 125.6649768  83.6026385
  68.1346053 127.6911996  69.1689047  68.4299494 126.7822674  69.1156101
  67.2334088 127.6699735  68.8470049  71.6640300 125.7667992  75.1516596
  70.9426885 126.3803960  75.0124069  72.4533555 126.3025757  75.0733242
  74.4666613 123.1022419  81.4257247  74.9901015 123.3484715  82.1883557
  74.2478947 123.9342453  81.0060385  69.8633894 125.3726093  69.2928372
  69.5346600 124.4923472  69.1103478  70.2173265 125.3173762  70.1804761
  72.9775717 125.6599063  69.6603850  73.3171790 126.1884984  68.9382458
  73.4247838 125.9979469  70.4362416  75.6719158 124.0436114  79.1106918
  75.3315979 123.2443927  79.5127598  74.9658165 124.3437825  78.5383751
  76.3235630 121.1285426  77.5634241  77.1461699 120.6545904  77.4413131
  76.5673694 121.9075910  78.0632927  74.9643865 124.1573685  67.8597143
  75.6852227 124.5354937  67.3560859  74.3409169 124.8762561  67.9632121
  79.1074987 124.8618834  68.7955475  79.3238602 125.7443471  68.4944303
  78.6269055 124.4705047  68.0661117  73.8474209 127.8204547  75.3726220
  73.7018790 128.1344850  76.2650501  73.3699413 128.4389447  74.8197118
  75.7070592 124.8107095  75.4207109  75.6932161 123.9148188  75.0839407
  76.4243020 124.8177758  76.0545395  77.5596722 125.2444435  77.4660236
  77.3014500 126.1661506  77.4644567  77.0281763 124.8474869  78.1560701
  75.1107488 123.6921475  70.6894679  75.2323399 122.7638121  70.8885567
  74.8209530 123.7060161  69.7772995  77.9798678 121.3776385  73.8261399
  78.0020375 121.4415719  72.8713379  78.3966737 120.5380894  74.0201905
  74.5948567 125.2053472  84.8984612  74.6436723 126.0815595  84.5162381
  75.1371081 124.6630865  84.3256255  82.4905050 128.5817990  82.8077784
  83.3914913 128.4424455  82.5161782  82.5653025 128.7472445  83.7475962
  76.8247856 125.9584845  81.6530970  75.9551165 126.2518411  81.3813559
  77.0607336 126.5425290  82.3738234  84.9506673 130.1416618  80.2040557
  85.4260795 130.3344264  79.3959408  84.0272238 130.1975804  79.9583941
  79.5286890 122.1764462  79.1696391  80.0468833 122.9125489  78.8442879
  79.1742022 122.4828455  80.0043150  71.1085827 127.0369143  67.2857797
  70.4155072 127.1113498  66.6297833  70.8637579 126.2729487  67.8079314
  79.7799484 118.5964744  74.6897287  80.0601237 117.9287933  75.3157714
  80.5650091 118.7893840  74.1771951  83.6508342 127.0182378  78.4368863
  84.6025765 127.1180476  78.4581087  83.4811792 126.2260647  78.9466947
  81.6722721 124.1037961  78.6228263  81.0772654 124.3842974  77.9274752
  81.3872418 124.5931862  79.3945005  77.9679751 129.1084551  63.5938366
  78.9138855 128.9790759  63.6626784  77.5893996 128.3699213  64.0707794
  86.2790908 127.0299541  77.5969445  85.7629957 126.2457998  77.4099374
  87.1630857 126.7018258  77.7615965  83.9401635 120.7740557  73.5565258
  83.7426456 120.4655645  74.4408590  84.5501341 121.5002196  73.6863188
  76.1522668 127.0334527  63.5293251  75.2454123 126.7367640  63.6055965
  76.4298649 126.7364345  62.6627538  77.7684734 121.5771417  69.6837493
  76.9585462 121.2318502  70.0592739  78.4569150 121.2678961  70.2725104
  79.6975282 120.6549464  71.3061789  80.2506320 121.0744917  71.9651813
  79.9345368 119.7285212  71.3484745  75.7208381 126.6436537  87.0864553
  75.6205108 127.5930894  87.0176644  75.5029923 126.3154776  86.2140623
  74.9221452 123.8921463  63.6705231  75.7840616 124.2176361  63.9301048
  75.1071797 123.1052958  63.1578296  83.0754089 122.7649989  70.8140454
  82.4952758 123.4234793  70.4318506  82.8090022 121.9427334  70.4027871
  81.5257655 122.1655047  73.0161774  82.0257434 122.2771581  72.2076093
  82.1693263 121.8616100  73.6562582  75.5839651 130.0733676  85.9029615
  75.1006733 130.8734036  86.1093504  75.6700590 130.0841621  84.9497059
  81.8578967 124.9250079  69.8696802  80.9704822 125.2099730  69.6516997
  82.2732956 124.7643843  69.0224079  85.2093503 124.9496600  73.5851141
  85.9853893 125.4393053  73.8575758  84.4841637 125.3754655  74.0423011
  87.6466062 125.6624220  74.6425082  88.2410553 125.4219956  73.9318390
  87.7192645 124.9431350  75.2698618  81.8319991 130.4404615  70.0847092
  81.7755192 130.8973167  69.2454724  82.3848333 129.6795300  69.9069935
  85.6424797 126.2294347  70.9097212  85.3861731 125.8290983  71.7405419
  85.0177665 126.9438141  70.7847351  82.5654770 131.6309397  67.3799621
  82.5103574 131.4653668  66.4388065  81.9400825 132.3385429  67.5361811
  67.3547285 126.8677461  81.2061043  68.0006149 126.3576415  81.6948269
  67.1464436 127.6046143  81.7804469  75.8750895 121.1317506  66.9584940
  75.8629565 122.0759345  67.1153211  76.7674317 120.9487651  66.6644401
  79.6903015 117.7260282  71.2130876  78.9235411 117.1718769  71.3587559
  80.1013720 117.7982151  72.0745028  71.6944776 124.0145078  85.3036058
  72.5576238 123.6581883  85.5139382  71.1210187 123.6758973  85.9911462
  15.6636873  15.3465633  62.8343765  16.3015283  15.2272381  62.1307105
  15.5457716  16.2946477  62.8931718  12.4726579  15.2993061  62.7705290
  12.1345091  15.1834126  61.8825825  13.3416347  14.8984226  62.7506296
   8.3313395  17.1528538  58.7602181   7.7678260  17.0618475  57.9918469
   8.2165790  16.3328442  59.2404674  12.9546362  16.4527913  68.7291496
  12.9435003  16.0580711  67.8571999  13.1167001  15.7193986  69.3225267
   5.8777827  18.6479729  61.5986401   6.6699119  18.3070554  61.1832701
   6.1174477  18.7574704  62.5188555  13.9112953  20.8199505  54.0716646
  13.2600933  21.4053586  53.6850660  14.7057316  21.3505700  54.1311683
   7.8368581  17.9088643  54.4703780   8.6099457  17.3617630  54.3316656
   8.1893979  18.7732892  54.6818242   9.6753623  19.2365025  67.6770680
   9.3843489  20.1410656  67.5617346  10.3110608  19.2781552  68.3914749
  10.6009830  16.6141873  64.2672039  11.1973402  16.3897896  63.5529002
  10.6584802  15.8726619  64.8697487  10.1734858  14.0681309  52.1022230
  10.4260379  13.5462830  51.3405693   9.2359417  13.9047454  52.2048914
  15.2178141  13.0717087  59.9096973  16.0041230  12.6536510  59.5587390
  15.4816846  13.9763179  60.0778622  15.3888219  18.5089937  54.6085630
  14.7534052  18.5824564  55.3206535  15.0585625  19.0983536  53.9304709
  20.6186568  13.0092320  60.8129952  21.3511740  12.4391537  61.0467781
  19.8625924  12.6213921  61.2536457   9.8931147  15.9709415  54.3046605
   9.7767405  15.2954318  54.9727689  10.0033407  15.4841789  53.4878758
  12.2362688  15.4319562  58.0093294  11.8720895  14.9050183  58.7206216
  13.0929804  15.0418031  57.8359780  18.1411989   6.7213894  65.2724560
  17.8095313   7.5909305  65.0485775  17.5457602   6.4050178  65.9518591
  11.8768175  10.4609461  53.0054643  12.0442577  11.3289698  53.3725114
  11.6865344  10.6236743  52.0815932  14.6343508  18.9226440  64.6720473
  14.3344231  19.8251479  64.5636280  14.2894568  18.6558624  65.5241626
   8.0855990  15.3740237  60.7057178   7.1606486  15.2416451  60.9134869
   8.3340403  16.1534456  61.2027120  18.0340652  11.4408981  62.3517911
  17.1257529  11.3724389  62.0576672  17.9828248  11.9180925  63.1799736
  11.8557396  12.9167119  53.9901310  11.7357021  13.3624170  54.8286790
  11.1609984  13.2652437  53.4314848   5.4464801  15.0173511  61.5400967
   5.5757182  15.2707990  62.4540378   4.7662252  15.6101219  61.2205622
   9.6164288  25.6870761  57.6391441   9.5388318  26.6378586  57.7179921
   9.0125932  25.3416633  58.2966367  12.1081518  12.8598626  70.2952808
  11.3314852  13.4192546  70.2855672  12.7472081  13.3455409  70.8167678
  19.9002298   9.6425419  64.1295784  19.2576679   9.9357952  63.4835579
  19.3957227   9.5278339  64.9348981  17.5542462  13.3888592  54.8181644
  18.4660318  13.6215979  54.6429341  17.0452109  13.9725636  54.2556722
  10.3627890  15.6684080  69.8570775  11.1042574  16.2069123  69.5805598
   9.6564876  16.2950368  70.0142327  15.8383230  17.8113220  68.4542936
  16.2466586  17.3695630  67.7097569  15.1160491  17.2365847  68.7077129
  12.1914300  12.7485827  65.8276493  13.0375495  13.1725240  65.9711142
  12.1312937  12.0919451  66.5215056  16.1612044  18.3714411  62.2095225
  15.5320907  18.5360125  61.5071293  15.7737706  18.7856020  62.9806189
  20.0401276  19.3068848  59.5639589  19.3552314  19.6867750  59.0136622
  20.1245126  19.9164175  60.2971537  15.3413745  10.4090195  67.4857667
  15.0974677  11.1632256  66.9491943  15.6173676  10.7875543  68.3204914
  17.2952208  16.9528807  66.1634932  17.5069103  17.5960567  65.4869314
  17.2481956  16.1191124  65.6956863  14.8978437   9.5646628  63.0671505
  14.0362916   9.8627882  63.3588242  14.9240872   9.7817027  62.1352537
  11.7140006  18.1088819  59.4745310  12.1778352  18.3876522  58.6849933
  11.4496804  17.2072263  59.2918401   8.6064087  17.6560300  62.4125074
   9.1765444  18.0847569  61.7742558   9.1972199  17.3742885  63.1109259
  10.6508892  14.2311971  56.2834875  11.3532936  14.6833015  56.7508802
  10.3189521  13.5895790  56.9114769   9.0989254  12.8223728  70.6586085
   8.4687914  13.5040009  70.8921482   8.9925342  12.7106809  69.7139223
  18.4098036  19.8300763  64.3357290  19.2315480  19.4280950  64.0539971
  18.4060439  19.7268997  65.2873406  12.1754639  19.3784806  66.4918000
  12.2399072  19.8405213  67.3276172  11.4665563  18.7482171  66.6200310
  26.5004029  16.1739511  60.6842261  25.7467737  15.6046909  60.5286266
  26.6351570  16.1402176  61.6312896  11.8902657  21.0452914  56.3596981
  11.7548332  21.8904449  56.7881828  12.4312469  21.2472191  55.5962914
   5.3432054  18.5628352  56.9324906   5.8556575  19.3571602  57.0830470
   5.9954767  17.8654642  56.8658507   7.1526939  21.6794108  59.0147659
   7.3293567  22.6012073  58.8268643   7.9483773  21.3652527  59.4442039
  13.5171133  21.6676480  70.4897323  13.0734988  20.8812859  70.1718227
  14.1788347  21.8555631  69.8241214   8.2758255  23.1972282  65.0158001
   8.8265680  23.0689345  64.2434995   7.4369730  23.4967171  64.6652894
  15.6152371  21.9479280  68.5178724  15.5970847  22.7688161  68.0258993
  16.5372291  21.8233355  68.7428865  12.0725426  19.4623410  69.3602232
  12.6053762  18.7011698  69.1301540  11.5439507  19.1697061  70.1026387
  15.2045403  14.5592087  53.3968309  14.6892027  15.3296691  53.6356697
  14.9322712  13.8857223  54.0201371  20.1779677  17.3124441  55.3321483
  19.4009120  16.9735601  54.8876645  20.8571158  17.3177064  54.6576448
  14.9931706  12.4319179  55.2228090  14.6881842  12.7465328  56.0738234
  15.9462149  12.5100599  55.2655423  13.4378138  18.5909402  56.8721044
  12.9099500  17.8562162  56.5594282  12.9365641  19.3684078  56.6261013
  18.4170984  16.7858423  61.9888091  17.7594659  17.4757684  62.0768219
  19.2211383  17.1754854  62.3322077  17.2276443  15.1402795  60.0392032
  17.7408325  15.7732787  60.5413742  17.8777667  14.5403991  59.6735392
  11.5830738  16.4089612  49.8756017  10.6757800  16.1778866  50.0747166
  12.0801770  15.6127232  50.0629999  14.4898817  25.1187120  52.7952704
  13.8160516  25.4218816  53.4037661  14.8764639  25.9216200  52.4458161
  13.7057274  12.6152251  62.2850373  12.7879835  12.8367198  62.1272061
  14.1217418  12.6898561  61.4262080  14.4892322  14.0143666  57.4153053
  15.2364141  14.5265064  57.1060175  14.7583911  13.6927719  58.2757447
  12.7618972  16.5102207  54.3980008  11.8530191  16.2261240  54.4952477
  12.7914056  16.9301286  53.5383314  17.9938239  20.1208797  58.1671175
  17.5400566  19.2799707  58.2236366  17.3632206  20.7570195  58.5045955
  16.9371159  11.0500783  59.3971843  16.1993916  10.5378169  59.7282085
  17.1897932  10.6101164  58.5855119  16.4371179  21.9585293  59.1020993
  16.7294153  22.5190350  58.3833359  16.9469799  22.2513854  59.8574152
  11.3103866  14.1230828  60.4989803  11.3652476  13.1704664  60.4232279
  10.4995068  14.2790267  60.9831101  12.4595060  18.0510951  51.7368086
  12.0214490  17.3346810  51.2773723  13.2005501  18.2787066  51.1753177
   9.2496226  12.7407888  58.2580182   8.4364091  13.0402058  58.6645374
   9.7455220  12.3463576  58.9754664  11.4004804  22.7365644  60.1914446
  11.3580983  22.9626491  59.2622978  12.3167503  22.5029019  60.3400248
  14.8470438  13.2049712  67.0895076  15.2019825  13.4321185  67.9489541
  15.4942569  13.5368089  66.4672331  20.5768174  16.3268148  57.7944405
  20.4386073  16.5169744  56.8665594  20.2204393  17.0887531  58.2512456
  20.6037554  18.3944675  62.8055676  21.0374061  18.3019964  63.6538730
  21.3169135  18.3702175  62.1675692   9.5170604  19.6128673  59.9876409
  10.3111203  19.1178994  59.7858984   8.8062297  19.0846537  59.6244115
  14.3365449  21.9946769  64.3388777  14.3902471  22.5637705  65.1066493
  13.4680230  22.1648654  63.9742814  21.4653104  18.4368376  65.3388562
  21.6588994  19.3414186  65.5847836  21.3653722  17.9775795  66.1727147
  16.5268212  18.5875118  70.9129442  16.3753719  18.3585670  69.9959526
  16.5172892  19.5445720  70.9260787  13.2953549  16.1607031  65.8975709
  14.2245609  16.3118191  65.7244676  12.8744579  16.2491052  65.0424355
  12.0941880  20.1857695  63.6674246  11.9552966  19.8176480  64.5400184
  11.3056477  20.7005335  63.4958204  12.6890032  25.2866792  55.0099783
  12.8641788  24.8154835  55.8245405  12.0022820  25.9132558  55.2381043
  13.6447096  19.5639298  61.0563084  13.3096928  19.5240068  61.9520734
  13.1451041  18.8984014  60.5833494   7.6191340  14.9706928  66.5815665
   7.4811138  14.2387167  67.1827204   8.5296263  14.8815828  66.2999853
  16.5806287  16.9095333  51.3300144  15.9635458  16.1842161  51.2333196
  16.1122776  17.6704693  50.9867218  10.2473640  14.6826888  66.0699345
  10.9573259  14.0420080  66.0285963  10.2042948  14.9339782  66.9925526
  18.2360419  21.6194241  68.9905924  18.1772965  20.9353461  68.3236507
  18.6379937  22.3613231  68.5386550   7.2551118  28.4356155  61.7839643
   7.4947716  29.0674679  62.4618662   6.4120314  28.0844195  62.0705002
  18.2377826  19.5833825  67.2219904  17.3504605  19.2459747  67.3446303
  18.8076377  18.8516856  67.4588669  11.7678980  24.2435277  64.1881147
  11.6949151  25.0490249  64.7000451  11.3256373  24.4427243  63.3629168
  11.5568759  23.4807047  57.6983968  10.7736281  24.0228727  57.7922193
  12.2561504  23.9981027  58.0978210  14.8665409   9.2901677  60.3418174
  15.3634109   8.5371639  60.0219244  14.0952391   9.3265993  59.7761383
  22.7195167  14.9942042  61.9836465  22.7085043  15.8766758  61.6130398
  21.8512546  14.6413593  61.7891002  14.2277663  24.1422111  66.3439306
  14.9405635  24.7769576  66.2715207  13.7367692  24.2385977  65.5279307
  15.9495190  18.0473364  57.9156597  15.0151469  18.1674826  57.7461302
  16.1271859  17.1445831  57.6516607  11.4500378  11.4319060  60.0689858
  11.0798166  10.8790100  60.7570764  11.9459471  10.8277193  59.5164858
  19.3367741  13.8890683  58.4506631  19.8028194  14.7218675  58.3766934
  19.7875242  13.4235665  59.1551890   9.2789577  21.8916555  67.1644876
   9.9799036  22.5253038  67.3174271   8.8084692  22.2331286  66.4040516
  17.4043973  20.2334504  55.4492783  17.6803816  20.1191099  56.3586658
  16.5348471  19.8351989  55.4104957  17.0790863  14.4461162  64.9897427
  16.4262313  14.6937070  64.3349880  17.4571243  13.6325300  64.6559904
  14.0398037  24.4820855  59.0925597  14.2220431  23.6642511  59.5553349
  14.8631023  24.6988548  58.6550487  14.3740202  23.4089040  56.3540646
  14.9027968  22.8981495  55.7410808  14.6368422  23.0931571  57.2186179
  13.1278436  15.1880973  71.4763464  12.4519073  15.0875102  72.1465839
  13.9506070  15.0320187  71.9399461   4.8757295  21.4252910  64.0975979
   5.4610732  20.6796598  64.2303883   4.6782133  21.7356866  64.9812643
   7.7295950  24.4604157  59.1138421   7.0606325  24.9450285  58.6302462
   7.5908820  24.7073378  60.0281800  11.8701219  26.4947901  65.7121080
  12.4219527  26.6579522  66.4770165  12.2107412  27.0852338  65.0401105
  16.7212093  21.3209158  71.5669734  17.2651997  21.9339116  71.0724689
  16.1398938  21.8788737  72.0836747  15.0069606  24.4429876  62.6984762
  14.8820745  23.6419616  62.1895707  15.6648697  24.9376070  62.2098732
  17.0704514  22.2438896  64.3264312  16.1234850  22.1244247  64.2542639
  17.4187287  21.3561394  64.4090574  14.0750948  22.0391612  60.5268664
  13.9275910  21.1108320  60.7076234  14.9004441  22.0611703  60.0425740
  17.6785069  22.8620171  61.6133537  18.6031617  22.6563033  61.4757988
  17.5100373  22.6136572  62.5222879  14.0712462   9.8929450  55.5200782
  14.2876076  10.7754088  55.2189610  13.5906529   9.5015663  54.7906424
   8.8111683  12.8515163  62.0971526   8.6656264  13.1655466  62.9895808
   8.3336887  13.4700064  61.5442425  17.4680386  23.3805839  56.9695629
  17.6417263  22.8152261  56.2169481  17.9609277  24.1806734  56.7875118
  23.3219777  16.1442262  58.5885928  23.7650923  15.3949587  58.1905052
  22.4446287  16.1352398  58.2059660  18.4555558  22.6972603  54.0692527
  19.1506463  23.3179296  54.2879841  18.7978708  21.8467954  54.3444905
  20.3546981  20.1472309  55.5979858  20.8798305  20.4859581  54.8729178
  20.2669334  19.2119324  55.4142992  12.0167030  24.0606382  67.7269734
  12.3254156  23.8155529  68.5992434  12.8142512  24.2653021  67.2388604
  12.0387642  26.2144292  59.9575111  11.5992632  25.7220671  60.6507967
  12.7895759  25.6717259  59.7167186   4.5179981  22.4055833  59.9599739
   5.3438001  22.1059605  59.5798382   4.1674033  21.6363455  60.4089527
   9.4861514  21.7582301  62.0297412   8.8641523  21.0953006  61.7299640
  10.1566381  21.7843433  61.3471060   2.7188586  20.3242159  60.9188672
   1.8820494  19.8964334  60.7372674   2.6912231  20.5174602  61.8559464
  20.0440887  20.7805212  70.9031056  19.2536431  20.7629351  70.3635555
  19.8074242  21.3193506  71.6580092  20.1638762  17.6297679  68.2163784
  20.2136767  17.4647686  69.1579307  20.0552686  16.7624938  67.8261665
   9.0475021  20.3086224  55.5055873   9.1963141  20.9921689  54.8522546
   9.8541464  20.2891314  56.0205329  17.4542525  13.6128607  69.5323091
  18.3552387  13.4735071  69.2407089  17.5290499  13.7783061  70.4721268
  11.7885330  10.9895461  68.3776277  10.9188639  11.2829027  68.1058866
  12.0244810  11.5735906  69.0983541  21.6656959  20.0494620  68.4605806
  21.3741767  20.4124601  69.2969267  21.0529090  19.3361628  68.2819138
  22.8652641  17.6147500  60.9808376  23.6999533  18.0537304  61.1445936
  23.0011770  17.1386153  60.1616622  19.9144147  15.1727235  66.9285864
  20.3898269  15.3654881  66.1204715  18.9909713  15.2286421  66.6829247
   6.8027654  16.3351402  56.5116942   6.5573696  15.4313732  56.7097152
   6.9723568  16.3368552  55.5696420  12.5470426  22.8034355  52.9767620
  11.9744394  23.4224542  52.5238092  13.1203220  23.3533716  53.5107542
  18.6145816  12.0492995  65.1614169  19.5663239  12.1491092  65.1826393
  18.4449267  11.2571263  65.6712254  16.6360196   9.1348578  65.3473570
  16.0410128   9.4153591  64.6520059  16.3509893   9.6242479  66.1190311
  15.7667686  23.0871505  54.1076203  16.6998359  23.0217067  54.3109078
  15.6790899  23.9227772  53.6490735  18.3955703  22.4037375  51.0680150
  18.3169334  22.0697239  51.9615908  19.2165370  22.8959143  51.0671623
  21.0933894  15.2699114  64.2756469  21.0610214  14.3315115  64.4616153
  21.7034518  15.3483151  63.5422294  12.9317225  14.1395167  50.3183673
  13.8776330  14.0101376  50.3872091  12.5531470  13.4009829  50.7953101
  21.2428383  12.0610158  64.3214752  20.7267431  11.2768615  64.1344681
  22.1268331  11.7328875  64.4861272  18.9039110   5.8051173  60.2810565
  18.7063931   5.4966262  61.1653897  19.5138815   6.5312812  60.4108495
  26.9110444  16.3315121  63.4162506  27.6413832  16.0700409  63.9770209
  26.3017389  15.5943843  63.4564574  24.9925741  14.4722984  64.0136957
  24.2658905  14.3378949  63.4053448  24.5773028  14.7799813  64.8193675
  12.8155918  18.1912914  71.7784330  13.7358927  18.3691513  71.9724376
  12.7805501  17.2468959  71.6264029  11.1160142  12.0645144  50.2538558
  10.2091598  11.7678257  50.3301272  11.3936123  11.7674962  49.3872844
   5.8117990  16.1013948  64.4207111   6.0304000  17.0331056  64.4395145
   6.2243764  15.7421923  65.2061915  10.6845855  11.6747154  73.8109860
  10.5842582  12.6241511  73.7421951  10.4667397  11.3465393  72.9385930
  18.0391563   7.7960606  57.5385760  17.4590232   8.4545410  57.1563813
  17.7727496   6.9737950  57.1273178  16.4895130   7.1965663  59.7407081
  16.9894908   7.3082198  58.9321399  17.1330738   6.8926716  60.3807889
  10.5477125  15.1044293  72.6274922  10.0644207  15.9044653  72.8338811
  10.6338064  15.1152238  71.6742366   3.8163085  16.9372673  60.5496741
   3.7933773  17.0360360  59.5978624   4.1263722  17.7837823  60.8713907
   6.4750463  18.9948828  64.6643355   7.4293716  18.9632770  64.5973287
   6.2762987  18.5339451  65.4793581   7.0649845  17.5649944  67.2314153
   7.8842734  18.0594022  67.2548990   7.3386653  16.6481912  67.2031721
  16.8216441   9.9560696  56.5942109  15.9342296  10.2410347  56.3762303
  17.2370430   9.7954459  55.7469385  20.1730977   9.9807217  60.3096448
  20.9491368  10.4703669  60.5821065  19.4479112  10.4065271  60.7668317
  22.6103536  10.6934836  61.3670388  23.2048027  10.4530572  60.6563697
  22.6830120   9.9741967  61.9943925   4.8300692  24.5368447  61.6813553
   4.6955160  23.7768848  61.1151551   4.4132754  25.2609347  61.2142342
  15.9659655  19.7205371  50.6890129  16.6695505  19.9255373  51.3047784
  15.2422303  20.2882132  50.9539212  16.7957465  15.4715232  56.8092399
  16.7392666  15.9283783  55.9700031  17.3485807  14.7105916  56.6315241
  20.6062271  11.2604964  57.6342518  20.3499205  10.8601599  58.4650726
  19.9815139  11.9748758  57.5092657  24.9174609  14.0001037  60.1413810
  24.3574167  14.0694226  60.9145372  24.3118112  13.8242022  59.4213306
   7.9869818  25.4337764  61.8931996   7.8702202  26.3783197  61.7910686
   7.1662264  25.1311326  62.2817795  17.8746352  20.1587900  52.7388589
  18.7091956  19.7269098  52.5566063  17.7130695  19.9869913  53.6665483
  17.5292244  16.6620013  54.1044928  17.4741048  16.4964285  53.1633372
  16.9038300  17.3696046  54.2607118  14.8438151  18.9668925  73.4298491
  15.7129311  19.1409577  73.0685126  14.3644903  19.7863342  73.3074220
   9.0124332  26.0866026  65.1087924   9.9151578  26.1189636  65.4254419
   8.7861702  25.1566477  65.1234260  10.7677934  24.8397013  61.7698003
   9.8173565  24.8398874  61.6562375  11.0710420  24.0929747  61.2534038
  26.5030627  30.6757551  62.8343765  27.1409037  30.5564298  62.1307105
  26.3851470  31.6238395  62.8931718  23.3120334  30.6284979  62.7705290
  22.9738845  30.5126044  61.8825825  24.1810102  30.2276144  62.7506296
  19.1707149  32.4820455  58.7602181  18.6072014  32.3910392  57.9918469
  19.0559544  31.6620360  59.2404674  23.7940117  31.7819831  68.7291496
  23.7828757  31.3872629  67.8571999  23.9560756  31.0485903  69.3225267
  16.7171581  33.9771647  61.5986401  17.5092873  33.6362472  61.1832701
  16.9568231  34.0866622  62.5188555  24.7506708  36.1491423  54.0716646
  24.0994688  36.7345504  53.6850660  25.5451071  36.6797618  54.1311683
  18.6762335  33.2380560  54.4703780  19.4493211  32.6909547  54.3316656
  19.0287734  34.1024810  54.6818242  20.5147378  34.5656943  67.6770680
  20.2237244  35.4702573  67.5617346  21.1504362  34.6073470  68.3914749
  21.4403584  31.9433791  64.2672039  22.0367157  31.7189813  63.5529002
  21.4978556  31.2018537  64.8697487  21.0128613  29.3973226  52.1022230
  21.2654134  28.8754748  51.3405693  20.0753172  29.2339372  52.2048914
  26.0571896  28.4009005  59.9096973  26.8434985  27.9828428  59.5587390
  26.3210600  29.3055097  60.0778622  26.2281973  33.8381855  54.6085630
  25.5927806  33.9116482  55.3206535  25.8979379  34.4275454  53.9304709
  31.4580323  28.3384238  60.8129952  32.1905495  27.7683455  61.0467781
  30.7019679  27.9505838  61.2536457  20.7324902  31.3001332  54.3046605
  20.6161160  30.6246236  54.9727689  20.8427162  30.8133706  53.4878758
  23.0756443  30.7611479  58.0093294  22.7114650  30.2342100  58.7206216
  23.9323558  30.3709948  57.8359780  28.9805743  22.0505812  65.2724560
  28.6489068  22.9201223  65.0485775  28.3851357  21.7342096  65.9518591
  22.7161930  25.7901379  53.0054643  22.8836332  26.6581616  53.3725114
  22.5259099  25.9528661  52.0815932  25.4737263  34.2518358  64.6720473
  25.1737986  35.1543397  64.5636280  25.1288322  33.9850541  65.5241626
  18.9249744  30.7032155  60.7057178  18.0000241  30.5708369  60.9134869
  19.1734157  31.4826374  61.2027120  28.8734407  26.7700898  62.3517911
  27.9651284  26.7016307  62.0576672  28.8222002  27.2472843  63.1799736
  22.6951150  28.2459037  53.9901310  22.5750776  28.6916087  54.8286790
  22.0003739  28.5944354  53.4314848  16.2858555  30.3465428  61.5400967
  16.4150936  30.5999907  62.4540378  15.6056007  30.9393136  61.2205622
  20.4558043  41.0162678  57.6391441  20.3782072  41.9670503  57.7179921
  19.8519686  40.6708551  58.2966367  22.9475272  28.1890544  70.2952808
  22.1708606  28.7484464  70.2855672  23.5865835  28.6747327  70.8167678
  30.7396053  24.9717337  64.1295784  30.0970433  25.2649870  63.4835579
  30.2350981  24.8570257  64.9348981  28.3936217  28.7180510  54.8181644
  29.3054073  28.9507897  54.6429341  27.8845864  29.3017554  54.2556722
  21.2021645  30.9975997  69.8570775  21.9436329  31.5361041  69.5805598
  20.4958630  31.6242286  70.0142327  26.6776984  33.1405138  68.4542936
  27.0860340  32.6987548  67.7097569  25.9554246  32.5657765  68.7077129
  23.0308054  28.0777744  65.8276493  23.8769249  28.5017158  65.9711142
  22.9706692  27.4211369  66.5215056  27.0005799  33.7006328  62.2095225
  26.3714661  33.8652042  61.5071293  26.6131461  34.1147938  62.9806189
  30.8795031  34.6360766  59.5639589  30.1946069  35.0159667  59.0136622
  30.9638880  35.2456093  60.2971537  26.1807500  25.7382113  67.4857667
  25.9368431  26.4924173  66.9491943  26.4567430  26.1167460  68.3204914
  28.1345962  32.2820725  66.1634932  28.3462858  32.9252485  65.4869314
  28.0875711  31.4483042  65.6956863  25.7372191  24.8938546  63.0671505
  24.8756670  25.1919799  63.3588242  25.7634626  25.1108945  62.1352537
  22.5533761  33.4380736  59.4745310  23.0172106  33.7168439  58.6849933
  22.2890559  32.5364181  59.2918401  19.4457842  32.9852218  62.4125074
  20.0159199  33.4139486  61.7742558  20.0365954  32.7034803  63.1109259
  21.4902647  29.5603889  56.2834875  22.1926690  30.0124932  56.7508802
  21.1583275  28.9187708  56.9114769  19.9383008  28.1515645  70.6586085
  19.3081669  28.8331926  70.8921482  19.8319096  28.0398727  69.7139223
  15.2327981  27.8187441  61.5852009  14.4427035  28.0744970  61.1092120
  15.7239228  28.6335779  61.6904050  29.2491790  35.1592681  64.3357290
  30.0709234  34.7572868  64.0539971  29.2454193  35.0560915  65.2873406
  17.1842726  28.1832021  58.5435486  16.3873889  28.2950715  59.0618981
  16.9568318  28.5218673  57.6776376  23.0148394  34.7076724  66.4918000
  23.0792826  35.1697131  67.3276172  22.3059318  34.0774089  66.6200310
  13.5165684  28.0717932  64.0167000  13.7673722  28.9564942  64.2824576
  14.0525232  27.8922533  63.2442092  37.3397783  31.5031429  60.6842261
  36.5861492  30.9338827  60.5286266  37.4745325  31.4694094  61.6312896
  22.7296411  36.3744831  56.3596981  22.5942086  37.2196367  56.7881828
  23.2706224  36.5764109  55.5962914  19.2163751  22.4536411  73.0211336
  18.8230697  21.9002610  73.6958980  20.0329891  22.7646990  73.4117853
  16.1825809  33.8920269  56.9324906  16.6950329  34.6863520  57.0830470
  16.8348522  33.1946560  56.8658507  17.9920694  37.0086026  59.0147659
  18.1687322  37.9303990  58.8268643  18.7877527  36.6944445  59.4442039
  22.1331712  23.8694290  70.6131592  22.8741425  24.4701443  70.5336055
  22.3649635  23.1271928  70.0549635  17.2773050  29.0550658  68.8909822
  17.1626565  28.1535915  69.1916921  16.4217568  29.3014354  68.5394639
  24.3564888  36.9968398  70.4897323  23.9128742  36.2104776  70.1718227
  25.0182101  37.1847548  69.8241214  19.1152009  38.5264199  65.0158001
  19.6659434  38.3981263  64.2434995  18.2763485  38.8259088  64.6652894
  26.4546126  37.2771198  68.5178724  26.4364601  38.0980079  68.0258993
  27.3766046  37.1525273  68.7428865  22.9119180  34.7915327  69.3602232
  23.4447517  34.0303615  69.1301540  22.3833261  34.4988979  70.1026387
  26.0788875  19.8975393  64.8895874  25.7353144  20.7877035  64.8134985
  26.4467838  19.7077051  64.0265459  14.1474726  32.2208924  57.7084476
  14.9849948  32.6305932  57.4918184  14.3252993  31.2808366  57.6784670
  26.0439158  29.8884004  53.3968309  25.5285781  30.6588609  53.6356697
  25.7716466  29.2149140  54.0201371  23.6286269  24.7333705  58.4553548
  22.7727865  24.3440556  58.2759186  24.0413221  24.8125666  57.5953333
  25.1585415  22.2680048  62.8545107  24.6550211  22.2310184  62.0412913
  25.4516022  23.1772791  62.9141764  21.4028301  22.3518778  61.8611289
  22.2681298  22.1561587  61.5017179  21.4705810  22.1229130  62.7880646
  31.0173432  32.6416359  55.3321483  30.2402875  32.3027518  54.8876645
  31.6964913  32.6468982  54.6576448  25.8325461  27.7611096  55.2228090
  25.5275596  28.0757246  56.0738234  26.7855903  27.8392516  55.2655423
  24.2771893  33.9201320  56.8721044  23.7493254  33.1854079  56.5594282
  23.7759395  34.6975996  56.6261013  29.2564739  32.1150340  61.9888091
  28.5988413  32.8049602  62.0768219  30.0605138  32.5046772  62.3322077
  19.0090620  24.5820986  59.2327656  19.5834372  24.3596168  58.5000849
  19.5961603  24.6509681  59.9856257  28.0670198  30.4694713  60.0392032
  28.5802079  31.1024705  60.5413742  28.7171421  29.8695908  59.6735392
  19.3360207  26.6125447  53.2523541  18.4997520  26.9500134  53.5732816
  19.1964977  26.4774427  52.3150678  21.3113288  21.4562235  57.9602725
  20.6577700  21.1411252  57.3359340  21.2693762  20.8337975  58.6862548
  22.4224493  31.7381530  49.8756017  21.5151555  31.5070783  50.0747166
  22.9195525  30.9419149  50.0629999  25.3292572  40.4479037  52.7952704
  24.6554271  40.7510734  53.4037661  25.7158394  41.2508118  52.4458161
  24.5451028  27.9444168  62.2850373  23.6273590  28.1659115  62.1272061
  24.9611172  28.0190479  61.4262080  25.3286076  29.3435584  57.4153053
  26.0757895  29.8556981  57.1060175  25.5977666  29.0219637  58.2757447
  23.6012726  31.8394125  54.3980008  22.6923946  31.5553158  54.4952477
  23.6307810  32.2593203  53.5383314  28.8331994  35.4500714  58.1671175
  28.3794321  34.6091624  58.2236366  28.2025960  36.0862113  58.5045955
  27.7764913  26.3792700  59.3971843  27.0387670  25.8670087  59.7282085
  28.0291687  25.9393082  58.5855119  27.2764933  37.2877211  59.1020993
  27.5687907  37.8482268  58.3833359  27.7863554  37.5805772  59.8574152
  27.8776541  19.1568952  59.9913612  28.1835417  18.2966316  59.7039527
  28.6029145  19.7486573  59.7912606  14.1700897  29.5599639  58.3795210
  13.9725297  28.9669000  57.6546276  13.6147561  29.2551849  59.0971149
  22.1497620  29.4522745  60.4989803  22.2046230  28.4996582  60.4232279
  21.3388822  29.6082185  60.9831101  23.2988814  33.3802869  51.7368086
  22.8608244  32.6638727  51.2773723  24.0399255  33.6078983  51.1753177
  20.0889980  28.0699805  58.2580182  19.2757846  28.3693976  58.6645374
  20.5848975  27.6755494  58.9754664  22.2398558  38.0657562  60.1914446
  22.1974737  38.2918408  59.2622978  23.1561257  37.8320937  60.3400248
  25.6864192  28.5341630  67.0895076  26.0413580  28.7613103  67.9489541
  26.3336323  28.8660006  66.4672331  31.4161929  31.6560066  57.7944405
  31.2779828  31.8461662  56.8665594  31.0598148  32.4179448  58.2512456
  19.5804055  25.6418161  63.8741417  20.2203434  25.5006920  63.1764380
  18.7481586  25.3552674  63.4980019  31.4431309  33.7236593  62.8055676
  31.8767815  33.6311882  63.6538730  32.1562889  33.6994093  62.1675692
  20.3564359  34.9420591  59.9876409  21.1504957  34.4470911  59.7858984
  19.6456051  34.4138454  59.6244115  25.1759203  37.3238687  64.3388777
  25.2296226  37.8929623  65.1066493  24.3073985  37.4940572  63.9742814
  16.6647122  29.0863673  56.0636162  15.7344711  29.0248128  56.2806124
  16.7604594  28.5639626  55.2672803  16.5832672  25.6118486  58.6514403
  16.8439489  26.5263819  58.5423564  17.4049844  25.1442928  58.8011016
  18.0557597  27.0256243  65.8213228  18.7280650  26.8173605  65.1725877
  17.2287383  26.8278329  65.3818460  32.3046858  33.7660293  65.3388562
  32.4982748  34.6706104  65.5847836  32.2047476  33.3067712  66.1727147
  23.9583169  23.6518184  67.8378889  23.3111084  24.3508133  67.7443365
  24.7284184  24.0854328  68.2055137  27.3661967  33.9167036  70.9129442
  27.2147473  33.6877588  69.9959526  27.3566646  34.8737637  70.9260787
  24.1347303  31.4898949  65.8975709  25.0639363  31.6410108  65.7244676
  23.7138333  31.5782970  65.0424355  22.9335635  35.5149613  63.6674246
  22.7946721  35.1468398  64.5400184  22.1450231  36.0297253  63.4958204
  23.5283787  40.6158710  55.0099783  23.7035543  40.1446753  55.8245405
  22.8416575  41.2424476  55.2381043  24.4840850  34.8931216  61.0563084
  24.1490683  34.8531986  61.9520734  23.9844796  34.2275932  60.5833494
  18.4585094  30.2998846  66.5815665  18.3204892  29.5679085  67.1827204
  19.3690018  30.2107746  66.2999853  27.4200042  32.2387250  51.3300144
  26.8029212  31.5134078  51.2333196  26.9516530  32.9996610  50.9867218
  21.0867395  30.0118805  66.0699345  21.7967013  29.3711997  66.0285963
  21.0436703  30.2631700  66.9925526  29.0754173  36.9486159  68.9905924
  29.0166720  36.2645379  68.3236507  29.4773692  37.6905149  68.5386550
  19.7996329  26.9984023  67.8894984  19.2633686  26.5474762  68.5416581
  19.2113037  27.1329932  67.1465449  18.0944872  43.7648072  61.7839643
  18.3341470  44.3966597  62.4618662  17.2514069  43.4136112  62.0705002
  19.2098588  26.4572675  50.4521448  18.3328054  26.3361475  50.0883695
  19.6856341  25.6658753  50.2000337  29.0771581  34.9125742  67.2219904
  28.1898359  34.5751664  67.3446303  29.6470132  34.1808774  67.4588669
  10.7300728  31.2449834  60.5462955  11.4171768  30.9311564  59.9583970
  10.5748857  32.1491199  60.2730207  15.5335450  26.1340031  64.9747979
  15.4493639  25.5265700  64.2398389  14.7118156  26.6249049  64.9757475
  22.6072734  39.5727195  64.1881147  22.5342906  40.3782166  64.7000451
  22.1650127  39.7719161  63.3629168  22.3962514  38.8098965  57.6983968
  21.6130036  39.3520645  57.7922193  23.0955259  39.3272944  58.0978210
  25.7059164  24.6193594  60.3418174  26.2027863  23.8663557  60.0219244
  24.9346145  24.6557911  59.7761383  33.5588921  30.3233960  61.9836465
  33.5478797  31.2058675  61.6130398  32.6906301  29.9705511  61.7891002
  25.0671418  39.4714029  66.3439306  25.7799390  40.1061494  66.2715207
  24.5761446  39.5677895  65.5279307  26.7888945  33.3765282  57.9156597
  25.8545223  33.4966744  57.7461302  26.9665613  32.4737748  57.6516607
  22.2894133  26.7610977  60.0689858  21.9191920  26.2082018  60.7570764
  22.7853225  26.1569111  59.5164858  30.1761496  29.2182601  58.4506631
  30.6421948  30.0510592  58.3766934  30.6268996  28.7527582  59.1551890
  20.1183331  37.2208472  67.1644876  20.8192791  37.8544955  67.3174271
  19.6478446  37.5623204  66.4040516  28.2437727  35.5626422  55.4492783
  28.5197571  35.4483017  56.3586658  27.3742226  35.1643907  55.4104957
  28.1478159  21.5863188  62.4897533  27.2341238  21.8167415  62.6579740
  28.5771260  21.6701632  63.3411565  27.9184617  29.7753080  64.9897427
  27.2656067  30.0228987  64.3349880  28.2964997  28.9617218  64.6559904
  24.8791791  39.8112773  59.0925597  25.0614186  38.9934429  59.5553349
  25.7024777  40.0280465  58.6550487  25.2133957  38.7380958  56.3540646
  25.7421723  38.2273413  55.7410808  25.4762176  38.4223488  57.2186179
  23.9672190  30.5172891  71.4763464  23.2912827  30.4167020  72.1465839
  24.7899824  30.3612105  71.9399461  15.7151049  36.7544827  64.0975979
  16.3004486  36.0088515  64.2303883  15.5175888  37.0648784  64.9812643
  18.5689704  39.7896075  59.1138421  17.9000080  40.2742202  58.6302462
  18.4302574  40.0365295  60.0281800  10.3068704  29.3250428  62.8180422
  10.3452803  28.7914018  63.6117540   9.8008997  28.7985633  62.1991399
  22.7094973  41.8239818  65.7121080  23.2613281  41.9871440  66.4770165
  23.0501166  42.4144256  65.0401105  17.6859466  24.1714968  66.3142965
  17.7500793  25.0329799  65.9020362  17.6226586  23.5588970  65.5815323
  17.1611739  26.2438101  69.9615999  17.7883778  25.8615178  70.5753523
  16.3039658  26.0252303  70.3271691  27.5605847  36.6501076  71.5669734
  28.1045751  37.2631034  71.0724689  26.9792692  37.2080654  72.0836747
  13.9377282  28.0514530  55.8934354  14.2330723  27.1425208  55.8401407
  13.0365317  28.0302269  55.5715356  25.8463360  39.7721794  62.6984762
  25.7214500  38.9711534  62.1895707  26.5042451  40.2667987  62.2098732
  17.4671529  26.1270526  61.8761902  16.7458114  26.7406494  61.7369376
  18.2564784  26.6628291  61.7978548  27.9098269  37.5730814  64.3264312
  26.9628604  37.4536165  64.2542639  28.2581042  36.6853312  64.4090574
  20.2697842  23.4624953  68.1502554  20.7932244  23.7087249  68.9128863
  20.0510175  24.2944988  67.7305691  15.6665123  25.7328627  56.0173679
  15.3377829  24.8526006  55.8348785  16.0204494  25.6776296  56.9050068
  24.9144702  37.3683530  60.5268664  24.7669664  36.4400238  60.7076234
  25.7398195  37.3903621  60.0425740  18.7806946  26.0201597  56.3849156
  19.1203019  26.5487518  55.6627765  19.2279067  26.3582003  57.1607723
  28.5178824  38.1912089  61.6133537  29.4425371  37.9854950  61.4757988
  28.3494127  37.9428490  62.5222879  21.4750387  24.4038648  65.8352225
  21.1347207  23.6046461  66.2372904  20.7689393  24.7040359  65.2629058
  22.1266859  21.4887960  64.2879548  22.9492928  21.0148439  64.1658438
  22.3704922  22.2678444  64.7878234  20.7675093  24.5176219  54.5842449
  21.4883456  24.8957472  54.0806166  20.1440398  25.2365096  54.6877427
  24.9106216  25.2221368  55.5200782  25.1269831  26.1046006  55.2189610
  24.4300283  24.8307581  54.7906424  19.6505438  28.1807081  62.0971526
  19.5050018  28.4947384  62.9895808  19.1730641  28.7991981  61.5442425
  21.5101821  25.1709629  62.1452416  21.4963389  24.2750722  61.8084714
  22.2274249  25.1780293  62.7790702  23.3627951  25.6046969  64.1905543
  23.1045729  26.5264040  64.1889874  22.8312992  25.2077404  64.8806007
  28.3074140  38.7097756  56.9695629  28.4811018  38.1444179  56.2169481
  28.8003031  39.5098651  56.7875118  14.1251100  30.7212425  65.0359187
  13.5804568  31.4972233  65.1679462  15.0030450  31.0683230  64.8778309
  20.9138716  24.0524009  57.4139986  21.0354628  23.1240655  57.6130873
  20.6240759  24.0662695  56.5018301  23.7829907  21.7378920  60.5506706
  23.8051604  21.8018253  59.5958685  24.1997966  20.8983428  60.7447212
  34.1613531  31.4734179  58.5885928  34.6044677  30.7241504  58.1905052
  33.2840041  31.4644316  58.2059660  29.2949313  38.0264521  54.0692527
  29.9900217  38.6471213  54.2879841  29.6372463  37.1759872  54.3444905
  14.9117122  29.8482322  67.9289344  14.1698858  29.9964957  68.5153975
  14.5909866  30.1090587  67.0656094  31.1940736  35.4764226  55.5979858
  31.7192060  35.8151499  54.8729178  31.1063088  34.5411242  55.4142992
  22.8560784  39.3898300  67.7269734  23.1647911  39.1447447  68.5992434
  23.6536266  39.5944938  67.2388604  22.8781396  41.5436210  59.9575111
  22.4386387  41.0512588  60.6507967  23.6289513  41.0009177  59.7167186
  15.3573735  37.7347750  59.9599739  16.1831755  37.4351522  59.5798382
  15.0067787  36.9655373  60.4089527  20.3255269  37.0874219  62.0297412
  19.7035278  36.4244924  61.7299640  20.9960135  37.1135350  61.3471060
  13.5582340  35.6534077  60.9188672  12.7214249  35.2256251  60.7372674
  13.5305986  35.8466520  61.8559464  20.3979796  25.5656007  71.6229918
  20.4467952  26.4418129  71.2407688  20.9402310  25.0233400  71.0501562
  30.8834642  36.1097130  70.9031056  30.0930185  36.0921269  70.3635555
  30.6467996  36.6485424  71.6580092  31.0032517  32.9589596  68.2163784
  31.0530522  32.7939604  69.1579307  30.8946440  32.0916855  67.8261665
  19.8868775  35.6378142  55.5055873  20.0356896  36.3213606  54.8522546
  20.6935219  35.6183232  56.0205329  28.2936279  28.9420524  69.5323091
  29.1946142  28.8026989  69.2407089  28.3684254  29.1074979  70.4721268
  22.6279084  26.3187379  68.3776277  21.7582394  26.6120945  68.1058866
  22.8638565  26.9027824  69.0983541  32.5050714  35.3786538  68.4605806
  32.2135522  35.7416518  69.2969267  31.8922845  34.6653546  68.2819138
  33.7046396  32.9439418  60.9808376  34.5393287  33.3829222  61.1445936
  33.8405525  32.4678071  60.1616622  30.7537902  30.5019152  66.9285864
  31.2292023  30.6946799  66.1204715  29.8303467  30.5578338  66.6829247
  17.6421408  31.6643320  56.5116942  17.3967450  30.7605650  56.7097152
  17.8117323  31.6660470  55.5696420  25.3318118  22.5366996  65.8941697
  25.8500062  23.2728023  65.5688186  24.9773251  22.8430989  66.7288457
  16.9117056  27.3971677  54.0103103  16.2186301  27.4716032  53.3543139
  16.6668808  26.6332021  54.5324620  25.5830712  18.9567278  61.4142594
  25.8632466  18.2890468  62.0403021  26.3681319  19.1496374  60.9017258
  23.3864181  38.1326272  52.9767620  22.8138148  38.7516460  52.5238092
  23.9596975  38.6825634  53.5107542  29.4539571  27.3784912  65.1614169
  30.4056994  27.4783010  65.1826393  29.2843021  26.5863181  65.6712254
  27.4753950  24.4640496  65.3473570  26.8803882  24.7445508  64.6520059
  27.1903647  24.9534397  66.1190311  26.6061441  38.4163423  54.1076203
  27.5392114  38.3508984  54.3109078  26.5184654  39.2519689  53.6490735
  29.2349457  37.7329293  51.0680150  29.1563089  37.3989156  51.9615908
  30.0559124  38.2251061  51.0671623  31.9327649  30.5991032  64.2756469
  31.9003969  29.6607033  64.4616153  32.5428272  30.6775069  63.5422294
  23.7710979  29.4687085  50.3183673  24.7170084  29.3393293  50.3872091
  23.3925224  28.7301747  50.7953101  32.0822137  27.3902076  64.3214752
  31.5661186  26.6060532  64.1344681  32.9662086  27.0620792  64.4861272
  29.7432864  21.1343091  60.2810565  29.5457685  20.8258179  61.1653897
  30.3532570  21.8604730  60.4108495  37.7504198  31.6607039  63.4162506
  38.4807587  31.3992327  63.9770209  37.1411144  30.9235761  63.4564574
  35.8319496  29.8014902  64.0136957  35.1052659  29.6670867  63.4053448
  35.4166782  30.1091730  64.8193675  23.6549672  33.5204831  71.7784330
  24.5752681  33.6983430  71.9724376  23.6199255  32.5760877  71.6264029
  21.9553897  27.3937062  50.2538558  21.0485352  27.0970174  50.3301272
  22.2329878  27.0966880  49.3872844  12.8731837  28.7143425  60.7037605
  12.5534621  27.8608733  60.4111979  12.3265265  28.9292003  61.4595572
  16.6511745  31.4305866  64.4207111  16.8697754  32.3622974  64.4395145
  17.0637518  31.0713840  65.2061915  23.5715962  21.9373951  56.4082799
  22.7616691  21.5921036  56.7838045  24.2600379  21.6281495  56.9970411
  25.5006511  21.0151998  58.0307096  26.0537549  21.4347451  58.6897119
  25.7376597  20.0887746  58.0730052  21.5239610  27.0039072  73.8109860
  21.4236337  27.9533429  73.7421951  21.3061152  26.6757311  72.9385930
  20.7252681  24.2523997  50.3950537  21.5871845  24.5778895  50.6546355
  20.9103025  23.4655493  49.8823603  12.7420097  32.3346336  62.6730726
  12.0483568  31.9200289  62.1600681  13.4893088  32.3766873  62.0764145
  28.8785318  23.1252523  57.5385760  28.2983987  23.7837327  57.1563813
  28.6121250  22.3029868  57.1273178  27.3288884  22.5257581  59.7407081
  27.8288662  22.6374115  58.9321399  27.9724492  22.2218634  60.3807889
  21.3870880  30.4336211  72.6274922  20.9037962  31.2336571  72.8338811
  21.4731819  30.4444155  71.6742366  14.6556840  32.2664590  60.5496741
  14.6327528  32.3652277  59.5978624  14.9657476  33.1129741  60.8713907
  17.3144217  34.3240745  64.6643355  18.2687471  34.2924688  64.5973287
  17.1156741  33.8631369  65.4793581  17.9043600  32.8941861  67.2314153
  18.7236489  33.3885940  67.2548990  18.1780407  31.9773829  67.2031721
  27.6610196  25.2852614  56.5942109  26.7736051  25.5702264  56.3762303
  28.0764185  25.1246377  55.7469385  31.0124732  25.3099135  60.3096448
  31.7885122  25.7995587  60.5821065  30.2872866  25.7357189  60.7668317
  33.4497291  26.0226754  61.3670388  34.0441781  25.7822490  60.6563697
  33.5223874  25.3033884  61.9943925  15.6694446  39.8660365  61.6813553
  15.5348914  39.1060766  61.1151551  15.2526508  40.5901265  61.2142342
  26.8053409  35.0497288  50.6890129  27.5089259  35.2547291  51.3047784
  26.0816058  35.6174050  50.9539212  27.6351219  30.8007150  56.8092399
  27.5786421  31.2575701  55.9700031  28.1879562  30.0397834  56.6315241
  31.4456025  26.5896881  57.6342518  31.1892960  26.1893517  58.4650726
  30.8208893  27.3040675  57.5092657  35.7568363  29.3292955  60.1413810
  35.1967921  29.3986144  60.9145372  35.1511867  29.1533939  59.4213306
  18.8263572  40.7629682  61.8931996  18.7095956  41.7075114  61.7910686
  18.0056018  40.4603243  62.2817795  28.7140107  35.4879817  52.7388589
  29.5485711  35.0561016  52.5566063  28.5524450  35.3161831  53.6665483
  28.3685999  31.9911931  54.1044928  28.3134803  31.8256202  53.1633372
  27.7432054  32.6987964  54.2607118  13.1578514  27.2279995  67.9306350
  13.8037377  26.7178949  68.4193575  12.9495665  27.9648677  68.5049775
  25.6831906  34.2960843  73.4298491  26.5523066  34.4701495  73.0685126
  25.2038657  35.1155259  73.3074220  21.6782124  21.4920040  53.6830246
  21.6660794  22.4361880  53.8398517  22.5705546  21.3090185  53.3889708
  19.8518086  41.4157944  65.1087924  20.7545333  41.4481554  65.4254419
  19.6255456  40.4858395  65.1234260  21.6071688  40.1688930  61.7698003
  20.6567319  40.1690792  61.6562375  21.9104174  39.4221665  61.2534038
  25.4934244  18.0862816  57.9376183  24.7266640  17.5321303  58.0832865
  25.9044949  18.1584685  58.7990335  17.4976005  24.3747612  72.0281364
  18.3607466  24.0184417  72.2384689  16.9241415  24.0361507  72.7156769
  37.3424382  46.0049469  62.8343765  37.9802792  45.8856216  62.1307105
  37.2245225  46.9530313  62.8931718  34.1514088  45.9576897  62.7705290
  33.8132600  45.8417961  61.8825825  35.0203856  45.5568062  62.7506296
  30.0100904  47.8112373  58.7602181  29.4465769  47.7202310  57.9918469
  29.8953299  46.9912278  59.2404674  34.6333871  47.1111748  68.7291496
  34.6222512  46.7164547  67.8571999  34.7954510  46.3777821  69.3225267
  27.5565336  49.3063565  61.5986401  28.3486628  48.9654389  61.1832701
  27.7961986  49.4158540  62.5188555  35.5900462  51.4783341  54.0716646
  34.9388442  52.0637421  53.6850660  36.3844825  52.0089536  54.1311683
  29.5156090  48.5672478  54.4703780  30.2886966  48.0201465  54.3316656
  29.8681488  49.4316727  54.6818242  31.3541132  49.8948860  67.6770680
  31.0630998  50.7994491  67.5617346  31.9898116  49.9365388  68.3914749
  32.2797339  47.2725709  64.2672039  32.8760911  47.0481731  63.5529002
  32.3372311  46.5310454  64.8697487  31.8522367  44.7265144  52.1022230
  32.1047888  44.2046665  51.3405693  30.9146926  44.5631290  52.2048914
  36.8965650  43.7300922  59.9096973  37.6828739  43.3120346  59.5587390
  37.1604355  44.6347015  60.0778622  37.0675728  49.1673773  54.6085630
  36.4321561  49.2408399  55.3206535  36.7373134  49.7567372  53.9304709
  42.2974077  43.6676156  60.8129952  43.0299249  43.0975372  61.0467781
  41.5413433  43.2797756  61.2536457  31.5718656  46.6293250  54.3046605
  31.4554914  45.9538153  54.9727689  31.6820916  46.1425624  53.4878758
  33.9150197  46.0903397  58.0093294  33.5508404  45.5634018  58.7206216
  34.7717313  45.7001866  57.8359780  39.8199498  37.3797730  65.2724560
  39.4882822  38.2493141  65.0485775  39.2245111  37.0634014  65.9518591
  33.5555684  41.1193297  53.0054643  33.7230086  41.9873533  53.3725114
  33.3652853  41.2820579  52.0815932  36.3131017  49.5810276  64.6720473
  36.0131740  50.4835315  64.5636280  35.9682077  49.3142459  65.5241626
  29.7643499  46.0324073  60.7057178  28.8393995  45.9000287  60.9134869
  30.0127912  46.8118292  61.2027120  39.7128161  42.0992816  62.3517911
  38.8045038  42.0308224  62.0576672  39.6615757  42.5764761  63.1799736
  33.5344905  43.5750954  53.9901310  33.4144530  44.0208005  54.8286790
  32.8397493  43.9236272  53.4314848  27.1252310  45.6757346  61.5400967
  27.2544691  45.9291825  62.4540378  26.4449761  46.2685054  61.2205622
  31.2951797  56.3454596  57.6391441  31.2175827  57.2962421  57.7179921
  30.6913441  56.0000469  58.2966367  33.7869027  43.5182461  70.2952808
  33.0102361  44.0776382  70.2855672  34.4259590  44.0039244  70.8167678
  41.5789807  40.3009254  64.1295784  40.9364188  40.5941787  63.4835579
  41.0744736  40.1862175  64.9348981  39.2329971  44.0472427  54.8181644
  40.1447827  44.2799814  54.6429341  38.7239618  44.6309472  54.2556722
  32.0415399  46.3267915  69.8570775  32.7830083  46.8652959  69.5805598
  31.3352385  46.9534204  70.0142327  37.5170739  48.4697055  68.4542936
  37.9254095  48.0279466  67.7097569  36.7948000  47.8949683  68.7077129
  33.8701809  43.4069662  65.8276493  34.7163004  43.8309076  65.9711142
  33.8100446  42.7503286  66.5215056  37.8399553  49.0298246  62.2095225
  37.2108416  49.1943960  61.5071293  37.4525215  49.4439855  62.9806189
  41.7188785  49.9652684  59.5639589  41.0339823  50.3451585  59.0136622
  41.8032635  50.5748010  60.2971537  38.9739717  47.6112643  66.1634932
  39.1856612  48.2544403  65.4869314  38.9269465  46.7774959  65.6956863
  36.5765946  40.2230463  63.0671505  35.7150425  40.5211717  63.3588242
  36.6028380  40.4400862  62.1352537  33.3927515  48.7672654  59.4745310
  33.8565861  49.0460357  58.6849933  33.1284313  47.8656099  59.2918401
  30.2851596  48.3144136  62.4125074  30.8552953  48.7431404  61.7742558
  30.8759708  48.0326720  63.1109259  32.3296401  44.8895806  56.2834875
  33.0320445  45.3416850  56.7508802  31.9977030  44.2479625  56.9114769
  30.7776763  43.4807563  70.6586085  30.1475423  44.1623844  70.8921482
  30.6712851  43.3690645  69.7139223  26.0721735  43.1479359  61.5852009
  25.2820789  43.4036888  61.1092120  26.5632983  43.9627697  61.6904050
  40.0885545  50.4884598  64.3357290  40.9102989  50.0864786  64.0539971
  40.0847948  50.3852832  65.2873406  28.0236481  43.5123938  58.5435486
  27.2267644  43.6242633  59.0618981  27.7962073  43.8510591  57.6776376
  33.8542148  50.0368642  66.4918000  33.9186581  50.4989049  67.3276172
  33.1453072  49.4066006  66.6200310  24.3559438  43.4009850  64.0167000
  24.6067477  44.2856859  64.2824576  24.8918987  43.2214451  63.2442092
  33.5690166  51.7036749  56.3596981  33.4335841  52.5488285  56.7881828
  34.1099978  51.9056027  55.5962914  30.0557506  37.7828329  73.0211336
  29.6624451  37.2294527  73.6958980  30.8723646  38.0938907  73.4117853
  27.0219563  49.2212187  56.9324906  27.5344084  50.0155437  57.0830470
  27.6742276  48.5238478  56.8658507  28.8314448  52.3377943  59.0147659
  29.0081076  53.2595908  58.8268643  29.6271282  52.0236363  59.4442039
  32.9725467  39.1986208  70.6131592  33.7135180  39.7993361  70.5336055
  33.2043389  38.4563846  70.0549635  28.1166805  44.3842575  68.8909822
  28.0020320  43.4827832  69.1916921  27.2611322  44.6306272  68.5394639
  35.1958642  52.3260316  70.4897323  34.7522496  51.5396694  70.1718227
  35.8575856  52.5139466  69.8241214  29.9545763  53.8556117  65.0158001
  30.5053189  53.7273180  64.2434995  29.1157239  54.1551006  64.6652894
  37.2939880  52.6063115  68.5178724  37.2758356  53.4271997  68.0258993
  38.2159800  52.4817191  68.7428865  33.7512935  50.1207245  69.3602232
  34.2841271  49.3595533  69.1301540  33.2227016  49.8280897  70.1026387
  36.9182630  35.2267311  64.8895874  36.5746899  36.1168953  64.8134985
  37.2861592  35.0368969  64.0265459  24.9868480  47.5500841  57.7084476
  25.8243702  47.9597850  57.4918184  25.1646748  46.6100284  57.6784670
  36.8832912  45.2175922  53.3968309  36.3679536  45.9880527  53.6356697
  36.6110221  44.5441058  54.0201371  34.4680023  40.0625623  58.4553548
  33.6121620  39.6732473  58.2759186  34.8806975  40.1417584  57.5953333
  35.9979170  37.5971966  62.8545107  35.4943965  37.5602101  62.0412913
  36.2909777  38.5064709  62.9141764  32.2422056  37.6810696  61.8611289
  33.1075053  37.4853504  61.5017179  32.3099565  37.4521048  62.7880646
  41.8567186  47.9708277  55.3321483  41.0796629  47.6319436  54.8876645
  42.5358667  47.9760900  54.6576448  36.6719215  43.0903014  55.2228090
  36.3669351  43.4049163  56.0738234  37.6249658  43.1684434  55.2655423
  35.1165647  49.2493237  56.8721044  34.5887009  48.5145997  56.5594282
  34.6153150  50.0267914  56.6261013  40.0958493  47.4442258  61.9888091
  39.4382168  48.1341519  62.0768219  40.8998892  47.8338690  62.3322077
  29.8484375  39.9112904  59.2327656  30.4228127  39.6888085  58.5000849
  30.4355357  39.9801598  59.9856257  38.9063952  45.7986631  60.0392032
  39.4195834  46.4316622  60.5413742  39.5565176  45.1987826  59.6735392
  30.1753962  41.9417365  53.2523541  29.3391274  42.2792051  53.5732816
  30.0358732  41.8066345  52.3150678  32.1507043  36.7854153  57.9602725
  31.4971455  36.4703170  57.3359340  32.1087517  36.1629893  58.6862548
  33.2618247  47.0673448  49.8756017  32.3545309  46.8362701  50.0747166
  33.7589279  46.2711067  50.0629999  36.1686326  55.7770955  52.7952704
  35.4948025  56.0802652  53.4037661  36.5552148  56.5800035  52.4458161
  35.3844783  43.2736086  62.2850373  34.4667344  43.4951033  62.1272061
  35.8004927  43.3482397  61.4262080  36.1679831  44.6727502  57.4153053
  36.9151650  45.1848899  57.1060175  36.4371420  44.3511555  58.2757447
  34.4406481  47.1686043  54.3980008  33.5317700  46.8845075  54.4952477
  34.4701565  47.5885121  53.5383314  39.6725748  50.7792632  58.1671175
  39.2188075  49.9383542  58.2236366  39.0419715  51.4154030  58.5045955
  38.6158668  41.7084618  59.3971843  37.8781425  41.1962004  59.7282085
  38.8685441  41.2685000  58.5855119  38.1158688  52.6169129  59.1020993
  38.4081662  53.1774186  58.3833359  38.6257308  52.9097690  59.8574152
  38.7170295  34.4860870  59.9913612  39.0229172  33.6258234  59.7039527
  39.4422900  35.0778490  59.7912606  25.0094651  44.8891557  58.3795210
  24.8119051  44.2960917  57.6546276  24.4541315  44.5843767  59.0971149
  32.9891375  44.7814663  60.4989803  33.0439985  43.8288500  60.4232279
  32.1782577  44.9374102  60.9831101  34.1382569  48.7094786  51.7368086
  33.7001999  47.9930645  51.2773723  34.8793010  48.9370901  51.1753177
  30.9283735  43.3991723  58.2580182  30.1151600  43.6985893  58.6645374
  31.4242729  43.0047412  58.9754664  33.0792313  53.3949480  60.1914446
  33.0368491  53.6210326  59.2622978  33.9955012  53.1612854  60.3400248
  36.5257947  43.8633547  67.0895076  36.8807334  44.0905021  67.9489541
  37.1730078  44.1951924  66.4672331  42.2555683  46.9851983  57.7944405
  42.1173582  47.1753579  56.8665594  41.8991902  47.7471366  58.2512456
  30.4197810  40.9710078  63.8741417  31.0597189  40.8298838  63.1764380
  29.5875340  40.6844592  63.4980019  31.1958113  50.2712509  59.9876409
  31.9898712  49.7762829  59.7858984  30.4849806  49.7430372  59.6244115
  36.0152958  52.6530604  64.3388777  36.0689980  53.2221541  65.1066493
  35.1467739  52.8232489  63.9742814  27.5040877  44.4155591  56.0636162
  26.5738465  44.3540046  56.2806124  27.5998349  43.8931543  55.2672803
  27.4226426  40.9410403  58.6514403  27.6833243  41.8555737  58.5423564
  28.2443598  40.4734846  58.8011016  28.8951351  42.3548161  65.8213228
  29.5674405  42.1465523  65.1725877  28.0681138  42.1570247  65.3818460
  34.7976923  38.9810102  67.8378889  34.1504838  39.6800051  67.7443365
  35.5677939  39.4146245  68.2055137  34.9741058  46.8190866  65.8975709
  35.9033118  46.9702026  65.7244676  34.5532088  46.9074887  65.0424355
  33.7729389  50.8441531  63.6674246  33.6340475  50.4760315  64.5400184
  32.9843986  51.3589170  63.4958204  34.3677541  55.9450627  55.0099783
  34.5429297  55.4738670  55.8245405  33.6810329  56.5716393  55.2381043
  35.3234605  50.2223134  61.0563084  34.9884437  50.1823903  61.9520734
  34.8238550  49.5567849  60.5833494  29.2978849  45.6290764  66.5815665
  29.1598647  44.8971002  67.1827204  30.2083772  45.5399664  66.2999853
  38.2593796  47.5679168  51.3300144  37.6422967  46.8425996  51.2333196
  37.7910285  48.3288528  50.9867218  31.9261149  45.3410723  66.0699345
  32.6360768  44.7003915  66.0285963  31.8830457  45.5923618  66.9925526
  30.6390083  42.3275941  67.8894984  30.1027440  41.8766679  68.5416581
  30.0506792  42.4621850  67.1465449  28.9338627  59.0939990  61.7839643
  29.1735225  59.7258514  62.4618662  28.0907823  58.7428030  62.0705002
  30.0492342  41.7864592  50.4521448  29.1721809  41.6653393  50.0883695
  30.5250095  40.9950670  50.2000337  39.9165335  50.2417660  67.2219904
  39.0292114  49.9043582  67.3446303  40.4863886  49.5100691  67.4588669
  21.5694482  46.5741752  60.5462955  22.2565522  46.2603482  59.9583970
  21.4142611  47.4783117  60.2730207  26.3729204  41.4631948  64.9747979
  26.2887393  40.8557618  64.2398389  25.5511911  41.9540967  64.9757475
  33.4466489  54.9019113  64.1881147  33.3736660  55.7074084  64.7000451
  33.0043882  55.1011078  63.3629168  33.2356268  54.1390883  57.6983968
  32.4523790  54.6812563  57.7922193  33.9349013  54.6564862  58.0978210
  36.5452918  39.9485512  60.3418174  37.0421618  39.1955474  60.0219244
  35.7739900  39.9849829  59.7761383  35.9065172  54.8005947  66.3439306
  36.6193144  55.4353411  66.2715207  35.4155201  54.8969813  65.5279307
  37.6282699  48.7057199  57.9156597  36.6938978  48.8258662  57.7461302
  37.8059367  47.8029666  57.6516607  33.1287887  42.0902895  60.0689858
  32.7585675  41.5373935  60.7570764  33.6246980  41.4861028  59.5164858
  41.0155250  44.5474518  58.4506631  41.4815703  45.3802510  58.3766934
  41.4662751  44.0819500  59.1551890  30.9577086  52.5500390  67.1644876
  31.6586545  53.1836873  67.3174271  30.4872201  52.8915122  66.4040516
  39.0831481  50.8918340  55.4492783  39.3591325  50.7774934  56.3586658
  38.2135980  50.4935825  55.4104957  38.9871913  36.9155105  62.4897533
  38.0734993  37.1459332  62.6579740  39.4165015  36.9993550  63.3411565
  38.7578372  45.1044997  64.9897427  38.1049822  45.3520905  64.3349880
  39.1358752  44.2909136  64.6559904  35.7185545  55.1404691  59.0925597
  35.9007940  54.3226347  59.5553349  36.5418532  55.3572383  58.6550487
  36.0527711  54.0672876  56.3540646  36.5815477  53.5565330  55.7410808
  36.3155931  53.7515406  57.2186179  34.8065945  45.8464809  71.4763464
  34.1306582  45.7458938  72.1465839  35.6293579  45.6904022  71.9399461
  26.5544804  52.0836745  64.0975979  27.1398241  51.3380433  64.2303883
  26.3569642  52.3940702  64.9812643  29.4083459  55.1187992  59.1138421
  28.7393834  55.6034120  58.6302462  29.2696329  55.3657213  60.0281800
  21.1462458  44.6542345  62.8180422  21.1846558  44.1205936  63.6117540
  20.6402751  44.1277551  62.1991399  33.5488728  57.1531736  65.7121080
  34.1007036  57.3163357  66.4770165  33.8894921  57.7436174  65.0401105
  28.5253221  39.5006886  66.3142965  28.5894547  40.3621717  65.9020362
  28.4620341  38.8880887  65.5815323  28.0005493  41.5730018  69.9615999
  28.6277532  41.1907096  70.5753523  27.1433412  41.3544220  70.3271691
  24.7771036  43.3806447  55.8934354  25.0724477  42.4717126  55.8401407
  23.8759072  43.3594187  55.5715356  36.6857115  55.1013711  62.6984762
  36.5608254  54.3003451  62.1895707  37.3436206  55.5959905  62.2098732
  28.3065283  41.4562444  61.8761902  27.5851869  42.0698412  61.7369376
  29.0958539  41.9920209  61.7978548  31.1091597  38.7916870  68.1502554
  31.6325998  39.0379167  68.9128863  30.8903930  39.6236905  67.7305691
  26.5058878  41.0620545  56.0173679  26.1771584  40.1817924  55.8348785
  26.8598248  41.0068214  56.9050068  35.7538456  52.6975448  60.5268664
  35.6063419  51.7692155  60.7076234  36.5791950  52.7195538  60.0425740
  29.6200701  41.3493515  56.3849156  29.9596773  41.8779436  55.6627765
  30.0672821  41.6873921  57.1607723  39.3572578  53.5204007  61.6133537
  40.2819126  53.3146868  61.4757988  39.1887882  53.2720408  62.5222879
  32.3144142  39.7330566  65.8352225  31.9740962  38.9338379  66.2372904
  31.6083148  40.0332276  65.2629058  32.9660613  36.8179878  64.2879548
  33.7886683  36.3440356  64.1658438  33.2098677  37.5970362  64.7878234
  31.6068848  39.8468136  54.5842449  32.3277210  40.2249389  54.0806166
  30.9834152  40.5657013  54.6877427  35.7499971  40.5513285  55.5200782
  35.9663585  41.4337923  55.2189610  35.2694038  40.1599499  54.7906424
  30.4899192  43.5098999  62.0971526  30.3443773  43.8239302  62.9895808
  30.0124396  44.1283899  61.5442425  32.3495575  40.5001547  62.1452416
  32.3357144  39.6042640  61.8084714  33.0668003  40.5072210  62.7790702
  34.2021706  40.9338887  64.1905543  33.9439484  41.8555957  64.1889874
  33.6706746  40.5369321  64.8806007  39.1467895  54.0389674  56.9695629
  39.3204772  53.4736096  56.2169481  39.6396786  54.8390569  56.7875118
  24.9644854  46.0504343  65.0359187  24.4198322  46.8264151  65.1679462
  25.8424204  46.3975148  64.8778309  31.7532471  39.3815927  57.4139986
  31.8748382  38.4532573  57.6130873  31.4634513  39.3954613  56.5018301
  34.6223661  37.0670837  60.5506706  34.6445358  37.1310170  59.5958685
  35.0391720  36.2275346  60.7447212  45.0007286  46.8026097  58.5885928
  45.4438432  46.0533422  58.1905052  44.1233796  46.7936233  58.2059660
  40.1343067  53.3556438  54.0692527  40.8293972  53.9763131  54.2879841
  40.4766217  52.5051790  54.3444905  25.7510876  45.1774239  67.9289344
  25.0092612  45.3256875  68.5153975  25.4303620  45.4382505  67.0656094
  42.0334490  50.8056144  55.5979858  42.5585814  51.1443417  54.8729178
  41.9456843  49.8703159  55.4142992  33.6954539  54.7190218  67.7269734
  34.0041665  54.4739364  68.5992434  34.4930021  54.9236856  67.2388604
  33.7175151  56.8728127  59.9575111  33.2780141  56.3804506  60.6507967
  34.4683268  56.3301095  59.7167186  26.1967490  53.0639668  59.9599739
  27.0225510  52.7643440  59.5798382  25.8461542  52.2947290  60.4089527
  31.1649023  52.4166136  62.0297412  30.5429032  51.7536841  61.7299640
  31.8353890  52.4427268  61.3471060  24.3976095  50.9825994  60.9188672
  23.5608003  50.5548169  60.7372674  24.3699740  51.1758438  61.8559464
  31.2373551  40.8947924  71.6229918  31.2861706  41.7710047  71.2407688
  31.7796065  40.3525317  71.0501562  30.7262530  50.9670060  55.5055873
  30.8750650  51.6505524  54.8522546  31.5328973  50.9475150  56.0205329
  33.4672839  41.6479297  68.3776277  32.5976148  41.9412863  68.1058866
  33.7032319  42.2319742  69.0983541  28.4815163  46.9935237  56.5116942
  28.2361205  46.0897567  56.7097152  28.6511077  46.9952388  55.5696420
  36.1711873  37.8658914  65.8941697  36.6893817  38.6019941  65.5688186
  35.8167006  38.1722907  66.7288457  27.7510810  42.7263595  54.0103103
  27.0580055  42.8007950  53.3543139  27.5062562  41.9623938  54.5324620
  36.4224467  34.2859196  61.4142594  36.7026221  33.6182385  62.0403021
  37.2075074  34.4788292  60.9017258  34.2257935  53.4618190  52.9767620
  33.6531903  54.0808377  52.5238092  34.7990729  54.0117552  53.5107542
  40.2933325  42.7076830  65.1614169  41.2450748  42.8074928  65.1826393
  40.1236776  41.9155099  65.6712254  38.3147705  39.7932413  65.3473570
  37.7197637  40.0737426  64.6520059  38.0297401  40.2826314  66.1190311
  37.4455195  53.7455340  54.1076203  38.3785868  53.6800902  54.3109078
  37.3578408  54.5811607  53.6490735  40.0743212  53.0621211  51.0680150
  39.9956843  52.7281074  51.9615908  40.8952879  53.5542978  51.0671623
  34.6104734  44.7979003  50.3183673  35.5563839  44.6685211  50.3872091
  34.2318979  44.0593665  50.7953101  40.5826619  36.4635009  60.2810565
  40.3851440  36.1550097  61.1653897  41.1926324  37.1896648  60.4108495
  34.4943427  48.8496749  71.7784330  35.4146436  49.0275348  71.9724376
  34.4593010  47.9052794  71.6264029  32.7947651  42.7228979  50.2538558
  31.8879107  42.4262092  50.3301272  33.0723632  42.4258797  49.3872844
  23.7125592  44.0435343  60.7037605  23.3928376  43.1900651  60.4111979
  23.1659020  44.2583921  61.4595572  27.4905499  46.7597784  64.4207111
  27.7091509  47.6914891  64.4395145  27.9031273  46.4005758  65.2061915
  34.4109717  37.2665869  56.4082799  33.6010445  36.9212954  56.7838045
  35.0994134  36.9573413  56.9970411  36.3400265  36.3443916  58.0307096
  36.8931304  36.7639369  58.6897119  36.5770351  35.4179664  58.0730052
  32.3633364  42.3330989  73.8109860  32.2630091  43.2825346  73.7421951
  32.1454906  42.0049228  72.9385930  31.5646436  39.5815914  50.3950537
  32.4265600  39.9070813  50.6546355  31.7496780  38.7947410  49.8823603
  23.5813852  47.6638254  62.6730726  22.8877323  47.2492207  62.1600681
  24.3286843  47.7058791  62.0764145  39.7179072  38.4544441  57.5385760
  39.1377741  39.1129245  57.1563813  39.4515005  37.6321785  57.1273178
  38.1682639  37.8549499  59.7407081  38.6682417  37.9666033  58.9321399
  38.8118247  37.5510551  60.3807889  32.2264634  45.7628128  72.6274922
  31.7431716  46.5628488  72.8338811  32.3125573  45.7736073  71.6742366
  25.4950594  47.5956508  60.5496741  25.4721282  47.6944195  59.5978624
  25.8051231  48.4421659  60.8713907  28.1537972  49.6532663  64.6643355
  29.1081225  49.6216605  64.5973287  27.9550495  49.1923287  65.4793581
  28.7437354  48.2233779  67.2314153  29.5630243  48.7177858  67.2548990
  29.0174162  47.3065747  67.2031721  38.5003950  40.6144531  56.5942109
  37.6129805  40.8994182  56.3762303  38.9157939  40.4538295  55.7469385
  41.8518486  40.6391052  60.3096448  42.6278876  41.1287505  60.5821065
  41.1266621  41.0649106  60.7668317  44.2891045  41.3518671  61.3670388
  44.8835536  41.1114407  60.6563697  44.3617629  40.6325802  61.9943925
  26.5088201  55.1952282  61.6813553  26.3742669  54.4352683  61.1151551
  26.0920263  55.9193182  61.2142342  37.6447164  50.3789206  50.6890129
  38.3483014  50.5839208  51.3047784  36.9209812  50.9465968  50.9539212
  38.4744974  46.1299067  56.8092399  38.4180175  46.5867619  55.9700031
  39.0273316  45.3689752  56.6315241  42.2849780  41.9188799  57.6342518
  42.0286714  41.5185435  58.4650726  41.6602648  42.6332593  57.5092657
  46.5962118  44.6584872  60.1413810  46.0361676  44.7278062  60.9145372
  45.9905621  44.4825857  59.4213306  29.6657327  56.0921599  61.8931996
  29.5489711  57.0367032  61.7910686  28.8449773  55.7895161  62.2817795
  39.5533861  50.8171735  52.7388589  40.3879465  50.3852934  52.5566063
  39.3918204  50.6453749  53.6665483  39.2079753  47.3203848  54.1044928
  39.1528557  47.1548120  53.1633372  38.5825809  48.0279881  54.2607118
  23.9972268  42.5571913  67.9306350  24.6431132  42.0470867  68.4193575
  23.7889419  43.2940594  68.5049775  32.5175879  36.8211957  53.6830246
  32.5054549  37.7653797  53.8398517  33.4099301  36.6382103  53.3889708
  30.6911841  56.7449861  65.1087924  31.5939087  56.7773472  65.4254419
  30.4649211  55.8150312  65.1234260  32.4465443  55.4980848  61.7698003
  31.4961074  55.4982709  61.6562375  32.7497929  54.7513582  61.2534038
  36.3327998  33.4154734  57.9376183  35.5660394  32.8613221  58.0832865
  36.7438703  33.4876603  58.7990335  28.3369759  39.7039530  72.0281364
  29.2001221  39.3476335  72.2384689  27.7635170  39.3653425  72.7156769
  40.8494658  63.1404291  58.7602181  40.2859523  63.0494228  57.9918469
  40.7347053  62.3204195  59.2404674  38.3959090  64.6355482  61.5986401
  39.1880382  64.2946307  61.1832701  38.6355740  64.7450457  62.5188555
  46.4294217  66.8075258  54.0716646  45.7782197  67.3929339  53.6850660
  47.2238580  67.3381453  54.1311683  40.3549844  63.8964396  54.4703780
  41.1280720  63.3493383  54.3316656  40.7075243  64.7608645  54.6818242
  42.6916122  60.0557062  52.1022230  42.9441643  59.5338583  51.3405693
  41.7540681  59.8923207  52.2048914  47.9069482  64.4965690  54.6085630
  47.2715315  64.5700317  55.3206535  47.5766888  65.0859289  53.9304709
  42.4112411  61.9585168  54.3046605  42.2948669  61.2830071  54.9727689
  42.5214671  61.4717542  53.4878758  44.3949439  56.4485214  53.0054643
  44.5623841  57.3165451  53.3725114  44.2046608  56.6112496  52.0815932
  44.3738659  58.9042872  53.9901310  44.2538285  59.3499923  54.8286790
  43.6791248  59.2528190  53.4314848  42.1345552  71.6746514  57.6391441
  42.0569581  72.6254339  57.7179921  41.5307195  71.3292386  58.2966367
  50.0723726  59.3764345  54.8181644  50.9841582  59.6091732  54.6429341
  49.5633373  59.9601389  54.2556722  43.1690156  60.2187724  56.2834875
  43.8714199  60.6708768  56.7508802  42.8370784  59.5771543  56.9114769
  36.9115490  58.4771277  61.5852009  36.1214544  58.7328805  61.1092120
  37.4026737  59.2919615  61.6904050  38.8630235  58.8415856  58.5435486
  38.0661398  58.9534550  59.0618981  38.6355827  59.1802508  57.6776376
  35.1953193  58.7301767  64.0167000  35.4461231  59.6148777  64.2824576
  35.7312741  58.5506369  63.2442092  44.4083920  67.0328667  56.3596981
  44.2729595  67.8780202  56.7881828  44.9493733  67.2347944  55.5962914
  37.8613318  64.5504105  56.9324906  38.3737838  65.3447355  57.0830470
  38.5136031  63.8530395  56.8658507  39.6708203  67.6669861  59.0147659
  39.8474831  68.5887826  58.8268643  40.4665036  67.3528280  59.4442039
  35.8262235  62.8792759  57.7084476  36.6637457  63.2889767  57.4918184
  36.0040502  61.9392201  57.6784670  47.7226667  60.5467840  53.3968309
  47.2073290  61.3172444  53.6356697  47.4503975  59.8732976  54.0201371
  45.3073778  55.3917540  58.4553548  44.4515374  55.0024391  58.2759186
  45.7200730  55.4709501  57.5953333  52.6960941  63.3000194  55.3321483
  51.9190384  62.9611354  54.8876645  53.3752422  63.3052817  54.6576448
  47.5112970  58.4194932  55.2228090  47.2063105  58.7341081  56.0738234
  48.4643412  58.4976352  55.2655423  45.9559402  64.5785155  56.8721044
  45.4280763  63.8437915  56.5594282  45.4546904  65.3559831  56.6261013
  40.6878129  55.2404821  59.2327656  41.2621881  55.0180003  58.5000849
  41.2749112  55.3093516  59.9856257  41.0147716  57.2709282  53.2523541
  40.1785029  57.6083969  53.5732816  40.8752486  57.1358262  52.3150678
  42.9900797  52.1146070  57.9602725  42.3365209  51.7995087  57.3359340
  42.9481271  51.4921811  58.6862548  44.1012002  62.3965365  49.8756017
  43.1939064  62.1654619  50.0747166  44.5983034  61.6002985  50.0629999
  47.0080081  71.1062873  52.7952704  46.3341780  71.4094569  53.4037661
  47.3945903  71.9091953  52.4458161  45.2800235  62.4977960  54.3980008
  44.3711455  62.2136993  54.4952477  45.3095319  62.9177039  53.5383314
  50.5119503  66.1084550  58.1671175  50.0581830  65.2675460  58.2236366
  49.8813469  66.7445948  58.5045955  49.4552422  57.0376536  59.3971843
  48.7175179  56.5253922  59.7282085  49.7079196  56.5976917  58.5855119
  35.8488406  60.2183474  58.3795210  35.6512806  59.6252835  57.6546276
  35.2935070  59.9135685  59.0971149  44.9776323  64.0386704  51.7368086
  44.5395753  63.3222563  51.2773723  45.7186764  64.2662819  51.1753177
  41.7677489  58.7283641  58.2580182  40.9545355  59.0277811  58.6645374
  42.2636483  58.3339329  58.9754664  53.0949438  62.3143901  57.7944405
  52.9567337  62.5045497  56.8665594  52.7385657  63.0763284  58.2512456
  42.0351868  65.6004427  59.9876409  42.8292466  65.1054747  59.7858984
  41.3243560  65.0722290  59.6244115  38.3434631  59.7447508  56.0636162
  37.4132220  59.6831964  56.2806124  38.4392103  59.2223461  55.2672803
  38.2620180  56.2702321  58.6514403  38.5226998  57.1847654  58.5423564
  39.0837353  55.8026764  58.8011016  45.2071296  71.2742545  55.0099783
  45.3823052  70.8030588  55.8245405  44.5204084  71.9008311  55.2381043
  49.0987551  62.8971086  51.3300144  48.4816721  62.1717914  51.2333196
  48.6304039  63.6580446  50.9867218  40.8886097  57.1156510  50.4521448
  40.0115563  56.9945311  50.0883695  41.3643850  56.3242588  50.2000337
  32.4088237  61.9033670  60.5462955  33.0959277  61.5895400  59.9583970
  32.2536365  62.8075034  60.2730207  44.0750023  69.4682800  57.6983968
  43.2917545  70.0104480  57.7922193  44.7742768  69.9856780  58.0978210
  51.8549005  59.8766436  58.4506631  52.3209457  60.7094428  58.3766934
  52.3056505  59.4111418  59.1551890  49.9225236  66.2210257  55.4492783
  50.1985080  66.1066852  56.3586658  49.0529735  65.8227742  55.4104957
  46.5579300  70.4696608  59.0925597  46.7401695  69.6518264  59.5553349
  47.3812286  70.6864301  58.6550487  46.8921465  69.3964793  56.3540646
  47.4209232  68.8857248  55.7410808  47.1549685  69.0807324  57.2186179
  37.3938558  67.4128663  64.0975979  37.9791995  66.6672351  64.2303883
  37.1963397  67.7232619  64.9812643  40.2477213  70.4479910  59.1138421
  39.5787589  70.9326038  58.6302462  40.1090083  70.6949131  60.0281800
  31.9856213  59.9834263  62.8180422  32.0240312  59.4497854  63.6117540
  31.4796506  59.4569468  62.1991399  35.6164791  58.7098365  55.8934354
  35.9118232  57.8009044  55.8401407  34.7152826  58.6886105  55.5715356
  37.3452632  56.3912463  56.0173679  37.0165338  55.5109842  55.8348785
  37.6992003  56.3360131  56.9050068  40.4594455  56.6785433  56.3849156
  40.7990528  57.2071354  55.6627765  40.9066576  57.0165839  57.1607723
  42.4462602  55.1760054  54.5842449  43.1670965  55.5541307  54.0806166
  41.8227907  55.8948931  54.6877427  46.5893725  55.8805203  55.5200782
  46.8057340  56.7629841  55.2189610  46.1087792  55.4891417  54.7906424
  49.9861649  69.3681592  56.9695629  50.1598527  68.8028014  56.2169481
  50.4790540  70.1682487  56.7875118  35.8038609  61.3796261  65.0359187
  35.2592077  62.1556069  65.1679462  36.6817959  61.7267065  64.8778309
  42.5926225  54.7107845  57.4139986  42.7142137  53.7824491  57.6130873
  42.3028268  54.7246531  56.5018301  55.8401040  62.1318015  58.5885928
  56.2832186  61.3825340  58.1905052  54.9627550  62.1228151  58.2059660
  50.9736822  68.6848356  54.0692527  51.6687726  69.3055049  54.2879841
  51.3159972  67.8343707  54.3444905  52.8728245  66.1348062  55.5979858
  53.3979569  66.4735334  54.8729178  52.7850597  65.1995077  55.4142992
  44.5568905  72.2020045  59.9575111  44.1173896  71.7096424  60.6507967
  45.3077022  71.6593013  59.7167186  37.0361244  68.3931586  59.9599739
  37.8619264  68.0935358  59.5798382  36.6855296  67.6239208  60.4089527
  41.5656284  66.2961977  55.5055873  41.7144405  66.9797442  54.8522546
  42.3722728  66.2767067  56.0205329  39.3208917  62.3227155  56.5116942
  39.0754959  61.4189485  56.7097152  39.4904832  62.3244305  55.5696420
  38.5904565  58.0555513  54.0103103  37.8973810  58.1299867  53.3543139
  38.3456317  57.2915856  54.5324620  45.0651690  68.7910108  52.9767620
  44.4925657  69.4100295  52.5238092  45.6384484  69.3409469  53.5107542
  48.2848950  69.0747258  54.1076203  49.2179623  69.0092820  54.3109078
  48.1972163  69.9103525  53.6490735  50.9136966  68.3913128  51.0680150
  50.8350598  68.0572992  51.9615908  51.7346633  68.8834896  51.0671623
  45.4498488  60.1270920  50.3183673  46.3957593  59.9977129  50.3872091
  45.0712733  59.3885582  50.7953101  43.6341406  58.0520897  50.2538558
  42.7272861  57.7554010  50.3301272  43.9117387  57.7550715  49.3872844
  34.5519346  59.3727260  60.7037605  34.2322130  58.5192568  60.4111979
  34.0052774  59.5875838  61.4595572  45.2503471  52.5957787  56.4082799
  44.4404200  52.2504872  56.7838045  45.9387888  52.2865330  56.9970411
  47.1794020  51.6735833  58.0307096  47.7325058  52.0931287  58.6897119
  47.4164106  50.7471582  58.0730052  42.4040190  54.9107832  50.3950537
  43.2659354  55.2362730  50.6546355  42.5890534  54.1239328  49.8823603
  34.4207606  62.9930172  62.6730726  33.7271077  62.5784125  62.1600681
  35.1680597  63.0350708  62.0764145  36.3344349  62.9248426  60.5496741
  36.3115037  63.0236113  59.5978624  36.6444985  63.7713576  60.8713907
  49.3397705  55.9436449  56.5942109  48.4523560  56.2286100  56.3762303
  49.7551694  55.7830212  55.7469385  37.3481955  70.5244200  61.6813553
  37.2136423  69.7644601  61.1151551  36.9314017  71.2485100  61.2142342
  48.4840918  65.7081124  50.6890129  49.1876768  65.9131126  51.3047784
  47.7603567  66.2757886  50.9539212  49.3138728  61.4590985  56.8092399
  49.2573930  61.9159536  55.9700031  49.8667071  60.6981669  56.6315241
  40.5051081  71.4213517  61.8931996  40.3883465  72.3658950  61.7910686
  39.6843527  71.1187079  62.2817795  50.3927616  66.1463653  52.7388589
  51.2273220  65.7144851  52.5566063  50.2311959  65.9745666  53.6665483
  50.0473508  62.6495766  54.1044928  49.9922312  62.4840038  53.1633372
  49.4219563  63.3571799  54.2607118  34.8366023  57.8863830  67.9306350
  35.4824886  57.3762784  68.4193575  34.6283174  58.6232512  68.5049775
  43.3569633  52.1503875  53.6830246  43.3448303  53.0945715  53.8398517
  44.2493055  51.9674021  53.3889708  47.1721753  48.7446652  57.9376183
  46.4054149  48.1905138  58.0832865  47.5832458  48.8168521  58.7990335
  51.6888413  78.4696208  58.7602181  51.1253278  78.3786145  57.9918469
  51.5740808  77.6496113  59.2404674  49.2352845  79.9647400  61.5986401
  50.0274137  79.6238225  61.1832701  49.4749495  80.0742375  62.5188555
  57.2687971  82.1367176  54.0716646  56.6175951  82.7221257  53.6850660
  58.0632334  82.6673371  54.1311683  51.1943599  79.2256313  54.4703780
  51.9674475  78.6785300  54.3316656  51.5468997  80.0900563  54.6818242
  53.0328641  80.5532696  67.6770680  52.7418507  81.4578326  67.5617346
  53.6685625  80.5949223  68.3914749  53.9584848  77.9309544  64.2672039
  54.5548420  77.7065566  63.5529002  54.0159819  77.1894290  64.8697487
  53.5309876  75.3848979  52.1022230  53.7835397  74.8630501  51.3405693
  52.5934435  75.2215125  52.2048914  58.5753159  74.3884758  59.9096973
  59.3616248  73.9704181  59.5587390  58.8391864  75.2930850  60.0778622
  58.7463237  79.8257608  54.6085630  58.1109070  79.8992235  55.3206535
  58.4160643  80.4151207  53.9304709  53.2506165  77.2877085  54.3046605
  53.1342423  76.6121989  54.9727689  53.3608425  76.8009459  53.4878758
  55.5937706  76.7487232  58.0093294  55.2295913  76.2217853  58.7206216
  56.4504822  76.3585702  57.8359780  55.2343193  71.7777132  53.0054643
  55.4017595  72.6457369  53.3725114  55.0440362  71.9404414  52.0815932
  57.9918526  80.2394111  64.6720473  57.6919249  81.1419150  64.5636280
  57.6469586  79.9726294  65.5241626  51.4431008  76.6907908  60.7057178
  50.5181504  76.5584122  60.9134869  51.6915421  77.4702127  61.2027120
  55.2132414  74.2334790  53.9901310  55.0932039  74.6791840  54.8286790
  54.5185002  74.5820107  53.4314848  52.9739306  87.0038431  57.6391441
  52.8963336  87.9546257  57.7179921  52.3700950  86.6584304  58.2966367
  59.5187062  79.6882081  62.2095225  58.8895925  79.8527795  61.5071293
  59.1312724  80.1023691  62.9806189  63.3976294  80.6236519  59.5639589
  62.7127332  81.0035421  59.0136622  63.4820144  81.2331846  60.2971537
  60.6527226  78.2696478  66.1634932  60.8644121  78.9128238  65.4869314
  60.6056974  77.4358795  65.6956863  58.2553455  70.8814299  63.0671505
  57.3937934  71.1795552  63.3588242  58.2815889  71.0984698  62.1352537
  55.0715024  79.4256489  59.4745310  55.5353370  79.7044192  58.6849933
  54.8071822  78.5239934  59.2918401  51.9639105  78.9727971  62.4125074
  52.5340462  79.4015239  61.7742558  52.5547217  78.6910556  63.1109259
  54.0083910  75.5479642  56.2834875  54.7107954  76.0000685  56.7508802
  53.6764539  74.9063461  56.9114769  61.7673054  81.1468434  64.3357290
  62.5890498  80.7448621  64.0539971  61.7635457  81.0436668  65.2873406
  49.7023990  74.1707774  58.5435486  48.9055153  74.2826468  59.0618981
  49.4749582  74.5094426  57.6776376  55.5329657  80.6952477  66.4918000
  55.5974090  81.1572884  67.3276172  54.8240581  80.0649842  66.6200310
  69.8579047  77.4907182  60.6842261  69.1042755  76.9214580  60.5286266
  69.9926588  77.4569847  61.6312896  55.2477675  82.3620584  56.3596981
  55.1123350  83.2072120  56.7881828  55.7887487  82.5639862  55.5962914
  48.7007072  79.8796022  56.9324906  49.2131593  80.6739273  57.0830470
  49.3529785  79.1822313  56.8658507  50.5101957  82.9961779  59.0147659
  50.6868585  83.9179743  58.8268643  51.3058791  82.6820198  59.4442039
  56.8746151  82.9844151  70.4897323  56.4310005  82.1980529  70.1718227
  57.5363365  83.1723301  69.8241214  51.6333272  84.5139952  65.0158001
  52.1840698  84.3857016  64.2434995  50.7944748  84.8134841  64.6652894
  58.9727389  83.2646951  68.5178724  58.9545865  84.0855832  68.0258993
  59.8947309  83.1401026  68.7428865  55.4300444  80.7791080  69.3602232
  55.9628780  80.0179368  69.1301540  54.9014525  80.4864732  70.1026387
  46.6655989  78.2084677  57.7084476  47.5031211  78.6181685  57.4918184
  46.8434257  77.2684119  57.6784670  58.5620421  75.8759757  53.3968309
  58.0467045  76.6464362  53.6356697  58.2897730  75.2024894  54.0201371
  56.1467532  70.7209458  58.4553548  55.2909129  70.3316309  58.2759186
  56.5594484  70.8001419  57.5953333  63.5354695  78.6292112  55.3321483
  62.7584138  78.2903272  54.8876645  64.2146176  78.6344735  54.6576448
  58.3506724  73.7486849  55.2228090  58.0456860  74.0632999  56.0738234
  59.3037166  73.8268269  55.2655423  56.7953156  79.9077073  56.8721044
  56.2674518  79.1729832  56.5594282  56.2940659  80.6851749  56.6261013
  61.7746002  78.1026093  61.9888091  61.1169677  78.7925355  62.0768219
  62.5786401  78.4922525  62.3322077  51.5271884  70.5696739  59.2327656
  52.1015636  70.3471921  58.5000849  52.1142866  70.6385434  59.9856257
  60.5851461  76.4570466  60.0392032  61.0983343  77.0900458  60.5413742
  61.2352685  75.8571661  59.6735392  51.8541471  72.6001200  53.2523541
  51.0178783  72.9375887  53.5732816  51.7146241  72.4650180  52.3150678
  53.8294552  67.4437988  57.9602725  53.1758964  67.1287005  57.3359340
  53.7875026  66.8213728  58.6862548  54.9405756  77.7257283  49.8756017
  54.0332818  77.4946536  50.0747166  55.4376788  76.9294902  50.0629999
  57.8473835  86.4354790  52.7952704  57.1735534  86.7386487  53.4037661
  58.2339657  87.2383871  52.4458161  57.8467340  75.3311337  57.4153053
  58.5939159  75.8432734  57.1060175  58.1158929  75.0095390  58.2757447
  56.1193990  77.8269878  54.3980008  55.2105209  77.5428911  54.4952477
  56.1489074  78.2468956  53.5383314  61.3513257  81.4376467  58.1671175
  60.8975584  80.5967377  58.2236366  60.7207224  82.0737866  58.5045955
  59.7946196  83.2752964  59.1020993  60.0869171  83.8358021  58.3833359
  60.3044817  83.5681525  59.8574152  46.6882160  75.5475392  58.3795210
  46.4906560  74.9544753  57.6546276  46.1328824  75.2427602  59.0971149
  54.6678884  75.4398499  60.4989803  54.7227494  74.4872335  60.4232279
  53.8570086  75.5957938  60.9831101  55.8170078  79.3678622  51.7368086
  55.3789508  78.6514481  51.2773723  56.5580519  79.5954736  51.1753177
  52.6071244  74.0575558  58.2580182  51.7939109  74.3569729  58.6645374
  53.1030238  73.6631247  58.9754664  54.7579822  84.0533315  60.1914446
  54.7156000  84.2794161  59.2622978  55.6742521  83.8196690  60.3400248
  63.9343192  77.6435819  57.7944405  63.7961091  77.8337415  56.8665594
  63.5779411  78.4055201  58.2512456  52.8745622  80.9296344  59.9876409
  53.6686221  80.4346664  59.7858984  52.1637315  80.4014207  59.6244115
  57.6940467  83.3114440  64.3388777  57.7477489  83.8805376  65.1066493
  56.8255248  83.4816325  63.9742814  49.1828386  75.0739426  56.0636162
  48.2525974  75.0123881  56.2806124  49.2785858  74.5515379  55.2672803
  49.1013935  71.5994239  58.6514403  49.3620752  72.5139572  58.5423564
  49.9231107  71.1318681  58.8011016  64.8228122  79.7536046  65.3388562
  65.0164012  80.6581857  65.5847836  64.7228740  79.2943465  66.1727147
  55.4516898  81.5025366  63.6674246  55.3127984  81.1344151  64.5400184
  54.6631495  82.0173006  63.4958204  56.0465050  86.6034463  55.0099783
  56.2216806  86.1322506  55.8245405  55.3597838  87.2300229  55.2381043
  57.0022114  80.8806969  61.0563084  56.6671946  80.8407739  61.9520734
  56.5026059  80.2151685  60.5833494  59.9381305  78.2263003  51.3300144
  59.3210476  77.5009831  51.2333196  59.4697794  78.9872363  50.9867218
  61.5935437  82.9361912  68.9905924  61.5347983  82.2521132  68.3236507
  61.9954955  83.6780902  68.5386550  50.6126136  89.7523825  61.7839643
  50.8522734  90.3842350  62.4618662  49.7695332  89.4011865  62.0705002
  51.7279851  72.4448428  50.4521448  50.8509317  72.3237228  50.0883695
  52.2037604  71.6534506  50.2000337  61.5952844  80.9001496  67.2219904
  60.7079623  80.5627417  67.3446303  62.1651395  80.1684527  67.4588669
  43.2481991  77.2325587  60.5462955  43.9353031  76.9187317  59.9583970
  43.0930120  78.1366952  60.2730207  55.1253998  85.5602948  64.1881147
  55.0524169  86.3657919  64.7000451  54.6831391  85.7594914  63.3629168
  54.9143777  84.7974718  57.6983968  54.1311299  85.3396398  57.7922193
  55.6136522  85.3148698  58.0978210  58.2240427  70.6069347  60.3418174
  58.7209127  69.8539310  60.0219244  57.4527409  70.6433664  59.7761383
  57.5852681  85.4589782  66.3439306  58.2980653  86.0937247  66.2715207
  57.0942710  85.5553648  65.5279307  59.3070208  79.3641035  57.9156597
  58.3726487  79.4842497  57.7461302  59.4846876  78.4613501  57.6516607
  52.6364595  83.2084225  67.1644876  53.3374054  83.8420708  67.3174271
  52.1659710  83.5498957  66.4040516  60.7618990  81.5502175  55.4492783
  61.0378834  81.4358770  56.3586658  59.8923489  81.1519660  55.4104957
  57.3973054  85.7988526  59.0925597  57.5795449  84.9810182  59.5553349
  58.2206040  86.0156218  58.6550487  57.7315220  84.7256711  56.3540646
  58.2602986  84.2149166  55.7410808  57.9943440  84.4099241  57.2186179
  48.2332313  82.7420580  64.0975979  48.8185750  81.9964268  64.2303883
  48.0357151  83.0524537  64.9812643  51.0870968  85.7771828  59.1138421
  50.4181343  86.2617955  58.6302462  50.9483838  86.0241048  60.0281800
  55.2276237  87.8115571  65.7121080  55.7794545  87.9747193  66.4770165
  55.5682430  88.4020009  65.0401105  60.0787111  82.6376829  71.5669734
  60.6227015  83.2506787  71.0724689  59.4973956  83.1956407  72.0836747
  46.4558545  74.0390283  55.8934354  46.7511986  73.1300961  55.8401407
  45.5546581  74.0178022  55.5715356  58.3644624  85.7597547  62.6984762
  58.2395763  84.9587287  62.1895707  59.0223715  86.2543740  62.2098732
  60.4279532  83.5606567  64.3264312  59.4809868  83.4411918  64.2542639
  60.7762305  82.6729065  64.4090574  48.1846387  71.7204380  56.0173679
  47.8559093  70.8401759  55.8348785  48.5385757  71.6652049  56.9050068
  57.4325965  83.3559283  60.5268664  57.2850928  82.4275991  60.7076234
  58.2579459  83.3779374  60.0425740  51.2988210  72.0077350  56.3849156
  51.6384282  72.5363271  55.6627765  51.7460330  72.3457756  57.1607723
  61.0360087  84.1787842  61.6133537  61.9606635  83.9730703  61.4757988
  60.8675391  83.9304243  62.5222879  53.2856357  70.5051972  54.5842449
  54.0064719  70.8833225  54.0806166  52.6621661  71.2240849  54.6877427
  60.8255404  84.6973509  56.9695629  60.9992281  84.1319932  56.2169481
  61.3184295  85.4974404  56.7875118  53.4319980  70.0399762  57.4139986
  53.5535891  69.1116408  57.6130873  53.1422022  70.0538448  56.5018301
  61.8130576  84.0140274  54.0692527  62.5081481  84.6346966  54.2879841
  62.1553726  83.1635625  54.3444905  63.7121999  81.4639979  55.5979858
  64.2373323  81.8027252  54.8729178  63.6244352  80.5286995  55.4142992
  55.3742048  85.3774053  67.7269734  55.6829174  85.1323200  68.5992434
  56.1717530  85.5820691  67.2388604  55.3962660  87.5311963  59.9575111
  54.9567650  87.0388341  60.6507967  56.1470777  86.9884930  59.7167186
  47.8754999  83.7223503  59.9599739  48.7013019  83.4227275  59.5798382
  47.5249051  82.9531126  60.4089527  52.8436532  83.0749972  62.0297412
  52.2216541  82.4120677  61.7299640  53.5141399  83.1011104  61.3471060
  46.0763604  81.6409830  60.9188672  45.2395512  81.2132004  60.7372674
  46.0487249  81.8342273  61.8559464  63.4015905  82.0972883  70.9031056
  62.6111449  82.0797022  70.3635555  63.1649260  82.6361177  71.6580092
  52.4050039  81.6253895  55.5055873  52.5538159  82.3089359  54.8522546
  53.2116482  81.6058985  56.0205329  65.0231977  81.3662291  68.4605806
  64.7316785  81.7292271  69.2969267  64.4104108  80.6529299  68.2819138
  63.2719165  76.4894905  66.9285864  63.7473287  76.6822552  66.1204715
  62.3484731  76.5454091  66.6829247  50.1602672  77.6519073  56.5116942
  49.9148714  76.7481403  56.7097152  50.3298586  77.6536223  55.5696420
  49.4298319  73.3847430  54.0103103  48.7367564  73.4591785  53.3543139
  49.1850071  72.6207774  54.5324620  55.9045444  84.1202025  52.9767620
  55.3319412  84.7392213  52.5238092  56.4778238  84.6701387  53.5107542
  61.9720834  73.3660665  65.1614169  62.9238257  73.4658763  65.1826393
  61.8024285  72.5738934  65.6712254  59.9935214  70.4516249  65.3473570
  59.3985146  70.7321261  64.6520059  59.7084910  70.9410150  66.1190311
  59.1242704  84.4039176  54.1076203  60.0573377  84.3384737  54.3109078
  59.0365917  85.2395442  53.6490735  61.7530721  83.7205046  51.0680150
  61.6744352  83.3864909  51.9615908  62.5740388  84.2126814  51.0671623
  56.2892243  75.4562838  50.3183673  57.2351348  75.3269046  50.3872091
  55.9106488  74.7177500  50.7953101  70.2685462  77.6482792  63.4162506
  70.9988850  77.3868080  63.9770209  69.6592407  76.9111514  63.4564574
  54.4735160  73.3812815  50.2538558  53.5666615  73.0845927  50.3301272
  54.7511141  73.0842633  49.3872844  56.0897226  67.9249704  56.4082799
  55.2797954  67.5796789  56.7838045  56.7781643  67.6157248  56.9970411
  53.2433945  70.2399750  50.3950537  54.1053109  70.5654648  50.6546355
  53.4284289  69.4531246  49.8823603  47.1738103  78.2540343  60.5496741
  47.1508791  78.3528031  59.5978624  47.4838740  79.1005494  60.8713907
  48.1875710  85.8536118  61.6813553  48.0530178  85.0936519  61.1151551
  47.7707772  86.5777018  61.2142342  59.3234673  81.0373041  50.6890129
  60.0270523  81.2423044  51.3047784  58.5997321  81.6049803  50.9539212
  60.1532483  76.7882903  56.8092399  60.0967684  77.2451454  55.9700031
  60.7060825  76.0273587  56.6315241  51.3444836  86.7505435  61.8931996
  51.2277220  87.6950867  61.7910686  50.5237282  86.4478996  62.2817795
  61.2321370  81.4755570  52.7388589  62.0666974  81.0436769  52.5566063
  61.0705713  81.3037584  53.6665483  60.8867262  77.9787684  54.1044928
  60.8316066  77.8131955  53.1633372  60.2613318  78.6863717  54.2607118
  54.1963388  67.4795793  53.6830246  54.1842058  68.4237633  53.8398517
  55.0886810  67.2965938  53.3889708  52.3699350  87.4033697  65.1087924
  53.2726596  87.4357307  65.4254419  52.1436720  86.4734148  65.1234260
  54.1252952  86.1564683  61.7698003  53.1748583  86.1566545  61.6562375
  54.4285438  85.4097418  61.2534038  69.8605645  91.9925222  62.8343765
  70.4984055  91.8731969  62.1307105  69.7426488  92.9406066  62.8931718
  66.6695351  91.9452650  62.7705290  66.3313863  91.8293714  61.8825825
  67.5385120  91.5443815  62.7506296  62.5282167  93.7988126  58.7602181
  61.9647032  93.7078063  57.9918469  62.4134562  92.9788031  59.2404674
  67.1515134  93.0987501  68.7291496  67.1403775  92.7040300  67.8571999
  67.3135774  92.3653574  69.3225267  60.0746599  95.2939318  61.5986401
  60.8667891  94.9530142  61.1832701  60.3143249  95.4034293  62.5188555
  68.1081726  97.4659094  54.0716646  67.4569706  98.0513174  53.6850660
  68.9026089  97.9965289  54.1311683  62.0337353  94.5548231  54.4703780
  62.8068229  94.0077218  54.3316656  62.3862752  95.4192480  54.6818242
  63.8722396  95.8824613  67.6770680  63.5812262  96.7870244  67.5617346
  64.5079380  95.9241141  68.3914749  64.7978602  93.2601462  64.2672039
  65.3942175  93.0357484  63.5529002  64.8553574  92.5186207  64.8697487
  64.3703631  90.7140897  52.1022230  64.6229152  90.1922418  51.3405693
  63.4328190  90.5507043  52.2048914  69.4146914  89.7176675  59.9096973
  70.2010003  89.2996099  59.5587390  69.6785618  90.6222768  60.0778622
  69.5856991  95.1549526  54.6085630  68.9502824  95.2284152  55.3206535
  69.2554397  95.7443125  53.9304709  74.8155341  89.6551909  60.8129952
  75.5480513  89.0851125  61.0467781  74.0594697  89.2673509  61.2536457
  64.0899920  92.6169003  54.3046605  63.9736178  91.9413906  54.9727689
  64.2002179  92.1301377  53.4878758  66.4331461  92.0779150  58.0093294
  66.0689668  91.5509771  58.7206216  67.2898576  91.6877619  57.8359780
  72.3380761  83.3673483  65.2724560  72.0064086  84.2368894  65.0485775
  71.7426375  83.0509767  65.9518591  66.0736948  87.1069050  53.0054643
  66.2411350  87.9749286  53.3725114  65.8834117  87.2696332  52.0815932
  68.8312281  95.5686029  64.6720473  68.5313004  96.4711068  64.5636280
  68.4863340  95.3018212  65.5241626  62.2824762  92.0199826  60.7057178
  61.3575259  91.8876040  60.9134869  62.5309175  92.7994045  61.2027120
  72.2309424  88.0868569  62.3517911  71.3226302  88.0183977  62.0576672
  72.1797020  88.5640514  63.1799736  66.0526168  89.5626707  53.9901310
  65.9325794  90.0083758  54.8286790  65.3578757  89.9112025  53.4314848
  59.6433573  91.6633099  61.5400967  59.7725954  91.9167578  62.4540378
  58.9631025  92.2560807  61.2205622  63.8133060 102.3330349  57.6391441
  63.7357090 103.2838174  57.7179921  63.2094704 101.9876222  58.2966367
  66.3050290  89.5058215  70.2952808  65.5283624  90.0652135  70.2855672
  66.9440853  89.9914997  70.8167678  74.0971071  86.2885007  64.1295784
  73.4545451  86.5817540  63.4835579  73.5925999  86.1737928  64.9348981
  71.7511235  90.0348181  54.8181644  72.6629091  90.2675567  54.6429341
  71.2420882  90.6185225  54.2556722  64.5596663  92.3143668  69.8570775
  65.3011347  92.8528712  69.5805598  63.8533648  92.9409957  70.0142327
  70.0352002  94.4572808  68.4542936  70.4435358  94.0155219  67.7097569
  69.3129264  93.8825436  68.7077129  66.3883072  89.3945415  65.8276493
  67.2344267  89.8184829  65.9711142  66.3281710  88.7379039  66.5215056
  70.3580817  95.0173999  62.2095225  69.7289679  95.1819713  61.5071293
  69.9706479  95.4315609  62.9806189  74.2370049  95.9528437  59.5639589
  73.5521087  96.3327338  59.0136622  74.3213898  96.5623763  60.2971537
  69.5382518  87.0549783  67.4857667  69.2943449  87.8091844  66.9491943
  69.8142448  87.4335131  68.3204914  71.4920980  93.5988396  66.1634932
  71.7037876  94.2420156  65.4869314  71.4450729  92.7650712  65.6956863
  69.0947209  86.2106216  63.0671505  68.2331688  86.5087470  63.3588242
  69.1209644  86.4276615  62.1352537  65.9108779  94.7548407  59.4745310
  66.3747124  95.0336110  58.6849933  65.6465577  93.8531852  59.2918401
  62.8032860  94.3019889  62.4125074  63.3734217  94.7307157  61.7742558
  63.3940972  94.0202473  63.1109259  64.8477665  90.8771559  56.2834875
  65.5501708  91.3292603  56.7508802  64.5158293  90.2355378  56.9114769
  63.2958026  89.4683316  70.6586085  62.6656687  90.1499597  70.8921482
  63.1894114  89.3566398  69.7139223  58.5902999  89.1355112  61.5852009
  57.8002053  89.3912641  61.1092120  59.0814246  89.9503450  61.6904050
  72.6066808  96.4760351  64.3357290  73.4284252  96.0740539  64.0539971
  72.6029211  96.3728585  65.2873406  60.5417744  89.4999691  58.5435486
  59.7448907  89.6118386  59.0618981  60.3143336  89.8386344  57.6776376
  66.3723412  96.0244395  66.4918000  66.4367844  96.4864802  67.3276172
  65.6634336  95.3941759  66.6200310  56.8740702  89.3885603  64.0167000
  57.1248740  90.2732612  64.2824576  57.4100250  89.2090204  63.2442092
  80.6972801  92.8199100  60.6842261  79.9436510  92.2506498  60.5286266
  80.8320343  92.7861764  61.6312896  66.0871429  97.6912502  56.3596981
  65.9517104  98.5364038  56.7881828  66.6281242  97.8931780  55.5962914
  62.5738769  83.7704082  73.0211336  62.1805715  83.2170280  73.6958980
  63.3904909  84.0814660  73.4117853  59.5400827  95.2087940  56.9324906
  60.0525347  96.0031190  57.0830470  60.1923540  94.5114231  56.8658507
  61.3495711  98.3253696  59.0147659  61.5262340  99.2471661  58.8268643
  62.1452545  98.0112116  59.4442039  65.4906730  85.1861961  70.6131592
  66.2316443  85.7869114  70.5336055  65.7224653  84.4439599  70.0549635
  60.6348068  90.3718328  68.8909822  60.5201583  89.4703585  69.1916921
  59.7792586  90.6182025  68.5394639  67.7139906  98.3136069  70.4897323
  67.2703760  97.5272447  70.1718227  68.3757119  98.5015219  69.8241214
  62.4727027  99.8431870  65.0158001  63.0234452  99.7148934  64.2434995
  61.6338503 100.1426759  64.6652894  69.8121144  98.5938868  68.5178724
  69.7939619  99.4147750  68.0258993  70.7341064  98.4692944  68.7428865
  66.2694198  96.1082998  69.3602232  66.8022535  95.3471286  69.1301540
  65.7408279  95.8156650  70.1026387  69.4363893  81.2143064  64.8895874
  69.0928162  82.1044706  64.8134985  69.8042856  81.0244722  64.0265459
  57.5049744  93.5376594  57.7084476  58.3424966  93.9473603  57.4918184
  57.6828011  92.5976037  57.6784670  69.4014176  91.2051675  53.3968309
  68.8860799  91.9756280  53.6356697  69.1291484  90.5316811  54.0201371
  66.9861287  86.0501376  58.4553548  66.1302883  85.6608226  58.2759186
  67.3988238  86.1293337  57.5953333  68.5160433  83.5847719  62.8545107
  68.0125229  83.5477854  62.0412913  68.8091040  84.4940462  62.9141764
  64.7603319  83.6686449  61.8611289  65.6256316  83.4729257  61.5017179
  64.8280828  83.4396801  62.7880646  74.3748450  93.9584030  55.3321483
  73.5977893  93.6195189  54.8876645  75.0539931  93.9636653  54.6576448
  69.1900479  89.0778767  55.2228090  68.8850614  89.3924916  56.0738234
  70.1430921  89.1560187  55.2655423  67.6346911  95.2368990  56.8721044
  67.1068272  94.5021750  56.5594282  67.1334413  96.0143667  56.6261013
  72.6139757  93.4318011  61.9888091  71.9563431  94.1217272  62.0768219
  73.4180156  93.8214443  62.3322077  62.3665638  85.8988657  59.2327656
  62.9409390  85.6763838  58.5000849  62.9536621  85.9677351  59.9856257
  71.4245216  91.7862384  60.0392032  71.9377097  92.4192375  60.5413742
  72.0746439  91.1863579  59.6735392  62.6935225  87.9293118  53.2523541
  61.8572538  88.2667804  53.5732816  62.5539995  87.7942098  52.3150678
  64.6688306  82.7729906  57.9602725  64.0152718  82.4578923  57.3359340
  64.6268780  82.1505646  58.6862548  65.7799511  93.0549201  49.8756017
  64.8726573  92.8238454  50.0747166  66.2770543  92.2586820  50.0629999
  68.6867590 101.7646708  52.7952704  68.0129289 102.0678405  53.4037661
  69.0733412 102.5675788  52.4458161  67.9026046  89.2611839  62.2850373
  66.9848608  89.4826786  62.1272061  68.3186190  89.3358150  61.4262080
  68.6861094  90.6603255  57.4153053  69.4332913  91.1724652  57.1060175
  68.9552684  90.3387308  58.2757447  66.9587744  93.1561796  54.3980008
  66.0498964  92.8720828  54.4952477  66.9882828  93.5760874  53.5383314
  72.1907012  96.7668385  58.1671175  71.7369339  95.9259295  58.2236366
  71.5600978  97.4029783  58.5045955  71.1339931  87.6960371  59.3971843
  70.3962688  87.1837757  59.7282085  71.3866705  87.2560753  58.5855119
  70.6339951  98.6044882  59.1020993  70.9262925  99.1649939  58.3833359
  71.1438572  98.8973443  59.8574152  71.2351559  80.4736623  59.9913612
  71.5410435  79.6133987  59.7039527  71.9604163  81.0654243  59.7912606
  57.5275915  90.8767310  58.3795210  57.3300315  90.2836670  57.6546276
  56.9722579  90.5719520  59.0971149  65.5072638  90.7690416  60.4989803
  65.5621248  89.8164253  60.4232279  64.6963840  90.9249855  60.9831101
  66.6563832  94.6970539  51.7368086  66.2183262  93.9806398  51.2773723
  67.3974273  94.9246654  51.1753177  63.4464998  89.3867476  58.2580182
  62.6332864  89.6861646  58.6645374  63.9423992  88.9923165  58.9754664
  65.5973576  99.3825233  60.1914446  65.5549755  99.6086079  59.2622978
  66.5136275  99.1488607  60.3400248  69.0439210  89.8509300  67.0895076
  69.3988598  90.0780774  67.9489541  69.6911341  90.1827677  66.4672331
  74.7736947  92.9727736  57.7944405  74.6354846  93.1629332  56.8665594
  74.4173166  93.7347119  58.2512456  62.9379073  86.9585831  63.8741417
  63.5778452  86.8174591  63.1764380  62.1056604  86.6720345  63.4980019
  74.8006327  95.0404263  62.8055676  75.2342833  94.9479552  63.6538730
  75.5137907  95.0161764  62.1675692  63.7139377  96.2588262  59.9876409
  64.5079975  95.7638582  59.7858984  63.0031069  95.7306125  59.6244115
  68.5334221  98.6406357  64.3388777  68.5871244  99.2097294  65.1066493
  67.6649003  98.8108242  63.9742814  60.0222140  90.4031344  56.0636162
  59.0919729  90.3415799  56.2806124  60.1179612  89.8807296  55.2672803
  59.9407689  86.9286156  58.6514403  60.2014507  87.8431490  58.5423564
  60.7624862  86.4610599  58.8011016  61.4132615  88.3423914  65.8213228
  62.0855668  88.1341276  65.1725877  60.5862401  88.1446000  65.3818460
  75.6621876  95.0827964  65.3388562  75.8557766  95.9873774  65.5847836
  75.5622494  94.6235383  66.1727147  67.3158187  84.9685855  67.8378889
  66.6686102  85.6675804  67.7443365  68.0859202  85.4021998  68.2055137
  70.7236985  95.2334707  70.9129442  70.5722491  95.0045258  69.9959526
  70.7141664  96.1905308  70.9260787  67.4922321  92.8066619  65.8975709
  68.4214381  92.9577779  65.7244676  67.0713351  92.8950640  65.0424355
  66.2910653  96.8317284  63.6674246  66.1521739  96.4636068  64.5400184
  65.5025249  97.3464923  63.4958204  66.8858805 101.9326380  55.0099783
  67.0610561 101.4614424  55.8245405  66.1991593 102.5592147  55.2381043
  67.8415868  96.2098887  61.0563084  67.5065701  96.1699657  61.9520734
  67.3419814  95.5443602  60.5833494  61.8160112  91.6166517  66.5815665
  61.6779910  90.8846755  67.1827204  62.7265036  91.5275417  66.2999853
  70.7775060  93.5554921  51.3300144  70.1604230  92.8301749  51.2333196
  70.3091548  94.3164281  50.9867218  64.4442413  91.3286476  66.0699345
  65.1542031  90.6879668  66.0285963  64.4011721  91.5799371  66.9925526
  72.4329191  98.2653829  68.9905924  72.3741738  97.5813049  68.3236507
  72.8348710  99.0072819  68.5386550  63.1571347  88.3151694  67.8894984
  62.6208704  87.8642432  68.5416581  62.5688055  88.4497603  67.1465449
  61.4519890 105.0815743  61.7839643  61.6916488 105.7134267  62.4618662
  60.6089087 104.7303783  62.0705002  62.5673606  87.7740345  50.4521448
  61.6903072  87.6529146  50.0883695  63.0431359  86.9826424  50.2000337
  72.4346599  96.2293413  67.2219904  71.5473377  95.8919335  67.3446303
  73.0045150  95.4976444  67.4588669  54.0875746  92.5617505  60.5462955
  54.7746786  92.2479235  59.9583970  53.9323874  93.4658870  60.2730207
  58.8910468  87.4507701  64.9747979  58.8068657  86.8433371  64.2398389
  58.0693174  87.9416720  64.9757475  65.9647752 100.8894866  64.1881147
  65.8917924 101.6949837  64.7000451  65.5225145 101.0886831  63.3629168
  65.7537532 100.1266636  57.6983968  64.9705054 100.6688316  57.7922193
  66.4530277 100.6440615  58.0978210  69.0634182  85.9361265  60.3418174
  69.5602881  85.1831227  60.0219244  68.2921163  85.9725582  59.7761383
  76.9163939  91.6401631  61.9836465  76.9053815  92.5226346  61.6130398
  76.0481319  91.2873181  61.7891002  68.4246436 100.7881700  66.3439306
  69.1374408 101.4229164  66.2715207  67.9336464 100.8845566  65.5279307
  70.1463962  94.6932952  57.9156597  69.2120241  94.8134415  57.7461302
  70.3240631  93.7905419  57.6516607  65.6469151  88.0778648  60.0689858
  65.2766938  87.5249688  60.7570764  66.1428243  87.4736781  59.5164858
  73.5336514  90.5350272  58.4506631  73.9996966  91.3678263  58.3766934
  73.9844014  90.0695253  59.1551890  63.4758349  98.5376143  67.1644876
  64.1767809  99.1712626  67.3174271  63.0053464  98.8790875  66.4040516
  71.6012745  96.8794093  55.4492783  71.8772589  96.7650687  56.3586658
  70.7317244  96.4811578  55.4104957  71.5053177  82.9030859  62.4897533
  70.5916256  83.1335085  62.6579740  71.9346278  82.9869303  63.3411565
  71.2759635  91.0920750  64.9897427  70.6231085  91.3396658  64.3349880
  71.6540015  90.2784889  64.6559904  68.2366809 101.1280444  59.0925597
  68.4189203 100.3102100  59.5553349  69.0599795 101.3448136  58.6550487
  68.5708974 100.0548629  56.3540646  69.0996741  99.5441083  55.7410808
  68.8337194  99.7391159  57.2186179  67.3247208  91.8340562  71.4763464
  66.6487845  91.7334691  72.1465839  68.1474842  91.6779775  71.9399461
  59.0726067  98.0712498  64.0975979  59.6579504  97.3256186  64.2303883
  58.8750906  98.3816455  64.9812643  61.9264722 101.1063745  59.1138421
  61.2575098 101.5909873  58.6302462  61.7877592 101.3532966  60.0281800
  53.6643722  90.6418098  62.8180422  53.7027821  90.1081689  63.6117540
  53.1584015  90.1153304  62.1991399  66.0669991 103.1407489  65.7121080
  66.6188299 103.3039110  66.4770165  66.4076184 103.7311927  65.0401105
  61.0434484  85.4882639  66.3142965  61.1075811  86.3497470  65.9020362
  60.9801604  84.8756640  65.5815323  60.5186757  87.5605771  69.9615999
  61.1458796  87.1782849  70.5753523  59.6614676  87.3419973  70.3271691
  70.9180865  97.9668746  71.5669734  71.4620769  98.5798705  71.0724689
  70.3367710  98.5248325  72.0836747  57.2952300  89.3682200  55.8934354
  57.5905741  88.4592879  55.8401407  56.3940335  89.3469940  55.5715356
  69.2038378 101.0889465  62.6984762  69.0789518 100.2879204  62.1895707
  69.8617469 101.5835658  62.2098732  60.8246547  87.4438197  61.8761902
  60.1033132  88.0574165  61.7369376  61.6139802  87.9795962  61.7978548
  71.2673287  98.8898485  64.3264312  70.3203622  98.7703836  64.2542639
  71.6156060  98.0020983  64.4090574  63.6272860  84.7792624  68.1502554
  64.1507262  85.0254920  68.9128863  63.4085193  85.6112658  67.7305691
  59.0240141  87.0496298  56.0173679  58.6952847  86.1693677  55.8348785
  59.3779512  86.9943967  56.9050068  68.2719720  98.6851201  60.5268664
  68.1244682  97.7567908  60.7076234  69.0973213  98.7071292  60.0425740
  62.1381964  87.3369268  56.3849156  62.4778037  87.8655189  55.6627765
  62.5854085  87.6749674  57.1607723  71.8753842  99.5079760  61.6133537
  72.8000389  99.3022621  61.4757988  71.7069145  99.2596161  62.5222879
  64.8325405  85.7206319  65.8352225  64.4922225  84.9214132  66.2372904
  64.1264411  86.0208029  65.2629058  65.4841877  82.8055631  64.2879548
  66.3067946  82.3316109  64.1658438  65.7279940  83.5846115  64.7878234
  64.1250111  85.8343889  54.5842449  64.8458474  86.2125142  54.0806166
  63.5015416  86.5532766  54.6877427  68.2681234  86.5389038  55.5200782
  68.4844849  87.4213676  55.2189610  67.7875301  86.1475252  54.7906424
  63.0080456  89.4974752  62.0971526  62.8625036  89.8115055  62.9895808
  62.5305659  90.1159652  61.5442425  64.8676839  86.4877300  62.1452416
  64.8538407  85.5918393  61.8084714  65.5849267  86.4947963  62.7790702
  66.7202969  86.9214640  64.1905543  66.4620747  87.8431711  64.1889874
  66.1888010  86.5245074  64.8806007  71.6649158 100.0265427  56.9695629
  71.8386036  99.4611849  56.2169481  72.1578049 100.8266322  56.7875118
  57.4826118  92.0380096  65.0359187  56.9379586  92.8139904  65.1679462
  58.3605468  92.3850901  64.8778309  64.2713734  85.3691680  57.4139986
  64.3929646  84.4408326  57.6130873  63.9815777  85.3830366  56.5018301
  67.1404925  83.0546590  60.5506706  67.1626622  83.1185923  59.5958685
  67.5572984  82.2151099  60.7447212  77.5188549  92.7901850  58.5885928
  77.9619695  92.0409175  58.1905052  76.6415059  92.7811986  58.2059660
  72.6524330  99.3432191  54.0692527  73.3475235  99.9638884  54.2879841
  72.9947481  98.4927543  54.3444905  58.2692140  91.1649992  67.9289344
  57.5273876  91.3132628  68.5153975  57.9484884  91.4258258  67.0656094
  74.5515754  96.7931897  55.5979858  75.0767078  97.1319170  54.8729178
  74.4638106  95.8578912  55.4142992  66.2135802 100.7065971  67.7269734
  66.5222929 100.4615117  68.5992434  67.0111284 100.9112609  67.2388604
  66.2356414 102.8603880  59.9575111  65.7961405 102.3680259  60.6507967
  66.9864531 102.3176848  59.7167186  58.7148753  99.0515421  59.9599739
  59.5406773  98.7519193  59.5798382  58.3642805  98.2823044  60.4089527
  63.6830287  98.4041889  62.0297412  63.0610296  97.7412594  61.7299640
  64.3535153  98.4303021  61.3471060  56.9157358  96.9701748  60.9188672
  56.0789267  96.5423922  60.7372674  56.8881004  97.1634191  61.8559464
  63.7554814  86.8823677  71.6229918  63.8042969  87.7585800  71.2407688
  64.2977328  86.3401070  71.0501562  74.2409660  97.4264801  70.9031056
  73.4505203  97.4088939  70.3635555  74.0043014  97.9653094  71.6580092
  74.3607535  94.2757267  68.2163784  74.4105540  94.1107274  69.1579307
  74.2521458  93.4084526  67.8261665  63.2443793  96.9545813  55.5055873
  63.3931914  97.6381277  54.8522546  64.0510237  96.9350903  56.0205329
  71.6511297  90.2588195  69.5323091  72.5521160  90.1194660  69.2407089
  71.7259272  90.4242650  70.4721268  65.9854102  87.6355050  68.3776277
  65.1157412  87.9288616  68.1058866  66.2213583  88.2195495  69.0983541
  75.8625732  96.6954208  68.4605806  75.5710540  97.0584189  69.2969267
  75.2497863  95.9821217  68.2819138  77.0621414  94.2607088  60.9808376
  77.8968305  94.6996892  61.1445936  77.1980543  93.7845741  60.1616622
  74.1112920  91.8186823  66.9285864  74.5867041  92.0114469  66.1204715
  73.1878485  91.8746009  66.6829247  60.9996426  92.9810990  56.5116942
  60.7542468  92.0773320  56.7097152  61.1692341  92.9828141  55.5696420
  68.6893136  83.8534667  65.8941697  69.2075080  84.5895694  65.5688186
  68.3348269  84.1598660  66.7288457  60.2692074  88.7139348  54.0103103
  59.5761319  88.7883703  53.3543139  60.0243826  87.9499691  54.5324620
  68.9405730  80.2734949  61.4142594  69.2207484  79.6058138  62.0403021
  69.7256337  80.4664045  60.9017258  66.7439199  99.4493943  52.9767620
  66.1713166 100.0684130  52.5238092  67.3171993  99.9993305  53.5107542
  72.8114589  88.6952583  65.1614169  73.7632012  88.7950681  65.1826393
  72.6418039  87.9030852  65.6712254  70.8328968  85.7808166  65.3473570
  70.2378900  86.0613179  64.6520059  70.5478665  86.2702067  66.1190311
  69.9636459  99.7331093  54.1076203  70.8967132  99.6676655  54.3109078
  69.8759672 100.5687360  53.6490735  72.5924475  99.0496964  51.0680150
  72.5138107  98.7156827  51.9615908  73.4134142  99.5418731  51.0671623
  75.2902667  91.9158703  64.2756469  75.2578987  90.9774704  64.4616153
  75.9003290  91.9942740  63.5422294  67.1285997  90.7854756  50.3183673
  68.0745102  90.6560964  50.3872091  66.7500242  90.0469418  50.7953101
  75.4397155  88.7069746  64.3214752  74.9236204  87.9228203  64.1344681
  76.3237104  88.3788463  64.4861272  73.1007882  82.4510762  60.2810565
  72.9032703  82.1425850  61.1653897  73.7107588  83.1772401  60.4108495
  81.1079216  92.9774710  63.4162506  81.8382605  92.7159998  63.9770209
  80.4986162  92.2403432  63.4564574  79.1894514  91.1182572  64.0136957
  78.4627677  90.9838537  63.4053448  78.7741800  91.4259401  64.8193675
  67.0124690  94.8372502  71.7784330  67.9327699  95.0151101  71.9724376
  66.9774273  93.8928547  71.6264029  65.3128915  88.7104732  50.2538558
  64.4060370  88.4137845  50.3301272  65.5904896  88.4134550  49.3872844
  56.2306855  90.0311096  60.7037605  55.9109639  89.1776404  60.4111979
  55.6840283  90.2459674  61.4595572  60.0086763  92.7473537  64.4207111
  60.2272772  93.6790644  64.4395145  60.4212536  92.3881511  65.2061915
  66.9290980  83.2541622  56.4082799  66.1191709  82.9088707  56.7838045
  67.6175397  82.9449166  56.9970411  68.8581529  82.3319669  58.0307096
  69.4112567  82.7515122  58.6897119  69.0951615  81.4055417  58.0730052
  64.8814628  88.3206742  73.8109860  64.7811355  89.2701099  73.7421951
  64.6636170  87.9924981  72.9385930  64.0827699  85.5691667  50.3950537
  64.9446863  85.8946566  50.6546355  64.2678043  84.7823163  49.8823603
  56.0995115  93.6514007  62.6730726  55.4058586  93.2367960  62.1600681
  56.8468106  93.6934544  62.0764145  72.2360336  84.4420194  57.5385760
  71.6559005  85.1004998  57.1563813  71.9696268  83.6197539  57.1273178
  70.6863902  83.8425252  59.7407081  71.1863680  83.9541786  58.9321399
  71.3299510  83.5386304  60.3807889  64.7445898  91.7503881  72.6274922
  64.2612980  92.5504241  72.8338811  64.8306837  91.7611826  71.6742366
  58.0131858  93.5832261  60.5496741  57.9902546  93.6819948  59.5978624
  58.3232494  94.4297412  60.8713907  60.6719235  95.6408416  64.6643355
  61.6262489  95.6092358  64.5973287  60.4731759  95.1799040  65.4793581
  61.2618618  94.2109532  67.2314153  62.0811507  94.7053611  67.2548990
  61.5355425  93.2941500  67.2031721  71.0185214  86.6020284  56.5942109
  70.1311069  86.8869935  56.3762303  71.4339203  86.4414048  55.7469385
  74.3699750  86.6266805  60.3096448  75.1460140  87.1163258  60.5821065
  73.6447884  87.0524859  60.7668317  76.8072308  87.3394424  61.3670388
  77.4016799  87.0990160  60.6563697  76.8798892  86.6201555  61.9943925
  59.0269464 101.1828035  61.6813553  58.8923932 100.4228436  61.1151551
  58.6101526 101.9068935  61.2142342  70.1628427  96.3664959  50.6890129
  70.8664277  96.5714961  51.3047784  69.4391076  96.9341721  50.9539212
  70.9926237  92.1174820  56.8092399  70.9361439  92.5743372  55.9700031
  71.5454580  91.3565505  56.6315241  74.8031043  87.9064552  57.6342518
  74.5467978  87.5061188  58.4650726  74.1783911  88.6208346  57.5092657
  79.1143381  90.6460625  60.1413810  78.5542939  90.7153815  60.9145372
  78.5086885  90.4701610  59.4213306  62.1838590 102.0797352  61.8931996
  62.0670974 103.0242785  61.7910686  61.3631036 101.7770914  62.2817795
  72.0715125  96.8047488  52.7388589  72.9060729  96.3728687  52.5566063
  71.9099468  96.6329502  53.6665483  71.7261017  93.3079601  54.1044928
  71.6709821  93.1423873  53.1633372  71.1007072  94.0155634  54.2607118
  56.5153532  88.5447666  67.9306350  57.1612395  88.0346620  68.4193575
  56.3070683  89.2816347  68.5049775  69.0406924  95.6128513  73.4298491
  69.9098084  95.7869166  73.0685126  68.5613675  96.4322930  73.3074220
  65.0357142  82.8087710  53.6830246  65.0235812  83.7529550  53.8398517
  65.9280564  82.6257856  53.3889708  63.2093104 102.7325614  65.1087924
  64.1120351 102.7649225  65.4254419  62.9830474 101.8026065  65.1234260
  64.9646706 101.4856601  61.7698003  64.0142337 101.4858462  61.6562375
  65.2679192 100.7389335  61.2534038  68.8509262  79.4030487  57.9376183
  68.0841657  78.8488974  58.0832865  69.2619967  79.4752356  58.7990335
  60.8551023  85.6915283  72.0281364  61.7182484  85.3352088  72.2384689
  60.2816433  85.3529178  72.7156769  80.6999400 107.3217139  62.8343765
  81.3377810 107.2023887  62.1307105  80.5820243 108.2697983  62.8931718
  77.5089106 107.2744567  62.7705290  77.1707617 107.1585632  61.8825825
  78.3778874 106.8735732  62.7506296  73.3675922 109.1280044  58.7602181
  72.8040787 109.0369981  57.9918469  73.2528317 108.3079948  59.2404674
  77.9908889 108.4279419  68.7291496  77.9797530 108.0332217  67.8571999
  78.1529528 107.6945492  69.3225267  70.9140354 110.6231235  61.5986401
  71.7061646 110.2822060  61.1832701  71.1537004 110.7326210  62.5188555
  78.9475480 112.7951011  54.0716646  78.2963460 113.3805092  53.6850660
  79.7419843 113.3257206  54.1311683  72.8731108 109.8840149  54.4703780
  73.6461984 109.3369136  54.3316656  73.2256506 110.7484398  54.6818242
  74.7116150 111.2116531  67.6770680  74.4206016 112.1162162  67.5617346
  75.3473134 111.2533059  68.3914749  75.6372357 108.5893379  64.2672039
  76.2335929 108.3649402  63.5529002  75.6947328 107.8478125  64.8697487
  75.2097385 106.0432815  52.1022230  75.4622906 105.5214336  51.3405693
  74.2721944 105.8798960  52.2048914  80.2540668 105.0468593  59.9096973
  81.0403757 104.6288016  59.5587390  80.5179372 105.9514685  60.0778622
  80.4250746 110.4841443  54.6085630  79.7896578 110.5576070  55.3206535
  80.0948152 111.0735042  53.9304709  85.6549095 104.9843826  60.8129952
  86.3874267 104.4143043  61.0467781  84.8988451 104.5965427  61.2536457
  74.9293674 107.9460921  54.3046605  74.8129932 107.2705824  54.9727689
  75.0395934 107.4593295  53.4878758  77.2725215 107.4071068  58.0093294
  76.9083422 106.8801689  58.7206216  78.1292331 107.0169537  57.8359780
  83.1774516  98.6965400  65.2724560  82.8457840  99.5660811  65.0485775
  82.5820129  98.3801684  65.9518591  76.9130702 102.4360968  53.0054643
  77.0805104 103.3041204  53.3725114  76.7227871 102.5988249  52.0815932
  79.6706035 110.8977946  64.6720473  79.3706758 111.8002985  64.5636280
  79.3257095 110.6310130  65.5241626  73.1218517 107.3491743  60.7057178
  72.1969013 107.2167957  60.9134869  73.3702930 108.1285963  61.2027120
  83.0703179 103.4160487  62.3517911  82.1620056 103.3475895  62.0576672
  83.0190775 103.8932432  63.1799736  76.8919923 104.8918625  53.9901310
  76.7719548 105.3375676  54.8286790  76.1972511 105.2403943  53.4314848
  70.4827328 106.9925017  61.5400967  70.6119709 107.2459496  62.4540378
  69.8024779 107.5852725  61.2205622  74.6526815 117.6622267  57.6391441
  74.5750845 118.6130092  57.7179921  74.0488459 117.3168139  58.2966367
  77.1444045 104.8350132  70.2952808  76.3677379 105.3944052  70.2855672
  77.7834608 105.3206915  70.8167678  84.9364825 101.6176925  64.1295784
  84.2939206 101.9109458  63.4835579  84.4319754 101.5029845  64.9348981
  82.5904989 105.3640098  54.8181644  83.5022845 105.5967485  54.6429341
  82.0814636 105.9477142  54.2556722  75.3990417 107.6435586  69.8570775
  76.1405101 108.1820630  69.5805598  74.6927403 108.2701874  70.0142327
  80.8745757 109.7864726  68.4542936  81.2829113 109.3447137  67.7097569
  80.1523018 109.2117354  68.7077129  77.2276827 104.7237333  65.8276493
  78.0738022 105.1476746  65.9711142  77.1675464 104.0670957  66.5215056
  81.1974571 110.3465917  62.2095225  80.5683434 110.5111631  61.5071293
  80.8100233 110.7607526  62.9806189  85.0763803 111.2820354  59.5639589
  84.3914841 111.6619256  59.0136622  85.1607653 111.8915681  60.2971537
  80.3776272 102.3841701  67.4857667  80.1337204 103.1383762  66.9491943
  80.6536203 102.7627049  68.3204914  82.3314735 108.9280314  66.1634932
  82.5431630 109.5712073  65.4869314  82.2844483 108.0942630  65.6956863
  79.9340964 101.5398134  63.0671505  79.0725443 101.8379388  63.3588242
  79.9603398 101.7568533  62.1352537  76.7502533 110.0840325  59.4745310
  77.2140879 110.3628028  58.6849933  76.4859331 109.1823769  59.2918401
  73.6426614 109.6311806  62.4125074  74.2127971 110.0599075  61.7742558
  74.2334726 109.3494391  63.1109259  75.6871419 106.2063477  56.2834875
  76.3895463 106.6584521  56.7508802  75.3552048 105.5647296  56.9114769
  74.1351781 104.7975234  70.6586085  73.5050441 105.4791515  70.8921482
  74.0287869 104.6858315  69.7139223  69.4296753 104.4647030  61.5852009
  68.6395807 104.7204558  61.1092120  69.9208001 105.2795368  61.6904050
  83.4460563 111.8052269  64.3357290  84.2678007 111.4032456  64.0539971
  83.4422966 111.7020503  65.2873406  71.3811499 104.8291609  58.5435486
  70.5842662 104.9410303  59.0618981  71.1537091 105.1678261  57.6776376
  77.2117166 111.3536312  66.4918000  77.2761599 111.8156719  67.3276172
  76.5028090 110.7233677  66.6200310  67.7134456 104.7177520  64.0167000
  67.9642495 105.6024530  64.2824576  68.2494005 104.5382122  63.2442092
  91.5366556 108.1491017  60.6842261  90.7830264 107.5798415  60.5286266
  91.6714097 108.1153682  61.6312896  76.9265184 113.0204420  56.3596981
  76.7910859 113.8655955  56.7881828  77.4674996 113.2223697  55.5962914
  73.4132524  99.0996000  73.0211336  73.0199469  98.5462198  73.6958980
  74.2298664  99.4106578  73.4117853  70.3794581 110.5379858  56.9324906
  70.8919102 111.3323108  57.0830470  71.0317294 109.8406148  56.8658507
  72.1889466 113.6545614  59.0147659  72.3656094 114.5763579  58.8268643
  72.9846300 113.3404033  59.4442039  76.3300485 100.5153879  70.6131592
  77.0710198 101.1161032  70.5336055  76.5618407  99.7731516  70.0549635
  71.4741823 105.7010246  68.8909822  71.3595338 104.7995503  69.1916921
  70.6186340 105.9473943  68.5394639  78.5533660 113.6427986  70.4897323
  78.1097514 112.8564365  70.1718227  79.2150874 113.8307137  69.8241214
  73.3120781 115.1723788  65.0158001  73.8628207 115.0440851  64.2434995
  72.4732257 115.4718677  64.6652894  80.6514898 113.9230786  68.5178724
  80.6333374 114.7439667  68.0258993  81.5734818 113.7984861  68.7428865
  77.1087953 111.4374916  69.3602232  77.6416289 110.6763204  69.1301540
  76.5802034 111.1448567  70.1026387  80.2757647  96.5434982  64.8895874
  79.9321917  97.4336623  64.8134985  80.6436610  96.3536639  64.0265459
  68.3443498 108.8668512  57.7084476  69.1818720 109.2765520  57.4918184
  68.5221766 107.9267954  57.6784670  80.2407930 106.5343593  53.3968309
  79.7254554 107.3048197  53.6356697  79.9685239 105.8608729  54.0201371
  77.8255041 101.3793293  58.4553548  76.9696638 100.9900144  58.2759186
  78.2381993 101.4585254  57.5953333  79.3554188  98.9139637  62.8545107
  78.8518983  98.8769772  62.0412913  79.6484795  99.8232379  62.9141764
  75.5997074  98.9978366  61.8611289  76.4650071  98.8021175  61.5017179
  75.6674583  98.7688718  62.7880646  85.2142204 109.2875947  55.3321483
  84.4371647 108.9487107  54.8876645  85.8933685 109.2928571  54.6576448
  80.0294233 104.4070685  55.2228090  79.7244369 104.7216834  56.0738234
  80.9824675 104.4852105  55.2655423  78.4740665 110.5660908  56.8721044
  77.9462027 109.8313668  56.5594282  77.9728168 111.3435584  56.6261013
  83.4533511 108.7609929  61.9888091  82.7957186 109.4509190  62.0768219
  84.2573910 109.1506361  62.3322077  73.2059393 101.2280574  59.2327656
  73.7803145 101.0055756  58.5000849  73.7930375 101.2969269  59.9856257
  82.2638970 107.1154301  60.0392032  82.7770852 107.7484293  60.5413742
  82.9140194 106.5155497  59.6735392  73.5328980 103.2585035  53.2523541
  72.6966292 103.5959722  53.5732816  73.3933750 103.1234015  52.3150678
  75.5082061  98.1021823  57.9602725  74.8546473  97.7870840  57.3359340
  75.4662535  97.4797564  58.6862548  76.6193265 108.3841118  49.8756017
  75.7120327 108.1530372  50.0747166  77.1164297 107.5878738  50.0629999
  79.5261344 117.0938626  52.7952704  78.8523043 117.3970322  53.4037661
  79.9127166 117.8967706  52.4458161  78.7419801 104.5903757  62.2850373
  77.8242362 104.8118704  62.1272061  79.1579945 104.6650067  61.4262080
  79.5254849 105.9895173  57.4153053  80.2726668 106.5016570  57.1060175
  79.7946438 105.6679225  58.2757447  77.7981499 108.4853713  54.3980008
  76.8892718 108.2012746  54.4952477  77.8276583 108.9052792  53.5383314
  83.0300766 112.0960303  58.1671175  82.5763093 111.2551213  58.2236366
  82.3994733 112.7321701  58.5045955  81.9733686 103.0252289  59.3971843
  81.2356443 102.5129675  59.7282085  82.2260459 102.5852670  58.5855119
  81.4733705 113.9336799  59.1020993  81.7656680 114.4941857  58.3833359
  81.9832326 114.2265360  59.8574152  82.0745313  95.8028541  59.9913612
  82.3804190  94.9425904  59.7039527  82.7997918  96.3946161  59.7912606
  68.3669669 106.2059227  58.3795210  68.1694069 105.6128588  57.6546276
  67.8116333 105.9011438  59.0971149  76.3466393 106.0982334  60.4989803
  76.4015003 105.1456170  60.4232279  75.5357595 106.2541773  60.9831101
  77.4957587 110.0262457  51.7368086  77.0577017 109.3098316  51.2773723
  78.2368027 110.2538572  51.1753177  74.2858753 104.7159394  58.2580182
  73.4726618 105.0153564  58.6645374  74.7817747 104.3215082  58.9754664
  76.4367331 114.7117151  60.1914446  76.3943509 114.9377997  59.2622978
  77.3530030 114.4780525  60.3400248  79.8832964 105.1801218  67.0895076
  80.2382352 105.4072691  67.9489541  80.5305096 105.5119595  66.4672331
  85.6130701 108.3019654  57.7944405  85.4748600 108.4921250  56.8665594
  85.2566920 109.0639037  58.2512456  73.7772828 102.2877749  63.8741417
  74.4172207 102.1466508  63.1764380  72.9450358 102.0012263  63.4980019
  85.6400081 110.3696181  62.8055676  86.0736588 110.2771470  63.6538730
  86.3531662 110.3453681  62.1675692  74.5533131 111.5880180  59.9876409
  75.3473730 111.0930500  59.7858984  73.8424824 111.0598043  59.6244115
  79.3727976 113.9698275  64.3388777  79.4264998 114.5389211  65.1066493
  78.5042757 114.1400160  63.9742814  70.8615895 105.7323261  56.0636162
  69.9313483 105.6707717  56.2806124  70.9573367 105.2099214  55.2672803
  70.7801444 102.2578074  58.6514403  71.0408261 103.1723407  58.5423564
  71.6018616 101.7902517  58.8011016  72.2526369 103.6715831  65.8213228
  72.9249423 103.4633193  65.1725877  71.4256156 103.4737917  65.3818460
  86.5015631 110.4119882  65.3388562  86.6951521 111.3165692  65.5847836
  86.4016249 109.9527301  66.1727147  78.1551941 100.2977772  67.8378889
  77.5079856 100.9967722  67.7443365  78.9252957 100.7313916  68.2055137
  81.5630739 110.5626624  70.9129442  81.4116246 110.3337176  69.9959526
  81.5535419 111.5197226  70.9260787  78.3316076 108.1358537  65.8975709
  79.2608136 108.2869697  65.7244676  77.9107106 108.2242558  65.0424355
  77.1304407 112.1609202  63.6674246  76.9915493 111.7927986  64.5400184
  76.3419004 112.6756841  63.4958204  77.7252559 117.2618298  55.0099783
  77.9004315 116.7906341  55.8245405  77.0385347 117.8884064  55.2381043
  78.6809623 111.5390804  61.0563084  78.3459455 111.4991574  61.9520734
  78.1813568 110.8735520  60.5833494  72.6553867 106.9458434  66.5815665
  72.5173664 106.2138673  67.1827204  73.5658790 106.8567334  66.2999853
  81.6168814 108.8846839  51.3300144  80.9997985 108.1593667  51.2333196
  81.1485303 109.6456199  50.9867218  75.2836167 106.6578394  66.0699345
  75.9935786 106.0171586  66.0285963  75.2405475 106.9091288  66.9925526
  83.2722946 113.5945747  68.9905924  83.2135492 112.9104967  68.3236507
  83.6742464 114.3364737  68.5386550  73.9965101 103.6443611  67.8894984
  73.4602458 103.1934350  68.5416581  73.4081810 103.7789520  67.1465449
  72.2913645 120.4107661  61.7839643  72.5310243 121.0426185  62.4618662
  71.4482841 120.0595701  62.0705002  73.4067360 103.1032263  50.4521448
  72.5296826 102.9821064  50.0883695  73.8825113 102.3118341  50.2000337
  83.2740353 111.5585331  67.2219904  82.3867132 111.2211253  67.3446303
  83.8438904 110.8268362  67.4588669  64.9269500 107.8909423  60.5462955
  65.6140540 107.5771153  59.9583970  64.7717629 108.7950787  60.2730207
  69.7304222 102.7799619  64.9747979  69.6462411 102.1725289  64.2398389
  68.9086929 103.2708637  64.9757475  76.8041507 116.2186783  64.1881147
  76.7311678 117.0241755  64.7000451  76.3618900 116.4178749  63.3629168
  76.5931286 115.4558553  57.6983968  75.8098808 115.9980233  57.7922193
  77.2924031 115.9732533  58.0978210  79.9027936 101.2653183  60.3418174
  80.3996636 100.5123145  60.0219244  79.1314918 101.3017499  59.7761383
  87.7557694 106.9693548  61.9836465  87.7447570 107.8518264  61.6130398
  86.8875073 106.6165099  61.7891002  79.2640190 116.1173617  66.3439306
  79.9768162 116.7521082  66.2715207  78.7730219 116.2137483  65.5279307
  80.9857717 110.0224870  57.9156597  80.0513996 110.1426332  57.7461302
  81.1634385 109.1197337  57.6516607  76.4862905 103.4070566  60.0689858
  76.1160693 102.8541606  60.7570764  76.9821998 102.8028699  59.5164858
  84.3730268 105.8642189  58.4506631  84.8390721 106.6970181  58.3766934
  84.8237769 105.3987171  59.1551890  74.3152104 113.8668061  67.1644876
  75.0161563 114.5004544  67.3174271  73.8447219 114.2082792  66.4040516
  82.4406499 112.2086010  55.4492783  82.7166343 112.0942605  56.3586658
  81.5710998 111.8103495  55.4104957  82.3446931  98.2322776  62.4897533
  81.4310011  98.4627003  62.6579740  82.7740033  98.3161220  63.3411565
  82.1153390 106.4212668  64.9897427  81.4624840 106.6688576  64.3349880
  82.4933769 105.6076806  64.6559904  79.0760563 116.4572361  59.0925597
  79.2582958 115.6394017  59.5553349  79.8993549 116.6740054  58.6550487
  79.4102729 115.3840546  56.3540646  79.9390495 114.8733001  55.7410808
  79.6730949 115.0683077  57.2186179  78.1640963 107.1632479  71.4763464
  77.4881600 107.0626609  72.1465839  78.9868596 107.0071693  71.9399461
  69.9119822 113.4004416  64.0975979  70.4973258 112.6548104  64.2303883
  69.7144660 113.7108372  64.9812643  72.7658477 116.4355663  59.1138421
  72.0968852 116.9201791  58.6302462  72.6271347 116.6824884  60.0281800
  64.5037476 105.9710016  62.8180422  64.5421576 105.4373607  63.6117540
  63.9977769 105.4445221  62.1991399  76.9063745 118.4699407  65.7121080
  77.4582054 118.6331028  66.4770165  77.2469939 119.0603844  65.0401105
  71.8828239 100.8174556  66.3142965  71.9469565 101.6789387  65.9020362
  71.8195359 100.2048558  65.5815323  71.3580511 102.8897689  69.9615999
  71.9852550 102.5074766  70.5753523  70.5008430 102.6711891  70.3271691
  81.7574620 113.2960664  71.5669734  82.3014524 113.9090622  71.0724689
  81.1761465 113.8540243  72.0836747  68.1346054 104.6974118  55.8934354
  68.4299495 103.7884797  55.8401407  67.2334090 104.6761858  55.5715356
  80.0432133 116.4181382  62.6984762  79.9183272 115.6171122  62.1895707
  80.7011224 116.9127576  62.2098732  71.6640301 102.7730115  61.8761902
  70.9426887 103.3866082  61.7369376  72.4533557 103.3087880  61.7978548
  82.1067041 114.2190402  64.3264312  81.1597377 114.0995753  64.2542639
  82.4549814 113.3312900  64.4090574  74.4666615 100.1084541  68.1502554
  74.9901016 100.3546838  68.9128863  74.2478948 100.9404576  67.7305691
  69.8633896 102.3788216  56.0173679  69.5346602 101.4985595  55.8348785
  70.2173266 102.3235884  56.9050068  79.1113474 114.0143118  60.5268664
  78.9638437 113.0859826  60.7076234  79.9366968 114.0363209  60.0425740
  72.9775719 102.6661186  56.3849156  73.3171791 103.1947107  55.6627765
  73.4247839 103.0041592  57.1607723  82.7147596 114.8371677  61.6133537
  83.6394144 114.6314539  61.4757988  82.5462900 114.5888078  62.5222879
  75.6719160 101.0498236  65.8352225  75.3315980 100.2506049  66.2372904
  74.9658166 101.3499947  65.2629058  76.3235631  98.1347549  64.2879548
  77.1461701  97.6608027  64.1658438  76.5673695  98.9138032  64.7878234
  74.9643866 101.1635807  54.5842449  75.6852228 101.5417060  54.0806166
  74.3409170 101.8824684  54.6877427  79.1074989 101.8680956  55.5200782
  79.3238603 102.7505594  55.2189610  78.6269056 101.4767170  54.7906424
  73.8474210 104.8266669  62.0971526  73.7018791 105.1406972  62.9895808
  73.3699414 105.4451570  61.5442425  75.7070593 101.8169217  62.1452416
  75.6932162 100.9210311  61.8084714  76.4243021 101.8239881  62.7790702
  77.5596724 102.2506558  64.1905543  77.3014502 103.1723628  64.1889874
  77.0281764 101.8536992  64.8806007  82.5042912 115.3557345  56.9695629
  82.6779790 114.7903767  56.2169481  82.9971804 116.1558240  56.7875118
  68.3219872 107.3672014  65.0359187  67.7773340 108.1431822  65.1679462
  69.1999222 107.7142818  64.8778309  75.1107489 100.6983598  57.4139986
  75.2323400  99.7700244  57.6130873  74.8209531 100.7122284  56.5018301
  77.9798679  98.3838508  60.5506706  78.0020376  98.4477841  59.5958685
  78.3966738  97.5443017  60.7447212  88.3582304 108.1193768  58.5885928
  88.8013450 107.3701093  58.1905052  87.4808814 108.1103904  58.2059660
  83.4918085 114.6724109  54.0692527  84.1868990 115.2930802  54.2879841
  83.8341235 113.8219460  54.3444905  69.1085894 106.4941910  67.9289344
  68.3667630 106.6424545  68.5153975  68.7878638 106.7550176  67.0656094
  85.3909508 112.1223815  55.5979858  85.9160832 112.4611087  54.8729178
  85.3031861 111.1870830  55.4142992  77.0529557 116.0357888  67.7269734
  77.3616683 115.7907035  68.5992434  77.8505039 116.2404527  67.2388604
  77.0750169 118.1895798  59.9575111  76.6355159 117.6972177  60.6507967
  77.8258286 117.6468766  59.7167186  69.5542508 114.3807339  59.9599739
  70.3800528 114.0811111  59.5798382  69.2036560 113.6114961  60.4089527
  74.5224041 113.7333807  62.0297412  73.9004050 113.0704512  61.7299640
  75.1928908 113.7594939  61.3471060  67.7551113 112.2993665  60.9188672
  66.9183021 111.8715840  60.7372674  67.7274758 112.4926109  61.8559464
  74.5948568 102.2115595  71.6229918  74.6436724 103.0877718  71.2407688
  75.1371083 101.6692988  71.0501562  85.0803414 112.7556718  70.9031056
  84.2898958 112.7380857  70.3635555  84.8436769 113.2945012  71.6580092
  85.2001289 109.6049185  68.2163784  85.2499294 109.4399192  69.1579307
  85.0915213 108.7376444  67.8261665  74.0837548 112.2837730  55.5055873
  74.2325668 112.9673195  54.8522546  74.8903991 112.2642820  56.0205329
  82.4905052 105.5880113  69.5323091  83.3914914 105.4486578  69.2407089
  82.5653026 105.7534567  70.4721268  76.8247857 102.9646967  68.3776277
  75.9551166 103.2580533  68.1058866  77.0607337 103.5487412  69.0983541
  86.7019486 112.0246126  68.4605806  86.4104294 112.3876107  69.2969267
  86.0891617 111.3113134  68.2819138  87.9015168 109.5899006  60.9808376
  88.7362060 110.0288810  61.1445936  88.0374297 109.1137659  60.1616622
  84.9506674 107.1478741  66.9285864  85.4260796 107.3406387  66.1204715
  84.0272240 107.2037927  66.6829247  71.8390181 108.3102908  56.5116942
  71.5936223 107.4065238  56.7097152  72.0086095 108.3120058  55.5696420
  79.5286891  99.1826584  65.8941697  80.0468835  99.9187611  65.5688186
  79.1742024  99.4890578  66.7288457  71.1085828 104.0431266  54.0103103
  70.4155073 104.1175621  53.3543139  70.8637580 103.2791609  54.5324620
  79.7799485  95.6026867  61.4142594  80.0601239  94.9350056  62.0403021
  80.5650092  95.7955962  60.9017258  77.5832953 114.7785861  52.9767620
  77.0106921 115.3976048  52.5238092  78.1565747 115.3285222  53.5107542
  83.6508343 104.0244501  65.1614169  84.6025766 104.1242599  65.1826393
  83.4811794 103.2322769  65.6712254  81.6722723 101.1100084  65.3473570
  81.0772655 101.3905097  64.6520059  81.3872419 101.5993985  66.1190311
  80.8030213 115.0623011  54.1076203  81.7360886 114.9968573  54.3109078
  80.7153426 115.8979278  53.6490735  83.4318230 114.3788881  51.0680150
  83.3531861 114.0448745  51.9615908  84.2527897 114.8710649  51.0671623
  86.1296421 107.2450621  64.2756469  86.0972741 106.3066621  64.4616153
  86.7397045 107.3234657  63.5422294  77.9679752 106.1146674  50.3183673
  78.9138857 105.9852882  50.3872091  77.5893997 105.3761335  50.7953101
  86.2790910 104.0361664  64.3214752  85.7629958 103.2520121  64.1344681
  87.1630858 103.7080381  64.4861272  83.9401636  97.7802680  60.2810565
  83.7426458  97.4717768  61.1653897  84.5501342  98.5064318  60.4108495
  91.9472971 108.3066627  63.4162506  92.6776359 108.0451916  63.9770209
  91.3379916 107.5695349  63.4564574  90.0288268 106.4474490  64.0136957
  89.3021432 106.3130455  63.4053448  89.6135555 106.7551319  64.8193675
  77.8518444 110.1664420  71.7784330  78.7721454 110.3443019  71.9724376
  77.8168028 109.2220465  71.6264029  76.1522669 104.0396650  50.2538558
  75.2454124 103.7429763  50.3301272  76.4298650 103.7426468  49.3872844
  67.0700609 105.3603013  60.7037605  66.7503394 104.5068322  60.4111979
  66.5234038 105.5751591  61.4595572  70.8480517 108.0765454  64.4207111
  71.0666527 109.0082562  64.4395145  71.2606291 107.7173429  65.2061915
  77.7684735  98.5833540  56.4082799  76.9585463  98.2380625  56.7838045
  78.4569152  98.2741083  56.9970411  79.6975283  97.6611586  58.0307096
  80.2506322  98.0807040  58.6897119  79.9345369  96.7347335  58.0730052
  75.7208382 103.6498660  73.8109860  75.6205109 104.5993017  73.7421951
  75.5029924 103.3216899  72.9385930  74.9221454 100.8983585  50.3950537
  75.7840618 101.2238483  50.6546355  75.1071798 100.1115081  49.8823603
  66.9388869 108.9805925  62.6730726  66.2452341 108.5659878  62.1600681
  67.6861860 109.0226461  62.0764145  83.0754090  99.7712112  57.5385760
  82.4952759 100.4296916  57.1563813  82.8090023  98.9489456  57.1273178
  81.5257657  99.1717169  59.7407081  82.0257435  99.2833704  58.9321399
  82.1693264  98.8678222  60.3807889  75.5839652 107.0795799  72.6274922
  75.1006734 107.8796159  72.8338811  75.6700591 107.0903744  71.6742366
  68.8525612 108.9124179  60.5496741  68.8296300 109.0111866  59.5978624
  69.1626248 109.7589329  60.8713907  71.5112990 110.9700334  64.6643355
  72.4656243 110.9384276  64.5973287  71.3125513 110.5090957  65.4793581
  72.1012372 109.5401450  67.2314153  72.9205261 110.0345528  67.2548990
  72.3749180 108.6233418  67.2031721  81.8578968 101.9312202  56.5942109
  80.9704823 102.2161853  56.3762303  82.2732957 101.7705965  55.7469385
  85.2093504 101.9558723  60.3096448  85.9853894 102.4455175  60.5821065
  84.4841639 102.3816777  60.7668317  87.6466063 102.6686342  61.3670388
  88.2410554 102.4282078  60.6563697  87.7192647 101.9493473  61.9943925
  69.8663219 116.5119953  61.6813553  69.7317687 115.7520354  61.1151551
  69.4495281 117.2360853  61.2142342  81.0022182 111.6956877  50.6890129
  81.7058032 111.9006879  51.3047784  80.2784830 112.2633639  50.9539212
  81.8319992 107.4466738  56.8092399  81.7755193 107.9035289  55.9700031
  82.3848334 106.6857422  56.6315241  85.6424798 103.2356470  57.6342518
  85.3861732 102.8353105  58.4650726  85.0177666 103.9500264  57.5092657
  89.9537136 105.9752543  60.1413810  89.3936694 106.0445732  60.9145372
  89.3480639 105.7993528  59.4213306  73.0232345 117.4089270  61.8931996
  72.9064729 118.3534703  61.7910686  72.2024791 117.1062832  62.2817795
  82.9108879 112.1339406  52.7388589  83.7454483 111.7020604  52.5566063
  82.7493222 111.9621420  53.6665483  82.5654771 108.6371519  54.1044928
  82.5103575 108.4715791  53.1633372  81.9400827 109.3447552  54.2607118
  67.3547286 103.8739584  67.9306350  68.0006150 103.3638538  68.4193575
  67.1464437 104.6108265  68.5049775  79.8800678 110.9420431  73.4298491
  80.7491838 111.1161083  73.0685126  79.4007430 111.7614848  73.3074220
  75.8750897  98.1379628  53.6830246  75.8629567  99.0821468  53.8398517
  76.7674319  97.9549774  53.3889708  74.0486859 118.0617532  65.1087924
  74.9514105 118.0941142  65.4254419  73.8224229 117.1317983  65.1234260
  75.8040461 116.8148519  61.7698003  74.8536092 116.8150380  61.6562375
  76.1072947 116.0681253  61.2534038  79.6903016  94.7322405  57.9376183
  78.9235412  94.1780891  58.0832865  80.1013721  94.8044274  58.7990335
  71.6944777 101.0207201  72.0281364  72.5576239 100.6644005  72.2384689
  71.1210188 100.6821095  72.7156769  91.5393154 122.6509057  62.8343765
  92.1771564 122.5315804  62.1307105  91.4213997 123.5989901  62.8931718
  88.3482860 122.6036485  62.7705290  88.0101372 122.4877550  61.8825825
  89.2172629 122.2027650  62.7506296  84.2069676 124.4571961  58.7602181
  83.6434541 124.3661898  57.9918469  84.0922071 123.6371866  59.2404674
  88.8302643 123.7571337  68.7291496  88.8191284 123.3624135  67.8571999
  88.9923283 123.0237409  69.3225267  81.7534108 125.9523153  61.5986401
  82.5455400 125.6113978  61.1832701  81.9930758 126.0618128  62.5188555
  83.7124862 125.2132066  54.4703780  84.4855738 124.6661053  54.3316656
  84.0650261 126.0776316  54.6818242  85.5509905 126.5408449  67.6770680
  85.2599771 127.4454079  67.5617346  86.1866889 126.5824976  68.3914749
  86.4766111 123.9185297  64.2672039  87.0729684 123.6941320  63.5529002
  86.5341083 123.1770043  64.8697487  86.0491140 121.3724732  52.1022230
  86.3016661 120.8506254  51.3405693  85.1115699 121.2090878  52.2048914
  91.0934423 120.3760511  59.9096973  91.8797512 119.9579934  59.5587390
  91.3573127 121.2806603  60.0778622  91.2644500 125.8133361  54.6085630
  90.6290333 125.8867988  55.3206535  90.9341906 126.4026960  53.9304709
  96.4942850 120.3135744  60.8129952  97.2268022 119.7434961  61.0467781
  95.7382205 119.9257344  61.2536457  85.7687429 123.2752838  54.3046605
  85.6523687 122.5997742  54.9727689  85.8789688 122.7885212  53.4878758
  88.1118970 122.7362985  58.0093294  87.7477177 122.2093606  58.7206216
  88.9686085 122.3461455  57.8359780  94.0168270 114.0257318  65.2724560
  93.6851595 114.8952729  65.0485775  93.4213884 113.7093602  65.9518591
  87.7524456 117.7652885  53.0054643  87.9198859 118.6333122  53.3725114
  87.5621626 117.9280167  52.0815932  90.5099790 126.2269864  64.6720473
  90.2100513 127.1294903  64.5636280  90.1650849 125.9602047  65.5241626
  83.9612271 122.6783661  60.7057178  83.0362768 122.5459875  60.9134869
  84.2096684 123.4577880  61.2027120  93.9096933 118.7452404  62.3517911
  93.0013811 118.6767813  62.0576672  93.8584529 119.2224349  63.1799736
  87.7313677 120.2210543  53.9901310  87.6113303 120.6667593  54.8286790
  87.0366266 120.5695860  53.4314848  81.3221082 122.3216934  61.5400967
  81.4513463 122.5751413  62.4540378  80.6418533 122.9144642  61.2205622
  87.9837799 120.1642050  70.2952808  87.2071133 120.7235970  70.2855672
  88.6228362 120.6498833  70.8167678  95.7758580 116.9468843  64.1295784
  95.1332960 117.2401376  63.4835579  95.2713508 116.8321763  64.9348981
  93.4298744 120.6932016  54.8181644  94.3416600 120.9259403  54.6429341
  92.9208391 121.2769060  54.2556722  86.2384172 122.9727503  69.8570775
  86.9798856 123.5112547  69.5805598  85.5321157 123.5993792  70.0142327
  91.7139511 125.1156644  68.4542936  92.1222867 124.6739054  67.7097569
  90.9916773 124.5409271  68.7077129  88.0670581 120.0529250  65.8276493
  88.9131776 120.4768664  65.9711142  88.0069219 119.3962875  66.5215056
  92.0368326 125.6757834  62.2095225  91.4077188 125.8403548  61.5071293
  91.6493988 126.0899444  62.9806189  91.2170027 117.7133619  67.4857667
  90.9730958 118.4675679  66.9491943  91.4929957 118.0918966  68.3204914
  93.1708489 124.2572231  66.1634932  93.3825385 124.9003991  65.4869314
  93.1238238 123.4234548  65.6956863  90.7734718 116.8690052  63.0671505
  89.9119197 117.1671305  63.3588242  90.7997153 117.0860451  62.1352537
  87.5896288 125.4132242  59.4745310  88.0534633 125.6919945  58.6849933
  87.3253086 124.5115687  59.2918401  84.4820369 124.9603724  62.4125074
  85.0521726 125.3890992  61.7742558  85.0728481 124.6786309  63.1109259
  86.5265174 121.5355395  56.2834875  87.2289217 121.9876438  56.7508802
  86.1945802 120.8939214  56.9114769  84.9745535 120.1267151  70.6586085
  84.3444196 120.8083432  70.8921482  84.8681623 120.0150233  69.7139223
  80.2690508 119.7938947  61.5852009  79.4789562 120.0496476  61.1092120
  80.7601755 120.6087285  61.6904050  82.2205253 120.1583527  58.5435486
  81.4236416 120.2702221  59.0618981  81.9930845 120.4970179  57.6776376
  88.0510921 126.6828230  66.4918000  88.1155353 127.1448637  67.3276172
  87.3421845 126.0525595  66.6200310  78.5528211 120.0469438  64.0167000
  78.8036249 120.9316448  64.2824576  79.0887759 119.8674039  63.2442092
  87.7658938 128.3496337  56.3596981  87.6304613 129.1947873  56.7881828
  88.3068751 128.5515615  55.5962914  84.2526278 114.4287917  73.0211336
  83.8593224 113.8754116  73.6958980  85.0692418 114.7398496  73.4117853
  81.2188336 125.8671775  56.9324906  81.7312856 126.6615026  57.0830470
  81.8711049 125.1698066  56.8658507  83.0283220 128.9837532  59.0147659
  83.2049849 129.9055496  58.8268643  83.8240054 128.6695951  59.4442039
  87.1694239 115.8445796  70.6131592  87.9103952 116.4452949  70.5336055
  87.4012162 115.1023434  70.0549635  82.3135577 121.0302164  68.8909822
  82.1989092 120.1287421  69.1916921  81.4580095 121.2765860  68.5394639
  84.1514536 130.5015706  65.0158001  84.7021961 130.3732769  64.2434995
  83.3126012 130.8010595  64.6652894  87.9481707 126.7666833  69.3602232
  88.4810044 126.0055122  69.1301540  87.4195788 126.4740485  70.1026387
  91.1151402 111.8726899  64.8895874  90.7715671 112.7628541  64.8134985
  91.4830365 111.6828557  64.0265459  79.1837253 124.1960430  57.7084476
  80.0212475 124.6057438  57.4918184  79.3615520 123.2559872  57.6784670
  91.0801685 121.8635510  53.3968309  90.5648308 122.6340115  53.6356697
  90.8078993 121.1900647  54.0201371  88.6648796 116.7085211  58.4553548
  87.8090392 116.3192062  58.2759186  89.0775747 116.7877172  57.5953333
  90.1947942 114.2431554  62.8545107  89.6912738 114.2061690  62.0412913
  90.4878549 115.1524297  62.9141764  86.4390828 114.3270284  61.8611289
  87.3043825 114.1313093  61.5017179  86.5068337 114.0980636  62.7880646
  90.8687988 119.7362602  55.2228090  90.5638123 120.0508752  56.0738234
  91.8218430 119.8144022  55.2655423  89.3134420 125.8952826  56.8721044
  88.7855781 125.1605585  56.5594282  88.8121922 126.6727502  56.6261013
  84.0453147 116.5572492  59.2327656  84.6196899 116.3347674  58.5000849
  84.6324130 116.6261187  59.9856257  93.1032725 122.4446219  60.0392032
  93.6164606 123.0776211  60.5413742  93.7533948 121.8447414  59.6735392
  84.3722734 118.5876953  53.2523541  83.5360047 118.9251640  53.5732816
  84.2327504 118.4525933  52.3150678  86.3475815 113.4313741  57.9602725
  85.6940227 113.1162758  57.3359340  86.3056289 112.8089481  58.6862548
  87.4587020 123.7133036  49.8756017  86.5514082 123.4822290  50.0747166
  87.9558052 122.9170655  50.0629999  89.5813555 119.9195675  62.2850373
  88.6636117 120.1410622  62.1272061  89.9973699 119.9941985  61.4262080
  90.3648603 121.3187090  57.4153053  91.1120422 121.8308487  57.1060175
  90.6340193 120.9971143  58.2757447  88.6375253 123.8145631  54.3980008
  87.7286473 123.5304664  54.4952477  88.6670337 124.2344709  53.5383314
  92.8127440 118.3544206  59.3971843  92.0750197 117.8421593  59.7282085
  93.0654214 117.9144588  58.5855119  92.9139068 111.1320458  59.9913612
  93.2197944 110.2717822  59.7039527  93.6391672 111.7238079  59.7912606
  79.2063424 121.5351145  58.3795210  79.0087824 120.9420506  57.6546276
  78.6510088 121.2303355  59.0971149  87.1860147 121.4274252  60.4989803
  87.2408757 120.4748088  60.4232279  86.3751349 121.5833691  60.9831101
  88.3351341 125.3554375  51.7368086  87.8970771 124.6390234  51.2773723
  89.0761782 125.5830489  51.1753177  85.1252507 120.0451311  58.2580182
  84.3120373 120.3445482  58.6645374  85.6211501 119.6507000  58.9754664
  90.7226719 120.5093136  67.0895076  91.0776107 120.7364609  67.9489541
  91.3698850 120.8411513  66.4672331  84.6166582 117.6169667  63.8741417
  85.2565961 117.4758426  63.1764380  83.7844113 117.3304180  63.4980019
  85.3926886 126.9172097  59.9876409  86.1867484 126.4222417  59.7858984
  84.6818578 126.3889960  59.6244115  81.7009649 121.0615179  56.0636162
  80.7707237 120.9999634  56.2806124  81.7967121 120.5391132  55.2672803
  81.6195198 117.5869992  58.6514403  81.8802016 118.5015325  58.5423564
  82.4412371 117.1194434  58.8011016  83.0920124 119.0007749  65.8213228
  83.7643177 118.7925111  65.1725877  82.2649910 118.8029835  65.3818460
  88.9945696 115.6269690  67.8378889  88.3473611 116.3259640  67.7443365
  89.7646711 116.0605834  68.2055137  89.1709830 123.4650455  65.8975709
  90.1001890 123.6161614  65.7244676  88.7500860 123.5534476  65.0424355
  87.9698162 127.4901119  63.6674246  87.8309248 127.1219904  64.5400184
  87.1812758 128.0048759  63.4958204  89.5203377 126.8682722  61.0563084
  89.1853210 126.8283492  61.9520734  89.0207323 126.2027438  60.5833494
  83.4947621 122.2750352  66.5815665  83.3567419 121.5430591  67.1827204
  84.4052545 122.1859252  66.2999853  92.4562569 124.2138756  51.3300144
  91.8391739 123.4885584  51.2333196  91.9879057 124.9748117  50.9867218
  86.1229922 121.9870311  66.0699345  86.8329540 121.3463503  66.0285963
  86.0799230 122.2383206  66.9925526  84.8358856 118.9735529  67.8894984
  84.2996213 118.5226268  68.5416581  84.2475564 119.1081438  67.1465449
  84.2461115 118.4324181  50.4521448  83.3690581 118.3112981  50.0883695
  84.7218868 117.6410259  50.2000337  75.7663255 123.2201340  60.5462955
  76.4534295 122.9063070  59.9583970  75.6111383 124.1242705  60.2730207
  80.5697977 118.1091537  64.9747979  80.4856166 117.5017206  64.2398389
  79.7480683 118.6000555  64.9757475  90.7421691 116.5945100  60.3418174
  91.2390390 115.8415063  60.0219244  89.9708672 116.6309417  59.7761383
  91.8251471 125.3516788  57.9156597  90.8907750 125.4718250  57.7461302
  92.0028140 124.4489254  57.6516607  87.3256660 118.7362483  60.0689858
  86.9554447 118.1833524  60.7570764  87.8215752 118.1320617  59.5164858
  95.2124023 121.1934107  58.4506631  95.6784475 122.0262098  58.3766934
  95.6631523 120.7279088  59.1551890  85.1545858 129.1959978  67.1644876
  85.8555318 129.8296461  67.3174271  84.6840973 129.5374710  66.4040516
  93.1840686 113.5614694  62.4897533  92.2703765 113.7918921  62.6579740
  93.6133787 113.6453138  63.3411565  92.9547144 121.7504586  64.9897427
  92.3018594 121.9980493  64.3349880  93.3327524 120.9368724  64.6559904
  89.0034717 122.4924397  71.4763464  88.3275354 122.3918526  72.1465839
  89.8262351 122.3363611  71.9399461  80.7513576 128.7296333  64.0975979
  81.3367013 127.9840021  64.2303883  80.5538415 129.0400290  64.9812643
  83.6052231 131.7647581  59.1138421  82.9362607 132.2493708  58.6302462
  83.4665101 132.0116801  60.0281800  75.3431231 121.3001934  62.8180422
  75.3815330 120.7665524  63.6117540  74.8371524 120.7737139  62.1991399
  82.7221993 116.1466474  66.3142965  82.7863320 117.0081305  65.9020362
  82.6589113 115.5340476  65.5815323  82.1974266 118.2189607  69.9615999
  82.8246305 117.8366684  70.5753523  81.3402185 118.0003809  70.3271691
  78.9739808 120.0266036  55.8934354  79.2693250 119.1176714  55.8401407
  78.0727844 120.0053775  55.5715356  82.5034055 118.1022032  61.8761902
  81.7820641 118.7158000  61.7369376  83.2927311 118.6379797  61.7978548
  85.3060369 115.4376459  68.1502554  85.8294771 115.6838755  68.9128863
  85.0872702 116.2696494  67.7305691  80.7027650 117.7080133  56.0173679
  80.3740356 116.8277512  55.8348785  81.0567021 117.6527802  56.9050068
  83.8169473 117.9953103  56.3849156  84.1565546 118.5239025  55.6627765
  84.2641594 118.3333509  57.1607723  86.5112914 116.3790154  65.8352225
  86.1709734 115.5797967  66.2372904  85.8051920 116.6791865  65.2629058
  87.1629386 113.4639466  64.2879548  87.9855455 112.9899945  64.1658438
  87.4067449 114.2429950  64.7878234  85.8037620 116.4927725  54.5842449
  86.5245983 116.8708978  54.0806166  85.1802924 117.2116602  54.6877427
  89.9468743 117.1972874  55.5200782  90.1632358 118.0797512  55.2189610
  89.4662810 116.8059087  54.7906424  84.6867965 120.1558587  62.0971526
  84.5412545 120.4698890  62.9895808  84.2093168 120.7743487  61.5442425
  86.5464348 117.1461135  62.1452416  86.5325916 116.2502228  61.8084714
  87.2636776 117.1531799  62.7790702  88.3990478 117.5798475  64.1905543
  88.1408256 118.5015546  64.1889874  87.8675519 117.1828910  64.8806007
  79.1613627 122.6963931  65.0359187  78.6167095 123.4723739  65.1679462
  80.0392977 123.0434736  64.8778309  85.9501243 116.0275515  57.4139986
  86.0717155 115.0992161  57.6130873  85.6603286 116.0414201  56.5018301
  88.8192434 113.7130426  60.5506706  88.8414131 113.7769759  59.5958685
  89.2360493 112.8734934  60.7447212  79.9479649 121.8233828  67.9289344
  79.2061385 121.9716463  68.5153975  79.6272393 122.0842093  67.0656094
  80.3936262 129.7099256  59.9599739  81.2194282 129.4103028  59.5798382
  80.0430314 128.9406879  60.4089527  85.3617795 129.0625725  62.0297412
  84.7397805 128.3996430  61.7299640  86.0322662 129.0886857  61.3471060
  78.5944867 127.6285583  60.9188672  77.7576776 127.2007757  60.7372674
  78.5668513 127.8218026  61.8559464  85.4342323 117.5407513  71.6229918
  85.4830478 118.4169635  71.2407688  85.9764837 116.9984906  71.0501562
  84.9231302 127.6129648  55.5055873  85.0719423 128.2965112  54.8522546
  85.7297746 127.5934738  56.0205329  93.3298806 120.9172030  69.5323091
  94.2308669 120.7778495  69.2407089  93.4046781 121.0826485  70.4721268
  87.6641611 118.2938885  68.3776277  86.7944921 118.5872451  68.1058866
  87.9001092 118.8779330  69.0983541  95.7900429 122.4770658  66.9285864
  96.2654550 122.6698305  66.1204715  94.8665994 122.5329844  66.6829247
  82.6783935 123.6394826  56.5116942  82.4329977 122.7357156  56.7097152
  82.8479850 123.6411976  55.5696420  90.3680645 114.5118502  65.8941697
  90.8862589 115.2479529  65.5688186  90.0135778 114.8182495  66.7288457
  81.9479583 119.3723183  54.0103103  81.2548828 119.4467538  53.3543139
  81.7031335 118.6083527  54.5324620  90.6193239 110.9318785  61.4142594
  90.8994993 110.2641974  62.0403021  91.4043846 111.1247880  60.9017258
  94.4902098 119.3536419  65.1614169  95.4419521 119.4534516  65.1826393
  94.3205548 118.5614687  65.6712254  92.5116477 116.4392002  65.3473570
  91.9166409 116.7197014  64.6520059  92.2266174 116.9285903  66.1190311
  88.8073506 121.4438591  50.3183673  89.7532611 121.3144799  50.3872091
  88.4287751 120.7053253  50.7953101  97.1184664 119.3653582  64.3214752
  96.6023713 118.5812038  64.1344681  98.0024613 119.0372298  64.4861272
  94.7795391 113.1094597  60.2810565  94.5820212 112.8009685  61.1653897
  95.3895097 113.8356236  60.4108495  88.6912199 125.4956337  71.7784330
  89.6115208 125.6734936  71.9724376  88.6561782 124.5512383  71.6264029
  86.9916424 119.3688568  50.2538558  86.0847879 119.0721680  50.3301272
  87.2692405 119.0718386  49.3872844  77.9094364 120.6894931  60.7037605
  77.5897148 119.8360239  60.4111979  77.3627792 120.9043509  61.4595572
  81.6874272 123.4057372  64.4207111  81.9060281 124.3374480  64.4395145
  82.1000045 123.0465346  65.2061915  88.6078489 113.9125457  56.4082799
  87.7979218 113.5672542  56.7838045  89.2962906 113.6033001  56.9970411
  90.5369038 112.9903504  58.0307096  91.0900076 113.4098958  58.6897119
  90.7739124 112.0639252  58.0730052  86.5602137 118.9790578  73.8109860
  86.4598864 119.9284935  73.7421951  86.3423679 118.6508817  72.9385930
  85.7615208 116.2275503  50.3950537  86.6234372 116.5530401  50.6546355
  85.9465552 115.4406999  49.8823603  77.7782624 124.3097842  62.6730726
  77.0846095 123.8951795  62.1600681  78.5255615 124.3518379  62.0764145
  93.9147845 115.1004029  57.5385760  93.3346514 115.7588833  57.1563813
  93.6483777 114.2781374  57.1273178  92.3651411 114.5009087  59.7407081
  92.8651189 114.6125621  58.9321399  93.0087019 114.1970140  60.3807889
  86.4233407 122.4087717  72.6274922  85.9400489 123.2088077  72.8338811
  86.5094346 122.4195661  71.6742366  79.6919366 124.2416096  60.5496741
  79.6690055 124.3403784  59.5978624  80.0020003 125.0881247  60.8713907
  82.3506744 126.2992251  64.6643355  83.3049998 126.2676194  64.5973287
  82.1519268 125.8382875  65.4793581  82.9406126 124.8693367  67.2314153
  83.7599015 125.3637446  67.2548990  83.2142934 123.9525335  67.2031721
  92.6972723 117.2604120  56.5942109  91.8098578 117.5453770  56.3762303
  93.1126712 117.0997883  55.7469385  96.0487259 117.2850641  60.3096448
  96.8247649 117.7747093  60.5821065  95.3235393 117.7108695  60.7668317
  98.4859817 117.9978260  61.3670388  99.0804308 117.7573996  60.6563697
  98.5586401 117.2785390  61.9943925  80.7056973 131.8411871  61.6813553
  80.5711441 131.0812272  61.1151551  80.2889035 132.5652771  61.2142342
  92.6713746 122.7758656  56.8092399  92.6148948 123.2327207  55.9700031
  93.2242089 122.0149340  56.6315241  96.4818552 118.5648387  57.6342518
  96.2255487 118.1645023  58.4650726  95.8571420 119.2792181  57.5092657
  93.4048526 123.9663437  54.1044928  93.3497330 123.8007708  53.1633372
  92.7794581 124.6739470  54.2607118  78.1941041 119.2031501  67.9306350
  78.8399904 118.6930455  68.4193575  77.9858192 119.9400183  68.5049775
  86.7144651 113.4671546  53.6830246  86.7023321 114.4113386  53.8398517
  87.6068073 113.2841691  53.3889708  90.5296771 110.0614322  57.9376183
  89.7629166 109.5072809  58.0832865  90.9407476 110.1336191  58.7990335
  82.5338532 116.3499118  72.0281364  83.3969993 115.9935923  72.2384689
  81.9603942 116.0113013  72.7156769  26.5030628   7.6819673  49.5589072
  27.1409038   7.5626421  48.8552412  26.3851471   8.6300517  49.6177024
  23.3120335   7.6347102  49.4950597  22.9738846   7.5188166  48.6071132
  24.1810103   7.2338267  49.4751603  19.1707150   9.4882578  45.4847488
  18.6072016   9.3972515  44.7163775  19.0559546   8.6682482  45.9649980
  23.7940118   8.7881953  55.4536802  23.7828759   8.3934752  54.5817306
  23.9560757   8.0548026  56.0470574  16.7171582  10.9833770  48.3231708
  17.5092874  10.6424594  47.9078007  16.9568233  11.0928745  49.2433861
  24.7506709  13.1553546  40.7961953  24.0994689  13.7407626  40.4095966
  25.5451072  13.6859741  40.8556990  18.6762336  10.2442683  41.1949087
  19.4493212   9.6971670  41.0561963  19.0287735  11.1086932  41.4063548
  20.5147379  11.5719065  54.4015986  20.2237245  12.4764696  54.2862653
  21.1504363  11.6135593  55.1160056  21.4403586   8.9495914  50.9917346
  22.0367158   8.7251936  50.2774309  21.4978557   8.2080659  51.5942794
  21.0128614   6.4035349  38.8267537  21.2654135   5.8816870  38.0651000
  20.0753173   6.2401494  38.9294220  26.0571897   5.4071127  46.6342280
  26.8434986   4.9890551  46.2832697  26.3210601   6.3117220  46.8023928
  26.2281974  10.8443978  41.3330937  25.5927807  10.9178604  42.0451841
  25.8979381  11.4337576  40.6550016  31.4580324   5.3446361  47.5375259
  32.1905496   4.7745577  47.7713088  30.7019680   4.9567961  47.9781764
  20.7324903   8.3063455  41.0291912  20.6161161   7.6308358  41.6972996
  20.8427163   7.8195829  40.2124065  23.0756444   7.7673602  44.7338601
  22.7114651   7.2404223  45.4451522  23.9323560   7.3772071  44.5605086
  28.9805744  -0.9432065  51.9969867  28.6489069  -0.0736654  51.7731082
  28.3851358  -1.2595781  52.6763898  22.7161931   2.7963502  39.7299950
  22.8836333   3.6643738  40.0970421  22.5259100   2.9590783  38.8061239
  25.4737264  11.2580481  51.3965780  25.1737987  12.1605519  51.2881587
  25.1288323  10.9912664  52.2486933  18.9249745   7.7094277  47.4302484
  18.0000242   7.5770492  47.6380176  19.1734159   8.4888497  47.9272427
  28.8734408   3.7763021  49.0763217  27.9651285   3.7078429  48.7821978
  28.8222004   4.2534966  49.9045043  22.6951152   5.2521159  40.7146616
  22.5750777   5.6978210  41.5532097  22.0003740   5.6006477  40.1560154
  16.2858556   7.3527551  48.2646273  16.4150938   7.6062030  49.1785685
  15.6056008   7.9455259  47.9450928  20.4558044  18.0224801  44.3636748
  20.3782073  18.9732626  44.4425228  19.8519687  17.6770673  45.0211674
  22.9475274   5.1952666  57.0198114  22.1708608   5.7546587  57.0100979
  23.5865837   5.6809449  57.5412985  30.7396054   1.9779459  50.8541091
  30.0970434   2.2711992  50.2080886  30.2350983   1.8632380  51.6594288
  28.3936218   5.7242632  41.5426950  29.3054074   5.9570019  41.3674648
  27.8845865   6.3079677  40.9802029  21.2021646   8.0038120  56.5816081
  21.9436330   8.5423164  56.3050905  20.4958631   8.6304409  56.7387633
  26.6776985  10.1467260  55.1788243  27.0860342   9.7049671  54.4342875
  25.9554247   9.5719888  55.4322436  23.0308056   5.0839867  52.5521800
  23.8769251   5.5079281  52.6956449  22.9706693   4.4273491  53.2460363
  27.0005800  10.7068451  48.9340532  26.3714663  10.8714165  48.2316600
  26.6131462  11.1210060  49.7051496  30.8795032  11.6422889  46.2884896
  30.1946070  12.0221790  45.7381929  30.9638881  12.2518215  47.0216843
  26.1807501   2.7444235  54.2102974  25.9368433   3.4986296  53.6737249
  26.4567431   3.1229583  55.0450221  28.1345964   9.2882848  52.8880239
  28.3462859   9.9314608  52.2114620  28.0875712   8.4545164  52.4202169
  25.7372193   1.9000668  49.7916811  24.8756672   2.1981922  50.0833549
  25.7634627   2.1171067  48.8597844  22.5533762  10.4442859  46.1990617
  23.0172108  10.7230562  45.4095239  22.2890560   9.5426304  46.0163708
  19.4457843   9.9914340  49.1370380  20.0159200  10.4201609  48.4987865
  20.0365955   9.7096925  49.8354566  21.4902648   6.5666011  43.0080182
  22.1926691   7.0187055  43.4754108  21.1583277   5.9249830  43.6360075
  19.9383010   5.1577768  57.3831391  19.3081670   5.8394049  57.6166788
  19.8319097   5.0460850  56.4384530  29.2491792  12.1654803  51.0602596
  30.0709235  11.7634990  50.7785278  29.2454194  12.0623037  52.0118712
  23.0148395  11.7138846  53.2163307  23.0792828  12.1759254  54.0521479
  22.3059319  11.0836211  53.3445617  37.3397785   8.5093552  47.4087568
  36.5861493   7.9400950  47.2531572  37.4745326   8.4756216  48.3558203
  22.7296413  13.3806954  43.0842287  22.5942087  14.2258490  43.5127135
  23.2706225  13.5826232  42.3208221  16.1825810  10.8982392  43.6570212
  16.6950331  11.6925642  43.8075777  16.8348523  10.2008682  43.5903814
  17.9920695  14.0148148  45.7392966  18.1687323  14.9366113  45.5513949
  18.7877528  13.7006567  46.1687345  24.3564889  14.0030520  57.2142629
  23.9128743  13.2166899  56.8963534  25.0182103  14.1909671  56.5486520
  19.1152010  15.5326322  51.7403308  19.6659435  15.4043385  50.9680302
  18.2763486  15.8321211  51.3898201  26.4546127  14.2833320  55.2424031
  26.4364602  15.1042201  54.7504300  27.3766047  14.1587396  55.4674172
  22.9119181  11.7977450  56.0847539  23.4447518  11.0365738  55.8546847
  22.3833262  11.5051102  56.8271694  26.0439159   6.8946127  40.1213616
  25.5285782   7.6650732  40.3602003  25.7716467   6.2211263  40.7446677
  31.0173433   9.6478482  42.0566789  30.2402876   9.3089641  41.6121951
  31.6964914   9.6531105  41.3821754  25.8325462   4.7673219  41.9473397
  25.5275598   5.0819368  42.7983540  26.7855904   4.8454639  41.9900730
  24.2771894  10.9263442  43.5966351  23.7493256  10.1916202  43.2839588
  23.7759397  11.7038119  43.3506319  29.2564740   9.1212463  48.7133397
  28.5988414   9.8111724  48.8013526  30.0605139   9.5108895  49.0567384
  28.0670199   7.4756836  46.7637339  28.5802081   8.1086827  47.2659049
  28.7171423   6.8758031  46.3980699  22.4224494   8.7443653  36.6001324
  21.5151556   8.5132906  36.7992473  22.9195526   7.9481272  36.7875306
  25.3292573  17.4541160  39.5198010  24.6554272  17.7572857  40.1282968
  25.7158395  18.2570240  39.1703467  24.5451030   4.9506291  49.0095680
  23.6273591   5.1721238  48.8517368  24.9611173   5.0252602  48.1507387
  25.3286077   6.3497707  44.1398360  26.0757896   6.8619104  43.8305482
  25.5977667   6.0281759  45.0002753  23.6012728   8.8456247  41.1225314
  22.6923947   8.5615280  41.2197784  23.6307811   9.2655326  40.2628621
  28.8331995  12.4562837  44.8916482  28.3794322  11.6153747  44.9481672
  28.2025962  13.0924235  45.2291262  27.7764915   3.3854823  46.1217149
  27.0387671   2.8732209  46.4527392  28.0291688   2.9455205  45.3100426
  27.2764934  14.2939334  45.8266300  27.5687909  14.8544391  45.1078665
  27.7863555  14.5867895  46.5819459  22.1497622   6.4584868  47.2235110
  22.2046231   5.5058704  47.1477586  21.3388824   6.6144307  47.7076408
  23.2988815  10.3864991  38.4613393  22.8608245   9.6700850  38.0019030
  24.0399256  10.6141106  37.8998484  20.0889982   5.0761928  44.9825488
  19.2757847   5.3756098  45.3890681  20.5848976   4.6817617  45.6999971
  22.2398559  15.0719685  46.9159753  22.1974738  15.2980531  45.9868285
  23.1561258  14.8383059  47.0645554  25.6864193   5.5403752  53.8140382
  26.0413581   5.7675225  54.6734848  26.3336324   5.8722129  53.1917638
  31.4161930   8.6622188  44.5189711  31.2779829   8.8523784  43.5910901
  31.0598149   9.4241571  44.9757762  31.4431310  10.7298715  49.5300983
  31.8767816  10.6374004  50.3784037  32.1562891  10.7056216  48.8920999
  20.3564360  11.9482714  46.7121716  21.1504959  11.4533034  46.5104291
  19.6456053  11.4200577  46.3489421  25.1759205  14.3300809  51.0634083
  25.2296227  14.8991746  51.8311799  24.3073986  14.5002694  50.6988121
  32.3046859  10.7722416  52.0633868  32.4982749  11.6768226  52.3093143
  32.2047478  10.3129835  52.8972453  27.3661968  10.9229159  57.6374749
  27.2147474  10.6939710  56.7204833  27.3566648  11.8799760  57.6506094
  24.1347304   8.4961071  52.6221015  25.0639364   8.6472231  52.4489983
  23.7138334   8.5845092  51.7669662  22.9335636  12.5211736  50.3919553
  22.7946722  12.1530520  51.2645491  22.1450232  13.0359375  50.2203511
  23.5283788  17.6220832  41.7345089  23.7035544  17.1508875  42.5490712
  22.8416576  18.2486598  41.9626350  24.4840851  11.8993338  47.7808391
  24.1490684  11.8594108  48.6766041  23.9844797  11.2338054  47.3078801
  18.4585095   7.3060968  53.3060972  18.3204893   6.5741207  53.9072511
  19.3690019   7.2169869  53.0245160  27.4200043   9.2449373  38.0545450
  26.8029214   8.5196201  37.9578503  26.9516531  10.0058733  37.7112525
  21.0867396   7.0180928  52.7944651  21.7967015   6.3774120  52.7531270
  21.0436704   7.2693823  53.7170832  29.0754175  13.9548281  55.7151231
  29.0166721  13.2707501  55.0481814  29.4773693  14.6967271  55.2631857
  18.0944873  20.7710195  48.5084950  18.3341472  21.4028719  49.1863968
  17.2514070  20.4198235  48.7950309  29.0771582  11.9187865  53.9465210
  28.1898361  11.5813787  54.0691609  29.6470133  11.1870896  54.1833976
  22.6072735  16.5789317  50.9126454  22.5342907  17.3844289  51.4245758
  22.1650128  16.7781283  50.0874475  22.3962515  15.8161087  44.4229275
  21.6130037  16.3582768  44.5167500  23.0955260  16.3335067  44.8223516
  25.7059165   1.6255717  47.0663481  26.2027865   0.8725679  46.7464551
  24.9346147   1.6620034  46.5006690  33.5588923   7.3296082  48.7081772
  33.5478799   8.2120798  48.3375705  32.6906302   6.9767633  48.5136309
  25.0671419  16.4776151  53.0684612  25.7799391  17.1123616  52.9960514
  24.5761448  16.5740017  52.2524614  26.7888946  10.3827404  44.6401904
  25.8545225  10.5028867  44.4706608  26.9665614   9.4799871  44.3761914
  22.2894134   3.7673100  46.7935165  21.9191921   3.2144140  47.4816071
  22.7853226   3.1631233  46.2410165  30.1761497   6.2244723  45.1751938
  30.6421949   7.0572715  45.1012241  30.6268998   5.7589705  45.8797197
  20.1183332  14.2270595  53.8890183  20.8192792  14.8607078  54.0419577
  19.6478447  14.5685326  53.1285822  28.2437728  12.5688545  42.1738090
  28.5197572  12.4545139  43.0831964  27.3742227  12.1706030  42.1350263
  27.9184618   6.7815202  51.7142733  27.2656069   7.0291110  51.0595186
  28.2964998   5.9679341  51.3805211  24.8791792  16.8174896  45.8170904
  25.0614187  15.9996551  46.2798656  25.7024778  17.0342588  45.3795794
  25.2133958  15.7443081  43.0785952  25.7421724  15.2335535  42.4656114
  25.4762177  15.4285611  43.9431485  23.9672191   7.5235013  58.2008770
  23.2912828   7.4229143  58.8711146  24.7899825   7.3674227  58.6644768
  15.7151050  13.7606950  50.8221286  16.3004487  13.0150638  50.9549190
  15.5175889  14.0710907  51.7057950  18.5689706  16.7958197  45.8383728
  17.9000081  17.2804325  45.3547768  18.4302575  17.0427418  46.7527107
  22.7094974  18.8301941  52.4366386  23.2613282  18.9933562  53.2015472
  23.0501168  19.4206379  51.7646411  27.5605849  13.6563198  58.2915041
  28.1045753  14.2693157  57.7969996  26.9792693  14.2142777  58.8082054
  25.8463362  16.7783916  49.4230069  25.7214501  15.9773656  48.9141014
  26.5042453  17.2730110  48.9344039  27.9098270  14.5792936  51.0509619
  26.9628605  14.4598288  50.9787945  28.2581043  13.6915435  51.1335880
  24.9144703  14.3745653  47.2513971  24.7669666  13.4462360  47.4321541
  25.7398197  14.3965743  46.7671046  28.5178825  15.1974211  48.3378844
  29.4425373  14.9917073  48.2003295  28.3494128  14.9490613  49.2468185
  24.9106218   2.2283490  42.2446088  25.1269832   3.1108128  41.9434916
  24.4300285   1.8369704  41.5151730  19.6505439   5.1869204  48.8216833
  19.5050020   5.5009507  49.7141114  19.1730643   5.8054104  48.2687731
  28.3074141  15.7159879  43.6940935  28.4811019  15.1506301  42.9414788
  28.8003033  16.5160774  43.5120425  34.1613532   8.4796302  45.3131235
  34.6044678   7.7303627  44.9150358  33.2840043   8.4706438  44.9304967
  29.2949314  15.0326643  40.7937833  29.9900218  15.6533336  41.0125148
  29.6372464  14.1821995  41.0690211  31.1940737  12.4826349  42.3225164
  31.7192061  12.8213622  41.5974484  31.1063089  11.5473364  42.1388299
  22.8560786  16.3960422  54.4515041  23.1647912  16.1509569  55.3237740
  23.6536268  16.6007061  53.9633911  22.8781398  18.5498332  46.6820417
  22.4386388  18.0574711  47.3753274  23.6289515  18.0071300  46.4412493
  15.3573737  14.7409873  46.6845045  16.1831757  14.4413645  46.3043689
  15.0067789  13.9717495  47.1334834  20.3255270  14.0936341  48.7542719
  19.7035279  13.4307046  48.4544947  20.9960137  14.1197473  48.0716367
  13.5582342  12.6596199  47.6433979  12.7214250  12.2318374  47.4617980
  13.5305987  12.8528643  48.5804770  30.8834643  13.1159252  57.6276362
  30.0930187  13.0983391  57.0880862  30.6467998  13.6547546  58.3825399
  31.0032518   9.9651719  54.9409091  31.0530523   9.8001726  55.8824613
  30.8946441   9.0978978  54.5506971  19.8868777  12.6440265  42.2301180
  20.0356897  13.3275729  41.5767852  20.6935220  12.6245355  42.7450635
  28.2936280   5.9482647  56.2568397  29.1946143   5.8089112  55.9652395
  28.3684255   6.1137102  57.1966575  22.6279086   3.3249502  55.1021584
  21.7582395   3.6183068  54.8304172  22.8638566   3.9089947  55.8228847
  32.5050715  12.3848660  55.1851112  32.2135523  12.7478641  56.0214573
  31.8922846  11.6715669  55.0064444  33.7046397   9.9501540  47.7053682
  34.5393289  10.3891344  47.8691243  33.8405526   9.4740193  46.8861928
  30.7537903   7.5081275  53.6531170  31.2292025   7.7008921  52.8450022
  29.8303468   7.5640461  53.4074554  17.6421410   8.6705442  43.2362249
  17.3967452   7.7667772  43.4342459  17.8117324   8.6722593  42.2941727
  23.3864182  15.1388395  39.7012927  22.8138149  15.7578582  39.2483399
  23.9596976  15.6887757  40.2352849  29.4539572   4.3847035  51.8859476
  30.4056995   4.4845133  51.9071700  29.2843023   3.5925304  52.3957560
  27.4753952   1.4702618  52.0718877  26.8803884   1.7507631  51.3765365
  27.1903648   1.9596519  52.8435618  26.6061442  15.4225545  40.8321509
  27.5392115  15.3571107  41.0354385  26.5184655  16.2581812  40.3736042
  29.2349459  14.7391415  37.7925457  29.1563090  14.4051279  38.6861215
  30.0559125  15.2313183  37.7916929  31.9327650   7.6053155  51.0001775
  31.9003970   6.6669155  51.1861459  32.5428274   7.6837191  50.2667600
  23.7710981   6.4749208  37.0428980  24.7170085   6.3455416  37.1117398
  23.3925226   5.7363870  37.5198408  32.0822138   4.3964198  51.0460059
  31.5661187   3.6122655  50.8589988  32.9662087   4.0682915  51.2106578
  29.7432865  -1.8594786  47.0055871  29.5457686  -2.1679698  47.8899203
  30.3532571  -1.1333147  47.1353801  37.7504200   8.6669162  50.1407812
  38.4807588   8.4054450  50.7015516  37.1411145   7.9297884  50.1809880
  35.8319497   6.8077024  50.7382263  35.1052660   6.6732989  50.1298755
  35.4166784   7.1153853  51.5438982  23.6549673  10.5266954  58.5029636
  24.5752683  10.7045553  58.6969683  23.6199256   9.5822999  58.3509336
  21.9553898   4.3999184  36.9783865  21.0485353   4.1032297  37.0546578
  22.2329879   4.1029002  36.1118151  16.6511746   8.4367989  51.1452418
  16.8697756   9.3685096  51.1640451  17.0637520   8.0775963  51.9307221
  21.5239611   4.0101194  60.5355167  21.4236338   4.9595551  60.4667258
  21.3061153   3.6819433  59.6631237  28.8785319   0.1314646  44.2631067
  28.2983988   0.7899450  43.8809119  28.6121252  -0.6908010  43.8518484
  27.3288885  -0.4680296  46.4652387  27.8288664  -0.3563762  45.6566706
  27.9724493  -0.7719244  47.1053196  21.3870881   7.4398333  59.3520228
  20.9037963   8.2398693  59.5584117  21.4731820   7.4506278  58.3987672
  14.6556841   9.2726713  47.2742048  14.6327529   9.3714400  46.3223931
  14.9657477  10.1191864  47.5959214  17.3144219  11.3302868  51.3888662
  18.2687472  11.2986810  51.3218594  17.1156742  10.8693492  52.2038888
  17.9043601   9.9003984  53.9559460  18.7236490  10.3948063  53.9794297
  18.1780409   8.9835952  53.9277027  27.6610197   2.2914736  43.3187415
  26.7736052   2.5764387  43.1007610  28.0764186   2.1308500  42.4714692
  31.0124733   2.3161257  47.0341754  31.7885123   2.8057710  47.3066371
  30.2872867   2.7419311  47.4913624  33.4497292   3.0288876  48.0915695
  34.0441783   2.7884612  47.3809003  33.5223875   2.3096007  48.7189231
  15.6694447  16.8722487  48.4058860  15.5348915  16.1122888  47.8396858
  15.2526510  17.5963387  47.9387649  26.8053410  12.0559411  37.4135435
  27.5089261  12.2609413  38.0293091  26.0816059  12.6236173  37.6784519
  27.6351221   7.8069272  43.5337705  27.5786422   8.2637824  42.6945338
  28.1879563   7.0459957  43.3560548  31.4456027   3.5959004  44.3587825
  31.1892961   3.1955640  45.1896033  30.8208895   4.3102798  44.2337964
  35.7568365   6.3355077  46.8659116  35.1967922   6.4048267  47.6390678
  35.1511868   6.1596062  46.1458613  18.8263573  17.7691804  48.6177303
  18.7095957  18.7137237  48.5155993  18.0056020  17.4665366  49.0063102
  28.7140108  12.4941940  39.4633895  29.5485712  12.0623139  39.2811370
  28.5524451  12.3223954  40.3910790  28.3686000   8.9974053  40.8290235
  28.3134804   8.8318325  39.8878679  27.7432055   9.7050086  40.9852424
  25.6831907  11.3022965  60.1543797  26.5523067  11.4763618  59.7930432
  25.2038659  12.1217382  60.0319527  19.8518087  18.4220066  51.8333231
  20.7545334  18.4543677  52.1499726  19.6255458  17.4920517  51.8479567
  21.6071689  17.1751053  48.4943310  20.6567320  17.1752914  48.3807682
  21.9104176  16.4283787  47.9779344  37.3424383  23.0111591  49.5589072
  37.9802793  22.8918339  48.8552412  37.2245226  23.9592435  49.6177024
  34.1514089  22.9639019  49.4950597  33.8132601  22.8480084  48.6071132
  35.0203857  22.5630184  49.4751603  30.0100905  24.8174496  45.4847488
  29.4465770  24.7264433  44.7163775  29.8953300  23.9974400  45.9649980
  34.6333872  24.1173871  55.4536802  34.6222513  23.7226669  54.5817306
  34.7954512  23.3839944  56.0470574  27.5565337  26.3125687  48.3231708
  28.3486629  25.9716512  47.9078007  27.7961987  26.4220662  49.2433861
  35.5900464  28.4845463  40.7961953  34.9388443  29.0699544  40.4095966
  36.3844826  29.0151658  40.8556990  29.5156091  25.5734601  41.1949087
  30.2886967  25.0263588  41.0561963  29.8681490  26.4378850  41.4063548
  31.3541133  26.9010983  54.4015986  31.0630999  27.8056614  54.2862653
  31.9898118  26.9427510  55.1160056  32.2797340  24.2787831  50.9917346
  32.8760912  24.0543854  50.2774309  32.3372312  23.5372577  51.5942794
  31.8522369  21.7327267  38.8267537  32.1047889  21.2108788  38.0651000
  30.9146928  21.5693412  38.9294220  36.8965651  20.7363045  46.6342280
  37.6828741  20.3182468  46.2832697  37.1604356  21.6409137  46.8023928
  37.0675729  26.1735895  41.3330937  36.4321562  26.2470522  42.0451841
  36.7373135  26.7629494  40.6550016  42.2974079  20.6738278  47.5375259
  43.0299251  20.1037495  47.7713088  41.5413434  20.2859879  47.9781764
  31.5718657  23.6355373  41.0291912  31.4554915  22.9600276  41.6972996
  31.6820917  23.1487747  40.2124065  33.9150198  23.0965520  44.7338601
  33.5508406  22.5696141  45.4451522  34.7717314  22.7063989  44.5605086
  39.8199499  14.3859852  51.9969867  39.4882824  15.2555263  51.7731082
  39.2245112  14.0696136  52.6763898  33.5555685  18.1255419  39.7299950
  33.7230088  18.9935656  40.0970421  33.3652854  18.2882701  38.8061239
  36.3131018  26.5872398  51.3965780  36.0131742  27.4897437  51.2881587
  35.9682078  26.3204582  52.2486933  29.7643500  23.0386195  47.4302484
  28.8393996  22.9062409  47.6380176  30.0127913  23.8180414  47.9272427
  39.7128162  19.1054939  49.0763217  38.8045040  19.0370347  48.7821978
  39.6615758  19.5826883  49.9045043  33.5344906  20.5813077  40.7146616
  33.4144531  21.0270128  41.5532097  32.8397495  20.9298395  40.1560154
  27.1252311  22.6819469  48.2646273  27.2544692  22.9353948  49.1785685
  26.4449762  23.2747177  47.9450928  31.2951798  33.3516719  44.3636748
  31.2175828  34.3024544  44.4425228  30.6913442  33.0062591  45.0211674
  33.7869028  20.5244584  57.0198114  33.0102362  21.0838504  57.0100979
  34.4259591  21.0101367  57.5412985  41.5789809  17.3071377  50.8541091
  40.9364189  17.6003910  50.2080886  41.0744737  17.1924297  51.6594288
  39.2329972  21.0534550  41.5426950  40.1447828  21.2861937  41.3674648
  38.7239619  21.6371594  40.9802029  32.0415400  23.3330037  56.5816081
  32.7830085  23.8715081  56.3050905  31.3352386  23.9596326  56.7387633
  37.5170740  25.4759178  55.1788243  37.9254096  25.0341588  54.4342875
  36.7948001  24.9011805  55.4322436  33.8701810  20.4131785  52.5521800
  34.7163005  20.8371198  52.6956449  33.8100448  19.7565409  53.2460363
  37.8399555  26.0360369  48.9340532  37.2108417  26.2006083  48.2316600
  37.4525217  26.4501978  49.7051496  41.7188787  26.9714806  46.2884896
  41.0339825  27.3513708  45.7381929  41.8032636  27.5810133  47.0216843
  37.0201255  18.0736153  54.2102974  36.7762187  18.8278214  53.6737249
  37.2961186  18.4521501  55.0450221  38.9739718  24.6174765  52.8880239
  39.1856613  25.2606525  52.2114620  38.9269466  23.7837082  52.4202169
  36.5765947  17.2292586  49.7916811  35.7150426  17.5273840  50.0833549
  36.6028382  17.4462985  48.8597844  33.3927517  25.7734777  46.1990617
  33.8565862  26.0522480  45.4095239  33.1284315  24.8718221  46.0163708
  30.2851598  25.3206258  49.1370380  30.8552955  25.7493527  48.4987865
  30.8759709  25.0388843  49.8354566  32.3296403  21.8957929  43.0080182
  33.0320446  22.3478973  43.4754108  31.9977031  21.2541748  43.6360075
  30.7776764  20.4869686  57.3831391  30.1475425  21.1685966  57.6166788
  30.6712852  20.3752767  56.4384530  26.0721737  20.1541482  48.3097316
  25.2820791  20.4099010  47.8337426  26.5632984  20.9689820  48.4149356
  40.0885546  27.4946721  51.0602596  40.9102990  27.0926908  50.7785278
  40.0847949  27.3914955  52.0118712  28.0236482  20.5186061  45.2680792
  27.2267645  20.6304755  45.7864288  27.7962074  20.8572713  44.4021683
  33.8542150  27.0430764  53.2163307  33.9186582  27.5051171  54.0521479
  33.1453073  26.4128129  53.3445617  24.3559440  20.4071972  50.7412306
  24.6067478  21.2918982  51.0069882  24.8918988  20.2276574  49.9687398
  48.1791539  23.8385469  47.4087568  47.4255248  23.2692867  47.2531572
  48.3139080  23.8048134  48.3558203  33.5690167  28.7098872  43.0842287
  33.4335842  29.5550407  43.5127135  34.1099980  28.9118149  42.3208221
  30.0557507  14.7890451  59.7456643  29.6624452  14.2356650  60.4204287
  30.8723647  15.1001030  60.1363160  27.0219565  26.2274310  43.6570212
  27.5344085  27.0217560  43.8075777  27.6742277  25.5300600  43.5903814
  28.8314449  29.3440066  45.7392966  29.0081078  30.2658031  45.5513949
  29.6271283  29.0298485  46.1687345  32.9725468  16.2048331  57.3376899
  33.7135181  16.8055484  57.2581362  33.2043391  15.4625968  56.7794942
  28.1166806  21.3904698  55.6155129  28.0020321  20.4889955  55.9162228
  27.2611324  21.6368395  55.2639945  35.1958644  29.3322438  57.2142629
  34.7522498  28.5458817  56.8963534  35.8575857  29.5201589  56.5486520
  29.9545765  30.8618240  51.7403308  30.5053190  30.7335303  50.9680302
  29.1157241  31.1613129  51.3898201  37.2939882  29.6125238  55.2424031
  37.2758357  30.4334119  54.7504300  38.2159802  29.4879313  55.4674172
  33.7512936  27.1269368  56.0847539  34.2841273  26.3657656  55.8546847
  33.2227017  26.8343019  56.8271694  36.9182631  12.2329434  51.6141181
  36.5746900  13.1231075  51.5380291  37.2861593  12.0431091  50.7510766
  24.9868481  24.5562964  44.4329783  25.8243703  24.9659972  44.2163491
  25.1646749  23.6162406  44.4029977  36.8832913  22.2238045  40.1213616
  36.3679537  22.9942649  40.3602003  36.6110222  21.5503181  40.7446677
  34.4680025  17.0687745  45.1798854  33.6121621  16.6794596  45.0004493
  34.8806976  17.1479706  44.3198640  35.9979171  14.6034089  49.5790414
  35.4943967  14.5664224  48.7658219  36.2909778  15.5126831  49.6387071
  32.2422057  14.6872818  48.5856596  33.1075054  14.4915627  48.2262485
  32.3099566  14.4583170  49.5125953  41.8567188  24.9770399  42.0566789
  41.0796630  24.6381559  41.6121951  42.5358669  24.9823022  41.3821754
  36.6719217  20.0965137  41.9473397  36.3669352  20.4111286  42.7983540
  37.6249659  20.1746557  41.9900730  35.1165648  26.2555360  43.5966351
  34.5887010  25.5208120  43.2839588  34.6153151  27.0330036  43.3506319
  40.0958495  24.4504381  48.7133397  39.4382169  25.1403642  48.8013526
  40.8998894  24.8400812  49.0567384  29.8484376  16.9175026  45.9572963
  30.4228128  16.6950208  45.2246156  30.4355359  16.9863721  46.7101564
  38.9063953  22.8048753  46.7637339  39.4195835  23.4378745  47.2659049
  39.5565177  22.2049949  46.3980699  30.1753963  18.9479487  39.9768848
  29.3391275  19.2854174  40.2978123  30.0358733  18.8128467  39.0395985
  32.1507044  13.7916275  44.6848032  31.4971456  13.4765292  44.0604647
  32.1087518  13.1692016  45.4107855  33.2618249  24.0735570  36.6001324
  32.3545310  23.8424824  36.7992473  33.7589281  23.2773190  36.7875306
  36.1686328  32.7833077  39.5198010  35.4948026  33.0864774  40.1282968
  36.5552150  33.5862158  39.1703467  35.3844784  20.2798209  49.0095680
  34.4667346  20.5013156  48.8517368  35.8004928  20.3544519  48.1507387
  36.1679832  21.6789624  44.1398360  36.9151651  22.1911022  43.8305482
  36.4371421  21.3573677  45.0002753  34.4406482  24.1748165  41.1225314
  33.5317701  23.8907198  41.2197784  34.4701566  24.5947244  40.2628621
  39.6725750  27.7854755  44.8916482  39.2188077  26.9445665  44.9481672
  39.0419716  28.4216153  45.2291262  38.6158669  18.7146741  46.1217149
  37.8781426  18.2024127  46.4527392  38.8685443  18.2747122  45.3100426
  38.1158689  29.6231251  45.8266300  38.4081663  30.1836308  45.1078665
  38.6257309  29.9159812  46.5819459  38.7170296  11.4922993  46.7158918
  39.0229173  10.6320356  46.4284834  39.4422901  12.0840613  46.5157912
  25.0094652  21.8953679  45.1040516  24.8119052  21.3023040  44.3791583
  24.4541316  21.5905889  45.8216455  32.9891376  21.7876786  47.2235110
  33.0439986  20.8350622  47.1477586  32.1782578  21.9436225  47.7076408
  34.1382570  25.7156909  38.4613393  33.7002000  24.9992768  38.0019030
  34.8793011  25.9433024  37.8998484  30.9283736  20.4053845  44.9825488
  30.1151602  20.7048016  45.3890681  31.4242730  20.0109534  45.6999971
  33.0792314  30.4011602  46.9159753  33.0368493  30.6272449  45.9868285
  33.9955013  30.1674977  47.0645554  36.5257948  20.8695670  53.8140382
  36.8807335  21.0967143  54.6734848  37.1730079  21.2014047  53.1917638
  42.2555685  23.9914106  44.5189711  42.1173583  24.1815702  43.5910901
  41.8991904  24.7533489  44.9757762  30.4197811  17.9772201  50.5986723
  31.0597190  17.8360960  49.9009687  29.5875341  17.6906714  50.2225325
  42.2825064  26.0590633  49.5300983  42.7161571  25.9665922  50.3784037
  42.9956645  26.0348133  48.8920999  31.1958115  27.2774631  46.7121716
  31.9898713  26.7824952  46.5104291  30.4849807  26.7492495  46.3489421
  36.0152959  29.6592727  51.0634083  36.0689981  30.2283663  51.8311799
  35.1467741  29.8294612  50.6988121  27.5040878  21.4217713  42.7881468
  26.5738466  21.3602169  43.0051431  27.5998350  20.8993666  41.9918110
  27.4226427  17.9472526  45.3759710  27.6833245  18.8617859  45.2668871
  28.2443600  17.4796969  45.5256323  28.8951353  19.3610283  52.5458535
  29.5674406  19.1527645  51.8971184  28.0681139  19.1632369  52.1063767
  43.1440614  26.1014334  52.0633868  43.3376504  27.0060144  52.3093143
  43.0441232  25.6421753  52.8972453  34.7976925  15.9872224  54.5624196
  34.1504840  16.6862174  54.4688672  35.5677940  16.4208368  54.9300444
  38.2055723  26.2521076  57.6374749  38.0541229  26.0231628  56.7204833
  38.1960402  27.2091678  57.6506094  34.9741059  23.8252989  52.6221015
  35.9033119  23.9764149  52.4489983  34.5532089  23.9137010  51.7669662
  33.7729391  27.8503653  50.3919553  33.6340476  27.4822438  51.2645491
  32.9843987  28.3651293  50.2203511  34.3677543  32.9512750  41.7345089
  34.5429298  32.4800793  42.5490712  33.6810331  33.5778516  41.9626350
  35.3234606  27.2285256  47.7808391  34.9884438  27.1886026  48.6766041
  34.8238552  26.5629972  47.3078801  29.2978850  22.6352886  53.3060972
  29.1598648  21.9033125  53.9072511  30.2083773  22.5461786  53.0245160
  38.2593798  24.5741290  38.0545450  37.6422968  23.8488119  37.9578503
  37.7910286  25.3350651  37.7112525  31.9261151  22.3472845  52.7944651
  32.6360769  21.7066038  52.7531270  31.8830459  22.5985740  53.7170832
  39.9147929  29.2840199  55.7151231  39.8560475  28.5999419  55.0481814
  40.3167448  30.0259189  55.2631857  30.6390084  19.3338063  54.6140291
  30.1027442  18.8828802  55.2661887  30.0506793  19.4683972  53.8710755
  28.9338628  36.1002113  48.5084950  29.1735226  36.7320637  49.1863968
  28.0907824  35.7490153  48.7950309  30.0492343  18.7926715  37.1766755
  29.1721810  18.6715516  36.8129001  30.5250097  18.0012793  36.9245643
  39.9165336  27.2479783  53.9465210  39.0292115  26.9105705  54.0691609
  40.4863888  26.5162814  54.1833976  21.5694484  23.5803874  47.2708262
  22.2565523  23.2665605  46.6829277  21.4142612  24.4845239  46.9975513
  26.3729206  18.4694071  51.6993285  26.2887394  17.8619741  50.9643695
  25.5511912  18.9603089  51.7002782  33.4466490  31.9081235  50.9126454
  33.3736661  32.7136207  51.4245758  33.0043883  32.1073201  50.0874475
  33.2356269  31.1453005  44.4229275  32.4523791  31.6874685  44.5167500
  33.9349015  31.6626985  44.8223516  36.5452920  16.9547635  47.0663481
  37.0421619  16.2017597  46.7464551  35.7739901  16.9911951  46.5006690
  44.3982677  22.6588000  48.7081772  44.3872553  23.5412716  48.3375705
  43.5300056  22.3059551  48.5136309  35.9065173  31.8068069  53.0684612
  36.6193146  32.4415534  52.9960514  35.4155202  31.9031935  52.2524614
  37.6282700  25.7119322  44.6401904  36.6938979  25.8320784  44.4706608
  37.8059369  24.8091789  44.3761914  33.1287888  19.0965018  46.7935165
  32.7585676  18.5436058  47.4816071  33.6246981  18.4923151  46.2410165
  41.0155252  21.5536641  45.1751938  41.4815704  22.3864633  45.1012241
  41.4662752  21.0881623  45.8797197  30.9577087  29.5562513  53.8890183
  31.6586546  30.1898996  54.0419577  30.4872202  29.8977244  53.1285822
  39.0831483  27.8980462  42.1738090  39.3591327  27.7837057  43.0831964
  38.2135981  27.4997947  42.1350263  38.9871914  13.9217228  49.2142839
  38.0734994  14.1521455  49.3825046  39.4165016  14.0055672  50.0656872
  38.7578373  22.1107120  51.7142733  38.1049823  22.3583027  51.0595186
  39.1358753  21.2971258  51.3805211  35.7185547  32.1466813  45.8170904
  35.9007941  31.3288469  46.2798656  36.5418533  32.3634505  45.3795794
  36.0527712  31.0734998  43.0785952  36.5815479  30.5627453  42.4656114
  36.3155932  30.7577529  43.9431485  34.8065946  22.8526931  58.2008770
  34.1306583  22.7521060  58.8711146  35.6293580  22.6966145  58.6644768
  26.5544805  29.0898868  50.8221286  27.1398242  28.3442556  50.9549190
  26.3569643  29.4002824  51.7057950  29.4083460  32.1250115  45.8383728
  28.7393835  32.6096243  45.3547768  29.2696330  32.3719335  46.7527107
  21.1462460  21.6604468  49.5425729  21.1846559  21.1268059  50.3362847
  20.6402753  21.1339673  48.9236706  33.5488729  34.1593859  52.4366386
  34.1007037  34.3225480  53.2015472  33.8894922  34.7498296  51.7646411
  28.5253222  16.5069008  53.0388271  28.5894548  17.3683839  52.6265669
  28.4620342  15.8943010  52.3060630  28.0005495  18.5792141  56.6861305
  28.6277533  18.1969218  57.2998830  27.1433413  18.3606343  57.0516998
  38.3999603  28.9855116  58.2915041  38.9439507  29.5985074  57.7969996
  37.8186448  29.5434694  58.8082054  24.7771037  20.3868570  42.6179660
  25.0724478  19.4779248  42.5646714  23.8759073  20.3656309  42.2960663
  36.6857116  32.1075834  49.4230069  36.5608256  31.3065574  48.9141014
  37.3436207  32.6022027  48.9344039  28.3065284  18.4624567  48.6007209
  27.5851870  19.0760534  48.4614682  29.0958540  18.9982331  48.5223855
  38.7492024  29.9084854  51.0509619  37.8022360  29.7890205  50.9787945
  39.0974798  29.0207352  51.1335880  31.1091598  15.7978993  54.8747861
  31.6326000  16.0441290  55.6374170  30.8903931  16.6299028  54.4550998
  26.5058879  18.0682668  42.7418985  26.1771585  17.1880047  42.5594091
  26.8598250  18.0130336  43.6295375  35.7538458  29.7037570  47.2513971
  35.6063420  28.7754278  47.4321541  36.5791951  29.7257661  46.7671046
  29.6200702  18.3555637  43.1094463  29.9596775  18.8841559  42.3873071
  30.0672822  18.6936044  43.8853030  39.3572580  30.5266129  48.3378844
  40.2819127  30.3208990  48.2003295  39.1887883  30.2782530  49.2468185
  32.3144143  16.7392688  52.5597531  31.9740963  15.9400501  52.9618211
  31.6083149  17.0394399  51.9874364  32.9660615  13.8242001  51.0124854
  33.7886684  13.3502479  50.8903745  33.2098678  14.6032484  51.5123540
  31.6068849  16.8530259  41.3087756  32.3277212  17.2311512  40.8051473
  30.9834153  17.5719136  41.4122734  35.7499972  17.5575408  42.2446088
  35.9663586  18.4400046  41.9434916  35.2694039  17.1661621  41.5151730
  30.4899193  20.5161121  48.8216833  30.3443774  20.8301424  49.7141114
  30.0124397  21.1346022  48.2687731  32.3495576  17.5063669  48.8697722
  32.3357145  16.6104763  48.5330020  33.0668004  17.5134333  49.5036008
  34.2021707  17.9401009  50.9150850  33.9439485  18.8618080  50.9135180
  33.6706747  17.5431444  51.6051314  39.1467896  31.0451797  43.6940935
  39.3204773  30.4798219  42.9414788  39.6396787  31.8452691  43.5120425
  24.9644856  23.0566466  51.7604494  24.4198324  23.8326274  51.8924768
  25.8424205  23.4037270  51.6023615  31.7532472  16.3878050  44.1385292
  31.8748383  15.4594696  44.3376180  31.4634515  16.4016735  43.2263608
  34.6223663  14.0732960  47.2752012  34.6445359  14.1372293  46.3203992
  35.0391722  13.2337469  47.4692518  45.0007287  23.8088220  45.3131235
  45.4438433  23.0595545  44.9150358  44.1233797  23.7998356  44.9304967
  40.1343068  30.3618561  40.7937833  40.8293973  30.9825254  41.0125148
  40.4766218  29.5113912  41.0690211  25.7510877  22.1836362  54.6534651
  25.0092613  22.3318997  55.2399281  25.4303622  22.4444628  53.7901400
  42.0334491  27.8118267  42.3225164  42.5585815  28.1505539  41.5974484
  41.9456844  26.8765282  42.1388299  33.6954540  31.7252340  54.4515041
  34.0041667  31.4801487  55.3237740  34.4930022  31.9298979  53.9633911
  33.7175152  33.8790250  46.6820417  33.2780142  33.3866628  47.3753274
  34.4683269  33.3363217  46.4412493  26.1967491  30.0701791  46.6845045
  27.0225511  29.7705563  46.3043689  25.8461543  29.3009413  47.1334834
  31.1649024  29.4228259  48.7542719  30.5429034  28.7598964  48.4544947
  31.8353891  29.4489391  48.0716367  24.3976096  27.9888117  47.6433979
  23.5608004  27.5610291  47.4617980  24.3699742  28.1820560  48.5804770
  31.2373552  17.9010047  58.3475225  31.2861707  18.7772170  57.9652995
  31.7796066  17.3587440  57.7746868  41.7228397  28.4451170  57.6276362
  40.9323941  28.4275309  57.0880862  41.4861752  28.9839464  58.3825399
  41.8426273  25.2943637  54.9409091  41.8924277  25.1293644  55.8824613
  41.7340196  24.4270896  54.5506971  30.7262531  27.9732182  42.2301180
  30.8750652  28.6567647  41.5767852  31.5328975  27.9537272  42.7450635
  39.1330035  21.2774565  56.2568397  40.0339898  21.1381029  55.9652395
  39.2078009  21.4429019  57.1966575  33.4672840  18.6541419  55.1021584
  32.5976150  18.9474985  54.8304172  33.7032321  19.2381864  55.8228847
  43.3444469  27.7140578  55.1851112  43.0529278  28.0770559  56.0214573
  42.7316601  27.0007586  55.0064444  44.5440152  25.2793458  47.7053682
  45.3787043  25.7183262  47.8691243  44.6799280  24.8032111  46.8861928
  41.5931658  22.8373193  53.6531170  42.0685779  23.0300839  52.8450022
  40.6697223  22.8932378  53.4074554  28.4815164  23.9997360  43.2362249
  28.2361206  23.0959690  43.4342459  28.6511079  24.0014510  42.2941727
  36.1711874  14.8721036  52.6187004  36.6893818  15.6082063  52.2933493
  35.8167007  15.1785030  53.4533763  27.7510812  19.7325717  40.7348410
  27.0580057  19.8070072  40.0788446  27.5062564  18.9686061  41.2569927
  36.4224468  11.2921319  48.1387901  36.7026222  10.6244508  48.7648327
  37.2075075  11.4850414  47.6262565  34.2257937  30.4680313  39.7012927
  33.6531904  31.0870500  39.2483399  34.7990730  31.0179674  40.2352849
  40.2933327  19.7138953  51.8859476  41.2450749  19.8137050  51.9071700
  40.1236777  18.9217221  52.3957560  38.3147706  16.7994536  52.0718877
  37.7197638  17.0799549  51.3765365  38.0297403  17.2888437  52.8435618
  37.4455197  30.7517463  40.8321509  38.3785870  30.6863024  41.0354385
  37.3578409  31.5873730  40.3736042  40.0743213  30.0683333  37.7925457
  39.9956845  29.7343197  38.6861215  40.8952880  30.5605101  37.7916929
  42.7721404  22.9345072  51.0001775  42.7397724  21.9961073  51.1861459
  43.3822028  23.0129109  50.2667600  34.6104735  21.8041125  37.0428980
  35.5563840  21.6747334  37.1117398  34.2318980  21.0655787  37.5198408
  42.9215893  19.7256116  51.0460059  42.4054941  18.9414573  50.8589988
  43.8055841  19.3974832  51.2106578  40.5826620  13.4697131  47.0055871
  40.3851441  13.1612220  47.8899203  41.1926325  14.1958770  47.1353801
  48.5897954  23.9961079  50.1407812  49.3201343  23.7346367  50.7015516
  47.9804900  23.2589801  50.1809880  46.6713251  22.1368942  50.7382263
  45.9446415  22.0024907  50.1298755  46.2560538  22.4445770  51.5438982
  34.4943428  25.8558872  58.5029636  35.4146437  26.0337471  58.6969683
  34.4593011  24.9114917  58.3509336  32.7947652  19.7291102  36.9783865
  31.8879108  19.4324215  37.0546578  33.0723633  19.4320920  36.1118151
  23.7125593  21.0497465  47.4282911  23.3928377  20.1962773  47.1357285
  23.1659021  21.2646043  48.1840878  27.4905500  23.7659906  51.1452418
  27.7091510  24.6977014  51.1640451  27.9031274  23.4067881  51.9307221
  34.4109718  14.2727992  43.1328106  33.6010446  13.9275076  43.5083352
  35.0994135  13.9635535  43.7215718  36.3400266  13.3506038  44.7552403
  36.8931305  13.7701492  45.4142426  36.5770353  12.4241786  44.7975359
  32.3633366  19.3393112  60.5355167  32.2630093  20.2887469  60.4667258
  32.1454908  19.0111351  59.6631237  31.5646437  16.5878037  37.1195844
  32.4265601  16.9132935  37.3791661  31.7496781  15.8009533  36.6068910
  23.5813853  24.6700377  49.3976033  22.8877324  24.2554329  48.8845987
  24.3286844  24.7120913  48.8009452  39.7179073  15.4606563  44.2631067
  39.1377743  16.1191368  43.8809119  39.4515006  14.6383908  43.8518484
  38.1682640  14.8611621  46.4652387  38.6682418  14.9728156  45.6566706
  38.8118248  14.5572674  47.1053196  32.2264636  22.7690251  59.3520228
  31.7431717  23.5690611  59.5584117  32.3125575  22.7798196  58.3987672
  25.4950595  24.6018630  47.2742048  25.4721283  24.7006318  46.3223931
  25.8051232  25.4483781  47.5959214  28.1537973  26.6594786  51.3888662
  29.1081227  26.6278728  51.3218594  27.9550497  26.1985409  52.2038888
  28.7437355  25.2295902  53.9559460  29.5630244  25.7239980  53.9794297
  29.0174163  24.3127870  53.9277027  38.5003951  17.6206654  43.3187415
  37.6129807  17.9056304  43.1007610  38.9157941  17.4600417  42.4714692
  41.8518488  17.6453175  47.0341754  42.6278878  18.1349627  47.3066371
  41.1266622  18.0711229  47.4913624  44.2891046  18.3580794  48.0915695
  44.8835537  18.1176530  47.3809003  44.3617630  17.6387925  48.7189231
  26.5088202  32.2014405  48.4058860  26.3742670  31.4414806  47.8396858
  26.0920264  32.9255305  47.9387649  37.6447165  27.3851329  37.4135435
  38.3483015  27.5901331  38.0293091  36.9209814  27.9528090  37.6784519
  38.4744975  23.1361190  43.5337705  38.4180177  23.5929741  42.6945338
  39.0273318  22.3751874  43.3560548  42.2849781  18.9250922  44.3587825
  42.0286715  18.5247557  45.1896033  41.6602649  19.6394716  44.2337964
  46.5962119  21.6646995  46.8659116  46.0361677  21.7340184  47.6390678
  45.9905622  21.4887980  46.1458613  29.6657328  33.0983722  48.6177303
  29.5489712  34.0429154  48.5155993  28.8449774  32.7957284  49.0063102
  39.5533862  27.8233858  39.4633895  40.3879466  27.3915056  39.2811370
  39.3918205  27.6515871  40.3910790  39.2079755  24.3265971  40.8290235
  39.1528558  24.1610242  39.8878679  38.5825810  25.0342004  40.9852424
  23.9972270  19.5634035  54.6551657  24.6431133  19.0532989  55.1438882
  23.7889421  20.3002717  55.2295082  36.5225662  26.6314883  60.1543797
  37.3916821  26.8055535  59.7930432  36.0432413  27.4509300  60.0319527
  32.5175880  13.8274080  40.4075553  32.5054550  14.7715920  40.5643824
  33.4099302  13.6444225  40.1135014  30.6911842  33.7511984  51.8333231
  31.5939089  33.7835594  52.1499726  30.4649212  32.8212435  51.8479567
  32.4465444  32.5042970  48.4943310  31.4961075  32.5044832  48.3807682
  32.7497930  31.7575705  47.9779344  36.3327999  10.4216857  44.6621490
  35.5660395   9.8675343  44.8078172  36.7438704  10.4938725  45.5235641
  28.3369761  16.7101652  58.7526671  29.2001222  16.3538457  58.9629996
  27.7635171  16.3715547  59.4402075  48.1818137  38.3403509  49.5589072
  48.8196547  38.2210256  48.8552412  48.0638980  39.2884353  49.6177024
  44.9907844  38.2930937  49.4950597  44.6526355  38.1772002  48.6071132
  45.8597612  37.8922102  49.4751603  40.8494659  40.1466413  45.4847488
  40.2859525  40.0556350  44.7163775  40.7347054  39.3266318  45.9649980
  45.4727627  39.4465789  55.4536802  45.4616268  39.0518587  54.5817306
  45.6348266  38.7131861  56.0470574  38.3959091  41.6417605  48.3231708
  39.1880383  41.3008430  47.9078007  38.6355742  41.7512580  49.2433861
  46.4294218  43.8137381  40.7961953  45.7782198  44.3991461  40.4095966
  47.2238581  44.3443576  40.8556990  40.3549845  40.9026518  41.1949087
  41.1280721  40.3555505  41.0561963  40.7075244  41.7670768  41.4063548
  42.1934888  42.2302900  54.4015986  41.9024754  43.1348531  54.2862653
  42.8291872  42.2719428  55.1160056  43.1191095  39.6079749  50.9917346
  43.7154667  39.3835771  50.2774309  43.1766066  38.8664494  51.5942794
  42.6916123  37.0619184  38.8267537  42.9441644  36.5400706  38.0651000
  41.7540682  36.8985330  38.9294220  47.7359406  36.0654963  46.6342280
  48.5222495  35.6474386  46.2832697  47.9998110  36.9701055  46.8023928
  47.9069483  41.5027813  41.3330937  47.2715316  41.5762440  42.0451841
  47.5766890  42.0921412  40.6550016  53.1367833  36.0030196  47.5375259
  53.8693005  35.4329413  47.7713088  52.3807189  35.6151796  47.9781764
  42.4112412  38.9647290  41.0291912  42.2948670  38.2892194  41.6972996
  42.5214672  38.4779664  40.2124065  44.7543953  38.4257437  44.7338601
  44.3902160  37.8988058  45.4451522  45.6111069  38.0355906  44.5605086
  50.6593253  29.7151770  51.9969867  50.3276578  30.5847181  51.7731082
  50.0638867  29.3988054  52.6763898  44.3949440  33.4547337  39.7299950
  44.5623842  34.3227573  40.0970421  44.2046609  33.6174619  38.8061239
  47.1524773  41.9164316  51.3965780  46.8525496  42.8189355  51.2881587
  46.8075832  41.6496499  52.2486933  40.6037254  38.3678113  47.4302484
  39.6787751  38.2354327  47.6380176  40.8521668  39.1472332  47.9272427
  50.5521917  34.4346856  49.0763217  49.6438794  34.3662265  48.7821978
  50.5009513  34.9118801  49.9045043  44.3738661  35.9104995  40.7146616
  44.2538286  36.3562045  41.5532097  43.6791249  36.2590312  40.1560154
  37.9646065  38.0111386  48.2646273  38.0938447  38.2645865  49.1785685
  37.2843517  38.6039094  47.9450928  42.1345553  48.6808636  44.3636748
  42.0569582  49.6316461  44.4425228  41.5307196  48.3354509  45.0211674
  44.6262783  35.8536502  57.0198114  43.8496117  36.4130422  57.0100979
  45.2653346  36.3393285  57.5412985  52.4183563  32.6363295  50.8541091
  51.7757943  32.9295828  50.2080886  51.9138492  32.5216215  51.6594288
  50.0723727  36.3826468  41.5426950  50.9841583  36.6153855  41.3674648
  49.5633374  36.9663512  40.9802029  42.8809155  38.6621955  56.5816081
  43.6223839  39.2006999  56.3050905  42.1746140  39.2888244  56.7387633
  48.3564494  40.8051096  55.1788243  48.7647851  40.3633506  54.4342875
  47.6341756  40.2303723  55.4322436  44.7095565  35.7423702  52.5521800
  45.5556760  36.1663116  52.6956449  44.6494202  35.0857327  53.2460363
  48.6793309  41.3652286  48.9340532  48.0502172  41.5298000  48.2316600
  48.2918971  41.7793896  49.7051496  52.5582541  42.3006724  46.2884896
  51.8733579  42.6805625  45.7381929  52.6426390  42.9102051  47.0216843
  47.8595010  33.4028071  54.2102974  47.6155942  34.1570131  53.6737249
  48.1354940  33.7813418  55.0450221  49.8133473  39.9466683  52.8880239
  50.0250368  40.5898443  52.2114620  49.7663221  39.1129000  52.4202169
  47.4159702  32.5584504  49.7916811  46.5544181  32.8565757  50.0833549
  47.4422136  32.7754903  48.8597844  44.2321271  41.1026694  46.1990617
  44.6959617  41.3814397  45.4095239  43.9678069  40.2010139  46.0163708
  41.1245352  40.6498176  49.1370380  41.6946709  41.0785444  48.4987865
  41.7153464  40.3680761  49.8354566  43.1690157  37.2249847  43.0080182
  43.8714200  37.6770890  43.4754108  42.8370786  36.5833666  43.6360075
  41.6170519  35.8161603  57.3831391  40.9869179  36.4977884  57.6166788
  41.5106606  35.7044685  56.4384530  36.9115491  35.4833399  48.3097316
  36.1214545  35.7390928  47.8337426  37.4026738  36.2981737  48.4149356
  50.9279301  42.8238639  51.0602596  51.7496744  42.4218826  50.7785278
  50.9241703  42.7206873  52.0118712  38.8630236  35.8477979  45.2680792
  38.0661400  35.9596673  45.7864288  38.6355829  36.1864631  44.4021683
  44.6935904  42.3722682  53.2163307  44.7580337  42.8343089  54.0521479
  43.9846828  41.7420047  53.3445617  35.1953194  35.7363890  50.7412306
  35.4461232  36.6210900  51.0069882  35.7312742  35.5568491  49.9687398
  59.0185294  39.1677387  47.4087568  58.2649002  38.5984785  47.2531572
  59.1532835  39.1340051  48.3558203  44.4083922  44.0390789  43.0842287
  44.2729596  44.8842325  43.5127135  44.9493734  44.2410067  42.3208221
  40.8951261  30.1182369  59.7456643  40.5018207  29.5648568  60.4204287
  41.7117402  30.4292948  60.1363160  37.8613319  41.5566227  43.6570212
  38.3737840  42.3509478  43.8075777  38.5136032  40.8592518  43.5903814
  39.6708204  44.6731984  45.7392966  39.8474832  45.5949948  45.5513949
  40.4665037  44.3590403  46.1687345  43.8119222  31.5340248  57.3376899
  44.5528936  32.1347401  57.2581362  44.0437145  30.7917886  56.7794942
  38.9560560  36.7196616  55.6155129  38.8414075  35.8181873  55.9162228
  38.1005078  36.9660312  55.2639945  46.0352398  44.6614356  57.2142629
  45.5916252  43.8750734  56.8963534  46.6969612  44.8493506  56.5486520
  40.7939519  46.1910157  51.7403308  41.3446944  46.0627221  50.9680302
  39.9550995  46.4905046  51.3898201  48.1333636  44.9417156  55.2424031
  48.1152111  45.7626037  54.7504300  49.0553556  44.8171231  55.4674172
  44.5906690  42.4561285  56.0847539  45.1235027  41.6949573  55.8546847
  44.0620771  42.1634937  56.8271694  47.7576385  27.5621351  51.6141181
  47.4140655  28.4522993  51.5380291  48.1255348  27.3723009  50.7510766
  35.8262236  39.8854882  44.4329783  36.6637458  40.2951890  44.2163491
  36.0040504  38.9454324  44.4029977  47.7226668  37.5529962  40.1213616
  47.2073291  38.3234567  40.3602003  47.4503976  36.8795098  40.7446677
  45.3073779  32.3979663  45.1798854  44.4515375  32.0086513  45.0004493
  45.7200731  32.4771624  44.3198640  46.8372926  29.9326006  49.5790414
  46.3337721  29.8956141  48.7658219  47.1303532  30.8418749  49.6387071
  43.0815812  30.0164736  48.5856596  43.9468808  29.8207545  48.2262485
  43.1493320  29.7875088  49.5125953  52.6960942  40.3062317  42.0566789
  51.9190385  39.9673476  41.6121951  53.3752423  40.3114940  41.3821754
  47.5112971  35.4257054  41.9473397  47.2063107  35.7403204  42.7983540
  48.4643413  35.5038474  41.9900730  45.9559403  41.5847278  43.5966351
  45.4280765  40.8500037  43.2839588  45.4546906  42.3621954  43.3506319
  50.9352249  39.7796298  48.7133397  50.2775923  40.4695560  48.8013526
  51.7392648  40.1692730  49.0567384  40.6878131  32.2466944  45.9572963
  41.2621882  32.0242125  45.2246156  41.2749113  32.3155638  46.7101564
  49.7457708  38.1340671  46.7637339  50.2589590  38.7670663  47.2659049
  50.3958932  37.5341866  46.3980699  41.0147718  34.2771405  39.9768848
  40.1785030  34.6146092  40.2978123  40.8752487  34.1420385  39.0395985
  42.9900798  29.1208193  44.6848032  42.3365211  28.8057210  44.0604647
  42.9481272  28.4983933  45.4107855  44.1012003  39.4027488  36.6001324
  43.1939065  39.1716741  36.7992473  44.5983035  38.6065107  36.7875306
  47.0080082  48.1124995  39.5198010  46.3341781  48.4156692  40.1282968
  47.3945904  48.9154075  39.1703467  46.2238539  35.6090126  49.0095680
  45.3061100  35.8305073  48.8517368  46.6398682  35.6836437  48.1507387
  47.0073586  37.0081542  44.1398360  47.7545405  37.5202939  43.8305482
  47.2765176  36.6865595  45.0002753  45.2800237  39.5040083  41.1225314
  44.3711456  39.2199116  41.2197784  45.3095320  39.9239161  40.2628621
  50.5119504  43.1146672  44.8916482  50.0581831  42.2737582  44.9481672
  49.8813471  43.7508071  45.2291262  49.4552424  34.0438658  46.1217149
  48.7175180  33.5316045  46.4527392  49.7079197  33.6039040  45.3100426
  48.9552443  44.9523169  45.8266300  49.2475418  45.5128226  45.1078665
  49.4651064  45.2451730  46.5819459  49.5564051  26.8214910  46.7158918
  49.8622928  25.9612274  46.4284834  50.2816656  27.4132531  46.5157912
  35.8488407  37.2245597  45.1040516  35.6512807  36.6314958  44.3791583
  35.2935071  36.9197807  45.8216455  43.8285131  37.1168703  47.2235110
  43.8833740  36.1642540  47.1477586  43.0176333  37.2728143  47.7076408
  44.9776324  41.0448826  38.4613393  44.5395754  40.3284685  38.0019030
  45.7186765  41.2724941  37.8998484  41.7677491  35.7345763  44.9825488
  40.9545356  36.0339934  45.3890681  42.2636485  35.3401452  45.6999971
  43.9186068  45.7303520  46.9159753  43.8762247  45.9564366  45.9868285
  44.8348767  45.4966895  47.0645554  47.3651702  36.1987588  53.8140382
  47.7201090  36.4259061  54.6734848  48.0123833  36.5305964  53.1917638
  53.0949439  39.3206024  44.5189711  52.9567338  39.5107620  43.5910901
  52.7385658  40.0825406  44.9757762  41.2591565  33.3064119  50.5986723
  41.8990945  33.1652878  49.9009687  40.4269096  33.0198632  50.2225325
  53.1218819  41.3882551  49.5300983  53.5555325  41.2957840  50.3784037
  53.8350399  41.3640051  48.8920999  42.0351869  42.6066549  46.7121716
  42.8292468  42.1116869  46.5104291  41.3243562  42.0784412  46.3489421
  46.8546714  44.9884645  51.0634083  46.9083736  45.5575581  51.8311799
  45.9861495  45.1586530  50.6988121  38.3434633  36.7509631  42.7881468
  37.4132221  36.6894086  43.0051431  38.4392105  36.2285584  41.9918110
  38.2620182  33.2764444  45.3759710  38.5226999  34.1909777  45.2668871
  39.0837354  32.8088886  45.5256323  39.7345107  34.6902201  52.5458535
  40.4068160  34.4819563  51.8971184  38.9074894  34.4924287  52.1063767
  53.9834368  41.4306251  52.0633868  54.1770258  42.3352062  52.3093143
  53.8834987  40.9713670  52.8972453  45.6370679  31.3164142  54.5624196
  44.9898594  32.0154091  54.4688672  46.4071694  31.7500286  54.9300444
  49.0449477  41.5812994  57.6374749  48.8934983  41.3523546  56.7204833
  49.0354156  42.5383595  57.6506094  45.8134813  39.1544907  52.6221015
  46.7426873  39.3056066  52.4489983  45.3925843  39.2428927  51.7669662
  44.6123145  43.1795571  50.3919553  44.4734231  42.8114356  51.2645491
  43.8237741  43.6943211  50.2203511  45.2071297  48.2804668  41.7345089
  45.3823053  47.8092711  42.5490712  44.5204085  48.9070434  41.9626350
  46.1628360  42.5577174  47.7808391  45.8278193  42.5177944  48.6766041
  45.6632306  41.8921890  47.3078801  40.1372604  37.9644804  53.3060972
  39.9992402  37.2325043  53.9072511  41.0477528  37.8753704  53.0245160
  49.0987552  39.9033208  38.0545450  48.4816723  39.1780036  37.9578503
  48.6304040  40.6642568  37.7112525  42.7654905  37.6764763  52.7944651
  43.4754524  37.0357955  52.7531270  42.7224213  37.9277658  53.7170832
  50.7541684  44.6132116  55.7151231  50.6954230  43.9291337  55.0481814
  51.1561202  45.3551106  55.2631857  41.4783839  34.6629981  54.6140291
  40.9421196  34.2120719  55.2661887  40.8900547  34.7975890  53.8710755
  39.7732382  51.4294030  48.5084950  40.0128981  52.0612554  49.1863968
  38.9301579  51.0782070  48.7950309  40.8886098  34.1218632  37.1766755
  40.0115564  34.0007433  36.8129001  41.3643851  33.3304711  36.9245643
  50.7559091  42.5771700  53.9465210  49.8685870  42.2397622  54.0691609
  51.3257642  41.8454732  54.1833976  32.4088238  38.9095792  47.2708262
  33.0959278  38.5957522  46.6829277  32.2536367  39.8137157  46.9975513
  37.2122960  33.7985989  51.6993285  37.1281149  33.1911658  50.9643695
  36.3905667  34.2895007  51.7002782  44.2860244  47.2373153  50.9126454
  44.2130416  48.0428124  51.4245758  43.8437637  47.4365119  50.0874475
  44.0750024  46.4744923  44.4229275  43.2917546  47.0166603  44.5167500
  44.7742769  46.9918902  44.8223516  47.3846674  32.2839552  47.0663481
  47.8815374  31.5309515  46.7464551  46.6133656  32.3203869  46.5006690
  55.2376431  37.9879918  48.7081772  55.2266308  38.8704633  48.3375705
  54.3693811  37.6351469  48.5136309  46.7458928  47.1359987  53.0684612
  47.4586900  47.7707452  52.9960514  46.2548957  47.2323853  52.2524614
  48.4676455  41.0411239  44.6401904  47.5332734  41.1612702  44.4706608
  48.6453123  40.1383706  44.3761914  43.9681643  34.4256935  46.7935165
  43.5979430  33.8727976  47.4816071  44.4640735  33.8215069  46.2410165
  51.8549006  36.8828559  45.1751938  52.3209458  37.7156550  45.1012241
  52.3056507  36.4173540  45.8797197  41.7970841  44.8854430  53.8890183
  42.4980301  45.5190913  54.0419577  41.3265956  45.2269162  53.1285822
  49.9225237  43.2272380  42.1738090  50.1985081  43.1128975  43.0831964
  49.0529736  42.8289865  42.1350263  49.8265669  29.2509146  49.2142839
  48.9128749  29.4813373  49.3825046  50.2558770  29.3347590  50.0656872
  49.5972127  37.4399038  51.7142733  48.9443578  37.6874945  51.0595186
  49.9752507  36.6263176  51.3805211  46.5579301  47.4758731  45.8170904
  46.7401696  46.6580387  46.2798656  47.3812287  47.6926423  45.3795794
  46.8921467  46.4026916  43.0785952  47.4209233  45.8919371  42.4656114
  47.1549686  46.0869446  43.9431485  45.6459700  38.1818849  58.2008770
  44.9700337  38.0812978  58.8711146  46.4687334  38.0258063  58.6644768
  37.3938559  44.4190785  50.8221286  37.9791996  43.6734473  50.9549190
  37.1963398  44.7294742  51.7057950  40.2477215  47.4542033  45.8383728
  39.5787590  47.9388160  45.3547768  40.1090084  47.7011253  46.7527107
  31.9856214  36.9896386  49.5425729  32.0240314  36.4559976  50.3362847
  31.4796507  36.4631591  48.9236706  44.3882483  49.4885776  52.4366386
  44.9400791  49.6517398  53.2015472  44.7288677  50.0790214  51.7646411
  39.3646976  31.8360926  53.0388271  39.4288303  32.6975757  52.6265669
  39.3014097  31.2234928  52.3060630  38.8399249  33.9084059  56.6861305
  39.4671288  33.5261136  57.2998830  37.9827168  33.6898261  57.0516998
  49.2393358  44.3147034  58.2915041  49.7833262  44.9276992  57.7969996
  48.6580202  44.8726612  58.8082054  35.6164792  35.7160488  42.6179660
  35.9118233  34.8071166  42.5646714  34.7152828  35.6948227  42.2960663
  47.5250871  47.4367752  49.4230069  47.4002010  46.6357492  48.9141014
  48.1829962  47.9313945  48.9344039  39.1459039  33.7916484  48.6007209
  38.4245625  34.4052452  48.4614682  39.9352295  34.3274249  48.5223855
  49.5885779  45.2376772  51.0509619  48.6416114  45.1182123  50.9787945
  49.9368552  44.3499270  51.1335880  41.9485352  31.1270911  54.8747861
  42.4719754  31.3733207  55.6374170  41.7297686  31.9590946  54.4550998
  37.3452633  33.3974585  42.7418985  37.0165340  32.5171964  42.5594091
  37.6992004  33.3422254  43.6295375  46.5932212  45.0329488  47.2513971
  46.4457175  44.1046195  47.4321541  47.4185706  45.0549579  46.7671046
  40.4594457  33.6847555  43.1094463  40.7990529  34.2133476  42.3873071
  40.9066577  34.0227961  43.8853030  50.1966334  45.8558047  48.3378844
  51.1212882  45.6500908  48.2003295  50.0281637  45.6074448  49.2468185
  43.1537897  32.0684606  52.5597531  42.8134718  31.2692419  52.9618211
  42.4476904  32.3686317  51.9874364  43.8054369  29.1533918  51.0124854
  44.6280438  28.6794396  50.8903745  44.0492433  29.9324402  51.5123540
  42.4462604  32.1822177  41.3087756  43.1670966  32.5603430  40.8051473
  41.8227908  32.9011054  41.4122734  46.5893727  32.8867326  42.2446088
  46.8057341  33.7691964  41.9434916  46.1087794  32.4953539  41.5151730
  41.3292948  35.8453039  48.8216833  41.1837529  36.1593342  49.7141114
  40.8518152  36.4637939  48.2687731  43.1889331  32.8355587  48.8697722
  43.1750900  31.9396680  48.5330020  43.9061759  32.8426251  49.5036008
  45.0415462  33.2692927  50.9150850  44.7833239  34.1909998  50.9135180
  44.5100502  32.8723362  51.6051314  49.9861650  46.3743714  43.6940935
  50.1598528  45.8090137  42.9414788  50.4790542  47.1744609  43.5120425
  35.8038610  38.3858383  51.7604494  35.2592078  39.1618191  51.8924768
  36.6817960  38.7329188  51.6023615  42.5926227  31.7169967  44.1385292
  42.7142138  30.7886613  44.3376180  42.3028269  31.7308653  43.2263608
  45.4617417  29.4024878  47.2752012  45.4839114  29.4664211  46.3203992
  45.8785476  28.5629386  47.4692518  55.8401041  39.1380137  45.3131235
  56.2832187  38.3887462  44.9150358  54.9627552  39.1290274  44.9304967
  50.9736823  45.6910479  40.7937833  51.6687727  46.3117171  41.0125148
  51.3159973  44.8405830  41.0690211  36.5904632  37.5128280  54.6534651
  35.8486368  37.6610915  55.2399281  36.2697376  37.7736545  53.7901400
  52.8728246  43.1410184  42.3225164  53.3979570  43.4797457  41.5974484
  52.7850598  42.2057200  42.1388299  44.5348295  47.0544258  54.4515041
  44.8435421  46.8093405  55.3237740  45.3323777  47.2590896  53.9633911
  44.5568907  49.2082167  46.6820417  44.1173897  48.7158546  47.3753274
  45.3077024  48.6655135  46.4412493  37.0361246  45.3993708  46.6845045
  37.8619266  45.0997480  46.3043689  36.6855298  44.6301331  47.1334834
  42.0042779  44.7520177  48.7542719  41.3822788  44.0890882  48.4544947
  42.6747646  44.7781308  48.0716367  35.2369851  43.3180035  47.6433979
  34.4001759  42.8902209  47.4617980  35.2093496  43.5112478  48.5804770
  42.0767306  33.2301965  58.3475225  42.1255462  34.1064087  57.9652995
  42.6189820  32.6879358  57.7746868  52.5622152  43.7743088  57.6276362
  51.7717696  43.7567227  57.0880862  52.3255507  44.3131382  58.3825399
  52.6820027  40.6235554  54.9409091  52.7318032  40.4585562  55.8824613
  52.5733950  39.7562813  54.5506971  41.5656286  43.3024100  42.2301180
  41.7144406  43.9859564  41.5767852  42.3722729  43.2829190  42.7450635
  49.9723789  36.6066482  56.2568397  50.8733652  36.4672947  55.9652395
  50.0471764  36.7720937  57.1966575  44.3066595  33.9833337  55.1021584
  43.4369904  34.2766903  54.8304172  44.5426075  34.5673782  55.8228847
  54.1838224  43.0432496  55.1851112  53.8923032  43.4062476  56.0214573
  53.5710355  42.3299504  55.0064444  55.3833906  40.6085375  47.7053682
  56.2180798  41.0475180  47.8691243  55.5193035  40.1324029  46.8861928
  52.4325412  38.1665110  53.6531170  52.9079534  38.3592757  52.8450022
  51.5090977  38.2224296  53.4074554  39.3208919  39.3289278  43.2362249
  39.0754961  38.4251608  43.4342459  39.4904833  39.3306428  42.2941727
  47.0105629  30.2012954  52.6187004  47.5287572  30.9373981  52.2933493
  46.6560761  30.5076947  53.4533763  38.5904566  35.0617635  40.7348410
  37.8973811  35.1361990  40.0788446  38.3456318  34.2977979  41.2569927
  47.2618223  26.6213236  48.1387901  47.5419976  25.9536425  48.7648327
  48.0468830  26.8142332  47.6262565  45.0651691  45.7972230  39.7012927
  44.4925658  46.4162417  39.2483399  45.6384485  46.3471592  40.2352849
  51.1327081  35.0430870  51.8859476  52.0844504  35.1428968  51.9071700
  50.9630531  34.2509139  52.3957560  49.1541461  32.1286454  52.0718877
  48.5591393  32.4091466  51.3765365  48.8691157  32.6180355  52.8435618
  48.2848951  46.0809380  40.8321509  49.2179624  46.0154942  41.0354385
  48.1972164  46.9165647  40.3736042  50.9136968  45.3975251  37.7925457
  50.8350599  45.0635114  38.6861215  51.7346634  45.8897019  37.7916929
  53.6115159  38.2636990  51.0001775  53.5791479  37.3252991  51.1861459
  54.2215783  38.3421027  50.2667600  45.4498490  37.1333043  37.0428980
  46.3957594  37.0039251  37.1117398  45.0712735  36.3947705  37.5198408
  53.7609647  35.0548034  51.0460059  53.2448696  34.2706490  50.8589988
  54.6449596  34.7266750  51.2106578  51.4220374  28.7989049  47.0055871
  51.2245195  28.4904137  47.8899203  52.0320080  29.5250688  47.1353801
  59.4291709  39.3252997  50.1407812  60.1595097  39.0638285  50.7015516
  58.8198654  38.5881719  50.1809880  57.5107006  37.4660860  50.7382263
  56.7840169  37.3316824  50.1298755  57.0954293  37.7737688  51.5438982
  45.3337182  41.1850789  58.5029636  46.2540192  41.3629388  58.6969683
  45.2986765  40.2406835  58.3509336  43.6341407  35.0583019  36.9783865
  42.7272862  34.7616132  37.0546578  43.9117388  34.7612838  36.1118151
  34.5519347  36.3789383  47.4282911  34.2322132  35.5254691  47.1357285
  34.0052775  36.5937961  48.1840878  38.3299255  39.0951824  51.1452418
  38.5485265  40.0268932  51.1640451  38.7425029  38.7359798  51.9307221
  45.2503473  29.6019909  43.1328106  44.4404201  29.2566994  43.5083352
  45.9387890  29.2927453  43.7215718  47.1794021  28.6797956  44.7552403
  47.7325059  29.0993409  45.4142426  47.4164107  27.7533704  44.7975359
  43.2027120  34.6685030  60.5355167  43.1023847  35.6179387  60.4667258
  42.9848662  34.3403269  59.6631237  42.4040191  31.9169955  37.1195844
  43.2659355  32.2424853  37.3791661  42.5890536  31.1301451  36.6068910
  34.4207607  39.9992294  49.3976033  33.7271079  39.5846247  48.8845987
  35.1680598  40.0412831  48.8009452  50.5572828  30.7898481  44.2631067
  49.9771497  31.4483285  43.8809119  50.2908761  29.9675826  43.8518484
  49.0076394  30.1903539  46.4652387  49.5076173  30.3020073  45.6566706
  49.6512002  29.8864592  47.1053196  43.0658390  38.0982168  59.3520228
  42.5825472  38.8982529  59.5584117  43.1519329  38.1090113  58.3987672
  36.3344350  39.9310548  47.2742048  36.3115038  40.0298235  46.3223931
  36.6444986  40.7775699  47.5959214  38.9931728  41.9886703  51.3888662
  39.9474981  41.9570646  51.3218594  38.7944251  41.5277327  52.2038888
  39.5831110  40.5587819  53.9559460  40.4023999  41.0531898  53.9794297
  39.8567917  39.6419787  53.9277027  49.3397706  32.9498572  43.3187415
  48.4523561  33.2348222  43.1007610  49.7551695  32.7892335  42.4714692
  52.6912242  32.9745093  47.0341754  53.4672632  33.4641545  47.3066371
  51.9660376  33.4003147  47.4913624  55.1284801  33.6872712  48.0915695
  55.7229292  33.4468448  47.3809003  55.2011384  32.9679842  48.7189231
  37.3481956  47.5306323  48.4058860  37.2136424  46.7706724  47.8396858
  36.9314019  48.2547223  47.9387649  48.4840919  42.7143246  37.4135435
  49.1876770  42.9193249  38.0293091  47.7603568  43.2820008  37.6784519
  49.3138730  38.4653107  43.5337705  49.2573931  38.9221659  42.6945338
  49.8667072  37.7043792  43.3560548  53.1243536  34.2542839  44.3587825
  52.8680470  33.8539475  45.1896033  52.4996404  34.9686633  44.2337964
  57.4355874  36.9938913  46.8659116  56.8755431  37.0632102  47.6390678
  56.8299377  36.8179897  46.1458613  40.5051082  48.4275640  48.6177303
  40.3883466  49.3721072  48.5155993  39.6843529  48.1249201  49.0063102
  50.3927617  43.1525775  39.4633895  51.2273221  42.7206974  39.2811370
  50.2311960  42.9807789  40.3910790  50.0473509  39.6557889  40.8290235
  49.9922313  39.4902160  39.8878679  49.4219564  40.3633922  40.9852424
  34.8366024  34.8925953  54.6551657  35.4824888  34.3824907  55.1438882
  34.6283175  35.6294635  55.2295082  47.3619416  41.9606801  60.1543797
  48.2310576  42.1347453  59.7930432  46.8826168  42.7801217  60.0319527
  43.3569635  29.1565998  40.4075553  43.3448304  30.1007838  40.5643824
  44.2493056  28.9736143  40.1135014  41.5305596  49.0803902  51.8333231
  42.4332843  49.1127512  52.1499726  41.3042967  48.1504353  51.8479567
  43.2859198  47.8334888  48.4943310  42.3354829  47.8336750  48.3807682
  43.5891685  47.0867623  47.9779344  47.1721754  25.7508774  44.6621490
  46.4054150  25.1967261  44.8078172  47.5832459  25.8230643  45.5235641
  39.1763515  32.0393570  58.7526671  40.0394977  31.6830375  58.9629996
  38.6028926  31.7007465  59.4402075  59.0211892  53.6695427  49.5589072
  59.6590302  53.5502174  48.8552412  58.9032735  54.6176270  49.6177024
  55.8301598  53.6222855  49.4950597  55.4920110  53.5063919  48.6071132
  56.6991366  53.2214020  49.4751603  51.6888414  55.4758331  45.4847488
  51.1253279  55.3848268  44.7163775  51.5740809  54.6558235  45.9649980
  56.3121381  54.7757706  55.4536802  56.3010022  54.3810505  54.5817306
  56.4742021  54.0423779  56.0470574  49.2352846  56.9709523  48.3231708
  50.0274138  56.6300347  47.9078007  49.4749496  57.0804498  49.2433861
  57.2687973  59.1429299  40.7961953  56.6175952  59.7283379  40.4095966
  58.0632335  59.6735494  40.8556990  51.1943600  56.2318436  41.1949087
  51.9674476  55.6847423  41.0561963  51.5468999  57.0962685  41.4063548
  53.0328642  57.5594818  54.4015986  52.7418508  58.4640449  54.2862653
  53.6685627  57.6011346  55.1160056  53.9584849  54.9371667  50.9917346
  54.5548421  54.7127689  50.2774309  54.0159821  54.1956412  51.5942794
  53.5309878  52.3911102  38.8267537  53.7835398  51.8692623  38.0651000
  52.5934437  52.2277247  38.9294220  58.7463238  56.8319731  41.3330937
  58.1109071  56.9054357  42.0451841  58.4160644  57.4213330  40.6550016
  53.2506166  54.2939208  41.0291912  53.1342424  53.6184111  41.6972996
  53.3608426  53.8071582  40.2124065  55.5937707  53.7549355  44.7338601
  55.2295915  53.2279976  45.4451522  56.4504823  53.3647824  44.5605086
  61.4987008  45.0443688  51.9969867  61.1670333  45.9139099  51.7731082
  60.9032621  44.7279972  52.6763898  57.9918527  57.2456234  51.3965780
  57.6919251  58.1481272  51.2881587  57.6469587  56.9788417  52.2486933
  51.4431009  53.6970031  47.4302484  50.5181505  53.5646245  47.6380176
  51.6915422  54.4764250  47.9272427  61.3915671  49.7638774  49.0763217
  60.4832549  49.6954182  48.7821978  61.3403267  50.2410719  49.9045043
  48.8039820  53.3403304  48.2646273  48.9332201  53.5937783  49.1785685
  48.1237271  53.9331012  47.9450928  52.9739307  64.0100554  44.3636748
  52.8963337  64.9608379  44.4425228  52.3700951  63.6646427  45.0211674
  59.1958249  56.1343013  55.1788243  59.6041605  55.6925424  54.4342875
  58.4735510  55.5595641  55.4322436  55.5489319  51.0715620  52.5521800
  56.3950514  51.4955034  52.6956449  55.4887957  50.4149244  53.2460363
  59.5187064  56.6944204  48.9340532  58.8895926  56.8589918  48.2316600
  59.1312726  57.1085813  49.7051496  58.6988764  48.7319988  54.2102974
  58.4549696  49.4862049  53.6737249  58.9748695  49.1105336  55.0450221
  60.6527227  55.2758601  52.8880239  60.8644122  55.9190361  52.2114620
  60.6056975  54.4420917  52.4202169  58.2553456  47.8876421  49.7916811
  57.3937935  48.1857675  50.0833549  58.2815891  48.1046820  48.8597844
  55.0715025  56.4318612  46.1990617  55.5353371  56.7106315  45.4095239
  54.8071824  55.5302057  46.0163708  51.9639107  55.9790094  49.1370380
  52.5340464  56.4077362  48.4987865  52.5547218  55.6972678  49.8354566
  47.7509246  50.8125317  48.3097316  46.9608299  51.0682846  47.8337426
  48.2420493  51.6273655  48.4149356  61.7673055  58.1530556  51.0602596
  62.5890499  57.7510743  50.7785278  61.7635458  58.0498790  52.0118712
  49.7023991  51.1769896  45.2680792  48.9055154  51.2888591  45.7864288
  49.4749583  51.5156548  44.4021683  55.5329659  57.7014599  53.2163307
  55.5974091  58.1635007  54.0521479  54.8240582  57.0711964  53.3445617
  46.0346948  51.0655807  50.7412306  46.2854987  51.9502817  51.0069882
  46.5706497  50.8860409  49.9687398  69.8579048  54.4969305  47.4087568
  69.1042757  53.9276703  47.2531572  69.9926589  54.4631969  48.3558203
  55.2477676  59.3682707  43.0842287  55.1123351  60.2134243  43.5127135
  55.7887489  59.5701985  42.3208221  48.7007074  56.8858145  43.6570212
  49.2131594  57.6801395  43.8075777  49.3529786  56.1884435  43.5903814
  50.5101958  60.0023901  45.7392966  50.6868587  60.9241866  45.5513949
  51.3058792  59.6882320  46.1687345  54.6512977  46.8632166  57.3376899
  55.3922690  47.4639319  57.2581362  54.8830900  46.1209804  56.7794942
  49.7954315  52.0488533  55.6155129  49.6807830  51.1473790  55.9162228
  48.9398833  52.2952230  55.2639945  56.8746153  59.9906273  57.2142629
  56.4310007  59.2042652  56.8963534  57.5363366  60.1785424  56.5486520
  51.6333274  61.5202075  51.7403308  52.1840699  61.3919138  50.9680302
  50.7944750  61.8196964  51.3898201  58.9727391  60.2709073  55.2424031
  58.9545866  61.0917954  54.7504300  59.8947311  60.1463149  55.4674172
  55.4300445  57.7853203  56.0847539  55.9628782  57.0241491  55.8546847
  54.9014526  57.4926855  56.8271694  58.5970140  42.8913269  51.6141181
  58.2534409  43.7814911  51.5380291  58.9649102  42.7014926  50.7510766
  46.6655990  55.2146799  44.4329783  47.5031212  55.6243808  44.2163491
  46.8434258  54.2746241  44.4029977  56.1467533  47.7271581  45.1798854
  55.2909130  47.3378431  45.0004493  56.5594485  47.8063542  44.3198640
  57.6766680  45.2617924  49.5790414  57.1731476  45.2248059  48.7658219
  57.9697287  46.1710667  49.6387071  53.9209566  45.3456654  48.5856596
  54.7862563  45.1499462  48.2262485  53.9887075  45.1167006  49.5125953
  63.5354697  55.6354235  42.0566789  62.7584139  55.2965394  41.6121951
  64.2146178  55.6406858  41.3821754  56.7953157  56.9139195  43.5966351
  56.2674519  56.1791955  43.2839588  56.2940660  57.6913872  43.3506319
  61.7746003  55.1088216  48.7133397  61.1169678  55.7987477  48.8013526
  62.5786403  55.4984648  49.0567384  51.5271885  47.5758862  45.9572963
  52.1015637  47.3534043  45.2246156  52.1142868  47.6447556  46.7101564
  60.5851462  53.4632589  46.7637339  61.0983344  54.0962580  47.2659049
  61.2352686  52.8633784  46.3980699  51.8541472  49.6063323  39.9768848
  51.0178784  49.9438009  40.2978123  51.7146242  49.4712302  39.0395985
  53.8294553  44.4500111  44.6848032  53.1758965  44.1349128  44.0604647
  53.7875027  43.8275851  45.4107855  54.9405758  54.7319406  36.6001324
  54.0332819  54.5008659  36.7992473  55.4376790  53.9357025  36.7875306
  57.8473837  63.4416913  39.5198010  57.1735535  63.7448610  40.1282968
  58.2339659  64.2445993  39.1703467  57.0632293  50.9382044  49.0095680
  56.1454855  51.1596991  48.8517368  57.4792437  51.0128355  48.1507387
  59.7946198  60.2815087  45.8266300  60.0869172  60.8420144  45.1078665
  60.3044818  60.5743648  46.5819459  46.6882161  52.5537515  45.1040516
  46.4906561  51.9606875  44.3791583  46.1328825  52.2489725  45.8216455
  54.6678885  52.4460621  47.2235110  54.7227495  51.4934458  47.1477586
  53.8570087  52.6020060  47.7076408  55.8170079  56.3740744  38.4613393
  55.3789509  55.6576603  38.0019030  56.5580520  56.6016859  37.8998484
  52.6071245  51.0637681  44.9825488  51.7939111  51.3631851  45.3890681
  53.1030239  50.6693370  45.6999971  54.7579823  61.0595438  46.9159753
  54.7156002  61.2856284  45.9868285  55.6742522  60.8258812  47.0645554
  58.2045457  51.5279505  53.8140382  58.5594844  51.7550978  54.6734848
  58.8517588  51.8597882  53.1917638  63.9343194  54.6497941  44.5189711
  63.7961092  54.8399537  43.5910901  63.5779412  55.4117324  44.9757762
  52.0985320  48.6356036  50.5986723  52.7384699  48.4944795  49.9009687
  51.2662850  48.3490550  50.2225325  52.8745624  57.9358467  46.7121716
  53.6686222  57.4408787  46.5104291  52.1637316  57.4076330  46.3489421
  57.6940468  60.3176562  51.0634083  57.7477490  60.8867499  51.8311799
  56.8255250  60.4878447  50.6988121  49.1828387  52.0801549  42.7881468
  48.2525975  52.0186004  43.0051431  49.2785859  51.5577501  41.9918110
  49.1013936  48.6056361  45.3759710  49.3620754  49.5201695  45.2668871
  49.9231109  48.1380804  45.5256323  50.5738862  50.0194119  52.5458535
  51.2461915  49.8111481  51.8971184  49.7468648  49.8216205  52.1063767
  64.8228123  56.7598169  52.0633868  65.0164013  57.6643979  52.3093143
  64.7228741  56.3005588  52.8972453  56.4764434  46.6456059  54.5624196
  55.8292349  47.3446009  54.4688672  57.2465449  47.0792203  54.9300444
  56.6528568  54.4836824  52.6221015  57.5820628  54.6347984  52.4489983
  56.2319598  54.5720845  51.7669662  55.4516900  58.5087489  50.3919553
  55.3127985  58.1406273  51.2645491  54.6631496  59.0235128  50.2203511
  56.0465052  63.6096585  41.7345089  56.2216807  63.1384628  42.5490712
  55.3597840  64.2362351  41.9626350  57.0022115  57.8869091  47.7808391
  56.6671947  57.8469861  48.6766041  56.5026061  57.2213807  47.3078801
  50.9766359  53.2936722  53.3060972  50.8386157  52.5616960  53.9072511
  51.8871282  53.2045622  53.0245160  53.6048659  53.0056681  52.7944651
  54.3148278  52.3649873  52.7531270  53.5617968  53.2569576  53.7170832
  52.3177593  49.9921899  54.6140291  51.7814950  49.5412637  55.2661887
  51.7294302  50.1267808  53.8710755  50.6126137  66.7585948  48.5084950
  50.8522735  67.3904472  49.1863968  49.7695333  66.4073988  48.7950309
  51.7279852  49.4510550  37.1766755  50.8509319  49.3299351  36.8129001
  52.2037605  48.6596628  36.9245643  61.5952845  57.9063618  53.9465210
  60.7079624  57.5689540  54.0691609  62.1651396  57.1746649  54.1833976
  43.2481993  54.2387710  47.2708262  43.9353032  53.9249440  46.6829277
  43.0930121  55.1429074  46.9975513  48.0516715  49.1277906  51.6993285
  47.9674903  48.5203576  50.9643695  47.2299421  49.6186925  51.7002782
  55.1253999  62.5665070  50.9126454  55.0524170  63.3720042  51.4245758
  54.6831392  62.7657036  50.0874475  54.9143778  61.8036840  44.4229275
  54.1311300  62.3458521  44.5167500  55.6136524  62.3210820  44.8223516
  58.2240429  47.6131470  47.0663481  58.7209128  46.8601432  46.7464551
  57.4527410  47.6495787  46.5006690  66.0770186  53.3171835  48.7081772
  66.0660062  54.1996551  48.3375705  65.2087565  52.9643386  48.5136309
  57.5852682  62.4651904  53.0684612  58.2980655  63.0999369  52.9960514
  57.0942711  62.5615770  52.2524614  59.3070209  56.3703157  44.6401904
  58.3726488  56.4904620  44.4706608  59.4846878  55.4675624  44.3761914
  54.8075397  49.7548853  46.7935165  54.4373185  49.2019893  47.4816071
  55.3034490  49.1506986  46.2410165  52.6364596  60.2146348  53.8890183
  53.3374055  60.8482831  54.0419577  52.1659711  60.5561079  53.1285822
  60.7618992  58.5564298  42.1738090  61.0378836  58.4420892  43.0831964
  59.8923490  58.1581783  42.1350263  60.6659423  44.5801063  49.2142839
  59.7522503  44.8105290  49.3825046  61.0952525  44.6639508  50.0656872
  60.4365882  52.7690955  51.7142733  59.7837332  53.0166863  51.0595186
  60.8146262  51.9555094  51.3805211  57.3973056  62.8050649  45.8170904
  57.5795450  61.9872305  46.2798656  58.2206042  63.0218341  45.3795794
  57.7315221  61.7318834  43.0785952  58.2602988  61.2211288  42.4656114
  57.9943441  61.4161364  43.9431485  48.2332314  59.7482703  50.8221286
  48.8185751  59.0026391  50.9549190  48.0357152  60.0586660  51.7057950
  51.0870969  62.7833950  45.8383728  50.4181344  63.2680078  45.3547768
  50.9483839  63.0303171  46.7527107  42.8249969  52.3188303  49.5425729
  42.8634068  51.7851894  50.3362847  42.3190262  51.7923509  48.9236706
  55.2276238  64.8177694  52.4366386  55.7794546  64.9809315  53.2015472
  55.5682431  65.4082132  51.7646411  50.2040731  47.1652844  53.0388271
  50.2682057  48.0267675  52.6265669  50.1407851  46.5526845  52.3060630
  49.6793004  49.2375976  56.6861305  50.3065042  48.8553054  57.2998830
  48.8220922  49.0190178  57.0516998  60.0787112  59.6438951  58.2915041
  60.6227016  60.2568910  57.7969996  59.4973957  60.2018530  58.8082054
  46.4558546  51.0452405  42.6179660  46.7511987  50.1363084  42.5646714
  45.5546582  51.0240145  42.2960663  58.3644625  62.7659669  49.4230069
  58.2395764  61.9649409  48.9141014  59.0223716  63.2605863  48.9344039
  49.9852793  49.1208402  48.6007209  49.2639379  49.7344370  48.4614682
  50.7746049  49.6566167  48.5223855  60.4279533  60.5668690  51.0509619
  59.4809869  60.4474041  50.9787945  60.7762307  59.6791188  51.1335880
  52.7879107  46.4562828  54.8747861  53.3113509  46.7025125  55.6374170
  52.5691440  47.2882863  54.4550998  48.1846388  48.7266503  42.7418985
  47.8559094  47.8463882  42.5594091  48.5385759  48.6714172  43.6295375
  57.4325967  60.3621406  47.2513971  57.2850929  59.4338113  47.4321541
  58.2579460  60.3841496  46.7671046  51.2988211  49.0139473  43.1094463
  51.6384284  49.5425394  42.3873071  51.7460331  49.3519879  43.8853030
  53.9931652  47.3976524  52.5597531  53.6528472  46.5984337  52.9618211
  53.2870658  47.6978234  51.9874364  54.6448124  44.4825836  51.0124854
  55.4674193  44.0086314  50.8903745  54.8886187  45.2616320  51.5123540
  52.1686702  51.1744957  48.8216833  52.0231283  51.4885260  49.7141114
  51.6911906  51.7929857  48.2687731  54.0283085  48.1647505  48.8697722
  54.0144654  47.2688598  48.5330020  54.7455513  48.1718168  49.5036008
  55.8809216  48.5984845  50.9150850  55.6226994  49.5201915  50.9135180
  55.3494256  48.2015279  51.6051314  60.8255405  61.7035632  43.6940935
  60.9992282  61.1382054  42.9414788  61.3184296  62.5036527  43.5120425
  46.6432365  53.7150301  51.7604494  46.0985833  54.4910109  51.8924768
  47.5211714  54.0621105  51.6023615  53.4319981  47.0461885  44.1385292
  53.5535892  46.1178531  44.3376180  53.1422024  47.0600571  43.2263608
  56.3011172  44.7316795  47.2752012  56.3232868  44.7956128  46.3203992
  56.7179231  43.8921304  47.4692518  66.6794796  54.4672055  45.3131235
  67.1225942  53.7179380  44.9150358  65.8021306  54.4582191  44.9304967
  61.8130577  61.0202396  40.7937833  62.5081482  61.6409089  41.0125148
  62.1553727  60.1697748  41.0690211  47.4298386  52.8420197  54.6534651
  46.6880122  52.9902833  55.2399281  47.1091131  53.1028463  53.7901400
  63.7122000  58.4702102  42.3225164  64.2373324  58.8089375  41.5974484
  63.6244353  57.5349117  42.1388299  55.3742049  62.3836176  54.4515041
  55.6829176  62.1385322  55.3237740  56.1717531  62.5882814  53.9633911
  55.3962661  64.5374085  46.6820417  54.9567651  64.0450464  47.3753274
  56.1470778  63.9947053  46.4412493  47.8755000  60.7285626  46.6845045
  48.7013020  60.4289398  46.3043689  47.5249052  59.9593248  47.1334834
  52.8436533  60.0812094  48.7542719  52.2216543  59.4182799  48.4544947
  53.5141400  60.1073226  48.0716367  46.0763605  58.6471952  47.6433979
  45.2395513  58.2194127  47.4617980  46.0487251  58.8404396  48.5804770
  52.4050040  58.6316018  42.2301180  52.5538161  59.3151482  41.5767852
  53.2116484  58.6121108  42.7450635  55.1460349  49.3125255  55.1021584
  54.2763659  49.6058821  54.8304172  55.3819830  49.8965700  55.8228847
  65.0231978  58.3724413  55.1851112  64.7316787  58.7354394  56.0214573
  64.4104110  57.6591422  55.0064444  66.2227661  55.9377293  47.7053682
  67.0574552  56.3767097  47.8691243  66.3586789  55.4615946  46.8861928
  63.2719167  53.4957028  53.6531170  63.7473288  53.6884674  52.8450022
  62.3484732  53.5516214  53.4074554  50.1602673  54.6581195  43.2362249
  49.9148715  53.7543525  43.4342459  50.3298588  54.6598346  42.2941727
  57.8499383  45.5304872  52.6187004  58.3681327  46.2665898  52.2933493
  57.4954516  45.8368865  53.4533763  49.4298321  50.3909553  40.7348410
  48.7367566  50.4653908  40.0788446  49.1850073  49.6269896  41.2569927
  58.1011977  41.9505154  48.1387901  58.3813731  41.2828343  48.7648327
  58.8862584  42.1434250  47.6262565  55.9045446  61.1264148  39.7012927
  55.3319413  61.7454335  39.2483399  56.4778239  61.6763510  40.2352849
  61.9720836  50.3722788  51.8859476  62.9238258  50.4720886  51.9071700
  61.8024286  49.5801057  52.3957560  59.9935215  47.4578371  52.0718877
  59.3985147  47.7383384  51.3765365  59.7084912  47.9472272  52.8435618
  59.1242705  61.4101298  40.8321509  60.0573379  61.3446860  41.0354385
  59.0365918  62.2457565  40.3736042  61.7530722  60.7267168  37.7925457
  61.6744354  60.3927032  38.6861215  62.5740389  61.2188936  37.7916929
  64.4508913  53.5928908  51.0001775  64.4185233  52.6544909  51.1861459
  65.0609537  53.6712945  50.2667600  56.2892244  52.4624961  37.0428980
  57.2351349  52.3331169  37.1117398  55.9106489  51.7239623  37.5198408
  54.4735161  50.3874937  36.9783865  53.5666617  50.0908050  37.0546578
  54.7511142  50.0904755  36.1118151  45.3913102  51.7081301  47.4282911
  45.0715886  50.8546609  47.1357285  44.8446530  51.9229879  48.1840878
  49.1693009  54.4243742  51.1452418  49.3879019  55.3560849  51.1640451
  49.5818783  54.0651716  51.9307221  56.0897227  44.9311827  43.1328106
  55.2797955  44.5858912  43.5083352  56.7781644  44.6219371  43.7215718
  58.0187775  44.0089874  44.7552403  58.5718814  44.4285327  45.4142426
  58.2557862  43.0825622  44.7975359  45.2601362  55.3284212  49.3976033
  44.5664833  54.9138165  48.8845987  46.0074353  55.3704749  48.8009452
  59.8470149  45.5195457  46.4652387  60.3469927  45.6311991  45.6566706
  60.4905757  45.2156509  47.1053196  47.1738104  55.2602466  47.2742048
  47.1508792  55.3590153  46.3223931  47.4838741  56.1067617  47.5959214
  49.8325482  57.3178621  51.3888662  50.7868736  57.2862563  51.3218594
  49.6338006  56.8569245  52.2038888  50.4224864  55.8879737  53.9559460
  51.2417753  56.3823816  53.9794297  50.6961672  54.9711705  53.9277027
  48.1875711  62.8598240  48.4058860  48.0530179  62.0998641  47.8396858
  47.7707773  63.5839140  47.9387649  59.3234674  58.0435164  37.4135435
  60.0270524  58.2485166  38.0293091  58.5997323  58.6111926  37.6784519
  51.3444837  63.7567557  48.6177303  51.2277221  64.7012990  48.5155993
  50.5237283  63.4541119  49.0063102  61.2321371  58.4817693  39.4633895
  62.0666975  58.0498892  39.2811370  61.0705714  58.3099707  40.3910790
  45.6759779  50.2217871  54.6551657  46.3218642  49.7116825  55.1438882
  45.4676930  50.9586552  55.2295082  54.1963389  44.4857915  40.4075553
  54.1842059  45.4299755  40.5643824  55.0886811  44.3028061  40.1135014
  52.3699351  64.4095819  51.8333231  53.2726598  64.4419430  52.1499726
  52.1436721  63.4796270  51.8479567  54.1252953  63.1626806  48.4943310
  53.1748584  63.1628667  48.3807682  54.4285439  62.4159540  47.9779344
  58.0115508  41.0800692  44.6621490  57.2447904  40.5259179  44.8078172
  58.4226213  41.1522561  45.5235641  50.0157270  47.3685488  58.7526671
  50.8788731  47.0122293  58.9629996  49.4422680  47.0299383  59.4402075
  62.0337354  71.5610354  41.1949087  62.8068230  71.0139341  41.0561963
  62.3862753  72.4254603  41.4063548  64.3703632  67.7203020  38.8267537
  64.6229153  67.1984541  38.0651000  63.4328191  67.5569165  38.9294220
  64.0899921  69.6231126  41.0291912  63.9736179  68.9476029  41.6972996
  64.2002181  69.1363500  40.2124065  66.0736949  64.1131172  39.7299950
  66.2411351  64.9811409  40.0970421  65.8834118  64.2758454  38.8061239
  63.8133062  79.3392472  44.3636748  63.7357091  80.2900297  44.4425228
  63.2094705  78.9938344  45.0211674  56.8740703  66.3947725  50.7412306
  57.1248741  67.2794735  51.0069882  57.4100251  66.2152327  49.9687398
  66.0871431  74.6974625  43.0842287  65.9517105  75.5426160  43.5127135
  66.6281243  74.8993902  42.3208221  59.5400828  72.2150063  43.6570212
  60.0525349  73.0093313  43.8075777  60.1923541  71.5176353  43.5903814
  57.5049745  70.5438717  44.4329783  58.3424967  70.9535725  44.2163491
  57.6828013  69.6038159  44.4029977  62.6935227  64.9355240  39.9768848
  61.8572539  65.2729927  40.2978123  62.5539996  64.8004220  39.0395985
  65.7799512  70.0611323  36.6001324  64.8726574  69.8300577  36.7992473
  66.2770544  69.2648943  36.7875306  68.6867591  78.7708831  39.5198010
  68.0129290  79.0740527  40.1282968  69.0733413  79.5737911  39.1703467
  59.9407691  63.9348279  45.3759710  60.2014508  64.8493612  45.2668871
  60.7624863  63.4672722  45.5256323  66.8858806  78.9388503  41.7345089
  67.0610562  78.4676546  42.5490712  66.1991594  79.5654269  41.9626350
  61.4519891  82.0877866  48.5084950  61.6916490  82.7196390  49.1863968
  60.6089088  81.7365906  48.7950309  62.5673607  64.7802468  37.1766755
  61.6903073  64.6591269  36.8129001  63.0431360  63.9888546  36.9245643
  54.0875747  69.5679628  47.2708262  54.7746787  69.2541358  46.6829277
  53.9323876  70.4720992  46.9975513  65.9647753  77.8956988  50.9126454
  65.8917925  78.7011960  51.4245758  65.5225146  78.0948954  50.0874475
  65.7537533  77.1328758  44.4229275  64.9705055  77.6750438  44.5167500
  66.4530278  77.6502738  44.8223516  68.2366810  78.1342566  45.8170904
  68.4189205  77.3164222  46.2798656  69.0599796  78.3510259  45.3795794
  68.5708976  77.0610751  43.0785952  69.0996742  76.5503206  42.4656114
  68.8337195  76.7453282  43.9431485  61.9264724  78.1125868  45.8383728
  61.2575099  78.5971996  45.3547768  61.7877593  78.3595089  46.7527107
  53.6643723  67.6480221  49.5425729  53.7027823  67.1143812  50.3362847
  53.1584016  67.1215426  48.9236706  66.0669992  80.1469612  52.4366386
  66.6188300  80.3101233  53.2015472  66.4076186  80.7374049  51.7646411
  57.2952301  66.3744323  42.6179660  57.5905742  65.4655001  42.5646714
  56.3940337  66.3532062  42.2960663  69.2038380  78.0951587  49.4230069
  69.0789519  77.2941327  48.9141014  69.8617471  78.5897780  48.9344039
  59.0240142  64.0558421  42.7418985  58.6952848  63.1755800  42.5594091
  59.3779513  64.0006089  43.6295375  64.1250113  62.8406012  41.3087756
  64.8458475  63.2187265  40.8051473  63.5015417  63.5594889  41.4122734
  71.6649159  77.0327550  43.6940935  71.8386037  76.4673972  42.9414788
  72.1578050  77.8328444  43.5120425  57.4826119  69.0442219  51.7604494
  56.9379587  69.8202027  51.8924768  58.3605469  69.3913023  51.6023615
  66.2356416  79.8666003  46.6820417  65.7961406  79.3742382  47.3753274
  66.9864533  79.3238970  46.4412493  63.2443795  73.9607935  42.2301180
  63.3931915  74.6443400  41.5767852  64.0510238  73.9413025  42.7450635
  60.2692075  65.7201470  40.7348410  59.5761320  65.7945825  40.0788446
  60.0243827  64.9561814  41.2569927  66.7439200  76.4556066  39.7012927
  66.1713167  77.0746253  39.2483399  67.3171994  77.0055427  40.2352849
  69.9636460  76.7393216  40.8321509  70.8967133  76.6738777  41.0354385
  69.8759673  77.5749483  40.3736042  72.5924477  76.0559086  37.7925457
  72.5138108  75.7218950  38.6861215  73.4134143  76.5480854  37.7916929
  67.1285999  67.7916878  37.0428980  68.0745103  67.6623087  37.1117398
  66.7500244  67.0531540  37.5198408  65.3128916  65.7166855  36.9783865
  64.4060371  65.4199968  37.0546578  65.5904897  65.4196673  36.1118151
  56.2306856  67.0373218  47.4282911  55.9109641  66.1838526  47.1357285
  55.6840284  67.2521796  48.1840878  68.8581530  59.3381791  44.7552403
  69.4112568  59.7577245  45.4142426  69.0951616  58.4117539  44.7975359
  64.0827700  62.5753790  37.1195844  64.9446864  62.9008688  37.3791661
  64.2678045  61.7885286  36.6068910  56.0995116  70.6576130  49.3976033
  55.4058588  70.2430083  48.8845987  56.8468107  70.6996666  48.8009452
  58.0131859  70.5894384  47.2742048  57.9902547  70.6882071  46.3223931
  58.3232495  71.4359534  47.5959214  59.0269465  78.1890158  48.4058860
  58.8923933  77.4290559  47.8396858  58.6101528  78.9131058  47.9387649
  70.1628428  73.3727082  37.4135435  70.8664279  73.5777084  38.0293091
  69.4391077  73.9403843  37.6784519  62.1838591  79.0859475  48.6177303
  62.0670975  80.0304908  48.5155993  61.3631038  78.7833037  49.0063102
  56.5153533  65.5509788  54.6551657  57.1612397  65.0408742  55.1438882
  56.3070684  66.2878470  55.2295082  65.0357143  59.8149833  40.4075553
  65.0235813  60.7591673  40.5643824  65.9280565  59.6319978  40.1135014
  63.2093105  79.7387737  51.8333231  64.1120352  79.7711347  52.1499726
  62.9830475  78.8088188  51.8479567  64.9646707  78.4918723  48.4943310
  64.0142338  78.4920585  48.3807682  65.2679194  77.7451458  47.9779344
  80.6999401  84.3279262  49.5589072  81.3377811  84.2086009  48.8552412
  80.5820244  85.2760106  49.6177024  77.5089107  84.2806690  49.4950597
  77.1707619  84.1647755  48.6071132  78.3778875  83.8797855  49.4751603
  73.3675923  86.1342166  45.4847488  72.8040788  86.0432103  44.7163775
  73.2528318  85.3142071  45.9649980  77.9908890  85.4341542  55.4536802
  77.9797531  85.0394340  54.5817306  78.1529530  84.7007614  56.0470574
  70.9140355  87.6293358  48.3231708  71.7061647  87.2884183  47.9078007
  71.1537005  87.7388333  49.2433861  78.9475482  89.8013134  40.7961953
  78.2963461  90.3867215  40.4095966  79.7419844  90.3319329  40.8556990
  72.8731109  86.8902271  41.1949087  73.6461985  86.3431258  41.0561963
  73.2256508  87.7546521  41.4063548  74.7116151  88.2178654  54.4015986
  74.4206017  89.1224284  54.2862653  75.3473136  88.2595181  55.1160056
  75.6372358  85.5955502  50.9917346  76.2335930  85.3711524  50.2774309
  75.6947330  84.8540248  51.5942794  75.2097387  83.0494937  38.8267537
  75.4622907  82.5276459  38.0651000  74.2721946  82.8861083  38.9294220
  80.2540669  82.0530716  46.6342280  81.0403759  81.6350139  46.2832697
  80.5179374  82.9576808  46.8023928  80.4250747  87.4903566  41.3330937
  79.7896580  87.5638193  42.0451841  80.0948153  88.0797165  40.6550016
  85.6549097  81.9905949  47.5375259  86.3874268  81.4205166  47.7713088
  84.8988452  81.6027549  47.9781764  74.9293675  84.9523043  41.0291912
  74.8129933  84.2767947  41.6972996  75.0395935  84.4655417  40.2124065
  77.2725216  84.4133190  44.7338601  76.9083424  83.8863811  45.4451522
  78.1292332  84.0231659  44.5605086  76.9130703  79.4423090  39.7299950
  77.0805106  80.3103327  40.0970421  76.7227872  79.6050372  38.8061239
  79.6706036  87.9040069  51.3965780  79.3706760  88.8065108  51.2881587
  79.3257096  87.6372252  52.2486933  73.1218518  84.3553866  47.4302484
  72.1969014  84.2230080  47.6380176  73.3702931  85.1348085  47.9272427
  83.0703180  80.4222609  49.0763217  82.1620058  80.3538018  48.7821978
  83.0190776  80.8994554  49.9045043  76.8919924  81.8980748  40.7146616
  76.7719549  82.3437798  41.5532097  76.1972513  82.2466065  40.1560154
  70.4827329  83.9987139  48.2646273  70.6119710  84.2521618  49.1785685
  69.8024780  84.5914847  47.9450928  74.6526816  94.6684389  44.3636748
  74.5750846  95.6192214  44.4425228  74.0488460  94.3230262  45.0211674
  77.1444046  81.8412255  57.0198114  76.3677380  82.4006175  57.0100979
  77.7834609  82.3269038  57.5412985  84.9364827  78.6239048  50.8541091
  84.2939207  78.9171581  50.2080886  84.4319755  78.5091968  51.6594288
  82.5904990  82.3702221  41.5426950  83.5022846  82.6029608  41.3674648
  82.0814637  82.9539265  40.9802029  75.3990418  84.6497708  56.5816081
  76.1405103  85.1882752  56.3050905  74.6927404  85.2763997  56.7387633
  80.8745758  86.7926849  55.1788243  81.2829114  86.3509259  54.4342875
  80.1523019  86.2179476  55.4322436  77.2276828  81.7299455  52.5521800
  78.0738023  82.1538869  52.6956449  77.1675466  81.0733080  53.2460363
  81.1974573  87.3528039  48.9340532  80.5683435  87.5173753  48.2316600
  80.8100235  87.7669649  49.7051496  85.0763804  88.2882477  46.2884896
  84.3914843  88.6681378  45.7381929  85.1607654  88.8977804  47.0216843
  80.3776273  79.3903824  54.2102974  80.1337205  80.1445884  53.6737249
  80.6536204  79.7689171  55.0450221  82.3314736  85.9342436  52.8880239
  82.5431631  86.5774196  52.2114620  82.2844484  85.1004753  52.4202169
  79.9340965  78.5460257  49.7916811  79.0725444  78.8441510  50.0833549
  79.9603400  78.7630656  48.8597844  76.7502534  87.0902447  46.1990617
  77.2140880  87.3690150  45.4095239  76.4859333  86.1885892  46.0163708
  73.6426616  86.6373929  49.1370380  74.2127973  87.0661197  48.4987865
  74.2334727  86.3556514  49.8354566  75.6871421  83.2125600  43.0080182
  76.3895464  83.6646643  43.4754108  75.3552049  82.5709419  43.6360075
  74.1351782  81.8037356  57.3831391  73.5050443  82.4853637  57.6166788
  74.0287870  81.6920438  56.4384530  69.4296754  81.4709152  48.3097316
  68.6395808  81.7266681  47.8337426  69.9208002  82.2857490  48.4149356
  83.4460564  88.8114392  51.0602596  84.2678008  88.4094579  50.7785278
  83.4422967  88.7082626  52.0118712  71.3811500  81.8353732  45.2680792
  70.5842663  81.9472426  45.7864288  71.1537092  82.1740384  44.4021683
  77.2117167  88.3598435  53.2163307  77.2761600  88.8218842  54.0521479
  76.5028091  87.7295800  53.3445617  67.7134457  81.7239643  50.7412306
  67.9642496  82.6086653  51.0069882  68.2494006  81.5444244  49.9687398
  91.5366557  85.1553140  47.4087568  90.7830265  84.5860538  47.2531572
  91.6714098  85.1215805  48.3558203  76.9265185  90.0266542  43.0842287
  76.7910860  90.8718078  43.5127135  77.4674998  90.2285820  42.3208221
  70.3794583  87.5441980  43.6570212  70.8919103  88.3385231  43.8075777
  71.0317295  86.8468271  43.5903814  72.1889467  90.6607737  45.7392966
  72.3656096  91.5825701  45.5513949  72.9846301  90.3466156  46.1687345
  71.4741824  82.7072369  55.6155129  71.3595339  81.8057626  55.9162228
  70.6186342  82.9536065  55.2639945  78.5533662  90.6490109  57.2142629
  78.1097516  89.8626487  56.8963534  79.2150875  90.8369259  56.5486520
  73.3120783  92.1785910  51.7403308  73.8628208  92.0502974  50.9680302
  72.4732259  92.4780799  51.3898201  80.6514900  90.9292909  55.2424031
  80.6333375  91.7501790  54.7504300  81.5734820  90.8046984  55.4674172
  77.1087954  88.4437038  56.0847539  77.6416291  87.6825326  55.8546847
  76.5802035  88.1510690  56.8271694  68.3443499  85.8730635  44.4329783
  69.1818721  86.2827643  44.2163491  68.5221767  84.9330077  44.4029977
  80.2407931  83.5405715  40.1213616  79.7254555  84.3110320  40.3602003
  79.9685240  82.8670851  40.7446677  77.8255042  78.3855416  45.1798854
  76.9696639  77.9962266  45.0004493  78.2381994  78.4647377  44.3198640
  85.2142206  86.2938070  42.0566789  84.4371648  85.9549229  41.6121951
  85.8933687  86.2990693  41.3821754  80.0294235  81.4132807  41.9473397
  79.7244370  81.7278957  42.7983540  80.9824677  81.4914227  41.9900730
  78.4740666  87.5723031  43.5966351  77.9462028  86.8375790  43.2839588
  77.9728169  88.3497707  43.3506319  83.4533512  85.7672051  48.7133397
  82.7957187  86.4571313  48.8013526  84.2573912  86.1568483  49.0567384
  82.2638971  84.1216424  46.7637339  82.7770853  84.7546416  47.2659049
  82.9140195  83.5217619  46.3980699  73.5328981  80.2647158  39.9768848
  72.6966293  80.6021845  40.2978123  73.3933751  80.1296138  39.0395985
  76.6193267  85.3903241  36.6001324  75.7120328  85.1592494  36.7992473
  77.1164299  84.5940860  36.7875306  79.5261346  94.1000748  39.5198010
  78.8523044  94.4032445  40.1282968  79.9127167  94.9029829  39.1703467
  78.7419802  81.5965879  49.0095680  77.8242364  81.8180826  48.8517368
  79.1579946  81.6712190  48.1507387  79.5254850  82.9957295  44.1398360
  80.2726669  83.5078692  43.8305482  79.7946439  82.6741348  45.0002753
  77.7981500  85.4915836  41.1225314  76.8892719  85.2074869  41.2197784
  77.8276584  85.9114914  40.2628621  83.0300767  89.1022425  44.8916482
  82.5763095  88.2613335  44.9481672  82.3994734  89.7383824  45.2291262
  81.9733687  80.0314411  46.1217149  81.2356444  79.5191798  46.4527392
  82.2260461  79.5914793  45.3100426  81.4733707  90.9398922  45.8266300
  81.7656681  91.5003979  45.1078665  81.9832327  91.2327483  46.5819459
  68.3669670  83.2121350  45.1040516  68.1694070  82.6190711  44.3791583
  67.8116334  82.9073560  45.8216455  76.3466394  83.1044456  47.2235110
  76.4015004  82.1518293  47.1477586  75.5357596  83.2603896  47.7076408
  77.4957588  87.0324580  38.4613393  77.0577018  86.3160438  38.0019030
  78.2368029  87.2600694  37.8998484  74.2858754  81.7221516  44.9825488
  73.4726620  82.0215687  45.3890681  74.7817748  81.3277205  45.6999971
  76.4367332  91.7179273  46.9159753  76.3943511  91.9440119  45.9868285
  77.3530031  91.4842648  47.0645554  79.8832966  82.1863341  53.8140382
  80.2382353  82.4134814  54.6734848  80.5305097  82.5181717  53.1917638
  85.6130703  85.3081777  44.5189711  85.4748601  85.4983373  43.5910901
  85.2566921  86.0701159  44.9757762  85.6400082  87.3758304  49.5300983
  86.0736589  87.2833593  50.3784037  86.3531663  87.3515804  48.8920999
  74.5533133  88.5942302  46.7121716  75.3473731  88.0992622  46.5104291
  73.8424825  88.0660165  46.3489421  79.3727977  90.9760398  51.0634083
  79.4264999  91.5451334  51.8311799  78.5042759  91.1462283  50.6988121
  70.8615896  82.7385384  42.7881468  69.9313484  82.6769839  43.0051431
  70.9573368  82.2161337  41.9918110  70.7801445  79.2640197  45.3759710
  71.0408263  80.1785530  45.2668871  71.6018618  78.7964639  45.5256323
  72.2526371  80.6777954  52.5458535  72.9249424  80.4695316  51.8971184
  71.4256157  80.4800040  52.1063767  86.5015632  87.4182004  52.0633868
  86.6951522  88.3227815  52.3093143  86.4016250  86.9589423  52.8972453
  81.5630741  87.5688747  57.6374749  81.4116247  87.3399299  56.7204833
  81.5535420  88.5259348  57.6506094  78.3316077  85.1420660  52.6221015
  79.2608137  85.2931819  52.4489983  77.9107107  85.2304681  51.7669662
  77.1304409  89.1671324  50.3919553  76.9915494  88.7990109  51.2645491
  76.3419005  89.6818964  50.2203511  77.7252561  94.2680421  41.7345089
  77.9004316  93.7968464  42.5490712  77.0385349  94.8946187  41.9626350
  78.6809624  88.5452927  47.7808391  78.3459456  88.5053697  48.6766041
  78.1813570  87.8797643  47.3078801  72.6553868  83.9520557  53.3060972
  72.5173666  83.2200796  53.9072511  73.5658791  83.8629457  53.0245160
  81.6168815  85.8908961  38.0545450  80.9997986  85.1655789  37.9578503
  81.1485304  86.6518321  37.7112525  75.2836168  83.6640516  52.7944651
  75.9935787  83.0233708  52.7531270  75.2405477  83.9153411  53.7170832
  83.2722947  90.6007870  55.7151231  83.2135493  89.9167090  55.0481814
  83.6742466  91.3426860  55.2631857  73.9965102  80.6505734  54.6140291
  73.4602459  80.1996473  55.2661887  73.4081811  80.7851643  53.8710755
  72.2913646  97.4169783  48.5084950  72.5310244  98.0488308  49.1863968
  71.4482842  97.0657823  48.7950309  73.4067361  80.1094385  37.1766755
  72.5296828  79.9883186  36.8129001  73.8825114  79.3180464  36.9245643
  83.2740354  88.5647453  53.9465210  82.3867133  88.2273375  54.0691609
  83.8438905  87.8330485  54.1833976  64.9269502  84.8971545  47.2708262
  65.6140541  84.5833275  46.6829277  64.7717630  85.8012910  46.9975513
  69.7304224  79.7861742  51.6993285  69.6462412  79.1787411  50.9643695
  68.9086930  80.2770760  51.7002782  76.8041508  93.2248906  50.9126454
  76.7311679  94.0303877  51.4245758  76.3618901  93.4240872  50.0874475
  76.5931287  92.4620676  44.4229275  75.8098809  93.0042356  44.5167500
  77.2924033  92.9794655  44.8223516  79.9027938  78.2715305  47.0663481
  80.3996637  77.5185268  46.7464551  79.1314919  78.3079622  46.5006690
  87.7557695  83.9755671  48.7081772  87.7447571  84.8580386  48.3375705
  86.8875074  83.6227222  48.5136309  79.2640191  93.1235740  53.0684612
  79.9768164  93.7583205  52.9960514  78.7730220  93.2199606  52.2524614
  80.9857718  87.0286993  44.6401904  80.0513997  87.1488455  44.4706608
  81.1634387  86.1259459  44.3761914  76.4862906  80.4132688  46.7935165
  76.1160694  79.8603729  47.4816071  76.9821999  79.8090822  46.2410165
  84.3730270  82.8704312  45.1751938  84.8390722  83.7032303  45.1012241
  84.8237770  82.4049293  45.8797197  74.3152105  90.8730183  53.8890183
  75.0161564  91.5066666  54.0419577  73.8447220  91.2144915  53.1285822
  82.4406501  89.2148133  42.1738090  82.7166345  89.1004728  43.0831964
  81.5710999  88.8165618  42.1350263  82.1153391  83.4274791  51.7142733
  81.4624841  83.6750698  51.0595186  82.4933771  82.6138929  51.3805211
  79.0760565  93.4634484  45.8170904  79.2582959  92.6456140  46.2798656
  79.8993551  93.6802176  45.3795794  79.4102730  92.3902669  43.0785952
  79.9390497  91.8795124  42.4656114  79.6730950  92.0745199  43.9431485
  78.1640964  84.1694602  58.2008770  77.4881601  84.0688731  58.8711146
  78.9868598  84.0133816  58.6644768  69.9119823  90.4066538  50.8221286
  70.4973260  89.6610226  50.9549190  69.7144661  90.7170495  51.7057950
  72.7658478  93.4417786  45.8383728  72.0968853  93.9263913  45.3547768
  72.6271348  93.6887006  46.7527107  64.5037478  82.9772139  49.5425729
  64.5421577  82.4435729  50.3362847  63.9977770  82.4507344  48.9236706
  76.9063747  95.4761529  52.4366386  77.4582055  95.6393151  53.2015472
  77.2469940  96.0665967  51.7646411  71.3580512  79.8959812  56.6861305
  71.9852551  79.5136889  57.2998830  70.5008431  79.6774014  57.0516998
  81.7574621  90.3022787  58.2915041  82.3014525  90.9152745  57.7969996
  81.1761466  90.8602365  58.8082054  68.1346055  81.7036241  42.6179660
  68.4299496  80.7946919  42.5646714  67.2334091  81.6823980  42.2960663
  80.0432134  93.4243505  49.4230069  79.9183273  92.6233245  48.9141014
  80.7011225  93.9189698  48.9344039  71.6640302  79.7792237  48.6007209
  70.9426888  80.3928205  48.4614682  72.4533558  80.3150002  48.5223855
  82.1067042  91.2252525  51.0509619  81.1597378  91.1057876  50.9787945
  82.4549816  90.3375023  51.1335880  69.8633897  79.3850338  42.7418985
  69.5346603  78.5047717  42.5594091  70.2173268  79.3298007  43.6295375
  79.1113476  91.0205241  47.2513971  78.9638438  90.0921949  47.4321541
  79.9366969  91.0425332  46.7671046  72.9775720  79.6723308  43.1094463
  73.3171792  80.2009229  42.3873071  73.4247840  80.0103714  43.8853030
  82.7147598  91.8433800  48.3378844  83.6394145  91.6376661  48.2003295
  82.5462901  91.5950201  49.2468185  74.9643867  78.1697930  41.3087756
  75.6852230  78.5479183  40.8051473  74.3409171  78.8886807  41.4122734
  79.1074990  78.8743079  42.2446088  79.3238604  79.7567717  41.9434916
  78.6269057  78.4829292  41.5151730  73.8474211  81.8328792  48.8216833
  73.7018792  82.1469095  49.7141114  73.3699415  82.4513692  48.2687731
  77.5596725  79.2568680  50.9150850  77.3014503  80.1785751  50.9135180
  77.0281765  78.8599115  51.6051314  82.5042914  92.3619467  43.6940935
  82.6779791  91.7965890  42.9414788  82.9971805  93.1620362  43.5120425
  68.3219874  84.3734136  51.7604494  67.7773342  85.1493944  51.8924768
  69.1999223  84.7204941  51.6023615  75.1107490  77.7045720  44.1385292
  75.2323401  76.7762366  44.3376180  74.8209533  77.7184406  43.2263608
  88.3582305  85.1255890  45.3131235  88.8013451  84.3763215  44.9150358
  87.4808815  85.1166027  44.9304967  83.4918086  91.6786232  40.7937833
  84.1868991  92.2992924  41.0125148  83.8341236  90.8281583  41.0690211
  69.1085895  83.5004033  54.6534651  68.3667631  83.6486668  55.2399281
  68.7878640  83.7612298  53.7901400  85.3909509  89.1285937  42.3225164
  85.9160833  89.4673210  41.5974484  85.3031862  88.1932953  42.1388299
  77.0529558  93.0420011  54.4515041  77.3616685  92.7969158  55.3237740
  77.8505040  93.2466649  53.9633911  77.0750170  95.1957920  46.6820417
  76.6355160  94.7034299  47.3753274  77.8258287  94.6530888  46.4412493
  69.5542509  91.3869461  46.6845045  70.3800529  91.0873233  46.3043689
  69.2036561  90.6177084  47.1334834  74.5224042  90.7395930  48.7542719
  73.9004052  90.0766635  48.4544947  75.1928909  90.7657061  48.0716367
  67.7551114  89.3055788  47.6433979  66.9183022  88.8777962  47.4617980
  67.7274760  89.4988231  48.5804770  74.5948570  79.2177718  58.3475225
  74.6436725  80.0939840  57.9652995  75.1371084  78.6755111  57.7746868
  85.0803415  89.7618841  57.6276362  84.2898959  89.7442980  57.0880862
  84.8436770  90.3007135  58.3825399  85.2001290  86.6111307  54.9409091
  85.2499295  86.4461315  55.8824613  85.0915214  85.7438566  54.5506971
  74.0837549  89.2899853  42.2301180  74.2325670  89.9735317  41.5767852
  74.8903993  89.2704943  42.7450635  82.4905053  82.5942235  56.2568397
  83.3914916  82.4548700  55.9652395  82.5653027  82.7596690  57.1966575
  76.8247858  79.9709090  55.1021584  75.9551168  80.2642656  54.8304172
  77.0607339  80.5549535  55.8228847  86.7019487  89.0308249  55.1851112
  86.4104296  89.3938229  56.0214573  86.0891619  88.3175257  55.0064444
  87.9015170  86.5961129  47.7053682  88.7362061  87.0350933  47.8691243
  88.0374298  86.1199782  46.8861928  84.9506676  84.1540863  53.6531170
  85.4260797  84.3468510  52.8450022  84.0272241  84.2100049  53.4074554
  71.8390182  85.3165031  43.2362249  71.5936224  84.4127361  43.4342459
  72.0086097  85.3182181  42.2941727  79.5286892  76.1888707  52.6187004
  80.0468836  76.9249734  52.2933493  79.1742025  76.4952700  53.4533763
  71.1085830  81.0493388  40.7348410  70.4155075  81.1237743  40.0788446
  70.8637582  80.2853732  41.2569927  77.5832955  91.7847983  39.7012927
  77.0106922  92.4038170  39.2483399  78.1565748  92.3347345  40.2352849
  83.6508345  81.0306623  51.8859476  84.6025767  81.1304721  51.9071700
  83.4811795  80.2384892  52.3957560  81.6722724  78.1162207  52.0718877
  81.0772656  78.3967219  51.3765365  81.3872421  78.6056108  52.8435618
  80.8030214  92.0685133  40.8321509  81.7360888  92.0030695  41.0354385
  80.7153427  92.9041400  40.3736042  83.4318231  91.3851004  37.7925457
  83.3531863  91.0510867  38.6861215  84.2527898  91.8772772  37.7916929
  86.1296422  84.2512743  51.0001775  86.0972742  83.3128744  51.1861459
  86.7397046  84.3296780  50.2667600  77.9679753  83.1208796  37.0428980
  78.9138858  82.9915004  37.1117398  77.5893998  82.3823458  37.5198408
  86.2790911  81.0423787  51.0460059  85.7629959  80.2582243  50.8589988
  87.1630859  80.7142503  51.2106578  91.9472972  85.3128750  50.1407812
  92.6776361  85.0514038  50.7015516  91.3379918  84.5757472  50.1809880
  90.0288269  83.4536613  50.7382263  89.3021433  83.3192578  50.1298755
  89.6135556  83.7613441  51.5438982  77.8518446  87.1726542  58.5029636
  78.7721455  87.3505141  58.6969683  77.8168029  86.2282588  58.3509336
  76.1522670  81.0458773  36.9783865  75.2454126  80.7491885  37.0546578
  76.4298651  80.7488591  36.1118151  67.0700611  82.3665136  47.4282911
  66.7503395  81.5130444  47.1357285  66.5234039  82.5813714  48.1840878
  70.8480518  85.0827577  51.1452418  71.0666528  86.0144685  51.1640451
  71.2606292  84.7235551  51.9307221  75.7208384  80.6560783  60.5355167
  75.6205110  81.6055140  60.4667258  75.5029926  80.3279022  59.6631237
  74.9221455  77.9045708  37.1195844  75.7840619  78.2300606  37.3791661
  75.1071799  77.1177204  36.6068910  66.9388871  85.9868047  49.3976033
  66.2452342  85.5722000  48.8845987  67.6861862  86.0288584  48.8009452
  75.5839654  84.0857922  59.3520228  75.1006735  84.8858282  59.5584117
  75.6700593  84.0965866  58.3987672  68.8525613  85.9186301  47.2742048
  68.8296301  86.0173988  46.3223931  69.1626250  86.7651452  47.5959214
  71.5112991  87.9762456  51.3888662  72.4656245  87.9446399  51.3218594
  71.3125515  87.5153080  52.2038888  72.1012373  86.5463572  53.9559460
  72.9205262  87.0407651  53.9794297  72.3749181  85.6295540  53.9277027
  81.8578969  78.9374325  43.3187415  80.9704824  79.2223975  43.1007610
  82.2732959  78.7768088  42.4714692  85.2093506  78.9620846  47.0341754
  85.9853896  79.4517298  47.3066371  84.4841640  79.3878900  47.4913624
  87.6466064  79.6748465  48.0915695  88.2410555  79.4344201  47.3809003
  87.7192648  78.9555595  48.7189231  69.8663220  93.5182076  48.4058860
  69.7317688  92.7582477  47.8396858  69.4495282  94.2422976  47.9387649
  81.0022183  88.7018999  37.4135435  81.7058033  88.9069002  38.0293091
  80.2784832  89.2695761  37.6784519  81.8319993  84.4528860  43.5337705
  81.7755195  84.9097412  42.6945338  82.3848336  83.6919545  43.3560548
  85.6424799  80.2418592  44.3587825  85.3861733  79.8415228  45.1896033
  85.0177667  80.9562386  44.2337964  89.9537137  82.9814666  46.8659116
  89.3936695  83.0507855  47.6390678  89.3480640  82.8055650  46.1458613
  73.0232346  94.4151393  48.6177303  72.9064730  95.3596825  48.5155993
  72.2024792  94.1124954  49.0063102  82.9108880  89.1401528  39.4633895
  83.7454484  88.7082727  39.2811370  82.7493223  88.9683542  40.3910790
  82.5654773  85.6433642  40.8290235  82.5103576  85.4777913  39.8878679
  81.9400828  86.3509675  40.9852424  67.3547288  80.8801706  54.6551657
  68.0006151  80.3700660  55.1438882  67.1464439  81.6170388  55.2295082
  79.8800680  87.9482554  60.1543797  80.7491839  88.1223206  59.7930432
  79.4007431  88.7676970  60.0319527  74.0486860  95.0679655  51.8333231
  74.9514107  95.1003265  52.1499726  73.8224230  94.1380106  51.8479567
  75.8040462  93.8210641  48.4943310  74.8536093  93.8212503  48.3807682
  76.1072948  93.0743376  47.9779344  71.6944778  78.0269323  58.7526671
  72.5576240  77.6706128  58.9629996  71.1210189  77.6883218  59.4402075
  91.5393155  99.6571180  49.5589072  92.1771565  99.5377927  48.8552412
  91.4213998 100.6052024  49.6177024  88.3482862  99.6098608  49.4950597
  88.0101373  99.4939672  48.6071132  89.2172630  99.2089773  49.4751603
  84.2069677 101.4634084  45.4847488  83.6434543 101.3724021  44.7163775
  84.0922072 100.6433989  45.9649980  88.8302645 100.7633459  55.4536802
  88.8191285 100.3686258  54.5817306  88.9923284 100.0299532  56.0470574
  81.7534109 102.9585276  48.3231708  82.5455401 102.6176100  47.9078007
  81.9930759 103.0680251  49.2433861  89.7869236 105.1305052  40.7961953
  89.1357216 105.7159132  40.4095966  90.5813599 105.6611247  40.8556990
  83.7124863 102.2194189  41.1949087  84.4855739 101.6723176  41.0561963
  84.0650262 103.0838438  41.4063548  85.5509906 103.5470571  54.4015986
  85.2599772 104.4516202  54.2862653  86.1866890 103.5887099  55.1160056
  86.4766113 100.9247420  50.9917346  87.0729685 100.7003442  50.2774309
  86.5341084 100.1832165  51.5942794  86.0491141  98.3786855  38.8267537
  86.3016662  97.8568376  38.0651000  85.1115700  98.2153000  38.9294220
  91.0934424  97.3822633  46.6342280  91.8797513  96.9642057  46.2832697
  91.3573128  98.2868726  46.8023928  91.2644501 102.8195484  41.3330937
  90.6290334 102.8930110  42.0451841  90.9341908 103.4089083  40.6550016
  96.4942851  97.3197867  47.5375259  97.2268023  96.7497083  47.7713088
  95.7382207  96.9319467  47.9781764  85.7687430 100.2814961  41.0291912
  85.6523688  99.6059864  41.6972996  85.8789690  99.7947335  40.2124065
  88.1118971  99.7425108  44.7338601  87.7477178  99.2155729  45.4451522
  88.9686087  99.3523577  44.5605086  94.0168271  91.0319441  51.9969867
  93.6851596  91.9014852  51.7731082  93.4213885  90.7155725  52.6763898
  87.7524458  94.7715008  39.7299950  87.9198860  95.6395244  40.0970421
  87.5621627  94.9342289  38.8061239  90.5099791 103.2331987  51.3965780
  90.2100514 104.1357026  51.2881587  90.1650850 102.9664170  52.2486933
  83.9612272  99.6845784  47.4302484  83.0362769  99.5521998  47.6380176
  84.2096686 100.4640003  47.9272427  93.9096935  95.7514527  49.0763217
  93.0013812  95.6829935  48.7821978  93.8584531  96.2286472  49.9045043
  87.7313679  97.2272665  40.7146616  87.6113304  97.6729716  41.5532097
  87.0366267  97.5757983  40.1560154  81.3221083  99.3279057  48.2646273
  81.4513465  99.5813536  49.1785685  80.6418535  99.9206765  47.9450928
  85.4920571 109.9976307  44.3636748  85.4144600 110.9484132  44.4425228
  84.8882214 109.6522180  45.0211674  87.9837800  97.1704172  57.0198114
  87.2071135  97.7298093  57.0100979  88.6228364  97.6560955  57.5412985
  95.7758581  93.9530965  50.8541091  95.1332961  94.2463498  50.2080886
  95.2713510  93.8383886  51.6594288  93.4298745  97.6994138  41.5426950
  94.3416601  97.9321525  41.3674648  92.9208392  98.2831183  40.9802029
  86.2384173  99.9789626  56.5816081  86.9798857 100.5174670  56.3050905
  85.5321158 100.6055915  56.7387633  91.7139512 102.1218766  55.1788243
  92.1222868 101.6801177  54.4342875  90.9916774 101.5471394  55.4322436
  88.0670582  97.0591373  52.5521800  88.9131778  97.4830787  52.6956449
  88.0069220  96.4024997  53.2460363  92.0368327 102.6819957  48.9340532
  91.4077190 102.8465671  48.2316600  91.6493989 103.0961566  49.7051496
  95.9157559 103.6174395  46.2884896  95.2308597 103.9973296  45.7381929
  96.0001408 104.2269721  47.0216843  91.2170028  94.7195741  54.2102974
  90.9730960  95.4737802  53.6737249  91.4929958  95.0981089  55.0450221
  93.1708491 101.2634354  52.8880239  93.3825386 101.9066114  52.2114620
  93.1238239 100.4296670  52.4202169  90.7734720  93.8752174  49.7916811
  89.9119199  94.1733428  50.0833549  90.7997154  94.0922573  48.8597844
  87.5896289 102.4194365  46.1990617  88.0534634 102.6982068  45.4095239
  87.3253087 101.5177810  46.0163708  84.4820370 101.9665847  49.1370380
  85.0521727 102.3953115  48.4987865  85.0728482 101.6848431  49.8354566
  86.5265175  98.5417517  43.0080182  87.2289218  98.9938561  43.4754108
  86.1945804  97.9001336  43.6360075  84.9745537  97.1329274  57.3831391
  84.3444197  97.8145555  57.6166788  84.8681624  97.0212356  56.4384530
  80.2690509  96.8001070  48.3097316  79.4789563  97.0558599  47.8337426
  80.7601756  97.6149408  48.4149356  94.2854319 104.1406309  51.0602596
  95.1071762 103.7386496  50.7785278  94.2816721 104.0374543  52.0118712
  82.2205254  97.1645649  45.2680792  81.4236418  97.2764344  45.7864288
  81.9930847  97.5032302  44.4021683  88.0510922 103.6890353  53.2163307
  88.1155354 104.1510760  54.0521479  87.3421846 103.0587717  53.3445617
  78.5528212  97.0531560  50.7412306  78.8036250  97.9378570  51.0069882
  79.0887760  96.8736162  49.9687398 102.3760312 100.4845058  47.4087568
 101.6224020  99.9152456  47.2531572 102.5107853 100.4507722  48.3558203
  87.7658940 105.3558460  43.0842287  87.6304614 106.2009996  43.5127135
  88.3068752 105.5577738  42.3208221  84.2526279  91.4350040  59.7456643
  83.8593225  90.8816238  60.4204287  85.0692420  91.7460618  60.1363160
  81.2188337 102.8733898  43.6570212  81.7312858 103.6677148  43.8075777
  81.8711050 102.1760188  43.5903814  83.0283222 105.9899654  45.7392966
  83.2049850 106.9117619  45.5513949  83.8240055 105.6758074  46.1687345
  87.1694240  92.8507919  57.3376899  87.9103954  93.4515072  57.2581362
  87.4012163  92.1085557  56.7794942  82.3135578  98.0364286  55.6155129
  82.1989093  97.1349543  55.9162228  81.4580096  98.2827983  55.2639945
  89.3927416 105.9782027  57.2142629  88.9491270 105.1918405  56.8963534
  90.0544630 106.1661177  56.5486520  84.1514537 107.5077828  51.7403308
  84.7021962 107.3794891  50.9680302  83.3126013 107.8072717  51.3898201
  91.4908654 106.2584826  55.2424031  91.4727129 107.0793707  54.7504300
  92.4128574 106.1338902  55.4674172  87.9481708 103.7728956  56.0847539
  88.4810045 103.0117244  55.8546847  87.4195789 103.4802608  56.8271694
  91.1151403  88.8789022  51.6141181  90.7715673  89.7690664  51.5380291
  91.4830366  88.6890680  50.7510766  79.1837254 101.2022552  44.4329783
  80.0212476 101.6119561  44.2163491  79.3615522 100.2621994  44.4029977
  91.0801686  98.8697633  40.1213616  90.5648309  99.6402238  40.3602003
  90.8078994  98.1962769  40.7446677  88.6648797  93.7147334  45.1798854
  87.8090393  93.3254184  45.0004493  89.0775749  93.7939295  44.3198640
  90.1947944  91.2493677  49.5790414  89.6912739  91.2123812  48.7658219
  90.4878550  92.1586420  49.6387071  86.4390829  91.3332407  48.5856596
  87.3043826  91.1375215  48.2262485  86.5068338  91.1042759  49.5125953
  96.0535960 101.6229988  42.0566789  95.2765403 101.2841147  41.6121951
  96.7327441 101.6282611  41.3821754  90.8687989  96.7424725  41.9473397
  90.5638125  97.0570874  42.7983540  91.8218431  96.8206145  41.9900730
  89.3134421 102.9014948  43.5966351  88.7855783 102.1667708  43.2839588
  88.8121924 103.6789625  43.3506319  94.2927267 101.0963969  48.7133397
  93.6350941 101.7863230  48.8013526  95.0967666 101.4860401  49.0567384
  84.0453149  93.5634615  45.9572963  84.6196900  93.3409796  45.2246156
  84.6324131  93.6323309  46.7101564  93.1032726  99.4508342  46.7637339
  93.6164608 100.0838333  47.2659049  93.7533950  98.8509537  46.3980699
  84.3722736  95.5939076  39.9768848  83.5360048  95.9313762  40.2978123
  84.2327505  95.4588056  39.0395985  86.3475816  90.4375864  44.6848032
  85.6940229  90.1224881  44.0604647  86.3056290  89.8151604  45.4107855
  87.4587021 100.7195159  36.6001324  86.5514083 100.4884412  36.7992473
  87.9558053  99.9232778  36.7875306  90.3655100 109.4292666  39.5198010
  89.6916799 109.7324363  40.1282968  90.7520922 110.2321746  39.1703467
  89.5813557  96.9257797  49.0095680  88.6636118  97.1472744  48.8517368
  89.9973700  97.0004108  48.1507387  90.3648604  98.3249213  44.1398360
  91.1120423  98.8370610  43.8305482  90.6340194  98.0033266  45.0002753
  88.6375255 100.8207754  41.1225314  87.7286474 100.5366786  41.2197784
  88.6670338 101.2406832  40.2628621  93.8694522 104.4314343  44.8916482
  93.4156849 103.5905253  44.9481672  93.2388489 105.0675741  45.2291262
  92.8127442  95.3606329  46.1217149  92.0750198  94.8483715  46.4527392
  93.0654215  94.9206711  45.3100426  92.3127461 106.2690840  45.8266300
  92.6050436 106.8295897  45.1078665  92.8226082 106.5619401  46.5819459
  92.9139069  88.1382581  46.7158918  93.2197946  87.2779944  46.4284834
  93.6391674  88.7300201  46.5157912  79.2063425  98.5413268  45.1040516
  79.0087825  97.9482628  44.3791583  78.6510089  98.2365478  45.8216455
  87.1860149  98.4336374  47.2235110  87.2408758  97.4810211  47.1477586
  86.3751351  98.5895813  47.7076408  88.3351342 102.3616497  38.4613393
  87.8970772 101.6452356  38.0019030  89.0761783 102.5892612  37.8998484
  85.1252509  97.0513434  44.9825488  84.3120374  97.3507604  45.3890681
  85.6211503  96.6569123  45.6999971  87.2761086 107.0471191  46.9159753
  87.2337265 107.2732037  45.9868285  88.1923785 106.8134565  47.0645554
  90.7226720  97.5155258  53.8140382  91.0776108  97.7426731  54.6734848
  91.3698851  97.8473635  53.1917638  96.4524457 100.6373694  44.5189711
  96.3142356 100.8275290  43.5910901  96.0960676 101.3993077  44.9757762
  84.6166583  94.6231789  50.5986723  85.2565963  94.4820548  49.9009687
  83.7844114  94.3366303  50.2225325  96.4793837 102.7050221  49.5300983
  96.9130343 102.6125510  50.3784037  97.1925417 102.6807722  48.8920999
  85.3926887 103.9234220  46.7121716  86.1867486 103.4284540  46.5104291
  84.6818580 103.3952083  46.3489421  90.2121732 106.3052315  51.0634083
  90.2658754 106.8743252  51.8311799  89.3436513 106.4754200  50.6988121
  81.7009651  98.0677302  42.7881468  80.7707239  98.0061757  43.0051431
  81.7967123  97.5453254  41.9918110  81.6195200  94.5932114  45.3759710
  81.8802017  95.5077448  45.2668871  82.4412372  94.1256557  45.5256323
  83.0920125  96.0069872  52.5458535  83.7643178  95.7987234  51.8971184
  82.2649912  95.8091958  52.1063767  97.3409386 102.7473922  52.0633868
  97.5345276 103.6519732  52.3093143  97.2410004 102.2881341  52.8972453
  88.9945697  92.6331812  54.5624196  88.3473612  93.3321762  54.4688672
  89.7646712  93.0667956  54.9300444  92.4024495 102.8980665  57.6374749
  92.2510001 102.6691216  56.7204833  92.3929174 103.8551266  57.6506094
  89.1709831 100.4712577  52.6221015  90.1001891 100.6223737  52.4489983
  88.7500861 100.5596598  51.7669662  87.9698163 104.4963242  50.3919553
  87.8309249 104.1282026  51.2645491  87.1812759 105.0110881  50.2203511
  88.5646315 109.5972338  41.7345089  88.7398071 109.1260381  42.5490712
  87.8779103 110.2238104  41.9626350  89.5203378 103.8744844  47.7808391
  89.1853211 103.8345614  48.6766041  89.0207324 103.2089560  47.3078801
  83.4947622  99.2812475  53.3060972  83.3567420  98.5492713  53.9072511
  84.4052546  99.1921375  53.0245160  92.4562570 101.2200879  38.0545450
  91.8391741 100.4947707  37.9578503  91.9879058 101.9810239  37.7112525
  86.1229923  98.9932434  52.7944651  86.8329541  98.3525626  52.7531270
  86.0799231  99.2445329  53.7170832  94.1116702 105.9299787  55.7151231
  94.0529248 105.2459007  55.0481814  94.5136220 106.6718777  55.2631857
  84.8358857  95.9797652  54.6140291  84.2996214  95.5288390  55.2661887
  84.2475565  96.1143561  53.8710755  83.1307400 112.7461701  48.5084950
  83.3703999 113.3780225  49.1863968  82.2876597 112.3949741  48.7950309
  84.2461116  95.4386303  37.1766755  83.3690582  95.3175104  36.8129001
  84.7218869  94.6472381  36.9245643  94.1134109 103.8939371  53.9465210
  93.2260888 103.5565293  54.0691609  94.6832660 103.1622402  54.1833976
  75.7663256 100.2263463  47.2708262  76.4534296  99.9125193  46.6829277
  75.6111385 101.1304828  46.9975513  80.5697978  95.1153659  51.6993285
  80.4856167  94.5079329  50.9643695  79.7480685  95.6062678  51.7002782
  87.6435262 108.5540823  50.9126454  87.5705434 109.3595795  51.4245758
  87.2012655 108.7532789  50.0874475  87.4325042 107.7912594  44.4229275
  86.6492564 108.3334274  44.5167500  88.1317787 108.3086573  44.8223516
  90.7421692  93.6007223  47.0663481  91.2390392  92.8477185  46.7464551
  89.9708674  93.6371540  46.5006690  98.5951449  99.3047588  48.7081772
  98.5841326 100.1872304  48.3375705  97.7268829  98.9519139  48.5136309
  90.1033946 108.4527658  53.0684612  90.8161918 109.0875122  52.9960514
  89.6123974 108.5491524  52.2524614  91.8251473 102.3578910  44.6401904
  90.8907751 102.4780373  44.4706608  92.0028141 101.4551377  44.3761914
  87.3256661  95.7424606  46.7935165  86.9554448  95.1895646  47.4816071
  87.8215753  95.1382739  46.2410165  95.2124024  98.1996229  45.1751938
  95.6784476  99.0324221  45.1012241  95.6631525  97.7341211  45.8797197
  85.1545859 106.2022101  53.8890183  85.8555319 106.8358584  54.0419577
  84.6840974 106.5436833  53.1285822  93.2800255 104.5440051  42.1738090
  93.5560099 104.4296645  43.0831964  92.4104754 104.1457536  42.1350263
  93.1840687  90.5676816  49.2142839  92.2703767  90.7981043  49.3825046
  93.6133788  90.6515261  50.0656872  92.9547145  98.7566708  51.7142733
  92.3018596  99.0042616  51.0595186  93.3327525  97.9430847  51.3805211
  89.9154319 108.7926402  45.8170904  90.0976714 107.9748058  46.2798656
  90.7387305 109.0094094  45.3795794  90.2496485 107.7194587  43.0785952
  90.7784251 107.2087041  42.4656114  90.5124704 107.4037117  43.9431485
  89.0034718  99.4986519  58.2008770  88.3275355  99.3980649  58.8711146
  89.8262352  99.3425733  58.6644768  80.7513577 105.7358456  50.8221286
  81.3367014 104.9902144  50.9549190  80.5538416 106.0462413  51.7057950
  83.6052233 108.7709703  45.8383728  82.9362608 109.2555831  45.3547768
  83.4665102 109.0178924  46.7527107  75.3431232  98.3064056  49.5425729
  75.3815332  97.7727647  50.3362847  74.8371525  97.7799262  48.9236706
  87.7457501 110.8053447  52.4366386  88.2975809 110.9685068  53.2015472
  88.0863695 111.3957885  51.7646411  82.7221994  93.1528597  53.0388271
  82.7863321  94.0143428  52.6265669  82.6589115  92.5402598  52.3060630
  82.1974267  95.2251729  56.6861305  82.8246306  94.8428807  57.2998830
  81.3402186  95.0065931  57.0516998  92.5968376 105.6314704  58.2915041
  93.1408280 106.2444663  57.7969996  92.0155220 106.1894283  58.8082054
  78.9739810  97.0328158  42.6179660  79.2693251  96.1238837  42.5646714
  78.0727845  97.0115898  42.2960663  90.8825888 108.7535422  49.4230069
  90.7577028 107.9525162  48.9141014  91.5404980 109.2481616  48.9344039
  82.5034057  95.1084155  48.6007209  81.7820642  95.7220123  48.4614682
  83.2927312  95.6441920  48.5223855  92.9460797 106.5544443  51.0509619
  91.9991132 106.4349794  50.9787945  93.2943570 105.6666941  51.1335880
  85.3060370  92.4438581  54.8747861  85.8294772  92.6900878  55.6374170
  85.0872704  93.2758616  54.4550998  80.7027651  94.7142256  42.7418985
  80.3740357  93.8339635  42.5594091  81.0567022  94.6589925  43.6295375
  89.9507230 106.3497159  47.2513971  89.8032193 105.4213866  47.4321541
  90.7760724 106.3717249  46.7671046  83.8169474  95.0015226  43.1094463
  84.1565547  95.5301147  42.3873071  84.2641595  95.3395632  43.8853030
  93.5541352 107.1725717  48.3378844  94.4787900 106.9668579  48.2003295
  93.3856655 106.9242119  49.2468185  86.5112915  93.3852277  52.5597531
  86.1709736  92.5860090  52.9618211  85.8051922  93.6853987  51.9874364
  87.1629387  90.4701589  51.0124854  87.9855456  89.9962067  50.8903745
  87.4067451  91.2492073  51.5123540  85.8037622  93.4989847  41.3087756
  86.5245984  93.8771100  40.8051473  85.1802926  94.2178724  41.4122734
  89.9468744  94.2034996  42.2446088  90.1632359  95.0859634  41.9434916
  89.4662812  93.8121210  41.5151730  84.6867966  97.1620710  48.8216833
  84.5412547  97.4761013  49.7141114  84.2093170  97.7805610  48.2687731
  86.5464349  94.1523258  48.8697722  86.5325918  93.2564351  48.5330020
  87.2636777  94.1593921  49.5036008  88.3990479  94.5860598  50.9150850
  88.1408257  95.5077668  50.9135180  87.8675520  94.1891032  51.6051314
  93.3436668 107.6911385  43.6940935  93.5173546 107.1257807  42.9414788
  93.8365559 108.4912280  43.5120425  79.1613628  99.7026054  51.7604494
  78.6167096 100.4785862  51.8924768  80.0392978 100.0496859  51.6023615
  85.9501245  93.0337638  44.1385292  86.0717156  92.1054284  44.3376180
  85.6603287  93.0476324  43.2263608  88.8192435  90.7192548  47.2752012
  88.8414132  90.7831881  46.3203992  89.2360494  89.8797057  47.4692518
  99.1976059 100.4547808  45.3131235  99.6407205  99.7055133  44.9150358
  98.3202570 100.4457944  44.9304967  94.3311841 107.0078149  40.7937833
  95.0262745 107.6284842  41.0125148  94.6734991 106.1573501  41.0690211
  79.9479650  98.8295950  54.6534651  79.2061386  98.9778586  55.2399281
  79.6272394  99.0904216  53.7901400  96.2303264 104.4577855  42.3225164
  96.7554588 104.7965128  41.5974484  96.1425616 103.5224870  42.1388299
  87.8923313 108.3711929  54.4515041  88.2010439 108.1261075  55.3237740
  88.6898795 108.5758567  53.9633911  87.9143925 110.5249838  46.6820417
  87.4748915 110.0326217  47.3753274  88.6652042 109.9822806  46.4412493
  80.3936264 106.7161379  46.6845045  81.2194283 106.4165151  46.3043689
  80.0430316 105.9469001  47.1334834  85.3617797 106.0687847  48.7542719
  84.7397806 105.4058552  48.4544947  86.0322664 106.0948979  48.0716367
  78.5944869 104.6347705  47.6433979  77.7576777 104.2069880  47.4617980
  78.5668514 104.8280149  48.5804770  85.4342324  94.5469635  58.3475225
  85.4830480  95.4231758  57.9652995  85.9764838  94.0047028  57.7746868
  95.9197170 105.0910759  57.6276362  95.1292714 105.0734897  57.0880862
  95.6830524 105.6299052  58.3825399  96.0395045 101.9403225  54.9409091
  96.0893050 101.7753232  55.8824613  95.9308968 101.0730484  54.5506971
  84.9231304 104.6191771  42.2301180  85.0719424 105.3027235  41.5767852
  85.7297747 104.5996861  42.7450635  93.3298807  97.9234153  56.2568397
  94.2308670  97.7840618  55.9652395  93.4046782  98.0888608  57.1966575
  87.6641613  95.3001008  55.1021584  86.7944922  95.5934574  54.8304172
  87.9001093  95.8841453  55.8228847  97.5413242 104.3600166  55.1851112
  97.2498050 104.7230147  56.0214573  96.9285373 103.6467175  55.0064444
  98.7408924 101.9253046  47.7053682  99.5755815 102.3642850  47.8691243
  98.8768053 101.4491699  46.8861928  95.7900430  99.4832781  53.6531170
  96.2654552  99.6760427  52.8450022  94.8665995  99.5391967  53.4074554
  82.6783937 100.6456948  43.2362249  82.4329979  99.7419278  43.4342459
  82.8479851 100.6474099  42.2941727  90.3680647  91.5180625  52.6187004
  90.8862590  92.2541652  52.2933493  90.0135779  91.8244618  53.4533763
  81.9479584  96.3785306  40.7348410  81.2548829  96.4529661  40.0788446
  81.7031336  95.6145649  41.2569927  90.6193241  87.9380907  48.1387901
  90.8994994  87.2704096  48.7648327  91.4043848  88.1310003  47.6262565
  88.4226709 107.1139901  39.7012927  87.8500676 107.7330088  39.2483399
  88.9959503 107.6639263  40.2352849  94.4902099  96.3598541  51.8859476
  95.4419522  96.4596639  51.9071700  94.3205549  95.5676810  52.3957560
  92.5116478  93.4454124  52.0718877  91.9166411  93.7259137  51.3765365
  92.2266175  93.9348025  52.8435618  91.6423969 107.3977051  40.8321509
  92.5754642 107.3322613  41.0354385  91.5547182 108.2333318  40.3736042
  94.2711986 106.7142922  37.7925457  94.1925617 106.3802785  38.6861215
  95.0921652 107.2064689  37.7916929  96.9690177  99.5804661  51.0001775
  96.9366497  98.6420662  51.1861459  97.5790800  99.6588698  50.2667600
  88.8073508  98.4500714  37.0428980  89.7532612  98.3206922  37.1117398
  88.4287753  97.7115376  37.5198408  97.1184665  96.3715704  51.0460059
  96.6023714  95.5874161  50.8589988  98.0024614  96.0434421  51.2106578
  94.7795392  90.1156720  47.0055871  94.5820213  89.8071808  47.8899203
  95.3895098  90.8418359  47.1353801 102.7866727 100.6420668  50.1407812
 103.5170115 100.3805956  50.7015516 102.1773672  99.9049390  50.1809880
 100.8682024  98.7828530  50.7382263 100.1415187  98.6484495  50.1298755
 100.4529311  99.0905359  51.5438982  88.6912200 102.5018460  58.5029636
  89.6115210 102.6797059  58.6969683  88.6561783 101.5574505  58.3509336
  86.9916425  96.3750690  36.9783865  86.0847880  96.0783803  37.0546578
  87.2692406  96.0780508  36.1118151  77.9094365  97.6957054  47.4282911
  77.5897150  96.8422362  47.1357285  77.3627793  97.9105632  48.1840878
  81.6874273 100.4119495  51.1452418  81.9060283 101.3436602  51.1640451
  82.1000047 100.0527469  51.9307221  88.6078491  90.9187580  43.1328106
  87.7979219  90.5734665  43.5083352  89.2962907  90.6095124  43.7215718
  90.5369039  89.9965627  44.7552403  91.0900077  90.4161080  45.4142426
  90.7739125  89.0701375  44.7975359  86.5602138  95.9852700  60.5355167
  86.4598865  96.9347057  60.4667258  86.3423680  95.6570939  59.6631237
  85.7615209  93.2337625  37.1195844  86.6234373  93.5592524  37.3791661
  85.9465554  92.4469121  36.6068910  77.7782625 101.3159965  49.3976033
  77.0846097 100.9013918  48.8845987  78.5255616 101.3580502  48.8009452
  93.9147846  92.1066152  44.2631067  93.3346515  92.7650956  43.8809119
  93.6483779  91.2843496  43.8518484  92.3651412  91.5071210  46.4652387
  92.8651191  91.6187744  45.6566706  93.0087020  91.2032262  47.1053196
  86.4233408  99.4149839  59.3520228  85.9400490 100.2150199  59.5584117
  86.5094347  99.4257784  58.3987672  79.6919368 101.2478219  47.2742048
  79.6690056 101.3465906  46.3223931  80.0020004 102.0943370  47.5959214
  82.3506746 103.3054374  51.3888662  83.3049999 103.2738316  51.3218594
  82.1519269 102.8444998  52.2038888  82.9406128 101.8755490  53.9559460
  83.7599017 102.3699569  53.9794297  83.2142935 100.9587458  53.9277027
  92.6972724  94.2666242  43.3187415  91.8098579  94.5515893  43.1007610
  93.1126713  94.1060006  42.4714692  96.0487260  94.2912763  47.0341754
  96.8247650  94.7809216  47.3066371  95.3235394  94.7170817  47.4913624
  98.4859819  95.0040382  48.0915695  99.0804310  94.7636118  47.3809003
  98.5586402  94.2847513  48.7189231  80.7056974 108.8473993  48.4058860
  80.5711442 108.0874394  47.8396858  80.2889037 109.5714893  47.9387649
  91.8415937 104.0310917  37.4135435  92.5451788 104.2360919  38.0293091
  91.1178586 104.5987679  37.6784519  92.6713748  99.7820778  43.5337705
  92.6148949 100.2389330  42.6945338  93.2242090  99.0211463  43.3560548
  96.4818554  95.5710510  44.3587825  96.2255488  95.1707146  45.1896033
  95.8571422  96.2854304  44.2337964 100.7930891  98.3106583  46.8659116
 100.2330449  98.3799773  47.6390678 100.1874395  98.1347568  46.1458613
  83.8626100 109.7443310  48.6177303  83.7458484 110.6888743  48.5155993
  83.0418547 109.4416872  49.0063102  93.7502635 104.4693446  39.4633895
  94.5848239 104.0374645  39.2811370  93.5886978 104.2975460  40.3910790
  93.4048527 100.9725559  40.8290235  93.3497331 100.8069831  39.8878679
  92.7794582 101.6801592  40.9852424  78.1941042  96.2093624  54.6551657
  78.8399906  95.6992578  55.1438882  77.9858193  96.9462305  55.2295082
  90.7194434 103.2774471  60.1543797  91.5885594 103.4515124  59.7930432
  90.2401186 104.0968888  60.0319527  86.7144652  90.4733668  40.4075553
  86.7023322  91.4175508  40.5643824  87.6068074  90.2903814  40.1135014
  84.8880614 110.3971572  51.8333231  85.7907861 110.4295183  52.1499726
  84.6617984 109.4672023  51.8479567  86.6434216 109.1502559  48.4943310
  85.6929847 109.1504420  48.3807682  86.9466703 108.4035293  47.9779344
  90.5296772  87.0676445  44.6621490  89.7629168  86.5134932  44.8078172
  90.9407477  87.1398314  45.5235641  82.5338533  93.3561241  58.7526671
  83.3969995  92.9998046  58.9629996  81.9603944  93.0175136  59.4402075
 102.3786910 114.9863097  49.5589072 103.0165320 114.8669845  48.8552412
 102.2607753 115.9343941  49.6177024  99.1876616 114.9390525  49.4950597
  98.8495128 114.8231590  48.6071132 100.0566384 114.5381690  49.4751603
  95.0463432 116.7926002  45.4847488  94.4828297 116.7015939  44.7163775
  94.9315827 115.9725906  45.9649980  99.6696399 116.0925377  55.4536802
  99.6585040 115.6978175  54.5817306  99.8317039 115.3591450  56.0470574
  92.5927864 118.2877193  48.3231708  93.3849156 117.9468018  47.9078007
  92.8324514 118.3972168  49.2433861  94.5518618 117.5486107  41.1949087
  95.3249494 117.0015094  41.0561963  94.9044017 118.4130356  41.4063548
  96.3903660 118.8762489  54.4015986  96.0993526 119.7808120  54.2862653
  97.0260645 118.9179016  55.1160056  97.3159867 116.2539337  50.9917346
  97.9123439 116.0295360  50.2774309  97.3734839 115.5124083  51.5942794
  96.8884896 113.7078773  38.8267537  97.1410416 113.1860294  38.0651000
  95.9509455 113.5444918  38.9294220 101.9328178 112.7114551  46.6342280
 102.7191268 112.2933974  46.2832697 102.1966883 113.6160643  46.8023928
 102.1038256 118.1487401  41.3330937 101.4684089 118.2222028  42.0451841
 101.7735662 118.7381000  40.6550016 107.3336606 112.6489784  47.5375259
 108.0661777 112.0789001  47.7713088 106.5775961 112.2611385  47.9781764
  96.6081184 115.6106879  41.0291912  96.4917442 114.9351782  41.6972996
  96.7183444 115.1239253  40.2124065  98.9512725 115.0717026  44.7338601
  98.5870932 114.5447647  45.4451522  99.8079841 114.6815495  44.5605086
 104.8562026 106.3611358  51.9969867 104.5245351 107.2306769  51.7731082
 104.2607639 106.0447642  52.6763898  98.5918212 110.1006925  39.7299950
  98.7592615 110.9687162  40.0970421  98.4015381 110.2634207  38.8061239
 101.3493545 118.5623904  51.3965780 101.0494269 119.4648943  51.2881587
 101.0044605 118.2956088  52.2486933  94.8006027 115.0137701  47.4302484
  93.8756523 114.8813915  47.6380176  95.0490440 115.7931920  47.9272427
 104.7490689 111.0806445  49.0763217 103.8407567 111.0121853  48.7821978
 104.6978285 111.5578389  49.9045043  98.5707433 112.5564583  40.7146616
  98.4507058 113.0021634  41.5532097  97.8760021 112.9049901  40.1560154
  92.1614838 114.6570975  48.2646273  92.2907219 114.9105454  49.1785685
  91.4812289 115.2498683  47.9450928  98.8231555 112.4996090  57.0198114
  98.0464889 113.0590010  57.0100979  99.4622118 112.9852873  57.5412985
 106.6152336 109.2822883  50.8541091 105.9726716 109.5755416  50.2080886
 106.1107264 109.1675803  51.6594288 104.2692499 113.0286056  41.5426950
 105.1810355 113.2613443  41.3674648 103.7602146 113.6123100  40.9802029
  97.0777927 115.3081544  56.5816081  97.8192612 115.8466587  56.3050905
  96.3714913 115.9347832  56.7387633 102.5533267 117.4510684  55.1788243
 102.9616623 117.0093094  54.4342875 101.8310528 116.8763311  55.4322436
  98.9064337 112.3883291  52.5521800  99.7525532 112.8122704  52.6956449
  98.8462975 111.7316915  53.2460363 102.8762082 118.0111875  48.9340532
 102.2470944 118.1757589  48.2316600 102.4887744 118.4253484  49.7051496
 102.0563782 110.0487659  54.2102974 101.8124714 110.8029720  53.6737249
 102.3323713 110.4273007  55.0450221 104.0102245 116.5926271  52.8880239
 104.2219140 117.2358031  52.2114620 103.9631993 115.7588588  52.4202169
 101.6128474 109.2044092  49.7916811 100.7512953 109.5025346  50.0833549
 101.6390909 109.4214491  48.8597844  98.4290043 117.7486283  46.1990617
  98.8928389 118.0273986  45.4095239  98.1646842 116.8469727  46.0163708
  95.3214125 117.2957764  49.1370380  95.8915482 117.7245033  48.4987865
  95.9122236 117.0140349  49.8354566  97.3658930 113.8709435  43.0080182
  98.0682973 114.3230479  43.4754108  97.0339558 113.2293254  43.6360075
  95.8139291 112.4621192  57.3831391  95.1837952 113.1437473  57.6166788
  95.7075379 112.3504273  56.4384530  91.1084263 112.1292988  48.3097316
  90.3183317 112.3850516  47.8337426  91.5995511 112.9441326  48.4149356
  93.0599009 112.4937567  45.2680792  92.2630172 112.6056261  45.7864288
  92.8324601 112.8324219  44.4021683  98.8904676 119.0182270  53.2163307
  98.9549109 119.4802677  54.0521479  98.1815600 118.3879635  53.3445617
  89.3921966 112.3823478  50.7412306  89.6430005 113.2670488  51.0069882
  89.9281515 112.2028080  49.9687398  98.6052694 120.6850378  43.0842287
  98.4698369 121.5301913  43.5127135  99.1462507 120.8869655  42.3208221
  95.0920034 106.7641958  59.7456643  94.6986979 106.2108156  60.4204287
  95.9086174 107.0752536  60.1363160  92.0582092 118.2025816  43.6570212
  92.5706612 118.9969066  43.8075777  92.7104804 117.5052106  43.5903814
  93.8676976 121.3191572  45.7392966  94.0443605 122.2409537  45.5513949
  94.6633810 121.0049991  46.1687345  98.0087995 108.1799837  57.3376899
  98.7497708 108.7806990  57.2581362  98.2405918 107.4377474  56.7794942
  93.1529333 113.3656204  55.6155129  93.0382848 112.4641461  55.9162228
  92.2973851 113.6119901  55.2639945  94.9908292 122.8369746  51.7403308
  95.5415717 122.7086809  50.9680302  94.1519768 123.1364635  51.3898201
  98.7875463 119.1020874  56.0847539  99.3203800 118.3409162  55.8546847
  98.2589544 118.8094525  56.8271694 101.9545158 104.2080940  51.6141181
 101.6109427 105.0982581  51.5380291 102.3224120 104.0182597  50.7510766
  90.0231008 116.5314470  44.4329783  90.8606230 116.9411478  44.2163491
  90.2009276 115.5913912  44.4029977 101.9195440 114.1989551  40.1213616
 101.4042064 114.9694155  40.3602003 101.6472749 113.5254687  40.7446677
  99.5042551 109.0439251  45.1798854  98.6484148 108.6546102  45.0004493
  99.9169503 109.1231212  44.3198640 101.0341698 106.5785595  49.5790414
 100.5306494 106.5415730  48.7658219 101.3272305 107.4878337  49.6387071
  97.2784584 106.6624324  48.5856596  98.1437581 106.4667133  48.2262485
  97.3462093 106.4334676  49.5125953 101.7081744 112.0716643  41.9473397
 101.4031879 112.3862792  42.7983540 102.6612186 112.1498063  41.9900730
 100.1528175 118.2306866  43.5966351  99.6249537 117.4959626  43.2839588
  99.6515678 119.0081542  43.3506319  94.8846903 108.8926532  45.9572963
  95.4590655 108.6701714  45.2246156  95.4717885 108.9615227  46.7101564
 103.9426480 114.7800259  46.7637339 104.4558362 115.4130251  47.2659049
 104.5927704 114.1801455  46.3980699  95.2116490 110.9230993  39.9768848
  94.3753802 111.2605680  40.2978123  95.0721260 110.7879973  39.0395985
  97.1869571 105.7667781  44.6848032  96.5333983 105.4516798  44.0604647
  97.1450045 105.1443522  45.4107855  98.2980776 116.0487076  36.6001324
  97.3907837 115.8176330  36.7992473  98.7951808 115.2524696  36.7875306
 100.4207311 112.2549715  49.0095680  99.5029872 112.4764662  48.8517368
 100.8367455 112.3296025  48.1507387 101.2042359 113.6541130  44.1398360
 101.9514178 114.1662528  43.8305482 101.4733948 113.3325183  45.0002753
  99.4769009 116.1499671  41.1225314  98.5680228 115.8658704  41.2197784
  99.5064093 116.5698750  40.2628621 103.6521196 110.6898247  46.1217149
 102.9143953 110.1775633  46.4527392 103.9047970 110.2498628  45.3100426
 103.7532823 103.4674499  46.7158918 104.0591700 102.6071862  46.4284834
 104.4785428 104.0592119  46.5157912  90.0457179 113.8705185  45.1040516
  89.8481579 113.2774546  44.3791583  89.4903843 113.5657396  45.8216455
  98.0253903 113.7628292  47.2235110  98.0802513 112.8102128  47.1477586
  97.2145105 113.9187731  47.7076408  99.1745097 117.6908415  38.4613393
  98.7364527 116.9744274  38.0019030  99.9155538 117.9184530  37.8998484
  95.9646263 112.3805352  44.9825488  95.1514129 112.6799522  45.3890681
  96.4605257 111.9861040  45.6999971 101.5620475 112.8447176  53.8140382
 101.9169862 113.0718649  54.6734848 102.2092606 113.1765553  53.1917638
  95.4560338 109.9523707  50.5986723  96.0959717 109.8112466  49.9009687
  94.6237868 109.6658220  50.2225325  96.2320642 119.2526137  46.7121716
  97.0261240 118.7576458  46.5104291  95.5212334 118.7244001  46.3489421
  92.5403405 113.3969219  42.7881468  91.6100993 113.3353675  43.0051431
  92.6360877 112.8745172  41.9918110  92.4588954 109.9224032  45.3759710
  92.7195771 110.8369365  45.2668871  93.2806127 109.4548475  45.5256323
  93.9313880 111.3361789  52.5458535  94.6036933 111.1279151  51.8971184
  93.1043666 111.1383875  52.1063767  99.8339452 107.9623730  54.5624196
  99.1867367 108.6613680  54.4688672 100.6040467 108.3959874  54.9300444
 100.0103586 115.8004495  52.6221015 100.9395646 115.9515655  52.4489983
  99.5894616 115.8888516  51.7669662  98.8091918 119.8255159  50.3919553
  98.6703003 119.4573944  51.2645491  98.0206514 120.3402799  50.2203511
 100.3597133 119.2036762  47.7808391 100.0246965 119.1637532  48.6766041
  99.8601079 118.5381478  47.3078801  94.3341377 114.6104392  53.3060972
  94.1961175 113.8784631  53.9072511  95.2446300 114.5213292  53.0245160
 103.2956324 116.5492797  38.0545450 102.6785495 115.8239625  37.9578503
 102.8272813 117.3102157  37.7112525  96.9623677 114.3224352  52.7944651
  97.6723296 113.6817544  52.7531270  96.9192986 114.5737246  53.7170832
  95.6752611 111.3089569  54.6140291  95.1389968 110.8580308  55.2661887
  95.0869320 111.4435478  53.8710755  95.0854870 110.7678221  37.1766755
  94.2084337 110.6467022  36.8129001  95.5612623 109.9764299  36.9245643
  86.6057011 115.5555381  47.2708262  87.2928050 115.2417111  46.6829277
  86.4505139 116.4596745  46.9975513  91.4091733 110.4445577  51.6993285
  91.3249921 109.8371247  50.9643695  90.5874439 110.9354595  51.7002782
 101.5815447 108.9299141  47.0663481 102.0784146 108.1769103  46.7464551
 100.8102428 108.9663457  46.5006690 102.6645227 117.6870828  44.6401904
 101.7301506 117.8072290  44.4706608 102.8421896 116.7843295  44.3761914
  98.1650415 111.0716524  46.7935165  97.7948203 110.5187564  47.4816071
  98.6609508 110.4674657  46.2410165 106.0517779 113.5288147  45.1751938
 106.5178231 114.3616139  45.1012241 106.5025279 113.0633129  45.8797197
  95.9939614 121.5314019  53.8890183  96.6949073 122.1650502  54.0419577
  95.5234729 121.8728750  53.1285822 104.0234441 105.8968734  49.2142839
 103.1097521 106.1272961  49.3825046 104.4527543 105.9807178  50.0656872
 103.7940900 114.0858626  51.7142733 103.1412350 114.3334534  51.0595186
 104.1721280 113.2722764  51.3805211  99.8428473 114.8278437  58.2008770
  99.1669110 114.7272566  58.8711146 100.6656107 114.6717651  58.6644768
  91.5907332 121.0650374  50.8221286  92.1760769 120.3194062  50.9549190
  91.3932170 121.3754330  51.7057950  94.4445987 124.1001621  45.8383728
  93.7756362 124.5847749  45.3547768  94.3058857 124.3470842  46.7527107
  86.1824987 113.6355974  49.5425729  86.2209086 113.1019565  50.3362847
  85.6765279 113.1091179  48.9236706  93.5615749 108.4820514  53.0388271
  93.6257075 109.3435345  52.6265669  93.4982869 107.8694516  52.3060630
  93.0368021 110.5543647  56.6861305  93.6640060 110.1720724  57.2998830
  92.1795940 110.3357849  57.0516998  89.8133564 112.3620076  42.6179660
  90.1087005 111.4530754  42.5646714  88.9121600 112.3407816  42.2960663
  93.3427811 110.4376073  48.6007209  92.6214397 111.0512040  48.4614682
  94.1321067 110.9733837  48.5223855  96.1454125 107.7730499  54.8747861
  96.6688527 108.0192796  55.6374170  95.9266458 108.6050534  54.4550998
  91.5421406 110.0434174  42.7418985  91.2134112 109.1631553  42.5594091
  91.8960777 109.9881842  43.6295375  94.6563229 110.3307144  43.1094463
  94.9959301 110.8593065  42.3873071  95.1035349 110.6687550  43.8853030
  97.3506670 108.7144194  52.5597531  97.0103490 107.9152007  52.9618211
  96.6445676 109.0145905  51.9874364  98.0023142 105.7993507  51.0124854
  98.8249211 105.3253985  50.8903745  98.2461205 106.5783990  51.5123540
  96.6431376 108.8281765  41.3087756  97.3639739 109.2063018  40.8051473
  96.0196680 109.5470642  41.4122734 100.7862499 109.5326914  42.2446088
 101.0026113 110.4151552  41.9434916 100.3056566 109.1413127  41.5151730
  95.5261720 112.4912627  48.8216833  95.3806301 112.8052930  49.7141114
  95.0486924 113.1097528  48.2687731  97.3858103 109.4815175  48.8697722
  97.3719672 108.5856269  48.5330020  98.1030531 109.4885839  49.5036008
  99.2384234 109.9152516  50.9150850  98.9802012 110.8369586  50.9135180
  98.7069274 109.5182950  51.6051314  90.0007383 115.0317972  51.7604494
  89.4560851 115.8077780  51.8924768  90.8786732 115.3788776  51.6023615
  96.7894999 108.3629556  44.1385292  96.9110910 107.4346202  44.3376180
  96.4997042 108.3768242  43.2263608  99.6586190 106.0484466  47.2752012
  99.6807886 106.1123799  46.3203992 100.0754249 105.2088975  47.4692518
  90.7873404 114.1587868  54.6534651  90.0455140 114.3070503  55.2399281
  90.4666149 114.4196134  53.7901400  91.2330018 122.0453297  46.6845045
  92.0588038 121.7457069  46.3043689  90.8824070 121.2760919  47.1334834
  96.2011551 121.3979765  48.7542719  95.5791561 120.7350470  48.4544947
  96.8716418 121.4240897  48.0716367  89.4338623 119.9639623  47.6433979
  88.5970531 119.5361798  47.4617980  89.4062269 120.1572066  48.5804770
  96.2736079 109.8761553  58.3475225  96.3224234 110.7523676  57.9652995
  96.8158593 109.3338946  57.7746868  95.7625058 119.9483688  42.2301180
  95.9113179 120.6319153  41.5767852  96.5691502 119.9288778  42.7450635
 104.1692562 113.2526071  56.2568397 105.0702425 113.1132535  55.9652395
 104.2440536 113.4180525  57.1966575  98.5035367 110.6292925  55.1021584
  97.6338677 110.9226491  54.8304172  98.7394848 111.2133370  55.8228847
 106.6294185 114.8124699  53.6531170 107.1048306 115.0052345  52.8450022
 105.7059750 114.8683885  53.4074554  93.5177691 115.9748866  43.2362249
  93.2723733 115.0711196  43.4342459  93.6873606 115.9766016  42.2941727
 101.2074401 106.8472542  52.6187004 101.7256345 107.5833569  52.2933493
 100.8529534 107.1536536  53.4533763  92.7873339 111.7077223  40.7348410
  92.0942584 111.7821578  40.0788446  92.5425091 110.9437567  41.2569927
 101.4586995 103.2672825  48.1387901 101.7388749 102.5996014  48.7648327
 102.2437602 103.4601920  47.6262565 105.3295854 111.6890459  51.8859476
 106.2813276 111.7888556  51.9071700 105.1599304 110.8968727  52.3957560
 103.3510233 108.7746042  52.0718877 102.7560165 109.0551055  51.3765365
 103.0659930 109.2639943  52.8435618  99.6467262 113.7792631  37.0428980
 100.5926367 113.6498840  37.1117398  99.2681507 113.0407293  37.5198408
 107.9578420 111.7007622  51.0460059 107.4417468 110.9166079  50.8589988
 108.8418368 111.3726339  51.2106578 105.6189147 105.4448637  47.0055871
 105.4213968 105.1363726  47.8899203 106.2288852 106.1710276  47.1353801
  99.5305955 117.8310378  58.5029636 100.4508964 118.0088977  58.6969683
  99.4955538 116.8866423  58.3509336  97.8310179 111.7042608  36.9783865
  96.9241635 111.4075721  37.0546578  98.1086160 111.4072426  36.1118151
  88.7488120 113.0248971  47.4282911  88.4290904 112.1714279  47.1357285
  88.2021548 113.2397549  48.1840878  92.5268027 115.7411412  51.1452418
  92.7454037 116.6728520  51.1640451  92.9393801 115.3819387  51.9307221
  99.4472245 106.2479498  43.1328106  98.6372973 105.9026583  43.5083352
 100.1356662 105.9387041  43.7215718 101.3762793 105.3257544  44.7552403
 101.9293832 105.7452998  45.4142426 101.6132880 104.3993292  44.7975359
  97.3995893 111.3144618  60.5355167  97.2992619 112.2638975  60.4667258
  97.1817435 110.9862857  59.6631237  96.6008964 108.5629543  37.1195844
  97.4628128 108.8884441  37.3791661  96.7859308 107.7761039  36.6068910
  88.6176380 116.6451883  49.3976033  87.9239851 116.2305836  48.8845987
  89.3649371 116.6872419  48.8009452 104.7541600 107.4358070  44.2631067
 104.1740269 108.0942874  43.8809119 104.4877533 106.6135414  43.8518484
 103.2045167 106.8363127  46.4652387 103.7044945 106.9479662  45.6566706
 103.8480775 106.5324180  47.1053196  97.2627163 114.7441757  59.3520228
  96.7794244 115.5442117  59.5584117  97.3488102 114.7549702  58.3987672
  90.5313122 116.5770137  47.2742048  90.5083810 116.6757824  46.3223931
  90.8413759 117.4235287  47.5959214  93.1900500 118.6346292  51.3888662
  94.1443754 118.6030234  51.3218594  92.9913024 118.1736915  52.2038888
  93.7799882 117.2047408  53.9559460  94.5992771 117.6991486  53.9794297
  94.0536690 116.2879376  53.9277027 103.5366478 109.5958160  43.3187415
 102.6492333 109.8807811  43.1007610 103.9520468 109.4351923  42.4714692
 106.8881015 109.6204681  47.0341754 107.6641405 110.1101133  47.3066371
 106.1629149 110.0462735  47.4913624 109.3253573 110.3332300  48.0915695
 109.9198064 110.0928036  47.3809003 109.3980157 109.6139431  48.7189231
  91.5450729 124.1765911  48.4058860  91.4105197 123.4166312  47.8396858
  91.1282791 124.9006811  47.9387649 103.5107502 115.1112696  43.5337705
 103.4542704 115.5681247  42.6945338 104.0635845 114.3503380  43.3560548
 107.3212308 110.9002428  44.3587825 107.0649242 110.4999063  45.1896033
 106.6965176 111.6146222  44.2337964 104.2442282 116.3017477  40.8290235
 104.1891085 116.1361749  39.8878679 103.6188337 117.0093510  40.9852424
  89.0334796 111.5385541  54.6551657  89.6793660 111.0284495  55.1438882
  88.8251948 112.2754223  55.2295082  97.5538407 105.8025586  40.4075553
  97.5417077 106.7467426  40.5643824  98.4461829 105.6195732  40.1135014
 101.3690526 102.3968363  44.6621490 100.6022922 101.8426849  44.8078172
 101.7801231 102.4690232  45.5235641  93.3732287 108.6853159  58.7526671
  94.2363749 108.3289963  58.9629996  92.7997698 108.3467053  59.4402075
  37.3424384   0.0173714  36.2834379  37.9802794  -0.1019539  35.5797719
  37.2245227   0.9654558  36.3422331  34.1514091  -0.0298858  36.2195903
  33.8132602  -0.1457793  35.3316438  35.0203859  -0.4307693  36.1996909
  34.6333874   1.1235994  42.1782109  34.6222514   0.7288792  41.3062613
  34.7954513   0.3902066  42.7715880  27.5565338   3.3187810  35.0477015
  28.3486630   2.9778635  34.6323314  27.7961988   3.4282785  35.9679168
  31.3541135   3.9073105  41.1261293  31.0631001   4.8118736  41.0107959
  31.9898119   3.9489633  41.8405362  32.2797342   1.2849954  37.7162652
  32.8760914   1.0605976  37.0019615  32.3372313   0.5434699  38.3188100
  42.2974080  -2.3199599  34.2620565  43.0299252  -2.8900382  34.4958395
  41.5413436  -2.7077999  34.7027071  39.8199500  -8.6078025  38.7215174
  39.4882825  -7.7382614  38.4976389  39.2245114  -8.9241741  39.4009204
  36.3131020   3.5934521  38.1211087  36.0131743   4.4959560  38.0126894
  35.9682079   3.3266704  38.9732239  39.7128164  -3.8882939  35.8008524
  38.8045041  -3.9567530  35.5067285  39.6615759  -3.4110994  36.6290349
  31.2951800  10.3578841  31.0882054  31.2175829  11.3086666  31.1670535
  30.6913443  10.0124714  31.7456981  33.7869029  -2.4693293  43.7443421
  33.0102363  -1.9099373  43.7346286  34.4259592  -1.9836510  44.2658291
  41.5789810  -5.6866501  37.5786398  40.9364190  -5.3933967  36.9326192
  41.0744738  -5.8013580  38.3839594  32.0415402   0.3392160  43.3061388
  32.7830086   0.8777204  43.0296212  31.3352387   0.9658449  43.4632940
  37.5170741   2.4821301  41.9033550  37.9254097   2.0403711  41.1588182
  36.7948003   1.9073928  42.1567743  33.8701811  -2.5806093  39.2767107
  34.7163006  -2.1566679  39.4201756  33.8100449  -3.2372468  39.9705670
  37.8399556   3.0422491  35.6585838  37.2108418   3.2068205  34.9561906
  37.4525218   3.4564101  36.4296803  41.7188788   3.9776929  33.0130202
  41.0339826   4.3575830  32.4627236  41.8032637   4.5872256  33.7462150
  37.0201257  -4.9201724  40.9348280  36.7762189  -4.1659664  40.3982556
  37.2961187  -4.5416377  41.7695527  38.9739719   1.6236888  39.6125546
  39.1856615   2.2668648  38.9359927  38.9269468   0.7899205  39.1447476
  33.3927518   2.7796899  32.9235924  33.8565863   3.0584602  32.1340546
  33.1284316   1.8780344  32.7409014  30.2851599   2.3268381  35.8615687
  30.8552956   2.7555649  35.2233171  30.8759711   2.0450965  36.5599873
  30.7776765  -2.5068192  44.1076698  30.1475426  -1.8251911  44.3412095
  30.6712853  -2.6185110  43.1629836  40.0885547   4.5008843  37.7847903
  40.9102991   4.0989031  37.5030585  40.0847950   4.3977078  38.7364019
  33.8542151   4.0492887  39.9408614  33.9186583   4.5113294  40.7766785
  33.1453075   3.4190252  40.0690923  48.1791540   0.8447592  34.1332875
  47.4255249   0.2754990  33.9776879  48.3139082   0.8110256  35.0803509
  28.8314451   6.3502189  32.4638272  29.0081079   7.2720153  32.2759256
  29.6271284   6.0360608  32.8932652  35.1958645   6.3384561  43.9387936
  34.7522499   5.5520939  43.6208841  35.8575858   6.5263711  43.2731827
  29.9545766   7.8680362  38.4648615  30.5053191   7.7397426  37.6925608
  29.1157242   8.1675251  38.1143507  37.2939883   6.6187361  41.9669337
  37.2758358   7.4396242  41.4749606  38.2159803   6.4941436  42.1919478
  33.7512937   4.1331490  42.8092846  34.2841274   3.3719778  42.5792154
  33.2227018   3.8405142  43.5517000  40.0958496   1.4566503  35.4378704
  39.4382170   2.1465764  35.5258833  40.8998895   1.8462935  35.7812690
  38.9063955  -0.1889124  33.4882646  39.4195836   0.4440868  33.9904355
  39.5565178  -0.7887929  33.1226006  35.3844785  -2.7139669  35.7340986
  34.4667347  -2.4924722  35.5762674  35.8004929  -2.6393358  34.8752694
  39.6725751   4.7916877  31.6161788  39.2188078   3.9507787  31.6726979
  39.0419717   5.4278276  31.9536569  38.1158690   6.6293374  32.5511607
  38.4081664   7.1898431  31.8323972  38.6257311   6.9221935  33.3064766
  33.0792315   7.4073725  33.6405060  33.0368494   7.6334571  32.7113592
  33.9955014   7.1737100  33.7890861  36.5257949  -2.1242207  40.5385689
  36.8807337  -1.8970734  41.3980155  37.1730080  -1.7923831  39.9162944
  42.2555686   0.9976228  31.2435018  42.1173585   1.1877824  30.3156207
  41.8991905   1.7595611  31.7003069  42.2825066   3.0652755  36.2546289
  42.7161572   2.9728045  37.1029343  42.9956646   3.0410256  35.6166305
  31.1958116   4.2836754  33.4367022  31.9898714   3.7887074  33.2349597
  30.4849808   3.7554617  33.0734728  36.0152960   6.6654850  37.7879390
  36.0689983   7.2345786  38.5557106  35.1467742   6.8356735  37.4233427
  43.1440615   3.1076456  38.7879175  43.3376505   4.0122267  39.0338450
  43.0441233   2.6483875  39.6217760  38.2055724   3.2583199  44.3620055
  38.0541230   3.0293751  43.4450139  38.1960403   4.2153800  44.3751400
  34.9741060   0.8315112  39.3466322  35.9033120   0.9826271  39.1735289
  34.5532090   0.9199132  38.4914968  33.7729392   4.8565776  37.1164860
  33.6340478   4.4884560  37.9890798  32.9843988   5.3713415  36.9448817
  34.3677544   9.9574872  28.4590396  34.5429300   9.4862916  29.2736019
  33.6810332  10.5840639  28.6871657  35.3234607   4.2347379  34.5053697
  34.9884440   4.1948149  35.4011347  34.8238553   3.5692095  34.0324108
  29.2978851  -0.3584991  40.0306278  29.1598649  -1.0904752  40.6317818
  30.2083775  -0.4476091  39.7490466  31.9261152  -0.6465032  39.5189958
  32.6360770  -1.2871840  39.4776577  31.8830460  -0.3952137  40.4416139
  39.9147930   6.2902321  42.4396537  39.8560477   5.6061542  41.7727120
  40.3167449   7.0321311  41.9877163  28.9338629  13.1064235  35.2330256
  29.1735227  13.7382759  35.9109275  28.0907826  12.7552275  35.5195615
  39.9165338   4.2541905  40.6710517  39.0292116   3.9167827  40.7936916
  40.4863889   3.5224937  40.9079282  33.4466491   8.9143358  37.6371760
  33.3736663   9.7198329  38.1491065  33.0043884   9.1135324  36.8119782
  33.2356271   8.1515128  31.1474582  32.4523793   8.6936808  31.2412806
  33.9349016   8.6689107  31.5468823  44.3982678  -0.3349877  35.4327079
  44.3872554   0.5474838  35.0621012  43.5300058  -0.6878326  35.2381616
  35.9065175   8.8130192  39.7929919  36.6193147   9.4477657  39.7205820
  35.4155203   8.9094058  38.9769921  37.6282702   2.7181444  31.3647211
  36.6938980   2.8382907  31.1951915  37.8059370   1.8153911  31.1007220
  41.0155253  -1.4401236  31.8997245  41.4815705  -0.6073245  31.8257547
  41.4662753  -1.9056255  32.6042503  30.9577088   6.5624635  40.6135490
  31.6586548   7.1961118  40.7664884  30.4872203   6.9039367  39.8531129
  38.7578374  -0.8830757  38.4388040  38.1049824  -0.6354850  37.7840493
  39.1358754  -1.6966619  38.1050517  35.7185548   9.1528936  32.5416210
  35.9007943   8.3350592  33.0043963  36.5418534   9.3696628  32.1041100
  36.0527714   8.0797121  29.8031259  36.5815480   7.5689576  29.1901421
  36.3155933   7.7639651  30.6676792  34.8065947  -0.1410946  44.9254077
  34.1306584  -0.2416817  45.5956452  35.6293581  -0.2971733  45.3890074
  26.5544806   6.0960990  37.5466592  27.1398243   5.3504678  37.6794497
  26.3569645   6.4064947  38.4303256  29.4083461   9.1312238  32.5629035
  28.7393837   9.6158365  32.0793075  29.2696331   9.3781458  33.4772413
  33.5488730  11.1655981  39.1611693  34.1007038  11.3287603  39.9260778
  33.8894923  11.7560419  38.4891718  38.3999604   5.9917239  45.0160348
  38.9439508   6.6047197  44.5215302  37.8186449   6.5496817  45.5327361
  36.6857117   9.1137957  36.1475375  36.5608257   8.3127697  35.6386321
  37.3436208   9.6084150  35.6589345  38.7492026   6.9146977  37.7754925
  37.8022361   6.7952328  37.7033252  39.0974799   6.0269475  37.8581187
  35.7538459   6.7099693  33.9759278  35.6063421   5.7816400  34.1566848
  36.5791952   6.7319784  33.4916353  39.3572581   7.5328252  35.0624150
  40.2819128   7.3271113  34.9248601  39.1887884   7.2844653  35.9713492
  39.1467897   8.0513919  30.4186242  39.3204775   7.4860342  29.6660094
  39.6396788   8.8514814  30.2365732  45.0007288   0.8150342  32.0376542
  45.4438434   0.0657667  31.6395665  44.1233799   0.8060478  31.6550274
  40.1343070   7.3680684  27.5183140  40.8293974   7.9887376  27.7370455
  40.4766220   6.5176035  27.7935518  42.0334493   4.8180389  29.0470471
  42.5585817   5.1567662  28.3219791  41.9456845   3.8827404  28.8633605
  33.6954541   8.7314463  41.1760347  34.0041668   8.4863610  42.0483047
  34.4930023   8.9361101  40.6879218  33.7175153  10.8852372  33.4065724
  33.2780144  10.3928751  34.0998581  34.4683270  10.3425340  33.1657799
  26.1967492   7.0763913  33.4090352  27.0225512   6.7767685  33.0288996
  25.8461544   6.3071536  33.8580141  31.1649026   6.4290381  35.4788026
  30.5429035   5.7661086  35.1790254  31.8353892   6.4551513  34.7961673
  41.7228399   5.4513293  44.3521669  40.9323942   5.4337432  43.8126168
  41.4861753   5.9901586  45.1070705  41.8426274   2.3005759  41.6654397
  41.8924279   2.1355767  42.6069920  41.7340197   1.4333018  41.2752278
  39.1330036  -1.7163313  42.9813704  40.0339899  -1.8556848  42.6897702
  39.2078011  -1.5508858  43.9211881  33.4672841  -4.3396458  41.8266890
  32.5976151  -4.0462892  41.5549479  33.7032322  -3.7556013  42.5474154
  43.3444471   4.7202701  41.9096419  43.0529279   5.0832681  42.7459880
  42.7316602   4.0069709  41.7309751  44.5440153   2.2855580  34.4298989
  45.3787044   2.7245384  34.5936549  44.6799282   1.8094234  33.6107235
  41.5931659  -0.1564685  40.3776477  42.0685780   0.0362962  39.5695328
  40.6697224  -0.1005499  40.1319861  40.2933328  -3.2798925  38.6104782
  41.2450751  -3.1800827  38.6317007  40.1236778  -4.0720656  39.1202867
  38.3147707  -6.1943341  38.7964183  37.7197639  -5.9138329  38.1010672
  38.0297404  -5.7049441  39.5680924  42.7721406  -0.0592805  37.7247082
  42.7397726  -0.9976804  37.9106766  43.3822029   0.0191232  36.9912907
  42.9215894  -3.2681762  37.7705365  42.4054943  -4.0523305  37.5835294
  43.8055843  -3.5963045  37.9351885  48.5897955   1.0023202  36.8653119
  49.3201344   0.7408490  37.4260822  47.9804901   0.2651924  36.9055187
  46.6713253  -0.8568936  37.4627570  45.9446416  -0.9912971  36.8544062
  46.2560539  -0.5492107  38.2684288  34.4943429   2.8620994  45.2274943
  35.4146438   3.0399593  45.4214990  34.4593012   1.9177039  45.0754642
  27.4905502   0.7722029  37.8697724  27.7091511   1.7039137  37.8885758
  27.9031275   0.4130003  38.6552528  32.3633367  -3.6544765  47.2600473
  32.2630094  -2.7050408  47.1912564  32.1454909  -3.9826527  46.3876543
  32.2264637  -0.2247627  46.0765535  31.7431719   0.5752734  46.2829424
  32.3125576  -0.2139682  45.1232979  28.1537974   3.6656908  38.1133969
  29.1081228   3.6340850  38.0463900  27.9550498   3.2047532  38.9284195
  28.7437357   2.2358024  40.6804766  29.5630246   2.7302103  40.7039604
  29.0174164   1.3189992  40.6522334  41.8518489  -5.3484703  33.7587061
  42.6278879  -4.8588250  34.0311678  41.1266623  -4.9226648  34.2158931
  44.2891048  -4.6357083  34.8161002  44.8835538  -4.8761347  34.1054310
  44.3617631  -5.3549953  35.4434538  26.5088203   9.2076528  35.1304167
  26.3742671   8.4476928  34.5642165  26.0920265   9.9317427  34.6632955
  46.5962120  -1.3290883  33.5904423  46.0361678  -1.2597693  34.3635985
  45.9905624  -1.5049898  32.8703919  29.6657329  10.1045845  35.3422609
  29.5489713  11.0491277  35.2401299  28.8449775   9.8019406  35.7308408
  36.5225663   3.6377005  46.8789104  37.3916823   3.8117658  46.5175739
  36.0432414   4.4571422  46.7564833  30.6911843  10.7574106  38.5578538
  31.5939090  10.7897717  38.8745033  30.4649213   9.8274557  38.5724873
  32.4465445   9.5105093  35.2188616  31.4961076   9.5106955  35.1052989
  32.7497931   8.7637828  34.7024651  48.1818139  15.3465631  36.2834379
  48.8196549  15.2272379  35.5797719  48.0638982  16.2946475  36.3422331
  44.9907845  15.2993060  36.2195903  44.6526357  15.1834124  35.3316438
  45.8597613  14.8984225  36.1996909  40.8494661  17.1528536  32.2092794
  40.2859526  17.0618473  31.4409082  40.7347056  16.3328440  32.6895287
  45.4727628  16.4527911  42.1782109  45.4616269  16.0580710  41.3062613
  45.6348267  15.7193984  42.7715880  38.3959093  18.6479728  35.0477015
  39.1880385  18.3070552  34.6323314  38.6355743  18.7574703  35.9679168
  46.4294219  20.8199504  27.5207259  45.7782199  21.4053584  27.1341273
  47.2238582  21.3505699  27.5802297  40.3549847  17.9088641  27.9194394
  41.1280723  17.3617628  27.7807269  40.7075245  18.7732890  28.1308855
  42.1934889  19.2365023  41.1261293  41.9024755  20.1410654  41.0107959
  42.8291873  19.2781551  41.8405362  43.1191096  16.6141872  37.7162652
  43.7154668  16.3897894  37.0019615  43.1766068  15.8726617  38.3188100
  42.6916124  14.0681307  25.5512843  42.9441645  13.5462828  24.7896306
  41.7540683  13.9047452  25.6539527  47.7359407  13.0717085  33.3587587
  48.5222496  12.6536508  33.0078004  47.9998112  13.9763177  33.5269235
  47.9069485  18.5089936  28.0576243  47.2715318  18.5824562  28.7697148
  47.5766891  19.0983534  27.3795323  53.1367834  13.0092318  34.2620565
  53.8693006  12.4391535  34.4958395  52.3807190  12.6213919  34.7027071
  42.4112413  15.9709413  27.7537218  42.2948671  15.2954316  28.4218303
  42.5214673  15.4841787  26.9369371  44.7543954  15.4319560  31.4583908
  44.3902161  14.9050181  32.1696829  45.6111070  15.0418029  31.2850393
  50.6593255   6.7213893  38.7215174  50.3276579   7.5909304  38.4976389
  50.0638868   6.4050177  39.4009204  44.3949441  10.4609460  26.4545256
  44.5623843  11.3289696  26.8215727  44.2046610  10.6236741  25.5306545
  47.1524774  18.9226439  38.1211087  46.8525497  19.8251477  38.0126894
  46.8075834  18.6558622  38.9732239  40.6037256  15.3740235  34.1547791
  39.6787752  15.2416450  34.3625483  40.8521669  16.1534455  34.6517733
  50.5521918  11.4408979  35.8008524  49.6438795  11.3724387  35.5067285
  50.5009514  11.9180924  36.6290349  44.3738662  12.9167117  27.4391923
  44.2538287  13.3624168  28.2777403  43.6791250  13.2652435  26.8805461
  37.9646067  15.0173509  34.9891580  38.0938448  15.2707988  35.9030992
  37.2843518  15.6101217  34.6696235  42.1345554  25.6870759  31.0882054
  42.0569584  26.6378584  31.1670535  41.5307198  25.3416631  31.7456981
  44.6262784  12.8598624  43.7443421  43.8496118  13.4192544  43.7346286
  45.2653347  13.3455407  44.2658291  52.4183564   9.6425417  37.5786398
  51.7757945   9.9357950  36.9326192  51.9138493   9.5278338  38.3839594
  50.0723728  13.3888590  28.2672257  50.9841584  13.6215977  28.0919955
  49.5633375  13.9725635  27.7047336  42.8809156  15.6684078  43.3061388
  43.6223840  16.2069122  43.0296212  42.1746142  16.2950366  43.4632940
  48.3564496  17.8113218  41.9033550  48.7647852  17.3695629  41.1588182
  47.6341757  17.2365846  42.1567743  44.7095566  12.7485825  39.2767107
  45.5556761  13.1725239  39.4201756  44.6494203  12.0919449  39.9705670
  48.6793310  18.3714409  35.6585838  48.0502173  18.5360123  34.9561906
  48.2918972  18.7856018  36.4296803  52.5582542  19.3068847  33.0130202
  51.8733580  19.6867748  32.4627236  52.6426392  19.9164173  33.7462150
  47.8595011  10.4090193  40.9348280  47.6155943  11.1632254  40.3982556
  48.1354942  10.7875541  41.7695527  49.8133474  16.9528806  39.6125546
  50.0250369  17.5960566  38.9359927  49.7663222  16.1191122  39.1447476
  47.4159703   9.5646626  36.5162118  46.5544182   9.8627880  36.8078855
  47.4422137   9.7817025  35.5843151  44.2321272  18.1088817  32.9235924
  44.6959618  18.3876520  32.1340546  43.9678070  17.2072261  32.7409014
  41.1245353  17.6560298  35.8615687  41.6946710  18.0847567  35.2233171
  41.7153465  17.3742883  36.5599873  43.1690158  14.2311969  29.7325489
  43.8714202  14.6833013  30.1999415  42.8370787  13.5895788  30.3605382
  41.6170520  12.8223726  44.1076698  40.9869180  13.5040007  44.3412095
  41.5106608  12.7106808  43.1629836  36.9115492  12.4895522  35.0342622
  36.1214546  12.7453050  34.5582733  37.4026740  13.3043860  35.1394663
  50.9279302  19.8300761  37.7847903  51.7496746  19.4280948  37.5030585
  50.9241705  19.7268995  38.7364019  38.8630238  12.8540101  31.9926099
  38.0661401  12.9658795  32.5109595  38.6355830  13.1926753  31.1266990
  44.6935905  19.3784804  39.9408614  44.7580338  19.8405212  40.7766785
  43.9846829  18.7482169  40.0690923  35.1953195  12.7426012  37.4657613
  35.4461234  13.6273022  37.7315189  35.7312744  12.5630614  36.6932705
  59.0185295  16.1739510  34.1332875  58.2649003  15.6046908  33.9776879
  59.1532836  16.1402174  35.0803509  44.4083923  21.0452912  29.8087594
  44.2729598  21.8904448  30.2372442  44.9493735  21.2472190  29.0453528
  40.8951263   7.1244492  46.4701949  40.5018208   6.5710690  47.1449593
  41.7117403   7.4355070  46.8608467  37.8613320  18.5628350  30.3815519
  38.3737841  19.3571600  30.5321084  38.5136033  17.8654640  30.3149120
  39.6708205  21.6794106  32.4638272  39.8474833  22.6012071  32.2759256
  40.4665039  21.3652525  32.8932652  43.8119224   8.5402371  44.0622206
  44.5528937   9.1409524  43.9826668  44.0437146   7.7980009  43.5040248
  38.9560562  13.7258738  42.3400435  38.8414077  12.8243995  42.6407534
  38.1005079  13.9722435  41.9885252  46.0352399  21.6676478  43.9387936
  45.5916254  20.8812857  43.6208841  46.6969613  21.8555629  43.2731827
  40.7939520  23.1972280  38.4648615  41.3446946  23.0689343  37.6925608
  39.9550996  23.4967169  38.1143507  48.1333637  21.9479278  41.9669337
  48.1152113  22.7688159  41.4749606  49.0553557  21.8233354  42.1919478
  44.5906692  19.4623408  42.8092846  45.1235028  18.7011696  42.5792154
  44.0620773  19.1697060  43.5517000  47.7576387   4.5683474  38.3386487
  47.4140656   5.4585115  38.2625598  48.1255349   4.3785131  37.4756072
  35.8262237  16.8917004  31.1575090  36.6637459  17.3014013  30.9408797
  36.0040505  15.9516446  31.1275283  47.7226669  14.5592085  26.8458923
  47.2073293  15.3296690  27.0847310  47.4503978  13.8857221  27.4691984
  45.3073780   9.4041786  31.9044161  44.4515377   9.0148636  31.7249800
  45.7200732   9.4833746  31.0443946  46.8372927   6.9388129  36.3035721
  46.3337722   6.9018264  35.4903526  47.1303534   7.8480872  36.3632377
  43.0815813   7.0226859  35.3101902  43.9468810   6.8269667  34.9507792
  43.1493322   6.7937210  36.2371259  52.6960943  17.3124440  28.7812096
  51.9190386  16.9735599  28.3367258  53.3752424  17.3177063  28.1067061
  47.5112972  12.4319177  28.6718704  47.2063108  12.7465326  29.5228847
  48.4643415  12.5100597  28.7146037  45.9559404  18.5909400  30.3211658
  45.4280766  17.8562160  30.0084895  45.4546907  19.3684077  30.0751626
  50.9352250  16.7858421  35.4378704  50.2775925  17.4757682  35.5258833
  51.7392649  17.1754853  35.7812690  40.6878132   9.2529067  32.6818269
  41.2621884   9.0304248  31.9491462  41.2749114   9.3217761  33.4346871
  49.7457709  15.1402793  33.4882646  50.2589591  15.7732785  33.9904355
  50.3958933  14.5403989  33.1226006  41.0147719  11.2833528  26.7014154
  40.1785031  11.6208214  27.0223429  40.8752489  11.1482507  25.7641291
  42.9900800   6.1270315  31.4093339  42.3365212   5.8119333  30.7849953
  42.9481274   5.5046056  32.1353162  44.1012004  16.4089611  23.3246631
  43.1939066  16.1778864  23.5237780  44.5983036  15.6127230  23.5120612
  47.0080083  25.1187118  26.2443317  46.3341782  25.4218814  26.8528275
  47.3945905  25.9216198  25.8948774  46.2238540  12.6152249  35.7340986
  45.3061101  12.8367196  35.5762674  46.6398684  12.6898559  34.8752694
  47.0073588  14.0143665  30.8643667  47.7545407  14.5265062  30.5550789
  47.2765177  13.6927717  31.7248060  45.2800238  16.5102205  27.8470621
  44.3711457  16.2261238  27.9443091  45.3095322  16.9301284  26.9873928
  50.5119505  20.1208795  31.6161788  50.0581832  19.2799705  31.6726979
  49.8813472  20.7570193  31.9536569  49.4552425  11.0500781  32.8462456
  48.7175182  10.5378167  33.1772698  49.7079198  10.6101163  32.0345733
  48.9552445  21.9585292  32.5511607  49.2475419  22.5190349  31.8323972
  49.4651065  22.2513853  33.3064766  49.5564052   3.8277033  33.4404225
  49.8622929   2.9674396  33.1530140  50.2816657   4.4194653  33.2403219
  35.8488408  14.2307720  31.8285823  35.6512808  13.6377080  31.1036890
  35.2935072  13.9259930  32.5461762  43.8285132  14.1230826  33.9480416
  43.8833742  13.1704662  33.8722893  43.0176334  14.2790265  34.4321715
  44.9776326  18.0510949  25.1858699  44.5395756  17.3346808  24.7264337
  45.7186767  18.2787064  24.6243791  41.7677492  12.7407886  31.7070795
  40.9545357  13.0402056  32.1135987  42.2636486  12.3463575  32.4245277
  43.9186070  22.7365643  33.6405060  43.8762249  22.9626489  32.7113592
  44.8348769  22.5029017  33.7890861  47.3651704  13.2049710  40.5385689
  47.7201091  13.4321183  41.3980155  48.0123835  13.5368087  39.9162944
  53.0949440  16.3268146  31.2435018  52.9567339  16.5169742  30.3156207
  52.7385659  17.0887529  31.7003069  41.2591567  10.3126241  37.3232030
  41.8990946  10.1715000  36.6254993  40.4269097  10.0260755  36.9470632
  53.1218820  18.3944673  36.2546289  53.5555327  18.3019962  37.1029343
  53.8350401  18.3702174  35.6166305  42.0351870  19.6128672  33.4367022
  42.8292469  19.1178992  33.2349597  41.3243563  19.0846535  33.0734728
  46.8546715  21.9946767  37.7879390  46.9083737  22.5637704  38.5557106
  45.9861496  22.1648652  37.4233427  38.3434634  13.7571753  29.5126775
  37.4132222  13.6956209  29.7296737  38.4392106  13.2347706  28.7163416
  38.2620183  10.2826566  32.1005017  38.5227000  11.1971900  31.9914177
  39.0837355   9.8151009  32.2501630  39.7345108  11.6964323  39.2703841
  40.4068162  11.4881686  38.6216490  38.9074895  11.4986409  38.8309074
  53.9834370  18.4368374  38.7879175  54.1770260  19.3414184  39.0338450
  53.8834988  17.9775793  39.6217760  45.6370680   8.3226264  41.2869502
  44.9898595   9.0216214  41.1933979  46.4071696   8.7562408  41.6545750
  49.0449478  18.5875117  44.3620055  48.8934985  18.3585668  43.4450139
  49.0354158  19.5445718  44.3751400  45.8134815  16.1607029  39.3466322
  46.7426875  16.3118189  39.1735289  45.3925845  16.2491050  38.4914968
  44.6123146  20.1857694  37.1164860  44.4734232  19.8176478  37.9890798
  43.8237743  20.7005333  36.9448817  45.2071298  25.2866790  28.4590396
  45.3823054  24.8154833  29.2736019  44.5204086  25.9132556  28.6871657
  46.1628362  19.5639296  34.5053697  45.8278194  19.5240066  35.4011347
  45.6632307  18.8984012  34.0324108  40.1372606  14.9706926  40.0306278
  39.9992404  14.2387165  40.6317818  41.0477529  14.8815827  39.7490466
  49.0987553  16.9095331  24.7790757  48.4816724  16.1842159  24.6823810
  48.6304042  17.6704691  24.4357831  42.7654906  14.6826886  39.5189958
  43.4754525  14.0420078  39.4776577  42.7224214  14.9339781  40.4416139
  50.7541685  21.6194239  42.4396537  50.6954231  20.9353459  41.7727120
  51.1561203  22.3613229  41.9877163  41.4783840  11.6692104  41.3385598
  40.9421197  11.2182842  41.9907194  40.8900549  11.8038012  40.5956062
  39.7732384  28.4356153  35.2330256  40.0128982  29.0674677  35.9109275
  38.9301580  28.0844193  35.5195615  50.7559092  19.5833823  40.6710517
  49.8685871  19.2459745  40.7936916  51.3257643  18.8516854  40.9079282
  32.4088239  15.9157915  33.9953568  33.0959279  15.6019645  33.4074584
  32.2536368  16.8199279  33.7220820  37.2122961  10.8048111  38.4238592
  37.1281150  10.1973781  37.6889002  36.3905668  11.2957130  38.4248088
  44.2860246  24.2435275  37.6371760  44.2130417  25.0490247  38.1491065
  43.8437639  24.4427241  36.8119782  44.0750025  23.4807045  31.1474582
  43.2917547  24.0228726  31.2412806  44.7742770  23.9981025  31.5468823
  47.3846675   9.2901675  33.7908787  47.8815375   8.5371637  33.4709857
  46.6133657   9.3265992  33.2251996  55.2376433  14.9942040  35.4327079
  55.2266309  15.8766756  35.0621012  54.3693812  14.6413591  35.2381616
  46.7458929  24.1422109  39.7929919  47.4586901  24.7769574  39.7205820
  46.2548958  24.2385975  38.9769921  48.4676456  18.0473362  31.3647211
  47.5332735  18.1674825  31.1951915  48.6453124  17.1445829  31.1007220
  43.9681644  11.4319058  33.5180472  43.5979432  10.8790098  34.2061377
  44.4640737  10.8277191  32.9655472  51.8549007  13.8890681  31.8997245
  52.3209460  14.7218673  31.8257547  52.3056508  13.4235663  32.6042503
  41.7970843  21.8916553  40.6135490  42.4980302  22.5253036  40.7664884
  41.3265958  22.2331284  39.8531129  49.9225238  20.2334503  28.8983397
  50.1985082  20.1191097  29.8077271  49.0529737  19.8351988  28.8595570
  49.8265670   6.2571268  35.9388146  48.9128750   6.4875495  36.1070353
  50.2558772   6.3409712  36.7902178  49.5972129  14.4461160  38.4388040
  48.9443579  14.6937068  37.7840493  49.9752509  13.6325299  38.1050517
  46.5579302  24.4820854  32.5416210  46.7401697  23.6642509  33.0043963
  47.3812289  24.6988546  32.1041100  46.8921468  23.4089039  29.8031259
  47.4209234  22.8981493  29.1901421  47.1549688  23.0931569  30.6676792
  45.6459702  15.1880971  44.9254077  44.9700339  15.0875101  45.5956452
  46.4687336  15.0320185  45.3890074  37.3938561  21.4252908  37.5466592
  37.9791998  20.6796596  37.6794497  37.1963399  21.7356865  38.4303256
  40.2477216  24.4604155  32.5629035  39.5787591  24.9450283  32.0793075
  40.1090086  24.7073376  33.4772413  31.9856215  13.9958508  36.2671036
  32.0240315  13.4622099  37.0608154  31.4796508  13.4693714  35.6482013
  44.3882485  26.4947899  39.1611693  44.9400793  26.6579520  39.9260778
  44.7288678  27.0852337  38.4891718  39.3646978   8.8423049  39.7633578
  39.4288304   9.7037880  39.3510976  39.3014098   8.2297050  39.0305936
  38.8399250  10.9146181  43.4106612  39.4671289  10.5323258  44.0244136
  37.9827169  10.6960383  43.7762305  49.2393359  21.3209156  45.0160348
  49.7833263  21.9339115  44.5215302  48.6580204  21.8788735  45.5327361
  35.6164793  12.7222610  29.3424967  35.9118234  11.8133289  29.2892021
  34.7152829  12.7010350  29.0205969  47.5250872  24.4429874  36.1475375
  47.4002011  23.6419614  35.6386321  48.1829963  24.9376068  35.6589345
  39.1459040  10.7978607  35.3252516  38.4245626  11.4114575  35.1859989
  39.9352296  11.3336372  35.2469161  49.5885780  22.2438894  37.7754925
  48.6416116  22.1244246  37.7033252  49.9368553  21.3561392  37.8581187
  41.9485354   8.1333033  41.5993167  42.4719755   8.3795330  42.3619477
  41.7297687   8.9653068  41.1796305  37.3452635  10.4036708  29.4664292
  37.0165341   9.5234087  29.2839398  37.6992005  10.3484377  30.3540681
  46.5932213  22.0391611  33.9759278  46.4457176  21.1108318  34.1566848
  47.4185707  22.0611701  33.4916353  40.4594458  10.6909678  29.8339770
  40.7990530  11.2195599  29.1118378  40.9066578  11.0290084  30.6098336
  50.1966335  22.8620169  35.0624150  51.1212883  22.6563031  34.9248601
  50.0281639  22.6136571  35.9713492  43.1537899   9.0746728  39.2842838
  42.8134719   8.2754542  39.6863518  42.4476905   9.3748439  38.7119671
  43.8054370   6.1596041  37.7370161  44.6280440   5.6856519  37.6149051
  44.0492434   6.9386525  38.2368847  42.4462605   9.1884299  28.0333063
  43.1670967   9.5665552  27.5296779  41.8227909   9.9073176  28.1368040
  46.5893728   9.8929448  28.9691395  46.8057342  10.7754086  28.6680223
  46.1087795   9.5015662  28.2397037  41.3292949  12.8515162  35.5462139
  41.1837530  13.1655465  36.4386421  40.8518153  13.4700062  34.9933038
  43.1889332   9.8417710  35.5943029  43.1750901   8.9458803  35.2575327
  43.9061760   9.8488373  36.2281315  45.0415463  10.2755050  37.6396156
  44.7833241  11.1972120  37.6380487  44.5100503   9.8785484  38.3296621
  49.9861652  23.3805837  30.4186242  50.1598529  22.8152259  29.6660094
  50.4790543  24.1806732  30.2365732  35.8038611  15.3920506  38.4849801
  35.2592079  16.1680314  38.6170075  36.6817961  15.7391310  38.3268922
  42.5926228   8.7232090  30.8630599  42.7142139   7.7948736  31.0621487
  42.3028270   8.7370776  29.9508915  45.4617418   6.4087000  33.9997319
  45.4839115   6.4726333  33.0449299  45.8785477   5.5691509  34.1937825
  55.8401043  16.1442260  32.0376542  56.2832189  15.3949585  31.6395665
  54.9627553  16.1352396  31.6550274  50.9736824  22.6972601  27.5183140
  51.6687729  23.3179294  27.7370455  51.3159974  21.8467952  27.7935518
  36.5904633  14.5190402  41.3779957  35.8486369  14.6673038  41.9644588
  36.2697377  14.7798668  40.5146707  52.8728247  20.1472307  29.0470471
  53.3979571  20.4859580  28.3219791  52.7850600  19.2119322  28.8633605
  44.5348296  24.0606380  41.1760347  44.8435422  23.8155527  42.0483047
  45.3323778  24.2653019  40.6879218  44.5568908  26.2144290  33.4065724
  44.1173898  25.7220669  34.0998581  45.3077025  25.6717258  33.1657799
  37.0361247  22.4055831  33.4090352  37.8619267  22.1059603  33.0288996
  36.6855299  21.6363453  33.8580141  42.0042780  21.7582299  35.4788026
  41.3822789  21.0953004  35.1790254  42.6747647  21.7843431  34.7961673
  35.2369852  20.3242157  34.3679286  34.4001760  19.8964332  34.1863287
  35.2093497  20.5174601  35.3050077  42.0767308  10.2364087  45.0720532
  42.1255463  11.1126210  44.6898301  42.6189822   9.6941480  44.4992175
  52.5622153  20.7805210  44.3521669  51.7717697  20.7629349  43.8126168
  52.3255508  21.3193504  45.1070705  52.6820028  17.6297677  41.6654397
  52.7318033  17.4647684  42.6069920  52.5733952  16.7624936  41.2752278
  41.5656287  20.3086222  28.9546486  41.7144407  20.9921687  28.3013159
  42.3722730  20.2891313  29.4695942  49.9723791  13.6128605  42.9813704
  50.8733653  13.4735070  42.6897702  50.0471765  13.7783060  43.9211881
  44.3066596  10.9895460  41.8266890  43.4369905  11.2829026  41.5549479
  44.5426076  11.5735905  42.5474154  54.1838225  20.0494618  41.9096419
  53.8923033  20.4124599  42.7459880  53.5710356  19.3361627  41.7309751
  55.3833907  17.6147498  34.4298989  56.2180799  18.0537302  34.5936549
  55.5193036  17.1386151  33.6107235  52.4325413  15.1727233  40.3776477
  52.9079535  15.3654879  39.5695328  51.5090979  15.2286419  40.1319861
  39.3208920  16.3351400  29.9607555  39.0754962  15.4313730  30.1587765
  39.4904834  16.3368551  29.0187033  47.0105630   7.2075076  39.3432311
  47.5287574   7.9436103  39.0178799  46.6560763   7.5139070  40.1779070
  38.5904567  12.0679758  27.4593717  37.8973812  12.1424113  26.8033753
  38.3456319  11.3040101  27.9815234  47.2618224   3.6275359  34.8633207
  47.5419978   2.9598548  35.4893634  48.0468831   3.8204455  34.3507871
  45.0651692  22.8034353  26.4258234  44.4925660  23.4224540  25.9728706
  45.6384486  23.3533715  26.9598156  51.1327082  12.0492993  38.6104782
  52.0844505  12.1491091  38.6317007  50.9630533  11.2571262  39.1202867
  49.1541462   9.1348576  38.7964183  48.5591394   9.4153589  38.1010672
  48.8691158   9.6242477  39.5680924  48.2848952  23.0871503  27.5566816
  49.2179625  23.0217065  27.7599691  48.1972165  23.9227770  27.0981349
  50.9136969  22.4037373  24.5170764  50.8350600  22.0697237  25.4106521
  51.7346636  22.8959141  24.5162236  53.6115160  15.2699113  37.7247082
  53.5791480  14.3315113  37.9106766  54.2215784  15.3483149  36.9912907
  45.4498491  14.1395166  23.7674286  46.3957596  14.0101374  23.8362704
  45.0712736  13.4009828  24.2443714  53.7609649  12.0610156  37.7705365
  53.2448697  11.2768613  37.5835294  54.6449597  11.7328873  37.9351885
  51.4220376   5.8051172  33.7301178  51.2245197   5.4966260  34.6144510
  52.0320081   6.5312811  33.8599108  59.4291710  16.3315120  36.8653119
  60.1595098  16.0700408  37.4260822  58.8198655  15.5943841  36.9055187
  57.5107007  14.4722982  37.4627570  56.7840171  14.3378947  36.8544062
  57.0954294  14.7799811  38.2684288  45.3337184  18.1912912  45.2274943
  46.2540193  18.3691511  45.4214990  45.2986767  17.2468957  45.0754642
  43.6341408  12.0645142  23.7029171  42.7272864  11.7678255  23.7791885
  43.9117389  11.7674960  22.8363458  34.5519349  13.3851505  34.1528218
  34.2322133  12.5316814  33.8602592  34.0052777  13.6000084  34.9086185
  38.3299256  16.1013946  37.8697724  38.5485266  17.0331054  37.8885758
  38.7425030  15.7421921  38.6552528  45.2503474   6.6082032  29.8573413
  44.4404202   6.2629117  30.2328659  45.9387891   6.2989576  30.4461024
  47.1794022   5.6860079  31.4797709  47.7325061   6.1055532  32.1387732
  47.4164109   4.7595827  31.5220665  43.2027121  11.6747152  47.2600473
  43.1023848  12.6241509  47.1912564  42.9848663  11.3465391  46.3876543
  34.4207609  17.0054417  36.1221339  33.7271080  16.5908370  35.6091294
  35.1680600  17.0474953  35.5254758  50.5572829   7.7960604  30.9876374
  49.9771498   8.4545408  30.6054426  50.2908762   6.9737948  30.5763791
  49.0076396   7.1965661  33.1897694  49.5076174   7.3082196  32.3812013
  49.6512004   6.8926714  33.8298502  43.0658391  15.1044291  46.0765535
  42.5825473  15.9044651  46.2829424  43.1519330  15.1152236  45.1232979
  36.3344351  16.9372671  33.9987354  36.3115039  17.0360358  33.0469237
  36.6444988  17.7837822  34.3204520  38.9931729  18.9948826  38.1133969
  39.9474982  18.9632768  38.0463900  38.7944252  18.5339450  38.9284195
  39.5831111  17.5649942  40.6804766  40.4024000  18.0594020  40.7039604
  39.8567919  16.6481910  40.6522334  49.3397707   9.9560694  30.0432722
  48.4523562  10.2410345  29.8252917  49.7551696   9.7954458  29.1959999
  52.6912243   9.9807215  33.7587061  53.4672633  10.4703668  34.0311678
  51.9660378  10.4065269  34.2158931  55.1284802  10.6934834  34.8161002
  55.7229293  10.4530570  34.1054310  55.2011386   9.9741965  35.4434538
  37.3481958  24.5368445  35.1304167  37.2136426  23.7768846  34.5642165
  36.9314020  25.2609345  34.6632955  48.4840921  19.7205369  24.1380742
  49.1876771  19.9255371  24.7538397  47.7603569  20.2882131  24.4029825
  49.3138731  15.4715230  30.2583012  49.2573932  15.9283781  29.4190644
  49.8667073  14.7105915  30.0805855  53.1243537  11.2604962  31.0833132
  52.8680471  10.8601598  31.9141339  52.4996405  11.9748756  30.9583271
  57.4355875  14.0001035  33.5904423  56.8755433  14.0694224  34.3635985
  56.8299378  13.8242020  32.8703919  40.5051084  25.4337762  35.3422609
  40.3883468  26.3783195  35.2401299  39.6843530  25.1311324  35.7308408
  50.3927618  20.1587898  26.1879202  51.2273222  19.7269096  26.0056677
  50.2311961  19.9869912  27.1156096  50.0473510  16.6620011  27.5535541
  49.9922314  16.4964283  26.6123985  49.4219566  17.3696044  27.7097731
  34.8366025  11.8988076  41.3796963  35.4824889  11.3887030  41.8684189
  34.6283176  12.6356757  41.9540389  47.3619417  18.9668923  46.8789104
  48.2310577  19.1409575  46.5175739  46.8826169  19.7863340  46.7564833
  43.3569636   6.1628120  27.1320860  43.3448306   7.1069960  27.2889130
  44.2493058   5.9798266  26.8380321  41.5305598  26.0866024  38.5578538
  42.4332844  26.1189634  38.8745033  41.3042968  25.1566475  38.5724873
  43.2859200  24.8397011  35.2188616  42.3354831  24.8398872  35.1052989
  43.5891686  24.0929745  34.7024651  47.1721755   2.7570897  31.3866796
  46.4054151   2.2029384  31.5323479  47.5832460   2.8292766  32.2480948
  39.1763516   9.0455693  45.4771978  40.0394978   8.6892498  45.6875302
  38.6028927   8.7069588  46.1647382  59.0211893  30.6757549  36.2834379
  59.6590303  30.5564296  35.5797719  58.9032736  31.6238393  36.3422331
  55.8301599  30.6284977  36.2195903  55.4920111  30.5126042  35.3316438
  56.6991368  30.2276142  36.1996909  51.6888415  32.4820454  32.2092794
  51.1253280  32.3910391  31.4409082  51.5740810  31.6620358  32.6895287
  56.3121382  31.7819829  42.1782109  56.3010023  31.3872627  41.3062613
  56.4742022  31.0485902  42.7715880  49.2352847  33.9771645  35.0477015
  50.0274139  33.6362470  34.6323314  49.4749497  34.0866620  35.9679168
  57.2687974  36.1491421  27.5207259  56.6175954  36.7345502  27.1341273
  58.0632337  36.6797616  27.5802297  51.1943601  33.2380558  27.9194394
  51.9674477  32.6909546  27.7807269  51.5469000  34.1024808  28.1308855
  53.0328644  34.5656941  41.1261293  52.7418510  35.4702572  41.0107959
  53.6685628  34.6073468  41.8405362  53.9584850  31.9433789  37.7162652
  54.5548423  31.7189812  37.0019615  54.0159822  31.2018535  38.3188100
  53.5309879  29.3973225  25.5512843  53.7835400  28.8754746  24.7896306
  52.5934438  29.2339370  25.6539527  58.5753162  28.4009003  33.3587587
  59.3616251  27.9828426  33.0078004  58.8391866  29.3055095  33.5269235
  58.7463239  33.8381853  28.0576243  58.1109072  33.9116480  28.7697148
  58.4160645  34.4275452  27.3795323  63.9761589  28.3384236  34.2620565
  64.7086761  27.7683453  34.4958395  63.2200945  27.9505837  34.7027071
  53.2506168  31.3001331  27.7537218  53.1342426  30.6246234  28.4218303
  53.3608428  30.8133704  26.9369371  55.5937709  30.7611478  31.4583908
  55.2295916  30.2342099  32.1696829  56.4504824  30.3709947  31.2850393
  55.2343196  25.7901377  26.4545256  55.4017598  26.6581614  26.8215727
  55.0440365  25.9528659  25.5306545  57.9918529  34.2518356  38.1211087
  57.6919252  35.1543395  38.0126894  57.6469588  33.9850539  38.9732239
  51.4431010  30.7032153  34.1547791  50.5181507  30.5708367  34.3625483
  51.6915423  31.4826372  34.6517733  61.3915673  26.7700896  35.8008524
  60.4832550  26.7016305  35.5067285  61.3403268  27.2472841  36.6290349
  55.2132416  28.2459035  27.4391923  55.0932042  28.6916086  28.2777403
  54.5185005  28.5944353  26.8805461  48.8039821  30.3465427  34.9891580
  48.9332202  30.5999906  35.9030992  48.1237273  30.9393135  34.6696235
  52.9739309  41.0162677  31.0882054  52.8963338  41.9670502  31.1670535
  52.3700952  40.6708549  31.7456981  55.4656538  28.1890542  43.7443421
  54.6889872  28.7484462  43.7346286  56.1047101  28.6747325  44.2658291
  60.9117483  28.7180508  28.2672257  61.8235339  28.9507895  28.0919955
  60.4027130  29.3017552  27.7047336  53.7202911  30.9975995  43.3061388
  54.4617595  31.5361039  43.0296212  53.0139896  31.6242284  43.4632940
  55.5489320  28.0777743  39.2767107  56.3950515  28.5017156  39.4201756
  55.4887958  27.4211367  39.9705670  59.5187065  33.7006326  35.6585838
  58.8895927  33.8652041  34.9561906  59.1312727  34.1147936  36.4296803
  58.2553457  24.8938544  36.5162118  57.3937936  25.1919798  36.8078855
  58.2815892  25.1108943  35.5843151  55.0715027  33.4380735  32.9235924
  55.5353372  33.7168438  32.1340546  54.8071825  32.5364179  32.7409014
  51.9639108  32.9852216  35.8615687  52.5340465  33.4139484  35.2233171
  52.5547220  32.7034801  36.5599873  54.0083913  29.5603887  29.7325489
  54.7107956  30.0124931  30.1999415  53.6764541  28.9187706  30.3605382
  52.4564274  28.1515644  44.1076698  51.8262935  28.8331924  44.3412095
  52.3500362  28.0398725  43.1629836  47.7509247  27.8187440  35.0342622
  46.9608301  28.0744968  34.5582733  48.2420494  28.6335777  35.1394663
  49.7023992  28.1832019  31.9926099  48.9055155  28.2950713  32.5109595
  49.4749584  28.5218671  31.1266990  55.5329660  34.7076722  39.9408614
  55.5974092  35.1697129  40.7766785  54.8240584  34.0774087  40.0690923
  46.0346950  28.0717930  37.4657613  46.2854988  28.9564940  37.7315189
  46.5706498  27.8922532  36.6932705  55.2477677  36.3744830  29.8087594
  55.1123352  37.2196365  30.2372442  55.7887490  36.5764107  29.0453528
  51.7345017  22.4536409  46.4701949  51.3411963  21.9002608  47.1449593
  52.5511157  22.7646988  46.8608467  48.7007075  33.8920268  30.3815519
  49.2131595  34.6863518  30.5321084  49.3529788  33.1946558  30.3149120
  50.5101960  37.0086024  32.4638272  50.6868588  37.9303989  32.2759256
  51.3058793  36.6944443  32.8932652  54.6512978  23.8694289  44.0622206
  55.3922691  24.4701442  43.9826668  54.8830901  23.1271926  43.5040248
  49.7954316  29.0550656  42.3400435  49.6807831  28.1535913  42.6407534
  48.9398834  29.3014353  41.9885252  56.8746154  36.9968396  43.9387936
  56.4310008  36.2104775  43.6208841  57.5363367  37.1847547  43.2731827
  51.6333275  38.5264198  38.4648615  52.1840700  38.3981261  37.6925608
  50.7944751  38.8259087  38.1143507  58.9727392  37.2771196  41.9669337
  58.9545867  38.0980077  41.4749606  59.8947312  37.1525271  42.1919478
  55.4300446  34.7915325  42.8092846  55.9628783  34.0303614  42.5792154
  54.9014527  34.4988977  43.5517000  58.5970141  19.8975391  38.3386487
  58.2534410  20.7877033  38.2625598  58.9649104  19.7077049  37.4756072
  46.6655992  32.2208922  31.1575090  47.5031214  32.6305930  30.9408797
  46.8434259  31.2808364  31.1275283  58.5620424  29.8884003  26.8458923
  58.0467047  30.6588607  27.0847310  58.2897732  29.2149139  27.4691984
  56.1467535  24.7333703  31.9044161  55.2909131  24.3440554  31.7249800
  56.5594487  24.8125664  31.0443946  57.6766681  22.2680047  36.3035721
  57.1731477  22.2310182  35.4903526  57.9697288  23.1772789  36.3632377
  53.9209567  22.3518776  35.3101902  54.7862564  22.1561585  34.9507792
  53.9887076  22.1229128  36.2371259  58.3506727  27.7611095  28.6718704
  58.0456862  28.0757244  29.5228847  59.3037169  27.8392515  28.7146037
  56.7953159  33.9201318  30.3211658  56.2674520  33.1854078  30.0084895
  56.2940661  34.6975994  30.0751626  51.5271886  24.5820984  32.6818269
  52.1015638  24.3596166  31.9491462  52.1142869  24.6509679  33.4346871
  51.8541473  26.6125445  26.7014154  51.0178786  26.9500132  27.0223429
  51.7146243  26.4774425  25.7641291  53.8294554  21.4562233  31.4093339
  53.1758966  21.1411250  30.7849953  53.7875028  20.8337974  32.1353162
  54.9405759  31.7381528  23.3246631  54.0332821  31.5070782  23.5237780
  55.4376791  30.9419147  23.5120612  57.8473838  40.4479035  26.2443317
  57.1735537  40.7510732  26.8528275  58.2339660  41.2508116  25.8948774
  57.0632294  27.9444167  35.7340986  56.1454856  28.1659114  35.5762674
  57.4792438  28.0190477  34.8752694  57.8467342  29.3435582  30.8643667
  58.5939161  29.8556980  30.5550789  58.1158932  29.0219635  31.7248060
  56.1193992  31.8394123  27.8470621  55.2105212  31.5553156  27.9443091
  56.1489076  32.2593202  26.9873928  60.2946179  26.3792699  32.8462456
  59.5568936  25.8670085  33.1772698  60.5472953  25.9393080  32.0345733
  59.7946199  37.2877209  32.5511607  60.0869173  37.8482266  31.8323972
  60.3044820  37.5805770  33.3064766  60.3957807  19.1568951  33.4404225
  60.7016683  18.2966314  33.1530140  61.1210411  19.7486571  33.2403219
  46.6882163  29.5599637  31.8285823  46.4906563  28.9668998  31.1036890
  46.1328827  29.2551847  32.5461762  54.6678886  29.4522744  33.9480416
  54.7227496  28.4996580  33.8722893  53.8570088  29.6082183  34.4321715
  55.8170080  33.3802867  25.1858699  55.3789510  32.6638726  24.7264337
  56.5580521  33.6078982  24.6243791  52.6071246  28.0699803  31.7070795
  51.7939112  28.3693974  32.1135987  53.1030240  27.6755492  32.4245277
  54.7579824  38.0657560  33.6405060  54.7156003  38.2918407  32.7113592
  55.6742523  37.8320935  33.7890861  58.2045458  28.5341628  40.5385689
  58.5594846  28.7613101  41.3980155  58.8517589  28.8660005  39.9162944
  52.0985321  25.6418159  37.3232030  52.7384700  25.5006918  36.6254993
  51.2662852  25.3552672  36.9470632  52.8745625  34.9420589  33.4367022
  53.6686223  34.4470910  33.2349597  52.1637317  34.4138453  33.0734728
  57.6940469  37.3238685  37.7879390  57.7477492  37.8929621  38.5557106
  56.8255251  37.4940570  37.4233427  49.1828388  29.0863671  29.5126775
  48.2525977  29.0248127  29.7296737  49.2785860  28.5639624  28.7163416
  49.1013937  25.6118484  32.1005017  49.3620755  26.5263817  31.9914177
  49.9231110  25.1442927  32.2501630  50.5738863  27.0256241  39.2703841
  51.2461916  26.8173603  38.6216490  49.7468649  26.8278327  38.8309074
  56.4764435  23.6518182  41.2869502  55.8292350  24.3508132  41.1933979
  57.2465450  24.0854326  41.6545750  59.8843233  33.9167034  44.3620055
  59.7328739  33.6877586  43.4450139  59.8747912  34.8737636  44.3751400
  56.6528569  31.4898947  39.3466322  57.5820629  31.6410107  39.1735289
  56.2319599  31.5782968  38.4914968  55.4516901  35.5149611  37.1164860
  55.3127987  35.1468396  37.9890798  54.6631497  36.0297251  36.9448817
  56.0465053  40.6158708  28.4590396  56.2216809  40.1446751  29.2736019
  55.3597841  41.2424474  28.6871657  57.0022116  34.8931214  34.5053697
  56.6671949  34.8531984  35.4011347  56.5026062  34.2275930  34.0324108
  50.9766360  30.2998844  40.0306278  50.8386158  29.5679083  40.6317818
  51.8871284  30.2107744  39.7490466  59.9381308  32.2387248  24.7790757
  59.3210478  31.5134077  24.6823810  59.4697796  32.9996609  24.4357831
  53.6048661  30.0118803  39.5189958  54.3148279  29.3711996  39.4776577
  53.5617969  30.2631698  40.4416139  61.5935439  36.9486157  42.4396537
  61.5347986  36.2645377  41.7727120  61.9954958  37.6905147  41.9877163
  52.3177595  26.9984021  41.3385598  51.7814952  26.5474760  41.9907194
  51.7294303  27.1329930  40.5956062  50.6126138  43.7648071  35.2330256
  50.8522736  44.3966595  35.9109275  49.7695335  43.4136111  35.5195615
  51.7279854  26.4572673  23.9012061  50.8509320  26.3361474  23.5374308
  52.2037607  25.6658751  23.6490950  43.2481994  31.2449832  33.9953568
  43.9353034  30.9311562  33.4074584  43.0930123  32.1491197  33.7220820
  48.0516716  26.1340029  38.4238592  47.9674905  25.5265699  37.6889002
  47.2299422  26.6249047  38.4248088  55.1254000  39.5727193  37.6371760
  55.0524172  40.3782165  38.1491065  54.6831393  39.7719159  36.8119782
  54.9143780  38.8098963  31.1474582  54.1311302  39.3520643  31.2412806
  55.6136525  39.3272943  31.5468823  58.2240430  24.6193593  33.7908787
  58.7209129  23.8663555  33.4709857  57.4527411  24.6557909  33.2251996
  57.5852684  39.4714027  39.7929919  58.2980656  40.1061492  39.7205820
  57.0942712  39.5677893  38.9769921  59.3070211  33.3765280  31.3647211
  58.3726489  33.4966742  31.1951915  59.4846879  32.4737747  31.1007220
  54.8075399  26.7610976  33.5180472  54.4373186  26.2082016  34.2061377
  55.3034491  26.1569109  32.9655472  52.6364597  37.2208471  40.6135490
  53.3374057  37.8544954  40.7664884  52.1659712  37.5623202  39.8531129
  60.6659425  21.5863186  35.9388146  59.7522504  21.8167413  36.1070353
  61.0952526  21.6701630  36.7902178  57.3973057  39.8112771  32.5416210
  57.5795452  38.9934427  33.0043963  58.2206043  40.0280463  32.1041100
  57.7315222  38.7380956  29.8031259  58.2602989  38.2273411  29.1901421
  57.9943442  38.4223487  30.6676792  56.4853456  30.5172889  44.9254077
  55.8094093  30.4167018  45.5956452  57.3081090  30.3612103  45.3890074
  48.2332315  36.7544826  37.5466592  48.8185752  36.0088514  37.6794497
  48.0357154  37.0648782  38.4303256  51.0870970  39.7896073  32.5629035
  50.4181346  40.2742201  32.0793075  50.9483840  40.0365293  33.4772413
  42.8249970  29.3250426  36.2671036  42.8634069  28.7914016  37.0608154
  42.3190263  28.7985631  35.6482013  55.2276239  41.8239817  39.1611693
  55.7794547  41.9871438  39.9260778  55.5682432  42.4144254  38.4891718
  50.2040732  24.1714966  39.7633578  50.2682059  25.0329797  39.3510976
  50.1407852  23.5588968  39.0305936  49.6793005  26.2438099  43.4106612
  50.3065044  25.8615176  44.0244136  48.8220924  26.0252301  43.7762305
  60.0787113  36.6501074  45.0160348  60.6227017  37.2631032  44.5215302
  59.4973958  37.2080652  45.5327361  46.4558548  28.0514528  29.3424967
  46.7511989  27.1425206  29.2892021  45.5546583  28.0302267  29.0205969
  58.3644626  39.7721792  36.1475375  58.2395766  38.9711532  35.6386321
  59.0223717  40.2667985  35.6589345  49.9852795  26.1270525  35.3252516
  49.2639380  26.7406492  35.1859989  50.7746050  26.6628289  35.2469161
  60.4279535  37.5730812  37.7754925  59.4809870  37.4536163  37.7033252
  60.7762308  36.6853310  37.8581187  52.7879108  23.4624951  41.5993167
  53.3113510  23.7087248  42.3619477  52.5691441  24.2944986  41.1796305
  48.1846389  25.7328626  29.4664292  47.8559095  24.8526005  29.2839398
  48.5385760  25.6776294  30.3540681  57.4325968  37.3683528  33.9759278
  57.2850930  36.4400236  34.1566848  58.2579461  37.3903619  33.4916353
  51.2988212  26.0201595  29.8339770  51.6384285  26.5487517  29.1118378
  51.7460333  26.3582002  30.6098336  53.9931653  24.4038646  39.2842838
  53.6528473  23.6046459  39.6863518  53.2870659  24.7040357  38.7119671
  54.6448125  21.4887959  37.7370161  55.4674194  21.0148437  37.6149051
  54.8886188  22.2678442  38.2368847  53.2856359  24.5176217  28.0333063
  54.0064722  24.8957470  27.5296779  52.6621664  25.2365094  28.1368040
  57.4287482  25.2221366  28.9691395  57.6451097  26.1046004  28.6680223
  56.9481549  24.8307579  28.2397037  52.1686704  28.1807079  35.5462139
  52.0231284  28.4947382  36.4386421  51.6911907  28.7991980  34.9933038
  54.0283087  25.1709627  35.5943029  54.0144655  24.2750720  35.2575327
  54.7455515  25.1780291  36.2281315  55.8809217  25.6046967  37.6396156
  55.6226995  26.5264038  37.6380487  55.3494258  25.2077402  38.3296621
  46.6432366  30.7212424  38.4849801  46.0985834  31.4972232  38.6170075
  47.5211716  31.0683228  38.3268922  53.4319982  24.0524007  30.8630599
  53.5535894  23.1240654  31.0621487  53.1422025  24.0662693  29.9508915
  56.3011173  21.7378918  33.9997319  56.3232870  21.8018251  33.0449299
  56.7179232  20.8983427  34.1937825  47.4298388  29.8482320  41.3779957
  46.6880124  29.9964955  41.9644588  47.1091132  30.1090585  40.5146707
  55.3742050  39.3898298  41.1760347  55.6829177  39.1447445  42.0483047
  56.1717532  39.5944937  40.6879218  55.3962662  41.5436208  33.4065724
  54.9567653  41.0512586  34.0998581  56.1470779  41.0009175  33.1657799
  47.8755001  37.7347749  33.4090352  48.7013021  37.4351520  33.0288996
  47.5249053  36.9655371  33.8580141  52.8436535  37.0874217  35.4788026
  52.2216544  36.4244922  35.1790254  53.5141401  37.1135349  34.7961673
  46.0763606  35.6534075  34.3679286  45.2395515  35.2256249  34.1863287
  46.0487252  35.8466518  35.3050077  52.9161062  25.5656005  45.0720532
  52.9649217  26.4418128  44.6898301  53.4583576  25.0233398  44.4992175
  52.4050041  35.6378140  28.9546486  52.5538162  36.3213605  28.3013159
  53.2116485  35.6183230  29.4695942  55.1460350  26.3187377  41.8266890
  54.2763660  26.6120943  41.5549479  55.3819831  26.9027822  42.5474154
  50.1602674  31.6643318  29.9607555  49.9148716  30.7605648  30.1587765
  50.3298589  31.6660468  29.0187033  57.8499384  22.5366994  39.3432311
  58.3681328  23.2728021  39.0178799  57.4954517  22.8430987  40.1779070
  49.4298322  27.3971675  27.4593717  48.7367567  27.4716030  26.8033753
  49.1850074  26.6332019  27.9815234  58.1011978  18.9567277  34.8633207
  58.3813732  18.2890466  35.4893634  58.8862585  19.1496372  34.3507871
  55.9045447  38.1326271  26.4258234  55.3319414  38.7516458  25.9728706
  56.4778241  38.6825632  26.9598156  59.9935216  24.4640494  38.7964183
  59.3985148  24.7445507  38.1010672  59.7084913  24.9534395  39.5680924
  59.1242707  38.4163421  27.5566816  60.0573380  38.3508982  27.7599691
  59.0365920  39.2519688  27.0981349  61.7530723  37.7329291  24.5170764
  61.6744355  37.3989155  25.4106521  62.5740390  38.2251059  24.5162236
  56.2892245  29.4687083  23.7674286  57.2351350  29.3393291  23.8362704
  55.9106490  28.7301745  24.2443714  62.2614130  21.1343089  33.7301178
  62.0638951  20.8258178  34.6144510  62.8713836  21.8604728  33.8599108
  56.1730938  33.5204829  45.2274943  57.0933947  33.6983428  45.4214990
  56.1380521  32.5760875  45.0754642  54.4735163  27.3937060  23.7029171
  53.5666618  27.0970172  23.7791885  54.7511144  27.0966878  22.8363458
  45.3913103  28.7143423  34.1528218  45.0715887  27.8608731  33.8602592
  44.8446531  28.9292001  34.9086185  49.1693011  31.4305864  37.8697724
  49.3879020  32.3622972  37.8885758  49.5818784  31.0713839  38.6552528
  56.0897228  21.9373949  29.8573413  55.2797957  21.5921034  30.2328659
  56.7781645  21.6281493  30.4461024  58.0187777  21.0151996  31.4797709
  58.5718815  21.4347450  32.1387732  58.2557863  20.0887744  31.5220665
  54.0420876  27.0039070  47.2600473  53.9417603  27.9533427  47.1912564
  53.8242418  26.6757309  46.3876543  53.2433947  24.2523995  23.8441151
  54.1053111  24.5778893  24.1036968  53.4284291  23.4655491  23.3314216
  45.2601363  32.3346335  36.1221339  44.5664834  31.9200287  35.6091294
  46.0074354  32.3766871  35.5254758  61.3966584  23.1252521  30.9876374
  60.8165253  23.7837325  30.6054426  61.1302516  22.3029866  30.5763791
  59.8470150  22.5257579  33.1897694  60.3469928  22.6374114  32.3812013
  60.4905758  22.2218632  33.8298502  53.9052146  30.4336209  46.0765535
  53.4219228  31.2336569  46.2829424  53.9913085  30.4444154  45.1232979
  47.1738106  32.2664588  33.9987354  47.1508794  32.3652276  33.0469237
  47.4838742  33.1129739  34.3204520  49.8325483  34.3240743  38.1133969
  50.7868737  34.2924686  38.0463900  49.6338007  33.8631367  38.9284195
  50.4224866  32.8941859  40.6804766  51.2417755  33.3885938  40.7039604
  50.6961673  31.9773828  40.6522334  60.1791462  25.2852612  30.0432722
  59.2917317  25.5702262  29.8252917  60.5945451  25.1246375  29.1959999
  63.5305998  25.3099133  33.7587061  64.3066388  25.7995585  34.0311678
  62.8054132  25.7357187  34.2158931  65.9678556  26.0226752  34.8161002
  66.5623047  25.7822488  34.1054310  66.0405140  25.3033883  35.4434538
  48.1875712  39.8660363  35.1304167  48.0530180  39.1060764  34.5642165
  47.7707774  40.5901263  34.6632955  59.3234675  35.0497286  24.1380742
  60.0270525  35.2547289  24.7538397  58.5997324  35.6174048  24.4029825
  60.1532485  30.8007148  30.2583012  60.0967687  31.2575699  29.4190644
  60.7060828  30.0397832  30.0805855  63.9637291  26.5896880  31.0833132
  63.7074226  26.1893515  31.9141339  63.3390159  27.3040674  30.9583271
  51.3444838  40.7629680  35.3422609  51.2277222  41.7075112  35.2401299
  50.5237284  40.4603242  35.7308408  61.2321373  35.4879816  26.1879202
  62.0666977  35.0561014  26.0056677  61.0705716  35.3161829  27.1156096
  60.8867265  31.9911929  27.5535541  60.8316069  31.8256200  26.6123985
  60.2613320  32.6987962  27.7097731  45.6759780  27.2279993  41.3796963
  46.3218643  26.7178947  41.8684189  45.4676931  27.9648675  41.9540389
  58.2013172  34.2960841  46.8789104  59.0704332  34.4701493  46.5175739
  57.7219923  35.1155258  46.7564833  54.1963390  21.4920038  27.1320860
  54.1842060  22.4361878  27.2889130  55.0886812  21.3090183  26.8380321
  52.3699352  41.4157942  38.5578538  53.2726599  41.4481552  38.8745033
  52.1436722  40.4858393  38.5724873  54.1252954  40.1688928  35.2188616
  53.1748585  40.1690790  35.1052989  54.4285440  39.4221663  34.7024651
  58.0115510  18.0862815  31.3866796  57.2447906  17.5321301  31.5323479
  58.4226215  18.1584683  32.2480948  50.0157271  24.3747610  45.4771978
  50.8788732  24.0184415  45.6875302  49.4422681  24.0361505  46.1647382
  68.1081728  51.4783339  27.5207259  67.4569708  52.0637419  27.1341273
  68.9026091  52.0089534  27.5802297  62.0337356  48.5672476  27.9194394
  62.8068232  48.0201463  27.7807269  62.3862754  49.4316725  28.1308855
  64.3703633  44.7265142  25.5512843  64.6229154  44.2046664  24.7896306
  63.4328192  44.5631288  25.6539527  66.0736950  41.1193295  26.4545256
  66.2411352  41.9873531  26.8215727  65.8834119  41.2820577  25.5306545
  66.0526171  43.5750953  27.4391923  65.9325796  44.0208003  28.2777403
  65.3578759  43.9236270  26.8805461  63.8133063  56.3454594  31.0882054
  63.7357093  57.2962419  31.1670535  63.2094707  56.0000467  31.7456981
  58.5903001  43.1479357  35.0342622  57.8002055  43.4036886  34.5582733
  59.0814249  43.9627695  35.1394663  60.5417747  43.5123937  31.9926099
  59.7448910  43.6242631  32.5109595  60.3143339  43.8510589  31.1266990
  56.8740704  43.4009848  37.4657613  57.1248743  44.2856858  37.7315189
  57.4100253  43.2214449  36.6932705  66.0871432  51.7036747  29.8087594
  65.9517107  52.5488283  30.2372442  66.6281244  51.9056025  29.0453528
  59.5400829  49.2212185  30.3815519  60.0525350  50.0155436  30.5321084
  60.1923542  48.5238476  30.3149120  57.5049746  47.5500840  31.1575090
  58.3424968  47.9597848  30.9408797  57.6828014  46.6100282  31.1275283
  62.6935228  41.9417363  26.7014154  61.8572540  42.2792049  27.0223429
  62.5539998  41.8066343  25.7641291  65.7799513  47.0673446  23.3246631
  64.8726575  46.8362699  23.5237780  66.2770545  46.2711065  23.5120612
  68.6867592  55.7770953  26.2443317  68.0129291  56.0802650  26.8528275
  69.0733414  56.5800033  25.8948774  57.5275917  44.8891555  31.8285823
  57.3300317  44.2960916  31.1036890  56.9722581  44.5843765  32.5461762
  66.6563835  48.7094784  25.1858699  66.2183265  47.9930643  24.7264337
  67.3974276  48.9370899  24.6243791  63.4465001  43.3991721  31.7070795
  62.6332866  43.6985892  32.1135987  63.9423995  43.0047410  32.4245277
  60.0222143  44.4155589  29.5126775  59.0919731  44.3540044  29.7296737
  60.1179615  43.8931542  28.7163416  59.9407692  40.9410402  32.1005017
  60.2014509  41.8555735  31.9914177  60.7624864  40.4734844  32.2501630
  66.8858807  55.9450626  28.4590396  67.0610563  55.4738669  29.2736019
  66.1991595  56.5716392  28.6871657  61.4519893  59.0939988  35.2330256
  61.6916491  59.7258512  35.9109275  60.6089089  58.7428028  35.5195615
  62.5673608  41.7864590  23.9012061  61.6903074  41.6653391  23.5374308
  63.0431361  40.9950669  23.6490950  54.0875748  46.5741750  33.9953568
  54.7746788  46.2603480  33.4074584  53.9323877  47.4783115  33.7220820
  58.8910470  41.4631947  38.4238592  58.8068659  40.8557616  37.6889002
  58.0693177  41.9540965  38.4248088  65.7537534  54.1390881  31.1474582
  64.9705056  54.6812561  31.2412806  66.4530279  54.6564860  31.5468823
  61.9264725  55.1187991  32.5629035  61.2575100  55.6034118  32.0793075
  61.7877595  55.3657211  33.4772413  53.6643724  44.6542343  36.2671036
  53.7027824  44.1205934  37.0608154  53.1584017  44.1277549  35.6482013
  66.0669994  57.1531734  39.1611693  66.6188302  57.3163356  39.9260778
  66.4076187  57.7436172  38.4891718  61.0434487  39.5006884  39.7633578
  61.1075813  40.3621715  39.3510976  60.9801607  38.8880886  39.0305936
  57.2952302  43.3806446  29.3424967  57.5905743  42.4717124  29.2892021
  56.3940338  43.3594185  29.0205969  60.8246549  41.4562442  35.3252516
  60.1033135  42.0698410  35.1859989  61.6139805  41.9920207  35.2469161
  59.0240144  41.0620543  29.4664292  58.6952850  40.1817922  29.2839398
  59.3779514  41.0068212  30.3540681  62.1381967  41.3493513  29.8339770
  62.4778039  41.8779434  29.1118378  62.5854087  41.6873919  30.6098336
  64.1250114  39.8468135  28.0333063  64.8458476  40.2249387  27.5296779
  63.5015418  40.5657011  28.1368040  66.2135805  54.7190216  41.1760347
  66.5222931  54.4739363  42.0483047  67.0111287  54.9236854  40.6879218
  66.2356417  56.8728125  33.4065724  65.7961407  56.3804504  34.0998581
  66.9864534  56.3301093  33.1657799  58.7148756  53.0639666  33.4090352
  59.5406776  52.7643438  33.0288996  58.3642808  52.2947289  33.8580141
  56.9157361  50.9825993  34.3679286  56.0789269  50.5548167  34.1863287
  56.8881006  51.1758436  35.3050077  63.2443796  50.9670058  28.9546486
  63.3931916  51.6505522  28.3013159  64.0510239  50.9475148  29.4695942
  60.9996429  46.9935235  29.9607555  60.7542471  46.0897565  30.1587765
  61.1692343  46.9952386  29.0187033  60.2692076  42.7263593  27.4593717
  59.5761321  42.8007948  26.8033753  60.0243828  41.9623937  27.9815234
  66.7439201  53.4618188  26.4258234  66.1713169  54.0808375  25.9728706
  67.3171995  54.0117550  26.9598156  72.5924478  53.0621209  24.5170764
  72.5138109  52.7281072  25.4106521  73.4134145  53.5542977  24.5162236
  67.1286000  44.7979001  23.7674286  68.0745105  44.6685209  23.8362704
  66.7500245  44.0593663  24.2443714  65.3128917  42.7228977  23.7029171
  64.4060373  42.4262090  23.7791885  65.5904898  42.4258796  22.8363458
  56.2306857  44.0435341  34.1528218  55.9109642  43.1900649  33.8602592
  55.6840286  44.2583919  34.9086185  64.0827702  39.5815913  23.8441151
  64.9446866  39.9070811  24.1036968  64.2678046  38.7947409  23.3314216
  59.0269467  55.1952281  35.1304167  58.8923935  54.4352682  34.5642165
  58.6101529  55.9193180  34.6632955  70.1628430  50.3789204  24.1380742
  70.8664280  50.5839207  24.7538397  69.4391078  50.9465966  24.4029825
  62.1838593  56.0921598  35.3422609  62.0670977  57.0367030  35.2401299
  61.3631039  55.7895159  35.7308408  72.0715127  50.8171733  26.1879202
  72.9060731  50.3852932  26.0056677  71.9099470  50.6453747  27.1156096
  56.5153534  42.5571911  41.3796963  57.1612398  42.0470865  41.8684189
  56.3070685  43.2940593  41.9540389  65.0357145  36.8211956  27.1320860
  65.0235815  37.7653796  27.2889130  65.9280567  36.6382101  26.8380321
  63.2093107  56.7449860  38.5578538  64.1120353  56.7773470  38.8745033
  62.9830477  55.8150310  38.5724873  64.9646709  55.4980846  35.2188616
  64.0142340  55.4982708  35.1052989  65.2679195  54.7513581  34.7024651
  70.9140356  64.6355481  35.0477015  71.7061648  64.2946305  34.6323314
  71.1537006  64.7450456  35.9679168  72.8731110  63.8964394  27.9194394
  73.6461986  63.3493381  27.7807269  73.2256509  64.7608643  28.1308855
  75.2097388  60.0557060  25.5512843  75.4622909  59.5338581  24.7896306
  74.2721947  59.8923205  25.6539527  74.9293677  61.9585166  27.7537218
  74.8129935  61.2830069  28.4218303  75.0395936  61.4717540  26.9369371
  70.3794584  64.5504103  30.3815519  70.8919104  65.3447353  30.5321084
  71.0317297  63.8530393  30.3149120  72.1889469  67.6669859  32.4638272
  72.3656097  68.5887824  32.2759256  72.9846302  67.3528278  32.8932652
  68.3443501  62.8792757  31.1575090  69.1818723  63.2889766  30.9408797
  68.5221768  61.9392199  31.1275283  80.2407933  60.5467838  26.8458923
  79.7254556  61.3172443  27.0847310  79.9685241  59.8732974  27.4691984
  73.5328982  57.2709281  26.7014154  72.6966295  57.6083967  27.0223429
  73.3933752  57.1358260  25.7641291  76.6193268  62.3965364  23.3246631
  75.7120330  62.1654617  23.5237780  77.1164300  61.6002983  23.5120612
  79.5261347  71.1062871  26.2443317  78.8523046  71.4094568  26.8528275
  79.9127169  71.9091951  25.8948774  77.7981501  62.4977958  27.8470621
  76.8892721  62.2136991  27.9443091  77.8276585  62.9177037  26.9873928
  68.3669672  60.2183473  31.8285823  68.1694072  59.6252833  31.1036890
  67.8116336  59.9135683  32.5461762  77.4957589  64.0386702  25.1858699
  77.0577019  63.3222561  24.7264337  78.2368030  64.2662817  24.6243791
  74.5533134  65.6004425  33.4367022  75.3473732  65.1054745  33.2349597
  73.8424826  65.0722288  33.0734728  70.8615897  59.7447506  29.5126775
  69.9313486  59.6831962  29.7296737  70.9573369  59.2223459  28.7163416
  72.2913647  74.4231906  35.2330256  72.5310245  75.0550430  35.9109275
  71.4482844  74.0719946  35.5195615  73.4067363  57.1156508  23.9012061
  72.5296829  56.9945309  23.5374308  73.8825116  56.3242586  23.6490950
  64.9269503  61.9033668  33.9953568  65.6140543  61.5895398  33.4074584
  64.7717631  62.8075032  33.7220820  69.9119824  67.4128661  37.5466592
  70.4973261  66.6672349  37.6794497  69.7144663  67.7232618  38.4303256
  64.5037479  59.9834261  36.2671036  64.5421578  59.4497852  37.0608154
  63.9977772  59.4569467  35.6482013  68.1346057  58.7098363  29.3424967
  68.4299498  57.8009042  29.2892021  67.2334092  58.6886103  29.0205969
  83.4918087  68.6848354  27.5183140  84.1868992  69.3055047  27.7370455
  83.8341238  67.8343705  27.7935518  69.5542510  68.3931584  33.4090352
  70.3800530  68.0935356  33.0288996  69.2036562  67.6239206  33.8580141
  67.7551115  66.3117910  34.3679286  66.9183024  65.8840085  34.1863287
  67.7274761  66.5050354  35.3050077  74.0837550  66.2961976  28.9546486
  74.2325671  66.9797440  28.3013159  74.8903994  66.2767066  29.4695942
  71.8390183  62.3227153  29.9607555  71.5936225  61.4189483  30.1587765
  72.0086098  62.3244304  29.0187033  71.1085831  58.0555511  27.4593717
  70.4155076  58.1299866  26.8033753  70.8637583  57.2915854  27.9815234
  77.5832956  68.7910106  26.4258234  77.0106923  69.4100293  25.9728706
  78.1565750  69.3409468  26.9598156  83.4318232  68.3913126  24.5170764
  83.3531864  68.0572990  25.4106521  84.2527899  68.8834894  24.5162236
  77.9679754  60.1270919  23.7674286  78.9138859  59.9977127  23.8362704
  77.5893999  59.3885581  24.2443714  76.1522672  58.0520895  23.7029171
  75.2454127  57.7554008  23.7791885  76.4298653  57.7550713  22.8363458
  74.9221456  54.9107830  23.8441151  75.7840620  55.2362729  24.1036968
  75.1071800  54.1239326  23.3314216  66.9388872  62.9930170  36.1221339
  66.2452343  62.5784123  35.6091294  67.6861863  63.0350707  35.5254758
  68.8525615  62.9248424  33.9987354  68.8296303  63.0236111  33.0469237
  69.1626251  63.7713575  34.3204520  69.8663221  70.5244198  35.1304167
  69.7317689  69.7644599  34.5642165  69.4495283  71.2485098  34.6632955
  81.0022184  65.7081122  24.1380742  81.7058034  65.9131124  24.7538397
  80.2784833  66.2757884  24.4029825  82.9108882  66.1463651  26.1879202
  83.7454486  65.7144850  26.0056677  82.7493225  65.9745665  27.1156096
  91.5393157  76.6633302  36.2834379  92.1771567  76.5440050  35.5797719
  91.4214000  77.6114146  36.3422331  88.3482863  76.6160730  36.2195903
  88.0101374  76.5001795  35.3316438  89.2172631  76.2151895  36.1996909
  84.2069679  78.4696207  32.2092794  83.6434544  78.3786144  31.4409082
  84.0922074  77.6496111  32.6895287  88.8302646  77.7695582  42.1782109
  88.8191287  77.3748380  41.3062613  88.9923285  77.0361655  42.7715880
  81.7534111  79.9647398  35.0477015  82.5455403  79.6238223  34.6323314
  81.9930761  80.0742373  35.9679168  89.7869237  82.1367174  27.5207259
  89.1357217  82.7221255  27.1341273  90.5813600  82.6673369  27.5802297
  83.7124865  79.2256312  27.9194394  84.4855741  78.6785299  27.7807269
  84.0650263  80.0900561  28.1308855  85.5509907  80.5532694  41.1261293
  85.2599773  81.4578325  41.0107959  86.1866891  80.5949221  41.8405362
  86.4766114  77.9309542  37.7162652  87.0729686  77.7065565  37.0019615
  86.5341085  77.1894288  38.3188100  86.0491142  75.3848978  25.5512843
  86.3016663  74.8630499  24.7896306  85.1115701  75.2215123  25.6539527
  91.0934425  74.3884756  33.3587587  91.8797514  73.9704179  33.0078004
  91.3573129  75.2930848  33.5269235  91.2644503  79.8257606  28.0576243
  90.6290336  79.8992233  28.7697148  90.9341909  80.4151205  27.3795323
  96.4942852  74.3259989  34.2620565  97.2268024  73.7559206  34.4958395
  95.7382208  73.9381590  34.7027071  85.7687431  77.2877084  27.7537218
  85.6523689  76.6121987  28.4218303  85.8789691  76.8009458  26.9369371
  88.1118972  76.7487231  31.4583908  87.7477179  76.2217852  32.1696829
  88.9686088  76.3585700  31.2850393  87.7524459  71.7777130  26.4545256
  87.9198861  72.6457367  26.8215727  87.5621628  71.9404412  25.5306545
  90.5099792  80.2394109  38.1211087  90.2100515  81.1419148  38.0126894
  90.1650852  79.9726293  38.9732239  83.9612274  76.6907906  34.1547791
  83.0362770  76.5584120  34.3625483  84.2096687  77.4702125  34.6517733
  87.7313680  74.2334788  27.4391923  87.6113305  74.6791839  28.2777403
  87.0366268  74.5820106  26.8805461  81.3221085  76.3341180  34.9891580
  81.4513466  76.5875659  35.9030992  80.6418536  76.9268888  34.6696235
  85.4920572  87.0038430  31.0882054  85.4144602  87.9546255  31.1670535
  84.8882216  86.6584302  31.7456981  93.4298746  74.7056261  28.2672257
  94.3416602  74.9383648  28.0919955  92.9208393  75.2893305  27.7047336
  86.2384174  76.9851748  43.3061388  86.9798858  77.5236792  43.0296212
  85.5321160  77.6118037  43.4632940  91.7139514  79.1280889  41.9033550
  92.1222870  78.6863299  41.1588182  90.9916775  78.5533516  42.1567743
  92.0368328  79.6882080  35.6585838  91.4077191  79.8527794  34.9561906
  91.6493990  80.1023689  36.4296803  95.9157560  80.6236517  33.0130202
  95.2308598  81.0035419  32.4627236  96.0001410  81.2331844  33.7462150
  93.1708492  78.2696476  39.6125546  93.3825387  78.9128236  38.9359927
  93.1238240  77.4358793  39.1447476  87.5896290  79.4256488  32.9235924
  88.0534636  79.7044191  32.1340546  87.3253088  78.5239932  32.7409014
  84.4820371  78.9727969  35.8615687  85.0521728  79.4015238  35.2233171
  85.0728483  78.6910554  36.5599873  86.5265176  75.5479640  29.7325489
  87.2289220  76.0000684  30.1999415  86.1945805  74.9063459  30.3605382
  94.2854320  81.1468432  37.7847903  95.1071764  80.7448619  37.5030585
  94.2816723  81.0436666  38.7364019  82.2205256  74.1707772  31.9926099
  81.4236419  74.2826466  32.5109595  81.9930848  74.5094424  31.1266990
  88.0510923  80.6952475  39.9408614  88.1155356  81.1572882  40.7766785
  87.3421847  80.0649840  40.0690923 102.3760313  77.4907180  34.1332875
 101.6224021  76.9214578  33.9776879 102.5107854  77.4569845  35.0803509
  87.7658941  82.3620583  29.8087594  87.6304616  83.2072118  30.2372442
  88.3068753  82.5639860  29.0453528  81.2188338  79.8796021  30.3815519
  81.7312859  80.6739271  30.5321084  81.8711051  79.1822311  30.3149120
  83.0283223  82.9961777  32.4638272  83.2049851  83.9179742  32.2759256
  83.8240057  82.6820196  32.8932652  89.3927417  82.9844149  43.9387936
  88.9491271  82.1980528  43.6208841  90.0544631  83.1723300  43.2731827
  84.1514538  84.5139951  38.4648615  84.7021964  84.3857014  37.6925608
  83.3126014  84.8134840  38.1143507  91.4908655  83.2646949  41.9669337
  91.4727131  84.0855830  41.4749606  92.4128575  83.1401024  42.1919478
  87.9481710  80.7791079  42.8092846  88.4810046  80.0179367  42.5792154
  87.4195791  80.4864730  43.5517000  79.1837255  78.2084675  31.1575090
  80.0212477  78.6181683  30.9408797  79.3615523  77.2684117  31.1275283
  91.0801687  75.8759756  26.8458923  90.5648311  76.6464360  27.0847310
  90.8078996  75.2024892  27.4691984  96.0535961  78.6292110  28.7812096
  95.2765404  78.2903270  28.3367258  96.7327442  78.6344733  28.1067061
  90.8687990  73.7486848  28.6718704  90.5638126  74.0632997  29.5228847
  91.8218432  73.8268268  28.7146037  89.3134422  79.9077071  30.3211658
  88.7855784  79.1729831  30.0084895  88.8121925  80.6851747  30.0751626
  94.2927268  78.1026091  35.4378704  93.6350943  78.7925353  35.5258833
  95.0967667  78.4922523  35.7812690  93.1032727  76.4570464  33.4882646
  93.6164609  77.0900456  33.9904355  93.7533951  75.8571660  33.1226006
  84.3722737  72.6001198  26.7014154  83.5360049  72.9375885  27.0223429
  84.2327507  72.4650178  25.7641291  87.4587022  77.7257281  23.3246631
  86.5514084  77.4946535  23.5237780  87.9558054  76.9294901  23.5120612
  90.3655101  86.4354788  26.2443317  89.6916800  86.7386485  26.8528275
  90.7520923  87.2383869  25.8948774  89.5813558  73.9319920  35.7340986
  88.6636119  74.1534867  35.5762674  89.9973702  74.0066230  34.8752694
  90.3648606  75.3311335  30.8643667  91.1120425  75.8432733  30.5550789
  90.6340195  75.0095388  31.7248060  88.6375256  77.8269876  27.8470621
  87.7286475  77.5428909  27.9443091  88.6670340  78.2468955  26.9873928
  93.8694523  81.4376466  31.6161788  93.4156850  80.5967376  31.6726979
  93.2388490  82.0737864  31.9536569  92.3127462  83.2752962  32.5511607
  92.6050437  83.8358019  31.8323972  92.8226083  83.5681523  33.3064766
  79.2063426  75.5475390  31.8285823  79.0087826  74.9544751  31.1036890
  78.6510090  75.2427600  32.5461762  87.1860150  75.4398497  33.9480416
  87.2408760  74.4872333  33.8722893  86.3751352  75.5957936  34.4321715
  88.3351344  79.3678620  25.1858699  87.8970774  78.6514479  24.7264337
  89.0761784  79.5954735  24.6243791  85.1252510  74.0575556  31.7070795
  84.3120375  74.3569727  32.1135987  85.6211504  73.6631245  32.4245277
  87.2761088  84.0533313  33.6405060  87.2337266  84.2794160  32.7113592
  88.1923787  83.8196688  33.7890861  96.4524458  77.6435817  31.2435018
  96.3142357  77.8337413  30.3156207  96.0960677  78.4055200  31.7003069
  96.4793838  79.7112344  36.2546289  96.9130345  79.6187633  37.1029343
  97.1925419  79.6869844  35.6166305  85.3926888  80.9296342  33.4367022
  86.1867487  80.4346663  33.2349597  84.6818581  80.4014206  33.0734728
  90.2121733  83.3114438  37.7879390  90.2658755  83.8805374  38.5557106
  89.3436514  83.4816323  37.4233427  81.7009652  75.0739424  29.5126775
  80.7707240  75.0123880  29.7296737  81.7967124  74.5515377  28.7163416
  97.3409388  79.7536044  38.7879175  97.5345278  80.6581855  39.0338450
  97.2410006  79.2943464  39.6217760  92.4024496  79.9042787  44.3620055
  92.2510003  79.6753339  43.4450139  92.3929176  80.8613389  44.3751400
  89.1709833  77.4774700  39.3466322  90.1001893  77.6285860  39.1735289
  88.7500863  77.5658721  38.4914968  87.9698164  81.5025364  37.1164860
  87.8309250  81.1344149  37.9890798  87.1812761  82.0173004  36.9448817
  88.5646316  86.6034461  28.4590396  88.7398072  86.1322504  29.2736019
  87.8779104  87.2300227  28.6871657  89.5203380  80.8806967  34.5053697
  89.1853212  80.8407737  35.4011347  89.0207325  80.2151683  34.0324108
  83.4947624  76.2874597  40.0306278  83.3567421  75.5554836  40.6317818
  84.4052547  76.1983497  39.7490466  92.4562571  78.2263001  24.7790757
  91.8391742  77.5009830  24.6823810  91.9879060  78.9872362  24.4357831
  86.1229924  75.9994556  39.5189958  86.8329543  75.3587749  39.4776577
  86.0799232  76.2507451  40.4416139  94.1116703  82.9361910  42.4396537
  94.0529249  82.2521130  41.7727120  94.5136221  83.6780900  41.9877163
  83.1307402  89.7523824  35.2330256  83.3704000  90.3842348  35.9109275
  82.2876598  89.4011864  35.5195615  84.2461117  72.4448426  23.9012061
  83.3690583  72.3237227  23.5374308  84.7218870  71.6534504  23.6490950
  94.1134110  80.9001494  40.6710517  93.2260889  80.5627416  40.7936916
  94.6832661  80.1684525  40.9079282  75.7663257  77.2325585  33.9953568
  76.4534297  76.9187316  33.4074584  75.6111386  78.1366950  33.7220820
  87.6435264  85.5602946  37.6371760  87.5705435  86.3657918  38.1491065
  87.2012657  85.7594912  36.8119782  87.4325043  84.7974716  31.1474582
  86.6492565  85.3396396  31.2412806  88.1317788  85.3148696  31.5468823
  98.5951451  76.3109711  35.4327079  98.5841327  77.1934427  35.0621012
  97.7268830  75.9581262  35.2381616  90.1033947  85.4589780  39.7929919
  90.8161919  86.0937245  39.7205820  89.6123976  85.5553646  38.9769921
  91.8251474  79.3641033  31.3647211  90.8907753  79.4842495  31.1951915
  92.0028142  78.4613500  31.1007220  87.3256662  72.7486729  33.5180472
  86.9554450  72.1957769  34.2061377  87.8215755  72.1444862  32.9655472
  95.2124025  75.2058352  31.8997245  95.6784478  76.0386344  31.8257547
  95.6631526  74.7403334  32.6042503  85.1545861  83.2084224  40.6135490
  85.8555320  83.8420707  40.7664884  84.6840976  83.5498955  39.8531129
  93.2800256  81.5502173  28.8983397  93.5560100  81.4358768  29.8077271
  92.4104755  81.1519658  28.8595570  89.9154320  85.7988524  32.5416210
  90.0976715  84.9810180  33.0043963  90.7387306  86.0156216  32.1041100
  90.2496486  84.7256709  29.8031259  90.7784252  84.2149164  29.1901421
  90.5124706  84.4099240  30.6676792  89.0034720  76.5048642  44.9254077
  88.3275357  76.4042771  45.5956452  89.8262353  76.3487856  45.3890074
  80.7513579  82.7420579  37.5466592  81.3367015  81.9964267  37.6794497
  80.5538417  83.0524535  38.4303256  83.6052234  85.7771826  32.5629035
  82.9362609  86.2617954  32.0793075  83.4665104  86.0241046  33.4772413
  75.3431233  75.3126179  36.2671036  75.3815333  74.7789770  37.0608154
  74.8371526  74.7861384  35.6482013  87.7457502  87.8115570  39.1611693
  88.2975811  87.9747191  39.9260778  88.0863696  88.4020007  38.4891718
  92.5968377  82.6376827  45.0160348  93.1408281  83.2506785  44.5215302
  92.0155222  83.1956405  45.5327361  78.9739811  74.0390281  29.3424967
  79.2693252  73.1300959  29.2892021  78.0727847  74.0178020  29.0205969
  90.8825890  85.7597545  36.1475375  90.7577029  84.9587285  35.6386321
  91.5404981  86.2543738  35.6589345  92.9460798  83.5606565  37.7754925
  91.9991134  83.4411916  37.7033252  93.2943571  82.6729063  37.8581187
  80.7027653  71.7204379  29.4664292  80.3740359  70.8401758  29.2839398
  81.0567023  71.6652047  30.3540681  89.9507231  83.3559281  33.9759278
  89.8032194  82.4275989  34.1566848  90.7760725  83.3779372  33.4916353
  93.5541353  84.1787840  35.0624150  94.4787901  83.9730701  34.9248601
  93.3856657  83.9304241  35.9713492  85.8037623  70.5051970  28.0333063
  86.5245985  70.8833223  27.5296779  85.1802927  71.2240847  28.1368040
  84.6867967  74.1682832  35.5462139  84.5412548  74.4823135  36.4386421
  84.2093171  74.7867733  34.9933038  93.3436670  84.6973508  30.4186242
  93.5173547  84.1319930  29.6660094  93.8365561  85.4974402  30.2365732
  79.1613629  76.7088177  38.4849801  78.6167097  77.4847985  38.6170075
  80.0392979  77.0558981  38.3268922  99.1976061  77.4609930  32.0376542
  99.6407207  76.7117256  31.6395665  98.3202571  77.4520067  31.6550274
  94.3311842  84.0140272  27.5183140  95.0262747  84.6346965  27.7370455
  94.6734992  83.1635623  27.7935518  96.2303265  81.4639977  29.0470471
  96.7554589  81.8027250  28.3219791  96.1425618  80.5286993  28.8633605
  87.8923314  85.3774051  41.1760347  88.2010440  85.1323198  42.0483047
  88.6898796  85.5820690  40.6879218  87.9143926  87.5311961  33.4065724
  87.4748916  87.0388339  34.0998581  88.6652043  86.9884928  33.1657799
  80.3936265  83.7223502  33.4090352  81.2194285  83.4227273  33.0288996
  80.0430317  82.9531124  33.8580141  85.3617798  83.0749970  35.4788026
  84.7397807  82.4120675  35.1790254  86.0322665  83.1011102  34.7961673
  78.5944870  81.6409828  34.3679286  77.7576778  81.2132002  34.1863287
  78.5668515  81.8342271  35.3050077  95.9197171  82.0972881  44.3521669
  95.1292715  82.0797020  43.8126168  95.6830526  82.6361175  45.1070705
  96.0395046  78.9465347  41.6654397  96.0893051  78.7815355  42.6069920
  95.9308970  78.0792607  41.2752278  84.9231305  81.6253893  28.9546486
  85.0719425  82.3089358  28.3013159  85.7297748  81.6058983  29.4695942
  97.5413243  81.3662289  41.9096419  97.2498051  81.7292270  42.7459880
  96.9285374  80.6529297  41.7309751  98.7408925  78.9315169  34.4298989
  99.5755817  79.3704973  34.5936549  98.8768054  78.4553822  33.6107235
  95.7900431  76.4894904  40.3776477  96.2654553  76.6822550  39.5695328
  94.8665997  76.5454089  40.1319861  82.6783938  77.6519071  29.9607555
  82.4329980  76.7481401  30.1587765  82.8479852  77.6536221  29.0187033
  81.9479585  73.3847428  27.4593717  81.2548830  73.4591783  26.8033753
  81.7031337  72.6207772  27.9815234  88.4226710  84.1202024  26.4258234
  87.8500678  84.7392211  25.9728706  88.9959504  84.6701385  26.9598156
  91.6423970  84.4039174  27.5566816  92.5754643  84.3384735  27.7599691
  91.5547183  85.2395441  27.0981349  94.2711987  83.7205044  24.5170764
  94.1925618  83.3864908  25.4106521  95.0921654  84.2126812  24.5162236
  96.9690178  76.5866783  37.7247082  96.9366498  75.6482784  37.9106766
  97.5790802  76.6650820  36.9912907  88.8073509  75.4562836  23.7674286
  89.7532614  75.3269044  23.8362704  88.4287754  74.7177498  24.2443714
 102.7866728  77.6482790  36.8653119 103.5170116  77.3868078  37.4260822
 102.1773673  76.9111512  36.9055187 100.8682025  75.7890653  37.4627570
 100.1415189  75.6546618  36.8544062 100.4529312  76.0967481  38.2684288
  88.6912201  79.5080583  45.2274943  89.6115211  79.6859182  45.4214990
  88.6561785  78.5636628  45.0754642  86.9916426  73.3812813  23.7029171
  86.0847881  73.0845925  23.7791885  87.2692407  73.0842631  22.8363458
  77.9094366  74.7019176  34.1528218  77.5897151  73.8484484  33.8602592
  77.3627795  74.9167754  34.9086185  81.6874274  77.4181617  37.8697724
  81.9060284  78.3498725  37.8885758  82.1000048  77.0589592  38.6552528
  85.7615211  70.2399748  23.8441151  86.6234375  70.5654646  24.1036968
  85.9465555  69.4531244  23.3314216  77.7782626  78.3222088  36.1221339
  77.0846098  77.9076040  35.6091294  78.5255617  78.3642624  35.5254758
  79.6919369  78.2540341  33.9987354  79.6690057  78.3528029  33.0469237
  80.0020005  79.1005492  34.3204520  82.3506747  80.3116496  38.1133969
  83.3050000  80.2800439  38.0463900  82.1519270  79.8507120  38.9284195
  82.9406129  78.8817613  40.6804766  83.7599018  79.3761691  40.7039604
  83.2142937  77.9649581  40.6522334  96.0487261  71.2974886  33.7587061
  96.8247651  71.7871338  34.0311678  95.3235396  71.7232940  34.2158931
  98.4859820  72.0102505  34.8161002  99.0804311  71.7698241  34.1054310
  98.5586404  71.2909636  35.4434538  80.7056976  85.8536116  35.1304167
  80.5711444  85.0936517  34.5642165  80.2889038  86.5777016  34.6632955
  91.8415939  81.0373040  24.1380742  92.5451789  81.2423042  24.7538397
  91.1178587  81.6049801  24.4029825  92.6713749  76.7882901  30.2583012
  92.6148950  77.2451452  29.4190644  93.2242091  76.0273585  30.0805855
  96.4818555  72.5772633  31.0833132  96.2255489  72.1769268  31.9141339
  95.8571423  73.2916427  30.9583271 100.7930893  75.3168706  33.5904423
 100.2330451  75.3861895  34.3635985 100.1874396  75.1409691  32.8703919
  83.8626102  86.7505433  35.3422609  83.7458486  87.6950865  35.2401299
  83.0418548  86.4478995  35.7308408  93.7502636  81.4755569  26.1879202
  94.5848240  81.0436767  26.0056677  93.5886979  81.3037582  27.1156096
  93.4048528  77.9787682  27.5535541  93.3497332  77.8131953  26.6123985
  92.7794584  78.6863715  27.7097731  90.7194435  80.2836594  46.8789104
  91.5885595  80.4577246  46.5175739  90.2401187  81.1031011  46.7564833
  86.7144654  67.4795791  27.1320860  86.7023324  68.4237631  27.2889130
  87.6068076  67.2965936  26.8380321  84.8880616  87.4033695  38.5578538
  85.7907862  87.4357305  38.8745033  84.6617986  86.4734146  38.5724873
  86.6434218  86.1564681  35.2188616  85.6929849  86.1566543  35.1052989
  86.9466704  85.4097416  34.7024651 102.3786911  91.9925220  36.2834379
 103.0165321  91.8731967  35.5797719 102.2607754  92.9406064  36.3422331
  99.1876617  91.9452648  36.2195903  98.8495129  91.8293713  35.3316438
 100.0566386  91.5443813  36.1996909  95.0463433  93.7988124  32.2092794
  94.4828298  93.7078061  31.4409082  94.9315828  92.9788029  32.6895287
  99.6696400  93.0987500  42.1782109  99.6585041  92.7040298  41.3062613
  99.8317040  92.3653572  42.7715880  92.5927865  95.2939316  35.0477015
  93.3849157  94.9530141  34.6323314  92.8324515  95.4034291  35.9679168
 100.6262992  97.4659092  27.5207259  99.9750972  98.0513172  27.1341273
 101.4207355  97.9965287  27.5802297  94.5518619  94.5548229  27.9194394
  95.3249495  94.0077216  27.7807269  94.9044018  95.4192479  28.1308855
  96.3903662  95.8824611  41.1261293  96.0993528  96.7870242  41.0107959
  97.0260646  95.9241139  41.8405362  97.3159868  93.2601460  37.7162652
  97.9123441  93.0357482  37.0019615  97.3734840  92.5186205  38.3188100
  96.8884897  90.7140895  25.5512843  97.1410418  90.1922417  24.7896306
  95.9509456  90.5507041  25.6539527 101.9328180  89.7176674  33.3587587
 102.7191269  89.2996097  33.0078004 102.1966884  90.6222766  33.5269235
 102.1038257  95.1549524  28.0576243 101.4684090  95.2284150  28.7697148
 101.7735663  95.7443123  27.3795323 107.3336607  89.6551907  34.2620565
 108.0661779  89.0851124  34.4958395 106.5775962  89.2673507  34.7027071
  96.6081186  92.6169001  27.7537218  96.4917444  91.9413905  28.4218303
  96.7183445  92.1301375  26.9369371  98.9512727  92.0779148  31.4583908
  98.5870934  91.5509769  32.1696829  99.8079842  91.6877617  31.2850393
 104.8562027  83.3673481  38.7215174 104.5245352  84.2368892  38.4976389
 104.2607641  83.0509765  39.4009204  98.5918213  87.1069048  26.4545256
  98.7592616  87.9749284  26.8215727  98.4015383  87.2696330  25.5306545
 101.3493547  95.5686027  38.1211087 101.0494270  96.4711066  38.0126894
 101.0044606  95.3018210  38.9732239  94.8006028  92.0199824  34.1547791
  93.8756525  91.8876038  34.3625483  95.0490441  92.7994043  34.6517733
 104.7490690  88.0868567  35.8008524 103.8407568  88.0183976  35.5067285
 104.6978286  88.5640512  36.6290349  98.5707434  89.5626706  27.4391923
  98.4507060  90.0083756  28.2777403  97.8760023  89.9112023  26.8805461
  92.1614839  91.6633097  34.9891580  92.2907220  91.9167576  35.9030992
  91.4812290  92.2560805  34.6696235  96.3314326 102.3330347  31.0882054
  96.2538356 103.2838172  31.1670535  95.7275970 101.9876220  31.7456981
  98.8231556  89.5058213  43.7443421  98.0464890  90.0652133  43.7346286
  99.4622119  89.9914996  44.2658291 106.6152337  86.2885006  37.5786398
 105.9726717  86.5817539  36.9326192 106.1107265  86.1737926  38.3839594
 104.2692501  90.0348179  28.2672257 105.1810357  90.2675565  28.0919955
 103.7602148  90.6185223  27.7047336  97.0777929  92.3143666  43.3061388
  97.8192613  92.8528710  43.0296212  96.3714914  92.9409955  43.4632940
 102.5533268  94.4572807  41.9033550 102.9616624  94.0155217  41.1588182
 101.8310530  93.8825434  42.1567743  98.9064338  89.3945413  39.2767107
  99.7525533  89.8184827  39.4201756  98.8462976  88.7379038  39.9705670
 102.8762083  95.0173997  35.6585838 102.2470945  95.1819711  34.9561906
 102.4887745  95.4315607  36.4296803 106.7551315  95.9528435  33.0130202
 106.0702353  96.3327336  32.4627236 106.8395164  96.5623762  33.7462150
 102.0563784  87.0549782  40.9348280 101.8124715  87.8091842  40.3982556
 102.3323714  87.4335129  41.7695527 104.0102246  93.5988394  39.6125546
 104.2219142  94.2420154  38.9359927 103.9631995  92.7650711  39.1447476
 101.6128475  86.2106215  36.5162118 100.7512954  86.5087468  36.8078855
 101.6390910  86.4276614  35.5843151  98.4290045  94.7548405  32.9235924
  98.8928390  95.0336108  32.1340546  98.1646843  93.8531850  32.7409014
  95.3214126  94.3019887  35.8615687  95.8915483  94.7307155  35.2233171
  95.9122238  94.0202472  36.5599873  97.3658931  90.8771558  29.7325489
  98.0682974  91.3292601  30.1999415  97.0339559  90.2355377  30.3605382
  95.8139292  89.4683314  44.1076698  95.1837953  90.1499595  44.3412095
  95.7075380  89.3566396  43.1629836  91.1084265  89.1355110  35.0342622
  90.3183319  89.3912639  34.5582733  91.5995512  89.9503448  35.1394663
 105.1248074  96.4760349  37.7847903 105.9465518  96.0740537  37.5030585
 105.1210477  96.3728584  38.7364019  93.0599010  89.4999690  31.9926099
  92.2630173  89.6118384  32.5109595  92.8324602  89.8386342  31.1266990
  98.8904678  96.0244393  39.9408614  98.9549110  96.4864800  40.7766785
  98.1815602  95.3941758  40.0690923  89.3921968  89.3885601  37.4657613
  89.6430006  90.2732611  37.7315189  89.9281516  89.2090202  36.6932705
 113.2154067  92.8199098  34.1332875 112.4617776  92.2506496  33.9776879
 113.3501609  92.7861762  35.0803509  98.6052695  97.6912500  29.8087594
  98.4698370  98.5364036  30.2372442  99.1462508  97.8931778  29.0453528
  95.0920035  83.7704080  46.4701949  94.6986981  83.2170279  47.1449593
  95.9086175  84.0814659  46.8608467  92.0582093  95.2087938  30.3815519
  92.5706613  96.0031189  30.5321084  92.7104806  94.5114229  30.3149120
  93.8676977  98.3253695  32.4638272  94.0443606  99.2471659  32.2759256
  94.6633811  98.0112114  32.8932652  98.0087996  85.1861959  44.0622206
  98.7497709  85.7869112  43.9826668  98.2405919  84.4439597  43.5040248
  93.1529334  90.3718326  42.3400435  93.0382849  89.4703584  42.6407534
  92.2973852  90.6182023  41.9885252 100.2321172  98.3136067  43.9387936
  99.7885026  97.5272445  43.6208841 100.8938385  98.5015217  43.2731827
  94.9908293  99.8431868  38.4648615  95.5415718  99.7148932  37.6925608
  94.1519769 100.1426757  38.1143507 102.3302410  98.5938867  41.9669337
 102.3120885  99.4147748  41.4749606 103.2522330  98.4692942  42.1919478
  98.7875464  96.1082996  42.8092846  99.3203801  95.3471284  42.5792154
  98.2589545  95.8156648  43.5517000 101.9545159  81.2143062  38.3386487
 101.6109428  82.1044704  38.2625598 102.3224122  81.0244720  37.4756072
  90.0231010  93.5376593  31.1575090  90.8606232  93.9473601  30.9408797
  90.2009277  92.5976035  31.1275283 101.9195442  91.2051673  26.8458923
 101.4042065  91.9756278  27.0847310 101.6472750  90.5316809  27.4691984
  99.5042553  86.0501374  31.9044161  98.6484149  85.6608224  31.7249800
  99.9169504  86.1293335  31.0443946 101.0341699  83.5847717  36.3035721
 100.5306495  83.5477852  35.4903526 101.3272306  84.4940460  36.3632377
  97.2784585  83.6686447  35.3101902  98.1437582  83.4729256  34.9507792
  97.3462094  83.4396799  36.2371259 106.8929716  93.9584028  28.7812096
 106.1159159  93.6195187  28.3367258 107.5721197  93.9636651  28.1067061
 101.7081745  89.0778765  28.6718704 101.4031880  89.3924915  29.5228847
 102.6612187  89.1560185  28.7146037 100.1528177  95.2368989  30.3211658
  99.6249538  94.5021748  30.0084895  99.6515679  96.0143665  30.0751626
 105.1321023  93.4318009  35.4378704 104.4744697  94.1217271  35.5258833
 105.9361422  93.8214441  35.7812690  94.8846904  85.8988655  32.6818269
  95.4590656  85.6763836  31.9491462  95.4717887  85.9677349  33.4346871
 103.9426482  91.7862382  33.4882646 104.4558363  92.4192374  33.9904355
 104.5927705  91.1863577  33.1226006  95.2116491  87.9293116  26.7014154
  94.3753804  88.2667803  27.0223429  95.0721261  87.7942096  25.7641291
  97.1869572  82.7729904  31.4093339  96.5333984  82.4578921  30.7849953
  97.1450046  82.1505644  32.1353162  98.2980777  93.0549199  23.3246631
  97.3907839  92.8238452  23.5237780  98.7951809  92.2586818  23.5120612
 100.4207312  89.2611837  35.7340986  99.5029874  89.4826784  35.5762674
 100.8367456  89.3358148  34.8752694 101.2042360  90.6603253  30.8643667
 101.9514179  91.1724650  30.5550789 101.4733950  90.3387306  31.7248060
  99.4769010  93.1561794  27.8470621  98.5680230  92.8720827  27.9443091
  99.5064094  93.5760872  26.9873928 104.7088278  96.7668383  31.6161788
 104.2550605  95.9259293  31.6726979 104.0782244  97.4029782  31.9536569
 103.6521197  87.6960369  32.8462456 102.9143954  87.1837756  33.1772698
 103.9047971  87.2560751  32.0345733 103.1521217  98.6044880  32.5511607
 103.4444191  99.1649937  31.8323972 103.6619838  98.8973441  33.3064766
 103.7532825  80.4736621  33.4404225 104.0591701  79.6133985  33.1530140
 104.4785429  81.0654242  33.2403219  90.0457181  90.8767308  31.8285823
  89.8481581  90.2836669  31.1036890  89.4903845  90.5719518  32.5461762
  98.0253904  90.7690414  33.9480416  98.0802514  89.8164251  33.8722893
  97.2145106  90.9249854  34.4321715  99.1745098  94.6970537  25.1858699
  98.7364528  93.9806396  24.7264337  99.9155539  94.9246652  24.6243791
  95.9646264  89.3867474  31.7070795  95.1514130  89.6861645  32.1135987
  96.4605258  88.9923163  32.4245277  98.1154842  99.3825231  33.6405060
  98.0731021  99.6086077  32.7113592  99.0317541  99.1488606  33.7890861
 101.5620476  89.8509299  40.5385689 101.9169864  90.0780772  41.3980155
 102.2092607  90.1827675  39.9162944 107.2918213  92.9727735  31.2435018
 107.1536111  93.1629330  30.3156207 106.9354432  93.7347117  31.7003069
  95.4560339  86.9585830  37.3232030  96.0959718  86.8174589  36.6254993
  94.6237870  86.6720343  36.9470632 107.3187593  95.0404262  36.2546289
 107.7524099  94.9479551  37.1029343 108.0319173  95.0161762  35.6166305
  96.2320643  96.2588260  33.4367022  97.0261241  95.7638580  33.2349597
  95.5212335  95.7306123  33.0734728 101.0515487  98.6406356  37.7879390
 101.1052510  99.2097292  38.5557106 100.1830269  98.8108241  37.4233427
  92.5403406  90.4031342  29.5126775  91.6100995  90.3415797  29.7296737
  92.6360878  89.8807295  28.7163416  92.4588955  86.9286155  32.1005017
  92.7195773  87.8431488  31.9914177  93.2806128  86.4610597  32.2501630
  93.9313881  88.3423912  39.2703841  94.6036934  88.1341274  38.6216490
  93.1043667  88.1445998  38.8309074 108.1803142  95.0827962  38.7879175
 108.3739032  95.9873773  39.0338450 108.0803760  94.6235381  39.6217760
  99.8339453  84.9685853  41.2869502  99.1867368  85.6675802  41.1933979
 100.6040468  85.4021997  41.6545750 103.2418251  95.2334705  44.3620055
 103.0903757  95.0045257  43.4450139 103.2322930  96.1905306  44.3751400
 100.0103587  92.8066618  39.3466322 100.9395647  92.9577777  39.1735289
  99.5894617  92.8950638  38.4914968  98.8091919  96.8317282  37.1164860
  98.6703005  96.4636066  37.9890798  98.0206515  97.3464922  36.9448817
  99.4040071 101.9326379  28.4590396  99.5791827 101.4614422  29.2736019
  98.7172859 102.5592145  28.6871657 100.3597134  96.2098885  34.5053697
 100.0246967  96.1699655  35.4011347  99.8601080  95.5443601  34.0324108
  94.3341378  91.6166515  40.0306278  94.1961176  90.8846754  40.6317818
  95.2446302  91.5275415  39.7490466 103.2956326  93.5554919  24.7790757
 102.6785496  92.8301747  24.6823810 102.8272814  94.3164279  24.4357831
  96.9623679  91.3286474  39.5189958  97.6723297  90.6879666  39.4776577
  96.9192987  91.5799369  40.4416139 104.9510457  98.2653827  42.4396537
 104.8923004  97.5813048  41.7727120 105.3529976  99.0072817  41.9877163
  95.6752613  88.3151692  41.3385598  95.1389970  87.8642430  41.9907194
  95.0869321  88.4497601  40.5956062  93.9701156 105.0815741  35.2330256
  94.2097754 105.7134265  35.9109275  93.1270353 104.7303781  35.5195615
  95.0854872  87.7740343  23.9012061  94.2084338  87.6529144  23.5374308
  95.5612625  86.9826422  23.6490950 104.9527865  96.2293411  40.6710517
 104.0654643  95.8919333  40.7936916 105.5226416  95.4976443  40.9079282
  86.6057012  92.5617503  33.9953568  87.2928052  92.2479233  33.4074584
  86.4505140  93.4658868  33.7220820  91.4091734  87.4507700  38.4238592
  91.3249923  86.8433369  37.6889002  90.5874440  87.9416718  38.4248088
  98.4829018 100.8894864  37.6371760  98.4099190 101.6949835  38.1491065
  98.0406411 101.0886830  36.8119782  98.2718798 100.1266634  31.1474582
  97.4886320 100.6688314  31.2412806  98.9711543 100.6440613  31.5468823
 101.5815448  85.9361263  33.7908787 102.0784147  85.1831226  33.4709857
 100.8102429  85.9725580  33.2251996 109.4345205  91.6401629  35.4327079
 109.4235081  92.5226344  35.0621012 108.5662585  91.2873180  35.2381616
 100.9427702 100.7881698  39.7929919 101.6555674 101.4229163  39.7205820
 100.4517730 100.8845564  38.9769921 102.6645228  94.6932950  31.3647211
 101.7301507  94.8134413  31.1951915 102.8421897  93.7905417  31.1007220
  98.1650417  88.0778646  33.5180472  97.7948204  87.5249687  34.2061377
  98.6609509  87.4736780  32.9655472 106.0517780  90.5350270  31.8997245
 106.5178232  91.3678261  31.8257547 106.5025280  90.0695251  32.6042503
  95.9939615  98.5376141  40.6135490  96.6949075  99.1712624  40.7664884
  95.5234730  98.8790873  39.8531129 104.1194011  96.8794091  28.8983397
 104.3953855  96.7650686  29.8077271 103.2498510  96.4811576  28.8595570
 104.0234443  82.9030857  35.9388146 103.1097522  83.1335084  36.1070353
 104.4527544  82.9869301  36.7902178 103.7940901  91.0920749  38.4388040
 103.1412351  91.3396656  37.7840493 104.1721281  90.2784887  38.1050517
 100.7548075 101.1280442  32.5416210 100.9370469 100.3102098  33.0043963
 101.5781061 101.3448134  32.1041100 101.0890240 100.0548627  29.8031259
 101.6178007  99.5441082  29.1901421 101.3518460  99.7391157  30.6676792
  99.8428474  91.8340560  44.9254077  99.1669111  91.7334689  45.5956452
 100.6656108  91.6779773  45.3890074  91.5907333  98.0712496  37.5466592
  92.1760770  97.3256184  37.6794497  91.3932172  98.3816453  38.4303256
  94.4445988 101.1063744  32.5629035  93.7756364 101.5909871  32.0793075
  94.3058858 101.3532964  33.4772413  86.1824988  90.6418097  36.2671036
  86.2209087  90.1081687  37.0608154  85.6765281  90.1153302  35.6482013
  98.5851257 103.1407487  39.1611693  99.1369565 103.3039109  39.9260778
  98.9257450 103.7311925  38.4891718  93.5615750  85.4882637  39.7633578
  93.6257077  86.3497468  39.3510976  93.4982870  84.8756639  39.0305936
  93.0368023  87.5605770  43.4106612  93.6640062  87.1782847  44.0244136
  92.1795942  87.3419971  43.7762305 103.4362131  97.9668745  45.0160348
 103.9802035  98.5798703  44.5215302 102.8548976  98.5248323  45.5327361
  89.8133565  89.3682199  29.3424967  90.1087007  88.4592877  29.2892021
  88.9121601  89.3469938  29.0205969 101.7219644 101.0889463  36.1475375
 101.5970784 100.2879203  35.6386321 102.3798735 101.5835656  35.6589345
  93.3427812  87.4438195  35.3252516  92.6214398  88.0574163  35.1859989
  94.1321068  87.9795960  35.2469161 103.7854553  98.8898483  37.7754925
 102.8384888  98.7703834  37.7033252 104.1337326  98.0020981  37.8581187
  96.1454126  84.7792622  41.5993167  96.6688528  85.0254918  42.3619477
  95.9266459  85.6112657  41.1796305  91.5421407  87.0496296  29.4664292
  91.2134113  86.1693675  29.2839398  91.8960778  86.9943965  30.3540681
 100.7900986  98.6851199  33.9759278 100.6425948  97.7567906  34.1566848
 101.6154479  98.7071290  33.4916353  94.6563230  87.3369266  29.8339770
  94.9959303  87.8655187  29.1118378  95.1035351  87.6749672  30.6098336
 104.3935108  99.5079758  35.0624150 105.3181655  99.3022619  34.9248601
 104.2250411  99.2596159  35.9713492  97.3506671  85.7206317  39.2842838
  97.0103491  84.9214130  39.6863518  96.6445677  86.0208028  38.7119671
  98.0023143  82.8055629  37.7370161  98.8249212  82.3316107  37.6149051
  98.2461206  83.5846113  38.2368847  96.6431377  85.8343888  28.0333063
  97.3639740  86.2125140  27.5296779  96.0196681  86.5532765  28.1368040
 100.7862500  86.5389037  28.9691395 101.0026115  87.4213675  28.6680223
 100.3056567  86.1475250  28.2397037  95.5261722  89.4974750  35.5462139
  95.3806302  89.8115053  36.4386421  95.0486925  90.1159650  34.9933038
  97.3858105  86.4877298  35.5943029  97.3719673  85.5918391  35.2575327
  98.1030533  86.4947962  36.2281315  99.2384235  86.9214638  37.6396156
  98.9802013  87.8431709  37.6380487  98.7069276  86.5245073  38.3296621
 104.1830424 100.0265425  30.4186242 104.3567302  99.4611848  29.6660094
 104.6759315 100.8266320  30.2365732  90.0007384  92.0380094  38.4849801
  89.4560852  92.8139902  38.6170075  90.8786734  92.3850899  38.3268922
  96.7895000  85.3691678  30.8630599  96.9110912  84.4408324  31.0621487
  96.4997043  85.3830364  29.9508915  99.6586191  83.0546589  33.9997319
  99.6807888  83.1185922  33.0449299 100.0754250  82.2151097  34.1937825
 110.0369815  92.7901848  32.0376542 110.4800961  92.0409173  31.6395665
 109.1596325  92.7811985  31.6550274 105.1705596  99.3432190  27.5183140
 105.8656501  99.9638882  27.7370455 105.5128747  98.4927541  27.7935518
  90.7873406  91.1649991  41.3779957  90.0455142  91.3132626  41.9644588
  90.4666150  91.4258256  40.5146707 107.0697020  96.7931895  29.0470471
 107.5948344  97.1319168  28.3219791 106.9819372  95.8578910  28.8633605
  98.7317068 100.7065969  41.1760347  99.0404195 100.4615116  42.0483047
  99.5292550 100.9112607  40.6879218  98.7537680 102.8603878  33.4065724
  98.3142671 102.3680257  34.0998581  99.5045797 102.3176846  33.1657799
  91.2330019  99.0515419  33.4090352  92.0588039  98.7519191  33.0288996
  90.8824071  98.2823042  33.8580141  96.2011553  98.4041888  35.4788026
  95.5791562  97.7412593  35.1790254  96.8716419  98.4303019  34.7961673
  89.4338624  96.9701746  34.3679286  88.5970533  96.5423920  34.1863287
  89.4062270  97.1634189  35.3050077  96.2736080  86.8823676  45.0720532
  96.3224235  87.7585798  44.6898301  96.8158594  86.3401069  44.4992175
 106.7590926  97.4264799  44.3521669 105.9686469  97.4088938  43.8126168
 106.5224280  97.9653092  45.1070705 106.8788801  94.2757265  41.6654397
 106.9286806  94.1107273  42.6069920 106.7702724  93.4084524  41.2752278
  95.7625059  96.9545811  28.9546486  95.9113180  97.6381275  28.3013159
  96.5691503  96.9350901  29.4695942 104.1692563  90.2588193  42.9813704
 105.0702426  90.1194658  42.6897702 104.2440538  90.4242648  43.9211881
  98.5035368  87.6355048  41.8266890  97.6338678  87.9288614  41.5549479
  98.7394849  88.2195493  42.5474154 108.3806998  96.6954207  41.9096419
 108.0891806  97.0584187  42.7459880 107.7679129  95.9821215  41.7309751
 109.5802680  94.2607086  34.4298989 110.4149571  94.6996891  34.5936549
 109.7161809  93.7845740  33.6107235 106.6294186  91.8186821  40.3776477
 107.1048307  92.0114468  39.5695328 105.7059751  91.8746007  40.1319861
  93.5177692  92.9810988  29.9607555  93.2723734  92.0773318  30.1587765
  93.6873607  92.9828139  29.0187033 101.2074402  83.8534665  39.3432311
 101.7256346  84.5895692  39.0178799 100.8529535  84.1598658  40.1779070
  92.7873340  88.7139346  27.4593717  92.0942585  88.7883701  26.8033753
  92.5425092  87.9499690  27.9815234 101.4586996  80.2734947  34.8633207
 101.7388750  79.6058136  35.4893634 102.2437603  80.4664043  34.3507871
  99.2620465  99.4493941  26.4258234  98.6894432 100.0684128  25.9728706
  99.8353259  99.9993303  26.9598156 105.3295855  88.6952581  38.6104782
 106.2813278  88.7950679  38.6317007 105.1599305  87.9030850  39.1202867
 103.3510234  85.7808165  38.7964183 102.7560166  86.0613177  38.1010672
 103.0659931  86.2702066  39.5680924 102.4817725  99.7331091  27.5566816
 103.4148398  99.6676653  27.7599691 102.3940938 100.5687358  27.0981349
 107.8083933  91.9158701  37.7247082 107.7760253  90.9774702  37.9106766
 108.4184556  91.9942738  36.9912907  99.6467263  90.7854754  23.7674286
 100.5926368  90.6560962  23.8362704  99.2681508  90.0469416  24.2443714
 107.9578421  88.7069745  37.7705365 107.4417470  87.9228201  37.5835294
 108.8418370  88.3788461  37.9351885 105.6189148  82.4510760  33.7301178
 105.4213969  82.1425848  34.6144510 106.2288854  83.1772399  33.8599108
 113.6260482  92.9774708  36.8653119 114.3563871  92.7159996  37.4260822
 113.0167428  92.2403430  36.9055187 111.7075780  91.1182571  37.4627570
 110.9808943  90.9838535  36.8544062 111.2923066  91.4259399  38.2684288
  99.5305956  94.8372500  45.2274943 100.4508965  95.0151099  45.4214990
  99.4955539  93.8928546  45.0754642  97.8310181  88.7104730  23.7029171
  96.9241636  88.4137843  23.7791885  98.1086162  88.4134549  22.8363458
  88.7488121  90.0311094  34.1528218  88.4290905  89.1776402  33.8602592
  88.2021549  90.2459672  34.9086185  92.5268029  92.7473535  37.8697724
  92.7454038  93.6790643  37.8885758  92.9393802  92.3881509  38.6552528
  99.4472246  83.2541620  29.8573413  98.6372975  82.9088705  30.2328659
 100.1356663  82.9449164  30.4461024 101.3762795  82.3319667  31.4797709
 101.9293833  82.7515120  32.1387732 101.6132881  81.4055415  31.5220665
  97.3995894  88.3206741  47.2600473  97.2992621  89.2701098  47.1912564
  97.1817436  87.9924980  46.3876543  96.6008965  85.5691666  23.8441151
  97.4628129  85.8946564  24.1036968  96.7859309  84.7823162  23.3314216
  88.6176381  93.6514005  36.1221339  87.9239852  93.2367958  35.6091294
  89.3649372  93.6934542  35.5254758 104.7541602  84.4420192  30.9876374
 104.1740271  85.1004996  30.6054426 104.4877534  83.6197537  30.5763791
 103.2045168  83.8425250  33.1897694 103.7044946  83.9541784  32.3812013
 103.8480776  83.5386303  33.8298502  97.2627164  91.7503879  46.0765535
  96.7794246  92.5504240  46.2829424  97.3488103  91.7611824  45.1232979
  90.5313123  93.5832259  33.9987354  90.5083812  93.6819946  33.0469237
  90.8413760  94.4297410  34.3204520  93.1900501  95.6408414  38.1133969
  94.1443755  95.6092356  38.0463900  92.9913025  95.1799038  38.9284195
  93.7799883  94.2109530  40.6804766  94.5992772  94.7053609  40.7039604
  94.0536691  93.2941498  40.6522334 103.5366480  86.6020283  30.0432722
 102.6492335  86.8869933  29.8252917 103.9520469  86.4414046  29.1959999
 106.8881016  86.6266803  33.7587061 107.6641406  87.1163256  34.0311678
 106.1629150  87.0524858  34.2158931 109.3253574  87.3394423  34.8161002
 109.9198065  87.0990159  34.1054310 109.3980158  86.6201553  35.4434538
  91.5450730 101.1828034  35.1304167  91.4105198 100.4228435  34.5642165
  91.1282792 101.9068934  34.6632955 102.6809693  96.3664957  24.1380742
 103.3845543  96.5714960  24.7538397 101.9572342  96.9341719  24.4029825
 103.5107503  92.1174818  30.2583012 103.4542705  92.5743370  29.4190644
 104.0635846  91.3565503  30.0805855 107.3212309  87.9064550  31.0833132
 107.0649244  87.5061186  31.9141339 106.6965177  88.6208344  30.9583271
 111.6324647  90.6460624  33.5904423 111.0724205  90.7153813  34.3635985
 111.0268151  90.4701608  32.8703919  94.7019856 102.0797351  35.3422609
  94.5852240 103.0242783  35.2401299  93.8812302 101.7770912  35.7308408
 104.5896391  96.8047486  26.1879202 105.4241995  96.3728685  26.0056677
 104.4280733  96.6329500  27.1156096 104.2442283  93.3079600  27.5535541
 104.1891087  93.1423871  26.6123985 103.6188338  94.0155633  27.7097731
  89.0334798  88.5447664  41.3796963  89.6793661  88.0346618  41.8684189
  88.8251949  89.2816346  41.9540389 101.5588190  95.6128512  46.8789104
 102.4279350  95.7869164  46.5175739 101.0794941  96.4322928  46.7564833
  97.5538408  82.8087709  27.1320860  97.5417078  83.7529549  27.2889130
  98.4461830  82.6257854  26.8380321  95.7274370 102.7325613  38.5578538
  96.6301617 102.7649223  38.8745033  95.5011740 101.8026064  38.5724873
  97.4827972 101.4856599  35.2188616  96.5323603 101.4858461  35.1052989
  97.7860458 100.7389334  34.7024651 101.3690528  79.4030485  31.3866796
 100.6022923  78.8488972  31.5323479 101.7801233  79.4752354  32.2480948
  93.3732289  85.6915281  45.4771978  94.2363750  85.3352086  45.6875302
  92.7997699  85.3529176  46.1647382 113.2180666 107.3217137  36.2834379
 113.8559076 107.2023885  35.5797719 113.1001509 108.2697981  36.3422331
 110.0270372 107.2744566  36.2195903 109.6888883 107.1585630  35.3316438
 110.8960140 106.8735731  36.1996909 110.5090155 108.4279417  42.1782109
 110.4978796 108.0332216  41.3062613 110.6710794 107.6945490  42.7715880
 103.4321620 110.6231234  35.0477015 104.2242911 110.2822058  34.6323314
 103.6718270 110.7326209  35.9679168 107.2297416 111.2116529  41.1261293
 106.9387282 112.1162160  41.0107959 107.8654400 111.2533057  41.8405362
 108.1553623 108.5893378  37.7162652 108.7517195 108.3649400  37.0019615
 108.2128594 107.8478123  38.3188100 112.7721934 105.0468591  33.3587587
 113.5585023 104.6288015  33.0078004 113.0360638 105.9514684  33.5269235
 115.6955782  98.6965399  38.7215174 115.3639106  99.5660810  38.4976389
 115.1001395  98.3801683  39.4009204 112.1887301 110.8977945  38.1211087
 111.8888024 111.8002983  38.0126894 111.8438361 110.6310128  38.9732239
 105.6399783 107.3491741  34.1547791 104.7150279 107.2167956  34.3625483
 105.8884196 108.1285961  34.6517733 115.5884445 103.4160485  35.8008524
 114.6801322 103.3475893  35.5067285 115.5372041 103.8932430  36.6290349
 103.0008594 106.9925015  34.9891580 103.1300975 107.2459494  35.9030992
 102.3206045 107.5852723  34.6696235 109.6625311 104.8350130  43.7443421
 108.8858645 105.3944051  43.7346286 110.3015874 105.3206913  44.2658291
 117.4546091 101.6176923  37.5786398 116.8120472 101.9109456  36.9326192
 116.9501020 101.5029844  38.3839594 107.9171683 107.6435584  43.3061388
 108.6586367 108.1820628  43.0296212 107.2108669 108.2701873  43.4632940
 113.3927023 109.7864724  41.9033550 113.8010379 109.3447135  41.1588182
 112.6704284 109.2117352  42.1567743 109.7458093 104.7237331  39.2767107
 110.5919288 105.1476745  39.4201756 109.6856730 104.0670955  39.9705670
 112.8957538 102.3841699  40.9348280 112.6518470 103.1383760  40.3982556
 113.1717469 102.7627047  41.7695527 114.8496001 108.9280312  39.6125546
 115.0612896 109.5712072  38.9359927 114.8025749 108.0942628  39.1447476
 112.4522230 101.5398132  36.5162118 111.5906709 101.8379386  36.8078855
 112.4784664 101.7568531  35.5843151 106.1607880 109.6311804  35.8615687
 106.7309237 110.0599073  35.2233171 106.7515992 109.3494389  36.5599873
 106.6533047 104.7975232  44.1076698 106.0231707 105.4791513  44.3412095
 106.5469135 104.6858314  43.1629836 101.9478019 104.4647028  35.0342622
 101.1577073 104.7204557  34.5582733 102.4389267 105.2795366  35.1394663
 103.8992765 104.8291607  31.9926099 103.1023928 104.9410301  32.5109595
 103.6718357 105.1678259  31.1266990 109.7298432 111.3536310  39.9408614
 109.7942865 111.8156718  40.7766785 109.0209356 110.7233675  40.0690923
 100.2315722 104.7177518  37.4657613 100.4823761 105.6024528  37.7315189
 100.7675271 104.5382120  36.6932705 105.9313790  99.0995998  46.4701949
 105.5380735  98.5462196  47.1449593 106.7479930  99.4106576  46.8608467
 108.8481751 100.5153877  44.0622206 109.5891464 101.1161030  43.9826668
 109.0799673  99.7731515  43.5040248 103.9923089 105.7010244  42.3400435
 103.8776604 104.7995501  42.6407534 103.1367606 105.9473941  41.9885252
 105.8302047 115.1723786  38.4648615 106.3809473 115.0440849  37.6925608
 104.9913523 115.4718675  38.1143507 109.6269218 111.4374914  42.8092846
 110.1597555 110.6763202  42.5792154 109.0983300 111.1448566  43.5517000
 112.7938913  96.5434980  38.3386487 112.4503183  97.4336622  38.2625598
 113.1617876  96.3536637  37.4756072 100.8624764 108.8668510  31.1575090
 101.6999986 109.2765519  30.9408797 101.0403032 107.9267952  31.1275283
 110.3436307 101.3793292  31.9044161 109.4877904 100.9900142  31.7249800
 110.7563259 101.4585253  31.0443946 111.8735454  98.9139635  36.3035721
 111.3700249  98.8769770  35.4903526 112.1666061  99.8232378  36.3632377
 108.1178340  98.9978365  35.3101902 108.9831336  98.8021173  34.9507792
 108.1855849  98.7688716  36.2371259 105.7240659 101.2280573  32.6818269
 106.2984411 101.0055754  31.9491462 106.3111641 101.2969267  33.4346871
 108.0263327  98.1021822  31.4093339 107.3727739  97.7870839  30.7849953
 107.9843801  97.4797562  32.1353162 111.2601067 104.5903755  35.7340986
 110.3423628 104.8118702  35.5762674 111.6761210 104.6650066  34.8752694
 114.5926579  95.8028539  33.4404225 114.8985456  94.9425902  33.1530140
 115.3179184  96.3946159  33.2403219 100.8850935 106.2059226  31.8285823
 100.6875335 105.6128586  31.1036890 100.3297599 105.9011436  32.5461762
 108.8647659 106.0982332  33.9480416 108.9196269 105.1456168  33.8722893
 108.0538861 106.2541771  34.4321715 106.8040019 104.7159392  31.7070795
 105.9907884 105.0153562  32.1135987 107.2999013 104.3215081  32.4245277
 112.4014230 105.1801216  40.5385689 112.7563618 105.4072689  41.3980155
 113.0486362 105.5119593  39.9162944 106.2954094 102.2877747  37.3232030
 106.9353473 102.1466506  36.6254993 105.4631624 102.0012261  36.9470632
 103.2982710 102.2578072  32.1005017 103.5589527 103.1723406  31.9914177
 104.1199882 101.7902515  32.2501630 104.7707635 103.6715830  39.2703841
 105.4430689 103.4633192  38.6216490 103.9437422 103.4737916  38.8309074
 110.6733207 100.2977770  41.2869502 110.0261122 100.9967720  41.1933979
 111.4434223 100.7313914  41.6545750 110.8497342 108.1358535  39.3466322
 111.7789402 108.2869695  39.1735289 110.4288372 108.2242556  38.4914968
 109.6485673 112.1609200  37.1164860 109.5096759 111.7927984  37.9890798
 108.8600270 112.6756839  36.9448817 105.1735133 106.9458432  40.0306278
 105.0354930 106.2138671  40.6317818 106.0840056 106.8567333  39.7490466
 107.8017433 106.6578392  39.5189958 108.5117052 106.0171584  39.4776577
 107.7586741 106.9091287  40.4416139 106.5146367 103.6443610  41.3385598
 105.9783724 103.1934348  41.9907194 105.9263076 103.7789519  40.5956062
  97.4450766 107.8909421  33.9953568  98.1321806 107.5771151  33.4074584
  97.2898895 108.7950785  33.7220820 102.2485488 102.7799617  38.4238592
 102.1643677 102.1725287  37.6889002 101.4268195 103.2708636  38.4248088
 112.4209202 101.2653181  33.7908787 112.9177902 100.5123143  33.4709857
 111.6496184 101.3017498  33.2251996 109.0044171 103.4070564  33.5180472
 108.6341959 102.8541604  34.2061377 109.5003263 102.8028697  32.9655472
 106.8333370 113.8668059  40.6135490 107.5342829 114.5004542  40.7664884
 106.3628485 114.2082790  39.8531129 114.8628197  98.2322774  35.9388146
 113.9491277  98.4627001  36.1070353 115.2921299  98.3161218  36.7902178
 114.6334656 106.4212666  38.4388040 113.9806106 106.6688574  37.7840493
 115.0115035 105.6076805  38.1050517 110.6822229 107.1632477  44.9254077
 110.0062866 107.0626607  45.5956452 111.5049862 107.0071691  45.3890074
 102.4301088 113.4004414  37.5466592 103.0154524 112.6548102  37.6794497
 102.2325926 113.7108371  38.4303256  97.0218742 105.9710014  36.2671036
  97.0602842 105.4373605  37.0608154  96.5159035 105.4445220  35.6482013
 104.4009505 100.8174555  39.7633578 104.4650831 101.6789386  39.3510976
 104.3376625 100.2048556  39.0305936 103.8761777 102.8897687  43.4106612
 104.5033816 102.5074765  44.0244136 103.0189696 102.6711889  43.7762305
 100.6527320 104.6974116  29.3424967 100.9480761 103.7884795  29.2892021
  99.7515356 104.6761856  29.0205969 104.1821567 102.7730113  35.3252516
 103.4608153 103.3866081  35.1859989 104.9714823 103.3087878  35.2469161
 106.9847880 100.1084539  41.5993167 107.5082282 100.3546836  42.3619477
 106.7660214 100.9404574  41.1796305 102.3815162 102.3788214  29.4664292
 102.0527868 101.4985593  29.2839398 102.7354532 102.3235883  30.3540681
 105.4956985 102.6661184  29.8339770 105.8353057 103.1947105  29.1118378
 105.9429105 103.0041590  30.6098336 108.1900426 101.0498235  39.2842838
 107.8497246 100.2506048  39.6863518 107.4839432 101.3499945  38.7119671
 108.8416897  98.1347547  37.7370161 109.6642967  97.6608025  37.6149051
 109.0854961  98.9138031  38.2368847 106.3655476 104.8266668  35.5462139
 106.2200057 105.1406971  36.4386421 105.8880680 105.4451568  34.9933038
 108.2251859 101.8169216  35.5943029 108.2113428 100.9210309  35.2575327
 108.9424287 101.8239879  36.2281315 110.0777990 102.2506556  37.6396156
 109.8195768 103.1723626  37.6380487 109.5463030 101.8536990  38.3296621
 100.8401138 107.3672012  38.4849801 100.2954606 108.1431820  38.6170075
 101.7180488 107.7142816  38.3268922 107.6288755 100.6983596  30.8630599
 107.7504666  99.7700242  31.0621487 107.3390797 100.7122282  29.9508915
 110.4979945  98.3838506  33.9997319 110.5201642  98.4477839  33.0449299
 110.9148004  97.5443015  34.1937825 101.6267160 106.4941908  41.3779957
 100.8848896 106.6424544  41.9644588 101.3059904 106.7550174  40.5146707
 100.2732379 112.2993663  34.3679286  99.4364287 111.8715838  34.1863287
 100.2456024 112.4926107  35.3050077 107.1129834 102.2115593  45.0720532
 107.1617990 103.0877716  44.6898301 107.6552349 101.6692986  44.4992175
 115.0086318 105.5880111  42.9813704 115.9096180 105.4486576  42.6897702
 115.0834292 105.7534566  43.9211881 109.3429123 102.9646966  41.8266890
 108.4732432 103.2580532  41.5549479 109.5788603 103.5487411  42.5474154
 117.4687940 107.1478739  40.3776477 117.9442062 107.3406385  39.5695328
 116.5453506 107.2037925  40.1319861 112.0468157  99.1826583  39.3432311
 112.5650101  99.9187609  39.0178799 111.6923290  99.4890576  40.1779070
 112.2980751  95.6026865  34.8633207 112.5782505  94.9350054  35.4893634
 113.0831358  95.7955961  34.3507871 116.1689609 104.0244499  38.6104782
 117.1207032 104.1242597  38.6317007 115.9993060 103.2322768  39.1202867
 114.1903989 101.1100082  38.7964183 113.5953921 101.3905095  38.1010672
 113.9053685 101.5993983  39.5680924 118.7972176 104.0361662  37.7705365
 118.2811224 103.2520119  37.5835294 119.6812124 103.7080379  37.9351885
 116.4582902  97.7802678  33.7301178 116.2607724  97.4717766  34.6144510
 117.0682608  98.5064317  33.8599108 110.3699710 110.1664418  45.2274943
 111.2902720 110.3443017  45.4214990 110.3349293 109.2220463  45.0754642
  99.5881875 105.3603012  34.1528218  99.2684660 104.5068320  33.8602592
  99.0415304 105.5751590  34.9086185 103.3661783 108.0765453  37.8697724
 103.5847793 109.0082560  37.8885758 103.7787557 107.7173427  38.6552528
 110.2866001  98.5833538  29.8573413 109.4766729  98.2380623  30.2328659
 110.9750418  98.2741082  30.4461024 112.2156549  97.6611585  31.4797709
 112.7687588  98.0807038  32.1387732 112.4526635  96.7347333  31.5220665
 108.2389648 103.6498658  47.2600473 108.1386375 104.5993015  47.1912564
 108.0211190 103.3216897  46.3876543  99.4570135 108.9805923  36.1221339
  98.7633607 108.5659876  35.6091294 100.2043126 109.0226460  35.5254758
 114.0438923  99.1717168  33.1897694 114.5438701  99.2833702  32.3812013
 114.6874530  98.8678220  33.8298502 108.1020918 107.0795797  46.0765535
 107.6188000 107.8796157  46.2829424 108.1881857 107.0903742  45.1232979
 101.3706878 108.9124177  33.9987354 101.3477566 109.0111864  33.0469237
 101.6807514 109.7589328  34.3204520 104.0294256 110.9700332  38.1133969
 104.9837509 110.9384274  38.0463900 103.8306779 110.5090956  38.9284195
 104.6193638 109.5401448  40.6804766 105.4386527 110.0345527  40.7039604
 104.8930446 108.6233416  40.6522334 117.7274770 101.9558721  33.7587061
 118.5035160 102.4455174  34.0311678 117.0022904 102.3816775  34.2158931
  99.8728552 103.8739582  41.3796963 100.5187416 103.3638536  41.8684189
  99.6645703 104.6108263  41.9540389 112.2084282  94.7322403  31.3866796
 111.4416678  94.1780890  31.5323479 112.6194987  94.8044272  32.2480948
 104.2126043 101.0207199  45.4771978 105.0757505 100.6644004  45.6875302
 103.6391454 100.6821094  46.1647382  46.0352401  -1.3261399  30.6633243
  45.5916255  -2.1125020  30.3454147  46.6969614  -1.1382248  29.9977133
  48.1333639  -1.0458599  28.6914644  48.1152114  -0.2249718  28.1994913
  49.0553559  -1.1704524  28.9164785  49.0449480  -4.4062761  31.0865362
  48.8934986  -4.6352209  30.1695446  49.0354159  -3.4492159  31.0996707
  50.7541686  -1.3743638  29.1641844  50.6954232  -2.0584418  28.4972427
  51.1561205  -0.6324648  28.7122470  49.2393360  -1.6728721  31.7405654
  49.7833264  -1.0598763  31.2460609  48.6580205  -1.1149143  32.2572667
  52.5622154  -2.2132667  31.0766975  51.7717698  -2.2308528  30.5371475
  52.3255509  -1.6744373  31.8316012  54.1838226  -2.9443259  28.6341726
  53.8923035  -2.5813279  29.4705186  53.5710358  -3.6576251  28.4555058
  47.3619419  -4.0268954  33.6034411  48.2310578  -3.8528302  33.2421046
  46.8826170  -3.2074537  33.4810140  59.0211894   7.6819672  23.0079685
  59.6590304   7.5626419  22.3043025  58.9032737   8.6300516  23.0667637
  55.8301601   7.6347100  22.9441210  55.4920112   7.5188165  22.0561745
  56.6991369   7.2338265  22.9242216  56.3121384   8.7881952  28.9027415
  56.3010025   8.3934750  28.0307919  56.4742023   8.0548024  29.4961187
  49.2352848  10.9833768  21.7722321  50.0274140  10.6424592  21.3568621
  49.4749499  11.0928743  22.6924475  53.0328645  11.5719063  27.8506599
  52.7418511  12.4764694  27.7353266  53.6685629  11.6135591  28.5650669
  53.9584852   8.9495912  24.4407959  54.5548424   8.7251934  23.7264922
  54.0159823   8.2080657  25.0433407  63.9761590   5.3446359  20.9865872
  64.7086762   4.7745576  21.2203701  63.2200946   4.9567959  21.4272377
  61.4987010  -0.9432067  25.4460480  61.1670335  -0.0736656  25.2221695
  60.9032624  -1.2595783  26.1254511  57.9918530  11.2580479  24.8456393
  57.6919253  12.1605518  24.7372200  57.6469589  10.9912662  25.6977546
  61.3915674   3.7763019  22.5253830  60.4832551   3.7078427  22.2312591
  61.3403270   4.2534964  23.3535656  52.9739310  18.0224799  17.8127361
  52.8963339  18.9732624  17.8915841  52.3700953  17.6770672  18.4702287
  55.4656540   5.1952665  30.4688728  54.6889874   5.7546585  30.4591592
  56.1047103   5.6809448  30.9903598  63.2577320   1.9779457  24.3031704
  62.6151700   2.2711991  23.6571499  62.7532249   1.8632378  25.1084901
  53.7202912   8.0038118  30.0306695  54.4617596   8.5423162  29.7541518
  53.0139897   8.6304407  30.1878247  59.1958251  10.1467258  28.6278856
  59.6041608   9.7049669  27.8833489  58.4735513   9.5719886  28.8813049
  55.5489322   5.0839865  26.0012413  56.3950517   5.5079279  26.1447062
  55.4887959   4.4273490  26.6950976  59.5187066  10.7068449  22.3831145
  58.8895929  10.8714163  21.6807213  59.1312728  11.1210059  23.1542109
  63.3976298  11.6422887  19.7375509  62.7127336  12.0221788  19.1872542
  63.4820147  12.2518214  20.4707457  58.6988767   2.7444234  27.6593587
  58.4549699   3.4986294  27.1227863  58.9748697   3.1229581  28.4940834
  60.6527230   9.2882846  26.3370852  60.8644125   9.9314606  25.6605233
  60.6056978   8.4545163  25.8692782  55.0715028  10.4442857  19.6481230
  55.5353374  10.7230560  18.8585853  54.8071826   9.5426302  19.4654321
  51.9639109   9.9914339  22.5860993  52.5340466  10.4201607  21.9478478
  52.5547221   9.7096923  23.2845179  52.4564276   5.1577766  30.8322005
  51.8262936   5.8394047  31.0657402  52.3500363   5.0460848  29.8875143
  61.7673058  12.1654801  24.5093210  62.5890501  11.7634989  24.2275891
  61.7635460  12.0623036  25.4609326  55.5329661  11.7138845  26.6653920
  55.5974094  12.1759252  27.5012092  54.8240585  11.0836210  26.7936230
  69.8579051   8.5093550  20.8578181  69.1042759   7.9400948  20.7022186
  69.9926592   8.4756214  21.8048816  51.7345018  -0.5401468  33.1947256
  51.3411964  -1.0935269  33.8694900  52.5511159  -0.2290890  33.5853773
  50.5101961  14.0148146  19.1883579  50.6868589  14.9366111  19.0004563
  51.3058794  13.7006566  19.6177959  54.6512979   0.8756411  30.7867512
  55.3922693   1.4763564  30.7071975  54.8830902   0.1334049  30.2285555
  49.7954317   6.0612778  29.0645742  49.6807832   5.1598036  29.3652841
  48.9398835   6.3076475  28.7130559  56.8746155  14.0030519  30.6633243
  56.4310009  13.2166897  30.3454147  57.5363369  14.1909669  29.9977133
  51.6333276  15.5326320  25.1893921  52.1840701  15.4043384  24.4170915
  50.7944752  15.8321209  24.8388814  58.9727393  14.2833319  28.6914644
  58.9545868  15.1042200  28.1994913  59.8947313  14.1587394  28.9164785
  55.4300447  11.7977448  29.5338152  55.9628784  11.0365736  29.3037460
  54.9014528  11.5051100  30.2762307  61.7746006   9.1212461  22.1624011
  61.1169680   9.8111722  22.2504139  62.5786405   9.5108893  22.5057997
  60.5851465   7.4756834  20.2127952  61.0983347   8.1086826  20.7149662
  61.2352689   6.8758029  19.8471312  57.0632296   4.9506289  22.4586293
  56.1454857   5.1721236  22.3007981  57.4792439   5.0252600  21.5998000
  61.3513261  12.4562835  18.3407095  60.8975588  11.6153745  18.3972285
  60.7207228  13.0924234  18.6781875  59.7946200  14.2939332  19.2756913
  60.0869175  14.8544389  18.5569279  60.3044821  14.5867893  20.0310072
  54.7579825  15.0719683  20.3650366  54.7156004  15.2980529  19.4358898
  55.6742524  14.8383058  20.5136167  58.2045459   5.5403751  27.2630996
  58.5594847   5.7675224  28.1225461  58.8517590   5.8722127  26.6408251
  63.9343196   8.6622186  17.9680325  63.7961095   8.8523782  17.0401514
  63.5779415   9.4241569  18.4248376  63.9612576  10.7298713  22.9791596
  64.3949082  10.6374003  23.8274650  64.6744156  10.7056214  22.3411612
  52.8745626  11.9482712  20.1612329  53.6686225  11.4533032  19.9594904
  52.1637319  11.4200575  19.7980035  57.6940471  14.3300808  24.5124697
  57.7477493  14.8991744  25.2802413  56.8255252  14.5002693  24.1478734
  50.5738864   4.0318364  25.9949148  51.2461918   3.8235726  25.3461797
  49.7468651   3.8340450  25.5554380  64.8228125  10.7722414  25.5124481
  65.0164015  11.6768225  25.7583756  64.7228744  10.3129833  26.3463067
  56.4764436   0.6580305  28.0114809  55.8292351   1.3570254  27.9179285
  57.2465451   1.0916449  28.3791057  59.8843234  10.9229157  31.0865362
  59.7328740  10.6939709  30.1695446  59.8747914  11.8799758  31.0996707
  56.6528570   8.4961070  26.0711629  57.5820630   8.6472229  25.8980596
  56.2319600   8.5845090  25.2160275  55.4516902  12.5211734  23.8410166
  55.3127988  12.1530518  24.7136104  54.6631498  13.0359373  23.6694124
  56.0465054  17.6220830  15.1835703  56.2216810  17.1508874  15.9981325
  55.3597842  18.2486597  15.4116963  57.0022117  11.8993337  21.2299004
  56.6671950  11.8594107  22.1256654  56.5026063  11.2338053  20.7569414
  50.9766361   7.3060967  26.7551585  50.8386159   6.5741206  27.3563124
  51.8871285   7.2169867  26.4735773  53.6048662   7.0180926  26.2435265
  54.3148281   6.3774118  26.2021883  53.5617970   7.2693821  27.1661446
  61.5935441  13.9548279  29.1641844  61.5347987  13.2707499  28.4972427
  61.9954959  14.6967269  28.7122470  52.3177596   4.0046144  28.0630904
  51.7814953   3.5536882  28.7152501  51.7294304   4.1392053  27.3201369
  50.6126139  20.7710193  21.9575563  50.8522738  21.4028717  22.6354581
  49.7695336  20.4198233  22.2440922  61.5952848  11.9187863  27.3955824
  60.7079627  11.5813785  27.5182223  62.1651399  11.1870895  27.6324589
  55.1254001  16.5789316  24.3617067  55.0524173  17.3844287  24.8736371
  54.6831394  16.7781281  23.5365088  54.9143781  15.8161086  17.8719888
  54.1311303  16.3582766  17.9658113  55.6136526  16.3335065  18.2714130
  66.0770188   7.3296081  22.1572385  66.0660065   8.2120796  21.7866318
  65.2087568   6.9767631  21.9626922  57.5852685  16.4776150  26.5175226
  58.2980657  17.1123615  26.4451127  57.0942714  16.5740016  25.7015227
  59.3070212  10.3827402  18.0892517  58.3726491  10.5028865  17.9197221
  59.4846880   9.4799869  17.8252527  62.6942763   6.2244722  18.6242551
  63.1603215   7.0572713  18.5502854  63.1450264   5.7589703  19.3287810
  52.6364598  14.2270593  27.3380796  53.3374058  14.8607076  27.4910191
  52.1659713  14.5685325  26.5776436  60.4365884   6.7815201  25.1633347
  59.7837335   7.0291108  24.5085799  60.8146264   5.9679339  24.8295824
  57.3973058  16.8174894  19.2661517  57.5795453  15.9996550  19.7289269
  58.2206044  17.0342586  18.8286407  57.7315224  15.7443079  16.5276565
  58.2602990  15.2335533  15.9146728  57.9943443  15.4285609  17.3922098
  56.4853457   7.5235012  31.6499384  55.8094094   7.4229141  32.3201759
  57.3081091   7.3674225  32.1135381  48.2332316  13.7606948  24.2711899
  48.8185753  13.0150636  24.4039803  48.0357155  14.0710905  25.1548563
  51.0870972  16.7958196  19.2874341  50.4181347  17.2804323  18.8038381
  50.9483841  17.0427416  20.2017720  55.2276240  18.8301939  25.8857000
  55.7794548  18.9933561  26.6506085  55.5682434  19.4206377  25.2137025
  49.6793006   3.2500221  30.1351919  50.3065045   2.8677299  30.7489443
  48.8220925   3.0314423  30.5007611  60.0787115  13.6563197  31.7405654
  60.6227019  14.2693155  31.2460609  59.4973959  14.2142775  32.2572667
  58.3644628  16.7783915  22.8720682  58.2395767  15.9773654  22.3631627
  59.0223719  17.2730108  22.3834652  60.4279536  14.5792935  24.5000232
  59.4809871  14.4598286  24.4278559  60.7762309  13.6915433  24.5826493
  52.7879109   0.4687074  28.3238474  53.3113511   0.7149370  29.0864783
  52.5691443   1.3007108  27.9041611  57.4325969  14.3745651  20.7004584
  57.2850932  13.4462358  20.8812154  58.2579463  14.3965742  20.2161659
  61.0360091  15.1974210  21.7869457  61.9606639  14.9917071  21.6493908
  60.8675394  14.9490611  22.6958798  53.9931654   1.4100769  26.0088144
  53.6528475   0.6108582  26.4108824  53.2870661   1.7102480  25.4364978
  55.8809219   2.6109090  24.3641463  55.6226996   3.5326161  24.3625793
  55.3494259   2.2139525  25.0541927  60.8255407  15.7159877  17.1431548
  60.9992285  15.1506300  16.3905401  61.3184299  16.5160772  16.9611038
  46.6432367   7.7274546  25.2095107  46.0985835   8.5034354  25.3415382
  47.5211717   8.0745351  25.0514229  66.6794798   8.4796300  18.7621848
  67.1225944   7.7303625  18.3640971  65.8021309   8.4706436  18.3795580
  61.8130580  15.0326642  14.2428447  62.5081484  15.6533334  14.4615761
  62.1553730  14.1821993  14.5180825  47.4298389   6.8544442  28.1025264
  46.6880125   7.0027078  28.6889895  47.1091133   7.1152708  27.2392014
  63.7122003  12.4826347  15.7715777  64.2373327  12.8213620  15.0465097
  63.6244355  11.5473362  15.5878912  55.3742052  16.3960421  27.9005654
  55.6829178  16.1509567  28.7728354  56.1717534  16.6007059  27.4124524
  55.3962664  18.5498330  20.1311031  54.9567654  18.0574709  20.8243887
  56.1470781  18.0071298  19.8903106  47.8755003  14.7409871  20.1335659
  48.7013023  14.4413643  19.7534302  47.5249055  13.9717494  20.5825447
  52.8436536  14.0936339  22.2033332  52.2216545  13.4307044  21.9035560
  53.5141403  14.1197471  21.5206980  52.9161063   2.5718127  31.7965838
  52.9649219   3.4480250  31.4143608  53.4583577   2.0295520  31.2237482
  63.4015909  13.1159251  31.0766975  62.6111453  13.0983390  30.5371475
  63.1649264  13.6547544  31.8316012  63.5213784   9.9651717  28.3899704
  63.5711789   9.8001725  29.3315227  63.4127707   9.0978976  27.9997585
  60.8117546   5.9482645  29.7059011  61.7127409   5.8089110  29.4143008
  60.8865521   6.1137100  30.6457188  55.1460352   3.3249500  28.5512197
  54.2763661   3.6183066  28.2794786  55.3819832   3.9089945  29.2719461
  65.0231981  12.3848659  28.6341726  64.7316789  12.7478639  29.4705186
  64.4104112  11.6715667  28.4555058  66.2227663   9.9501538  21.1544296
  67.0574555  10.3891342  21.3181856  66.3586792   9.4740192  20.3352542
  63.2719169   7.5081273  27.1021783  63.7473291   7.7008920  26.2940635
  62.3484734   7.5640459  26.8565167  57.8499386  -0.4570883  26.0677617
  58.3681329   0.2790144  25.7424106  57.4954518  -0.1506890  26.9024377
  61.9720838   4.3847033  25.3350089  62.9238261   4.4845131  25.3562313
  61.8024288   3.5925302  25.8448173  59.9935218   1.4702617  25.5209490
  59.3985150   1.7507629  24.8255979  59.7084914   1.9596517  26.2926231
  64.4508916   7.6053153  24.4492389  64.4185236   6.6669154  24.6352073
  65.0609540   7.6837190  23.7158214  64.6003404   4.3964196  24.4950672
  64.0842453   3.6122653  24.3080601  65.4843353   4.0682913  24.6597191
  70.2685466   8.6669160  23.5898426  70.9988854   8.4054448  24.1506129
  69.6592411   7.9297882  23.6300494  68.3500763   6.8077022  24.1872877
  67.6233926   6.6732987  23.5789368  67.9348050   7.1153851  24.9929595
  56.1730939  10.5266952  31.9520250  57.0933949  10.7045551  32.1460296
  56.1380522   9.5822997  31.7999949  49.1693012   8.4367987  24.5943031
  49.3879022   9.3685095  24.6131065  49.5818786   8.0775961  25.3797835
  54.0420877   4.0101193  33.9845780  53.9417604   4.9595549  33.9157871
  53.8242419   3.6819431  33.1121850  53.9052147   7.4398331  32.8010842
  53.4219229   8.2398691  33.0074731  53.9913086   7.4506276  31.8478286
  49.8325485  11.3302866  24.8379275  50.7868738  11.2986808  24.7709207
  49.6338008  10.8693490  25.6529501  50.4224867   9.9003982  27.4050073
  51.2417756  10.3948061  27.4284910  50.6961675   8.9835950  27.3767640
  63.5305999   2.3161255  20.4832368  64.3066389   2.8057708  20.7556985
  62.8054133   2.7419310  20.9404237  65.9678558   3.0288875  21.5406308
  66.5623049   2.7884611  20.8299617  66.0405141   2.3096005  22.1679845
  48.1875713  16.8722486  21.8549473  48.0530181  16.1122886  21.2887471
  47.7707776  17.5963385  21.3878262  68.2749631   6.3355075  20.3149730
  67.7149188   6.4048265  21.0881292  67.6693134   6.1596060  19.5949226
  51.3444839  17.7691803  22.0667916  51.2277223  18.7137235  21.9646606
  50.5237286  17.4665364  22.4553715  45.6759781   4.2342116  28.1042270
  46.3218645   3.7241070  28.5929495  45.4676932   4.9710798  28.6785695
  58.2013173  11.3022963  33.6034411  59.0704333  11.4763616  33.2421046
  57.7219925  12.1217380  33.4810140  52.3699353  18.4220064  25.2823844
  53.2726600  18.4543675  25.5990339  52.1436724  17.4920515  25.2970180
  54.1252955  17.1751051  21.9433923  53.1748586  17.1752913  21.8298295
  54.4285442  16.4283786  21.4269957  50.0157272   1.3809733  32.2017284
  50.8788734   1.0246538  32.4120609  49.4422683   1.0423628  32.8892689
  69.8605649  23.0111589  23.0079685  70.4984059  22.8918337  22.3043025
  69.7426492  23.9592433  23.0667637  66.6695355  22.9639017  22.9441210
  66.3313867  22.8480082  22.0561745  67.5385123  22.5630183  22.9242216
  62.5282171  24.8174494  18.9338101  61.9647036  24.7264431  18.1654389
  62.4134566  23.9974398  19.4140593  67.1515138  24.1173869  28.9027415
  67.1403779  23.7226667  28.0307919  67.3135778  23.3839942  29.4961187
  60.0746603  26.3125686  21.7722321  60.8667895  25.9716510  21.3568621
  60.3143253  26.4220661  22.6924475  68.1081730  28.4845462  14.2452566
  67.4569709  29.0699542  13.8586580  68.9026092  29.0151657  14.3047603
  62.0337357  25.5734599  14.6439700  62.8068233  25.0263586  14.5052576
  62.3862756  26.4378848  14.8554162  63.8722399  26.9010981  27.8506599
  63.5812265  27.8056612  27.7353266  64.5079384  26.9427509  28.5650669
  64.7978606  24.2787830  24.4407959  65.3942178  24.0543852  23.7264922
  64.8553578  23.5372575  25.0433407  64.3703635  21.7327265  12.2758150
  64.6229155  21.2108786  11.5141613  63.4328194  21.5693410  12.3784834
  69.4146917  20.7363043  20.0832893  70.2010007  20.3182466  19.7323310
  69.6785622  21.6409135  20.2514542  69.5856995  26.1735894  14.7821550
  68.9502828  26.2470520  15.4942455  69.2554401  26.7629492  14.1040629
  74.8155345  20.6738276  20.9865872  75.5480517  20.1037493  21.2203701
  74.0594700  20.2859877  21.4272377  64.0899923  23.6355371  14.4782525
  63.9736181  22.9600274  15.1463609  64.2002183  23.1487745  13.6614678
  66.4331464  23.0965518  18.1829214  66.0689672  22.5696139  18.8942136
  67.2898580  22.7063987  18.0095700  72.3380765  14.3859851  25.4460480
  72.0064090  15.2555262  25.2221695  71.7426378  14.0696135  26.1254511
  66.0736951  18.1255418  13.1790563  66.2411354  18.9935654  13.5461034
  65.8834120  18.2882699  12.2551852  68.8312284  26.5872397  24.8456393
  68.5313008  27.4897435  24.7372200  68.4863344  26.3204580  25.6977546
  62.2824766  23.0386193  20.8793098  61.3575262  22.9062407  21.0870789
  62.5309179  23.8180413  21.3763040  72.2309428  19.1054937  22.5253830
  71.3226306  19.0370345  22.2312591  72.1797024  19.5826882  23.3535656
  66.0526172  20.5813075  14.1637230  65.9325797  21.0270126  15.0022710
  65.3578761  20.9298393  13.6050768  59.6433577  22.6819467  21.7136887
  59.7725958  22.9353946  22.6276298  58.9631028  23.2747175  21.3941542
  63.8133064  33.3516717  17.8127361  63.7357094  34.3024542  17.8915841
  63.2094708  33.0062589  18.4702287  66.3050294  20.5244582  30.4688728
  65.5283628  21.0838502  30.4591592  66.9440857  21.0101365  30.9903598
  74.0971075  17.3071375  24.3031704  73.4545455  17.6003908  23.6571499
  73.5926003  17.1924295  25.1084901  71.7511238  21.0534548  14.9917564
  72.6629094  21.2861935  14.8165261  71.2420885  21.6371593  14.4292642
  64.5596666  23.3330036  30.0306695  65.3011351  23.8715080  29.7541518
  63.8533652  23.9596324  30.1878247  70.0352006  25.4759176  28.6278856
  70.4435362  25.0341587  27.8833489  69.3129267  24.9011804  28.8813049
  66.3883076  20.4131783  26.0012413  67.2344271  20.8371196  26.1447062
  66.3281714  19.7565407  26.6950976  70.3580821  26.0360367  22.3831145
  69.7289683  26.2006081  21.6807213  69.9706483  26.4501976  23.1542109
  74.2370053  26.9714805  19.7375509  73.5521091  27.3513706  19.1872542
  74.3213902  27.5810131  20.4707457  69.5382521  18.0736151  27.6593587
  69.2943453  18.8278212  27.1227863  69.8142452  18.4521499  28.4940834
  71.4920984  24.6174764  26.3370852  71.7037879  25.2606524  25.6605233
  71.4450732  23.7837080  25.8692782  69.0947213  17.2292584  23.2407425
  68.2331692  17.5273838  23.5324162  69.1209648  17.4462983  22.3088457
  65.9108782  25.7734775  19.6481230  66.3747128  26.0522478  18.8585853
  65.6465581  24.8718219  19.4654321  62.8032864  25.3206256  22.5860993
  63.3734221  25.7493525  21.9478478  63.3940975  25.0388841  23.2845179
  64.8477669  21.8957927  16.4570795  65.5501712  22.3478971  16.9244722
  64.5158297  21.2541746  17.0850688  63.2958030  20.4869684  30.8322005
  62.6656691  21.1685965  31.0657402  63.1894118  20.3752765  29.8875143
  58.5903003  20.1541480  21.7587929  57.8002056  20.4099008  21.2828040
  59.0814250  20.9689818  21.8639969  72.6066812  27.4946719  24.5093210
  73.4284256  27.0926906  24.2275891  72.6029215  27.3914953  25.4609326
  60.5417748  20.5186059  18.7171406  59.7448911  20.6304753  19.2354901
  60.3143340  20.8572711  17.8512296  66.3723416  27.0430762  26.6653920
  66.4367848  27.5051170  27.5012092  65.6634339  26.4128127  26.7936230
  56.8740705  20.4071970  24.1902920  57.1248744  21.2918980  24.4560496
  57.4100254  20.2276572  23.4178012  80.6972805  23.8385468  20.8578181
  79.9436514  23.2692866  20.7022186  80.8320346  23.8048132  21.8048816
  66.0871433  28.7098870  16.5332901  65.9517108  29.5550406  16.9617748
  66.6281246  28.9118147  15.7698834  62.5738773  14.7890450  33.1947256
  62.1805718  14.2356648  33.8694900  63.3904913  15.1001028  33.5853773
  59.5400831  26.2274308  17.1060826  60.0525351  27.0217558  17.2566390
  60.1923543  25.5300598  17.0394427  61.3495715  29.3440064  19.1883579
  61.5262344  30.2658029  19.0004563  62.1452549  29.0298483  19.6177959
  65.4906734  16.2048329  30.7867512  66.2316447  16.8055482  30.7071975
  65.7224657  15.4625967  30.2285555  60.6348072  21.3904696  29.0645742
  60.5201587  20.4889953  29.3652841  59.7792590  21.6368393  28.7130559
  62.4727031  30.8618238  25.1893921  63.0234456  30.7335301  24.4170915
  61.6338507  31.1613127  24.8388814  66.2694202  27.1269366  29.5338152
  66.8022539  26.3657654  29.3037460  65.7408283  26.8343018  30.2762307
  69.4363897  12.2329432  25.0631794  69.0928166  13.1231073  24.9870905
  69.8042859  12.0431089  24.2001379  57.5049747  24.5562962  17.8820396
  58.3424969  24.9659971  17.6654104  57.6828015  23.6162404  17.8520590
  69.4014179  22.2238043  13.5704229  68.8860803  22.9942647  13.8092617
  69.1291488  21.5503179  14.1937291  66.9861290  17.0687744  18.6289468
  66.1302887  16.6794594  18.4495106  67.3988242  17.1479704  17.7689253
  68.5160437  14.6034087  23.0281027  68.0125233  14.5664222  22.2148833
  68.8091044  15.5126830  23.0877684  64.7603323  14.6872817  22.0347209
  65.6256320  14.4915625  21.6753098  64.8280832  14.4583168  22.9616566
  74.3748454  24.9770397  15.5057403  73.5977896  24.6381557  15.0612565
  75.0539935  24.9823021  14.8312368  69.1900483  20.0965135  15.3964010
  68.8850618  20.4111284  16.2474154  70.1430925  20.1746555  15.4391343
  67.6346914  26.2555358  17.0456964  67.1068276  25.5208118  16.7330202
  67.1334417  27.0330035  16.7996933  72.6139761  24.4504379  22.1624011
  71.9563435  25.1403640  22.2504139  73.4180160  24.8400811  22.5057997
  62.3665642  16.9175025  19.4063576  62.9409394  16.6950206  18.6736769
  62.9536625  16.9863719  20.1592177  71.4245219  22.8048751  20.2127952
  71.9377101  23.4378743  20.7149662  72.0746443  22.2049947  19.8471312
  62.6935229  18.9479486  13.4259461  61.8572541  19.2854172  13.7468736
  62.5539999  18.8128465  12.4886598  64.6688310  13.7916273  18.1338645
  64.0152722  13.4765291  17.5095260  64.6268784  13.1692014  18.8598468
  65.7799515  24.0735569  10.0491937  64.8726576  23.8424822  10.2483086
  66.2770547  23.2773188  10.2365919  68.6867594  32.7833076  12.9688624
  68.0129292  33.0864772  13.5773581  69.0733416  33.5862156  12.6194081
  67.9026050  20.2798207  22.4586293  66.9848612  20.5013154  22.3007981
  68.3186194  20.3544517  21.5998000  68.6861098  21.6789623  17.5888973
  69.4332917  22.1911020  17.2796095  68.9552687  21.3573675  18.4493367
  66.9587748  24.1748163  14.5715927  66.0498967  23.8907196  14.6688397
  66.9882832  24.5947242  13.7119234  72.1907016  27.7854753  18.3407095
  71.7369343  26.9445663  18.3972285  71.5600982  28.4216151  18.6781875
  71.1339935  18.7146739  19.5707762  70.3962692  18.2024125  19.9018005
  71.3866709  18.2747121  18.7591039  70.6339955  29.6231250  19.2756913
  70.9262929  30.1836307  18.5569279  71.1438575  29.9159811  20.0310072
  71.2351562  11.4922991  20.1649532  71.5410439  10.6320354  19.8775447
  71.9604167  12.0840611  19.9648526  57.5275918  21.8953677  18.5531130
  57.3300318  21.3023038  17.8282196  56.9722582  21.5905888  19.2707068
  65.5072642  21.7876784  20.6725723  65.5621252  20.8350620  20.5968199
  64.6963844  21.9436223  21.1567021  66.6563836  25.7156907  11.9104006
  66.2183266  24.9992766  11.4509643  67.3974277  25.9433022  11.3489097
  63.4465002  20.4053844  18.4316102  62.6332868  20.7048014  18.8381294
  63.9423996  20.0109532  19.1490584  65.5973580  30.4011601  20.3650366
  65.5549759  30.6272447  19.4358898  66.5136279  30.1674975  20.5136167
  69.0439214  20.8695668  27.2630996  69.3988601  21.0967141  28.1225461
  69.6911345  21.2014045  26.6408251  74.7736951  23.9914104  17.9680325
  74.6354849  24.1815700  17.0401514  74.4173169  24.7533487  18.4248376
  62.9379077  17.9772199  24.0477337  63.5778456  17.8360958  23.3500300
  62.1056607  17.6906713  23.6715939  74.8006330  26.0590631  22.9791596
  75.2342837  25.9665920  23.8274650  75.5137911  26.0348132  22.3411612
  63.7139381  27.2774630  20.1612329  64.5079979  26.7824950  19.9594904
  63.0031073  26.7492493  19.7980035  68.5334225  29.6592725  24.5124697
  68.5871247  30.2283662  25.2802413  67.6649007  29.8294610  24.1478734
  60.0222144  21.4217711  16.2372082  59.0919732  21.3602167  16.4542044
  60.1179616  20.8993664  15.4408723  59.9407693  17.9472524  18.8250323
  60.2014511  18.8617857  18.7159484  60.7624866  17.4796967  18.9746936
  61.4132619  19.3610281  25.9949148  62.0855672  19.1527644  25.3461797
  60.5862405  19.1632367  25.5554380  75.6621880  26.1014332  25.5124481
  75.8557770  27.0060142  25.7583756  75.5622498  25.6421751  26.3463067
  67.3158191  15.9872222  28.0114809  66.6686106  16.6862172  27.9179285
  68.0859206  16.4208366  28.3791057  70.7236989  26.2521074  31.0865362
  70.5722495  26.0231626  30.1695446  70.7141668  27.2091676  31.0996707
  67.4922325  23.8252987  26.0711629  68.4214385  23.9764147  25.8980596
  67.0713355  23.9137008  25.2160275  66.2910657  27.8503652  23.8410166
  66.1521742  27.4822436  24.7136104  65.5025253  28.3651291  23.6694124
  66.8858809  32.9512748  15.1835703  67.0610564  32.4800791  15.9981325
  66.1991597  33.5778514  15.4116963  67.8415872  27.2285254  21.2299004
  67.5065704  27.1886024  22.1256654  67.3419818  26.5629970  20.7569414
  61.8160116  22.6352884  26.7551585  61.6779914  21.9033123  27.3563124
  62.7265039  22.5461784  26.4735773  70.7775064  24.5741289  11.5036064
  70.1604234  23.8488117  11.4069116  70.3091552  25.3350649  11.1603138
  64.4442416  22.3472844  26.2435265  65.1542035  21.7066036  26.2021883
  64.4011725  22.5985739  27.1661446  72.4329195  29.2840197  29.1641844
  72.3741741  28.5999417  28.4972427  72.8348714  30.0259187  28.7122470
  63.1571350  19.3338062  28.0630904  62.6208707  18.8828800  28.7152501
  62.5688059  19.4683970  27.3201369  61.4519894  36.1002111  21.9575563
  61.6916492  36.7320635  22.6354581  60.6089090  35.7490151  22.2440922
  72.4346602  27.2479781  27.3955824  71.5473381  26.9105703  27.5182223
  73.0045154  26.5162812  27.6324589  54.0875750  23.5803873  20.7198875
  54.7746789  23.2665603  20.1319890  53.9323878  24.4845237  20.4466126
  58.8910472  18.4694069  25.1483899  58.8068660  17.8619739  24.4134309
  58.0693178  18.9603088  25.1493395  65.9647756  31.9081233  24.3617067
  65.8917927  32.7136205  24.8736371  65.5225149  32.1073199  23.5365088
  65.7537535  31.1453003  17.8719888  64.9705057  31.6874684  17.9658113
  66.4530281  31.6626983  18.2714130  69.0634186  16.9547633  20.5154094
  69.5602885  16.2017595  20.1955164  68.2921167  16.9911949  19.9497303
  76.9163943  22.6587998  22.1572385  76.9053819  23.5412714  21.7866318
  76.0481322  22.3059549  21.9626922  68.4246439  31.8068067  26.5175226
  69.1374412  32.4415532  26.4451127  67.9336468  31.9031933  25.7015227
  70.1463966  25.7119320  18.0892517  69.2120245  25.8320782  17.9197221
  70.3240635  24.8091787  17.8252527  65.6469154  19.0965016  20.2425778
  65.2766942  18.5436056  20.9306684  66.1428247  18.4923149  19.6900778
  73.5336518  21.5536639  18.6242551  73.9996970  22.3864631  18.5502854
  73.9844018  21.0881621  19.3287810  63.4758353  29.5562511  27.3380796
  64.1767812  30.1898994  27.4910191  63.0053468  29.8977242  26.5776436
  71.6012749  27.8980461  15.6228703  71.8772593  27.7837055  16.5322577
  70.7317247  27.4997945  15.5840876  71.5053180  13.9217226  22.6633453
  70.5916260  14.1521453  22.8315660  71.9346282  14.0055670  23.5147485
  71.2759639  22.1107118  25.1633347  70.6231089  22.3583026  24.5085799
  71.6540019  21.2971256  24.8295824  68.2366813  32.1466811  19.2661517
  68.4189207  31.3288467  19.7289269  69.0599799  32.3634504  18.8286407
  68.5708978  31.0734997  16.5276565  69.0996745  30.5627451  15.9146728
  68.8337198  30.7577527  17.3922098  67.3247212  22.8526929  31.6499384
  66.6487849  22.7521059  32.3201759  68.1474846  22.6966143  32.1135381
  59.0726071  29.0898866  24.2711899  59.6579508  28.3442554  24.4039803
  58.8750909  29.4002823  25.1548563  61.9264726  32.1250113  19.2874341
  61.2575101  32.6096241  18.8038381  61.7877596  32.3719334  20.2017720
  53.6643726  21.6604466  22.9916342  53.7027825  21.1268057  23.7853460
  53.1584019  21.1339672  22.3727319  66.0669995  34.1593857  25.8857000
  66.6188303  34.3225478  26.6506085  66.4076188  34.7498295  25.2137025
  61.0434488  16.5069007  26.4878884  61.1075814  17.3683837  26.0756282
  60.9801608  15.8943008  25.7551243  60.5186761  18.5792139  30.1351919
  61.1458799  18.1969216  30.7489443  59.6614679  18.3606341  30.5007611
  57.2952303  20.3868568  16.0670274  57.5905744  19.4779247  16.0137327
  56.3940339  20.3656308  15.7451276  69.2038382  32.1075832  22.8720682
  69.0789521  31.3065572  22.3631627  69.8617473  32.6022026  22.3834652
  60.8246550  18.4624565  22.0497822  60.1033136  19.0760533  21.9105295
  61.6139806  18.9982330  21.9714468  71.2673290  29.9084852  24.5000232
  70.3203626  29.7890204  24.4278559  71.6156064  29.0207350  24.5826493
  63.6272864  15.7978991  28.3238474  64.1507266  16.0441288  29.0864783
  63.4085197  16.6299026  27.9041611  59.0240145  18.0682666  16.1909599
  58.6952851  17.1880045  16.0084705  59.3779516  18.0130335  17.0785988
  68.2719724  29.7037569  20.7004584  68.1244686  28.7754276  20.8812154
  69.0973217  29.7257659  20.2161659  62.1381968  18.3555636  16.5585076
  62.4778041  18.8841557  15.8363685  62.5854088  18.6936042  17.3343643
  71.8753846  30.5266127  21.7869457  72.8000393  30.3208989  21.6493908
  71.7069149  30.2782528  22.6958798  64.8325409  16.7392686  26.0088144
  64.4922229  15.9400499  26.4108824  64.1264415  17.0394397  25.4364978
  65.4841881  13.8241999  24.4615467  66.3067950  13.3502477  24.3394358
  65.7279944  14.6032483  24.9614154  64.1250115  16.8530257  14.7578369
  64.8458478  17.2311510  14.2542086  63.5015419  17.5719134  14.8613347
  68.2681238  17.5575406  15.6936701  68.4844852  18.4400044  15.3925530
  67.7875305  17.1661620  14.9642343  63.0080459  20.5161119  22.2707446
  62.8625040  20.8301423  23.1631728  62.5305663  21.1346020  21.7178345
  64.8676842  17.5063667  22.3188336  64.8538411  16.6104761  21.9820634
  65.5849270  17.5134331  22.9526622  66.7202973  17.9401008  24.3641463
  66.4620751  18.8618078  24.3625793  66.1888013  17.5431442  25.0541927
  71.6649162  31.0451795  17.1431548  71.8386039  30.4798217  16.3905401
  72.1578053  31.8452690  16.9611038  57.4826122  23.0566464  25.2095107
  56.9379590  23.8326272  25.3415382  58.3605471  23.4037268  25.0514229
  64.2713738  16.3878048  17.5875906  64.3929649  15.4594694  17.7866793
  63.9815781  16.4016734  16.6754221  67.1404929  14.0732958  20.7242626
  67.1626625  14.1372291  19.7694605  67.5572988  13.2337467  20.9183132
  77.5188553  23.8088218  18.7621848  77.9619699  23.0595543  18.3640971
  76.6415063  23.7998354  18.3795580  72.6524334  30.3618559  14.2428447
  73.3475239  30.9825252  14.4615761  72.9947484  29.5113910  14.5180825
  58.2692143  22.1836360  28.1025264  57.5273879  22.3318995  28.6889895
  57.9484888  22.4444626  27.2392014  74.5515757  27.8118265  15.7715777
  75.0767081  28.1505537  15.0465097  74.4638110  26.8765280  15.5878912
  66.2356418  33.8790248  20.1311031  65.7961408  33.3866627  20.8243887
  66.9864535  33.3363216  19.8903106  58.7148757  30.0701789  20.1335659
  59.5406777  29.7705561  19.7534302  58.3642809  29.3009411  20.5825447
  63.6830290  29.4228257  22.2033332  63.0610300  28.7598962  21.9035560
  64.3535157  29.4489389  21.5206980  56.9157362  27.9888115  21.0924592
  56.0789270  27.5610290  20.9108594  56.8881008  28.1820559  22.0295384
  63.7554818  17.9010045  31.7965838  63.8042973  18.7772168  31.4143608
  64.2977332  17.3587438  31.2237482  74.2409663  28.4451168  31.0766975
  73.4505207  28.4275307  30.5371475  74.0043018  28.9839462  31.8316012
  74.3607538  25.2943635  28.3899704  74.4105543  25.1293642  29.3315227
  74.2521462  24.4270894  27.9997585  63.2443797  27.9732180  15.6791793
  63.3931918  28.6567645  15.0258466  64.0510241  27.9537270  16.1941249
  71.6511301  21.2774563  29.7059011  72.5521164  21.1381028  29.4143008
  71.7259275  21.4429018  30.6457188  65.9854106  18.6541418  28.5512197
  65.1157416  18.9474984  28.2794786  66.2213587  19.2381863  29.2719461
  75.8625735  27.7140576  28.6341726  75.5710544  28.0770557  29.4705186
  75.2497867  27.0007585  28.4555058  77.0621418  25.2793456  21.1544296
  77.8968309  25.7183260  21.3181856  77.1980546  24.8032109  20.3352542
  74.1112924  22.8373191  27.1021783  74.5867045  23.0300837  26.2940635
  73.1878489  22.8932377  26.8565167  60.9996430  23.9997358  16.6852862
  60.7542472  23.0959688  16.8833072  61.1692345  24.0014509  15.7432340
  68.6893140  14.8721034  26.0677617  69.2075084  15.6082061  25.7424106
  68.3348273  15.1785028  26.9024377  60.2692078  19.7325716  14.1839023
  59.5761323  19.8070071  13.5279059  60.0243830  18.9686059  14.7060540
  68.9405734  11.2921317  21.5878514  69.2207488  10.6244506  22.2138941
  69.7256341  11.4850413  21.0753178  66.7439203  30.4680311  13.1503540
  66.1713170  31.0870498  12.6974012  67.3171996  31.0179673  13.6843462
  72.8114593  19.7138951  25.3350089  73.7632015  19.8137049  25.3562313
  72.6418043  18.9217220  25.8448173  70.8328972  16.7994534  25.5209490
  70.2378904  17.0799547  24.8255979  70.5478669  17.2888435  26.2926231
  69.9636462  30.7517461  14.2812123  70.8967136  30.6863023  14.4844998
  69.8759675  31.5873728  13.8226655  72.5924479  30.0683331  11.2416070
  72.5138111  29.7343195  12.1351828  73.4134146  30.5605099  11.2407542
  75.2902670  22.9345071  24.4492389  75.2578990  21.9961071  24.6352073
  75.9003294  23.0129107  23.7158214  67.1286001  21.8041124  10.4919593
  68.0745106  21.6747332  10.5608011  66.7500246  21.0655786  10.9689021
  75.4397159  19.7256114  24.4950672  74.9236207  18.9414571  24.3080601
  76.3237107  19.3974831  24.6597191  73.1007886  13.4697130  20.4546485
  72.9032707  13.1612218  21.3389817  73.7107591  14.1958769  20.5844414
  81.1079220  23.9961077  23.5898426  81.8382609  23.7346366  24.1506129
  80.4986166  23.2589799  23.6300494  79.1894517  22.1368940  24.1872877
  78.4627681  22.0024905  23.5789368  78.7741804  22.4445769  24.9929595
  67.0124694  25.8558870  31.9520250  67.9327703  26.0337469  32.1460296
  66.9774277  24.9114915  31.7999949  65.3128918  19.7291100  10.4274478
  64.4060374  19.4324213  10.5037192  65.5904899  19.4320918   9.5608764
  56.2306859  21.0497463  20.8773524  55.9109643  20.1962772  20.5847898
  55.6840287  21.2646042  21.6331492  60.0086766  23.7659904  24.5943031
  60.2272776  24.6977012  24.6131065  60.4212540  23.4067879  25.3797835
  66.9290984  14.2727990  16.5818719  66.1191712  13.9275075  16.9573965
  67.6175401  13.9635533  17.1706331  68.8581532  13.3506037  18.2043016
  69.4112571  13.7701490  18.8633039  69.0951619  12.4241785  18.2465972
  64.8814632  19.3393110  33.9845780  64.7811359  20.2887467  33.9157871
  64.6636174  19.0111349  33.1121850  56.0995119  24.6700375  22.8466646
  55.4058590  24.2554328  22.3336600  56.8468110  24.7120911  22.2500065
  72.2360339  15.4606562  17.7121680  71.6559009  16.1191366  17.3299733
  71.9696272  14.6383906  17.3009098  70.6863906  14.8611619  19.9143001
  71.1863684  14.9728154  19.1057319  71.3299514  14.5572672  20.5543809
  64.7445902  22.7690249  32.8010842  64.2612983  23.5690609  33.0074731
  64.8306841  22.7798194  31.8478286  58.0131861  24.6018629  20.7232661
  57.9902549  24.7006316  19.7714544  58.3232498  25.4483779  21.0449827
  60.6719239  26.6594784  24.8379275  61.6262493  26.6278726  24.7709207
  60.4731763  26.1985407  25.6529501  61.2618621  25.2295900  27.4050073
  62.0811510  25.7239978  27.4284910  61.5355429  24.3127868  27.3767640
  71.0185217  17.6206652  16.7678028  70.1311073  17.9056303  16.5498223
  71.4339207  17.4600415  15.9205305  74.3699754  17.6453173  20.4832368
  75.1460144  18.1349626  20.7556985  73.6447888  18.0711227  20.9404237
  76.8072312  18.3580792  21.5406308  77.4016803  18.1176528  20.8299617
  76.8798896  17.6387923  22.1679845  59.0269468  32.2014403  21.8549473
  58.8923936  31.4414804  21.2887471  58.6101530  32.9255303  21.3878262
  70.1628431  27.3851327  10.8626048  70.8664281  27.5901329  11.4783704
  69.4391080  27.9528089  11.1275132  70.9926241  23.1361188  16.9828319
  70.9361443  23.5929739  16.1435951  71.5454584  22.3751873  16.8051161
  74.8031047  18.9250920  17.8078438  74.5467981  18.5247556  18.6386646
  74.1783915  19.6394714  17.6828577  79.1143385  21.6646993  20.3149730
  78.5542943  21.7340182  21.0881292  78.5086888  21.4887978  19.5949226
  62.1838594  33.0983720  22.0667916  62.0670978  34.0429153  21.9646606
  61.3631040  32.7957282  22.4553715  72.0715128  27.8233856  12.9124509
  72.9060732  27.3915054  12.7301983  71.9099471  27.6515870  13.8401403
  71.7261021  24.3265969  14.2780848  71.6709824  24.1610241  13.3369292
  71.1007076  25.0342002  14.4343038  56.5153536  19.5634034  28.1042270
  57.1612399  19.0532988  28.5929495  56.3070687  20.3002715  28.6785695
  69.0406928  26.6314881  33.6034411  69.9098087  26.8055533  33.2421046
  68.5613679  27.4509298  33.4810140  65.0357146  13.8274078  13.8566166
  65.0235816  14.7715918  14.0134437  65.9280568  13.6444224  13.5625627
  63.2093108  33.7511982  25.2823844  64.1120355  33.7835592  25.5990339
  62.9830478  32.8212433  25.2970180  64.9646710  32.5042969  21.9433923
  64.0142341  32.5044830  21.8298295  65.2679196  31.7575703  21.4269957
  68.8509265  10.4216855  18.1112103  68.0841661   9.8675342  18.2568785
  69.2619970  10.4938724  18.9726255  60.8551027  16.7101651  32.2017284
  61.7182488  16.3538456  32.4120609  60.2816437  16.3715546  32.8892689
  73.3675925  40.1466412  18.9338101  72.8040791  40.0556349  18.1654389
  73.2528320  39.3266316  19.4140593  70.9140357  41.6417603  21.7722321
  71.7061649  41.3008428  21.3568621  71.1537008  41.7512578  22.6924475
  78.9475484  43.8137379  14.2452566  78.2963464  44.3991460  13.8586580
  79.7419847  44.3443574  14.3047603  72.8731111  40.9026516  14.6439700
  73.6461987  40.3555504  14.5052576  73.2256510  41.7670766  14.8554162
  75.2097389  37.0619183  12.2758150  75.4622910  36.5400704  11.5141613
  74.2721948  36.8985328  12.3784834  80.2540672  36.0654961  20.0832893
  81.0403761  35.6474384  19.7323310  80.5179376  36.9701053  20.2514542
  80.4250749  41.5027811  14.7821550  79.7896582  41.5762438  15.4942455
  80.0948156  42.0921410  14.1040629  85.6549099  36.0030194  20.9865872
  86.3874271  35.4329411  21.2203701  84.8988455  35.6151795  21.4272377
  74.9293678  38.9647289  14.4782525  74.8129936  38.2892192  15.1463609
  75.0395938  38.4779662  13.6614678  77.2725219  38.4257436  18.1829214
  76.9083426  37.8988057  18.8942136  78.1292335  38.0355905  18.0095700
  83.1774519  29.7151768  25.4460480  82.8457844  30.5847179  25.2221695
  82.5820133  29.3988052  26.1254511  76.9130706  33.4547335  13.1790563
  77.0805108  34.3227572  13.5461034  76.7227875  33.6174617  12.2551852
  73.1218520  38.3678111  20.8793098  72.1969017  38.2354325  21.0870789
  73.3702934  39.1472330  21.3763040  83.0703183  34.4346854  22.5253830
  82.1620060  34.3662263  22.2312591  83.0190779  34.9118799  23.3535656
  76.8919927  35.9104993  14.1637230  76.7719552  36.3562044  15.0022710
  76.1972515  36.2590310  13.6050768  70.4827331  38.0111385  21.7136887
  70.6119713  38.2645864  22.6276298  69.8024783  38.6039093  21.3941542
  74.6526819  48.6808635  17.8127361  74.5750848  49.6316460  17.8915841
  74.0488462  48.3354507  18.4702287  84.9364829  32.6363293  24.3031704
  84.2939209  32.9295826  23.6571499  84.4319758  32.5216213  25.1084901
  82.5904993  36.3826466  14.9917564  83.5022849  36.6153853  14.8165261
  82.0814640  36.9663510  14.4292642  85.0763807  42.3006722  19.7375509
  84.3914845  42.6805624  19.1872542  85.1607656  42.9102049  20.4707457
  79.9340968  32.5584502  23.2407425  79.0725447  32.8565756  23.5324162
  79.9603402  32.7754901  22.3088457  76.7502537  41.1026693  19.6481230
  77.2140883  41.3814396  18.8585853  76.4859335  40.2010137  19.4654321
  73.6426618  40.6498174  22.5860993  74.2127975  41.0785442  21.9478478
  74.2334730  40.3680759  23.2845179  75.6871423  37.2249845  16.4570795
  76.3895466  37.6770889  16.9244722  75.3552052  36.5833664  17.0850688
  69.4296757  35.4833398  21.7587929  68.6395811  35.7390926  21.2828040
  69.9208004  36.2981735  21.8639969  71.3811502  35.8477977  18.7171406
  70.5842666  35.9596671  19.2354901  71.1537095  36.1864629  17.8512296
  67.7134460  35.7363888  24.1902920  67.9642498  36.6210898  24.4560496
  68.2494008  35.5568490  23.4178012  91.5366560  39.1677385  20.8578181
  90.7830268  38.5984783  20.7022186  91.6714101  39.1340050  21.8048816
  76.9265188  44.0390788  16.5332901  76.7910862  44.8842323  16.9617748
  77.4675000  44.2410065  15.7698834  70.3794585  41.5566226  17.1060826
  70.8919106  42.3509476  17.2566390  71.0317298  40.8592516  17.0394427
  72.1889470  44.6731982  19.1883579  72.3656098  45.5949947  19.0004563
  72.9846303  44.3590401  19.6177959  80.2757651  27.5621349  25.0631794
  79.9321921  28.4522991  24.9870905  80.6436614  27.3723007  24.2001379
  68.3443502  39.8854880  17.8820396  69.1818724  40.2951888  17.6654104
  68.5221770  38.9454322  17.8520590  80.2407934  37.5529961  13.5704229
  79.7254557  38.3234565  13.8092617  79.9685242  36.8795097  14.1937291
  77.8255045  32.3979661  18.6289468  76.9696641  32.0086512  18.4495106
  78.2381997  32.4771622  17.7689253  79.3554192  29.9326005  23.0281027
  78.8518987  29.8956140  22.2148833  79.6484798  30.8418747  23.0877684
  75.5997078  30.0164734  22.0347209  76.4650074  29.8207543  21.6753098
  75.6674586  29.7875086  22.9616566  85.2142208  40.3062315  15.5057403
  84.4371651  39.9673475  15.0612565  85.8933689  40.3114938  14.8312368
  80.0294237  35.4257053  15.3964010  79.7244373  35.7403202  16.2474154
  80.9824679  35.5038472  15.4391343  78.4740669  41.5847276  17.0456964
  77.9462031  40.8500035  16.7330202  77.9728172  42.3621952  16.7996933
  73.2059397  32.2466942  19.4063576  73.7803148  32.0242124  18.6736769
  73.7930379  32.3155637  20.1592177  73.5328984  34.2771403  13.4259461
  72.6966296  34.6146090  13.7468736  73.3933753  34.1420383  12.4886598
  75.5082064  29.1208191  18.1338645  74.8546477  28.8057208  17.5095260
  75.4662538  28.4983932  18.8598468  76.6193269  39.4027486  10.0491937
  75.7120331  39.1716740  10.2483086  77.1164301  38.6065105  10.2365919
  79.5261348  48.1124993  12.9688624  78.8523047  48.4156690  13.5773581
  79.9127170  48.9154074  12.6194081  78.7419805  35.6090125  22.4586293
  77.8242366  35.8305072  22.3007981  79.1579948  35.6836435  21.5998000
  79.5254852  37.0081540  17.5888973  80.2726671  37.5202938  17.2796095
  79.7946442  36.6865593  18.4493367  77.7981503  39.5040081  14.5715927
  76.8892722  39.2199114  14.6688397  77.8276586  39.9239160  13.7119234
  83.0300770  43.1146671  18.3407095  82.5763097  42.2737580  18.3972285
  82.3994737  43.7508069  18.6781875  81.9733690  34.0438657  19.5707762
  81.2356446  33.5316043  19.9018005  82.2260463  33.6039038  18.7591039
  81.4733709  44.9523167  19.2756913  81.7656684  45.5128224  18.5569279
  81.9832330  45.2451728  20.0310072  82.0745317  26.8214909  20.1649532
  82.3804194  25.9612272  19.8775447  82.7997922  27.4132529  19.9648526
  68.3669673  37.2245595  18.5531130  68.1694073  36.6314956  17.8282196
  67.8116337  36.9197805  19.2707068  76.3466397  37.1168702  20.6725723
  76.4015006  36.1642538  20.5968199  75.5357599  37.2728141  21.1567021
  77.4957590  41.0448825  11.9104006  77.0577020  40.3284684  11.4509643
  78.2368031  41.2724940  11.3489097  74.2858757  35.7345761  18.4316102
  73.4726622  36.0339932  18.8381294  74.7817751  35.3401450  19.1490584
  76.4367334  45.7303518  20.3650366  76.3943513  45.9564365  19.4358898
  77.3530033  45.4966893  20.5136167  85.6130705  39.3206022  17.9680325
  85.4748604  39.5107618  17.0401514  85.2566924  40.0825405  18.4248376
  74.5533135  42.6066547  20.1612329  75.3473734  42.1116867  19.9594904
  73.8424828  42.0784410  19.7980035  70.8615899  36.7509629  16.2372082
  69.9313487  36.6894085  16.4542044  70.9573371  36.2285582  15.4408723
  70.7801448  33.2764442  18.8250323  71.0408265  34.1909775  18.7159484
  71.6018620  32.8088884  18.9746936  77.7252563  48.2804666  15.1835703
  77.9004319  47.8092709  15.9981325  77.0385351  48.9070432  15.4116963
  78.6809626  42.5577172  21.2299004  78.3459459  42.5177942  22.1256654
  78.1813572  41.8921888  20.7569414  81.6168818  39.9033206  11.5036064
  80.9997989  39.1780035  11.4069116  81.1485306  40.6642567  11.1603138
  72.2913648  51.4294029  21.9575563  72.5310247  52.0612553  22.6354581
  71.4482845  51.0782069  22.2440922  73.4067364  34.1218631  10.6257368
  72.5296830  34.0007431  10.2619615  73.8825117  33.3304709  10.3736257
  64.9269504  38.9095790  20.7198875  65.6140544  38.5957520  20.1319890
  64.7717633  39.8137155  20.4466126  69.7304226  33.7985987  25.1483899
  69.6462415  33.1911657  24.4134309  68.9086933  34.2895005  25.1493395
  76.8041510  47.2373151  24.3617067  76.7311682  48.0428123  24.8736371
  76.3618903  47.4365117  23.5365088  76.5931290  46.4744921  17.8719888
  75.8098812  47.0166601  17.9658113  77.2924035  46.9918901  18.2714130
  79.9027940  32.2839550  20.5154094  80.3996640  31.5309513  20.1955164
  79.1314922  32.3203867  19.9497303  87.7557697  37.9879916  22.1572385
  87.7447574  38.8704631  21.7866318  86.8875077  37.6351467  21.9626922
  80.9857721  41.0411238  18.0892517  80.0513999  41.1612700  17.9197221
  81.1634389  40.1383704  17.8252527  76.4862909  34.4256933  20.2425778
  76.1160696  33.8727974  20.9306684  76.9822001  33.8215067  19.6900778
  84.3730272  36.8828557  18.6242551  84.8390724  37.7156549  18.5502854
  84.8237773  36.4173539  19.3287810  82.4406503  43.2272378  15.6228703
  82.7166347  43.1128973  16.5322577  81.5711002  42.8289863  15.5840876
  82.3446935  29.2509144  22.6633453  81.4310015  29.4813371  22.8315660
  82.7740036  29.3347588  23.5147485  79.0760567  47.4758729  19.2661517
  79.2582962  46.6580385  19.7289269  79.8993553  47.6926421  18.8286407
  79.4102733  46.4026914  16.5276565  79.9390499  45.8919369  15.9146728
  79.6730952  46.0869444  17.3922098  72.7658481  47.4542031  19.2874341
  72.0968856  47.9388159  18.8038381  72.6271350  47.7011251  20.2017720
  64.5037480  36.9896384  22.9916342  64.5421580  36.4559974  23.7853460
  63.9977773  36.4631589  22.3727319  71.8828242  31.8360924  26.4878884
  71.9469569  32.6975755  26.0756282  71.8195363  31.2234926  25.7551243
  68.1346058  35.7160486  16.0670274  68.4299499  34.8071164  16.0137327
  67.2334094  35.6948225  15.7451276  71.6640305  33.7916482  22.0497822
  70.9426891  34.4052450  21.9105295  72.4533561  34.3274247  21.9714468
  69.8633899  33.3974584  16.1909599  69.5346605  32.5171962  16.0084705
  70.2173270  33.3422252  17.0785988  79.1113478  45.0329486  20.7004584
  78.9638441  44.1046194  20.8812154  79.9366972  45.0549577  20.2161659
  72.9775723  33.6847553  16.5585076  73.3171795  34.2133475  15.8363685
  73.4247843  34.0227959  17.3343643  82.7147600  45.8558045  21.7869457
  83.6394148  45.6500906  21.6493908  82.5462903  45.6074446  22.6958798
  76.3235635  29.1533917  24.4615467  77.1461704  28.6794395  24.3394358
  76.5673699  29.9324400  24.9614154  74.9643870  32.1822175  14.7578369
  75.6852232  32.5603428  14.2542086  74.3409174  32.9011052  14.8613347
  79.1074993  32.8867324  15.6936701  79.3238607  33.7691962  15.3925530
  78.6269060  32.4953537  14.9642343  73.8474214  35.8453037  22.2707446
  73.7018795  36.1593340  23.1631728  73.3699418  36.4637937  21.7178345
  75.7070597  32.8355585  22.3188336  75.6932166  31.9396678  21.9820634
  76.4243025  32.8426249  22.9526622  82.5042916  46.3743712  17.1431548
  82.6779794  45.8090135  16.3905401  82.9971807  47.1744607  16.9611038
  75.1107493  31.7169965  17.5875906  75.2323404  30.7886612  17.7866793
  74.8209535  31.7308651  16.6754221  77.9798683  29.4024876  20.7242626
  78.0020380  29.4664209  19.7694605  78.3966742  28.5629384  20.9183132
  88.3582307  39.1380135  18.7621848  88.8013453  38.3887461  18.3640971
  87.4808818  39.1290272  18.3795580  83.4918089  45.6910477  14.2428447
  84.1868993  46.3117170  14.4615761  83.8341239  44.8405828  14.5180825
  85.3909512  43.1410182  15.7715777  85.9160836  43.4797455  15.0465097
  85.3031864  42.2057198  15.5878912  77.0750173  49.2082166  20.1311031
  76.6355163  48.7158544  20.8243887  77.8258290  48.6655133  19.8903106
  69.5542512  45.3993707  20.1335659  70.3800532  45.0997478  19.7534302
  69.2036564  44.6301329  20.5825447  74.5224045  44.7520175  22.2033332
  73.9004054  44.0890880  21.9035560  75.1928912  44.7781307  21.5206980
  67.7551117  43.3180033  21.0924592  66.9183025  42.8902207  20.9108594
  67.7274762  43.5112476  22.0295384  74.0837552  43.3024098  15.6791793
  74.2325672  43.9859562  15.0258466  74.8903995  43.2829188  16.1941249
  87.9015172  40.6085374  21.1544296  88.7362064  41.0475178  21.3181856
  88.0374301  40.1324027  20.3352542  71.8390185  39.3289276  16.6852862
  71.5936227  38.4251606  16.8833072  72.0086099  39.3306426  15.7432340
  79.5286895  30.2012952  26.0677617  80.0468838  30.9373979  25.7424106
  79.1742027  30.5076945  26.9024377  71.1085832  35.0617633  14.1839023
  70.4155077  35.1361988  13.5279059  70.8637584  34.2977977  14.7060540
  79.7799489  26.6213235  21.5878514  80.0601242  25.9536424  22.2138941
  80.5650096  26.8142330  21.0753178  77.5832957  45.7972229  13.1503540
  77.0106924  46.4162416  12.6974012  78.1565751  46.3471590  13.6843462
  80.8030217  46.0809379  14.2812123  81.7360890  46.0154940  14.4844998
  80.7153430  46.9165646  13.8226655  83.4318234  45.3975249  11.2416070
  83.3531865  45.0635113  12.1351828  84.2527900  45.8897017  11.2407542
  77.9679756  37.1333041  10.4919593  78.9138860  37.0039249  10.5608011
  77.5894001  36.3947703  10.9689021  83.9401640  28.7989047  20.4546485
  83.7426461  28.4904136  21.3389817  84.5501346  29.5250686  20.5844414
  91.9472975  39.3252995  23.5898426  92.6776363  39.0638283  24.1506129
  91.3379920  38.5881717  23.6300494  90.0288272  37.4660858  24.1872877
  89.3021435  37.3316823  23.5789368  89.6135559  37.7737686  24.9929595
  76.1522673  35.0583018  10.4274478  75.2454128  34.7616130  10.5037192
  76.4298654  34.7612836   9.5608764  67.0700613  36.3789381  20.8773524
  66.7503398  35.5254689  20.5847898  66.5234041  36.5937959  21.6331492
  77.7684739  29.6019907  16.5818719  76.9585467  29.2566992  16.9573965
  78.4569156  29.2927451  17.1706331  79.6975287  28.6797954  18.2043016
  80.2506325  29.0993408  18.8633039  79.9345373  27.7533702  18.2465972
  74.9221457  31.9169953  10.5686457  75.7840621  32.2424851  10.8282275
  75.1071802  31.1301449  10.0559523  66.9388873  39.9992293  22.8466646
  66.2452345  39.5846245  22.3336600  67.6861864  40.0412829  22.2500065
  83.0754094  30.7898479  17.7121680  82.4952763  31.4483283  17.3299733
  82.8090027  29.9675824  17.3009098  81.5257660  30.1903537  19.9143001
  82.0257439  30.3020072  19.1057319  82.1693268  29.8864590  20.5543809
  68.8525616  39.9310546  20.7232661  68.8296304  40.0298234  19.7714544
  69.1626252  40.7775697  21.0449827  81.8578972  32.9498570  16.7678028
  80.9704827  33.2348220  16.5498223  82.2732961  32.7892333  15.9205305
  85.2093508  32.9745091  20.4832368  85.9853898  33.4641543  20.7556985
  84.4841642  33.4003145  20.9404237  87.6466067  33.6872710  21.5406308
  88.2410558  33.4468446  20.8299617  87.7192650  32.9679841  22.1679845
  69.8663222  47.5306321  21.8549473  69.7317690  46.7706722  21.2887471
  69.4495285  48.2547221  21.3878262  81.0022185  42.7143244  10.8626048
  81.7058036  42.9193247  11.4783704  80.2784834  43.2820006  11.1275132
  81.8319996  38.4653106  16.9828319  81.7755197  38.9221657  16.1435951
  82.3848338  37.7043790  16.8051161  85.6424802  34.2542838  17.8078438
  85.3861736  33.8539473  18.6386646  85.0177670  34.9686631  17.6828577
  89.9537139  36.9938911  20.3149730  89.3936697  37.0632100  21.0881292
  89.3480643  36.8179895  19.5949226  73.0232348  48.4275638  22.0667916
  72.9064732  49.3721070  21.9646606  72.2024795  48.1249199  22.4553715
  82.9108883  43.1525774  12.9124509  83.7454487  42.7206972  12.7301983
  82.7493226  42.9807787  13.8401403  82.5654775  39.6557887  14.2780848
  82.5103579  39.4902158  13.3369292  81.9400830  40.3633920  14.4343038
  75.8750900  29.1565996  13.8566166  75.8629570  30.1007836  14.0134437
  76.7674322  28.9736141  13.5625627  75.8040464  47.8334886  21.9433923
  74.8536095  47.8336748  21.8298295  76.1072951  47.0867621  21.4269957
  79.6903020  25.7508773  18.1112103  78.9235416  25.1967259  18.2568785
  80.1013725  25.8230641  18.9726255  84.2069680  55.4758329  18.9338101
  83.6434545  55.3848266  18.1654389  84.0922075  54.6558234  19.4140593
  81.7534112  56.9709521  21.7722321  82.5455404  56.6300345  21.3568621
  81.9930762  57.0804496  22.6924475  89.7869239  59.1429297  14.2452566
  89.1357218  59.7283377  13.8586580  90.5813601  59.6735492  14.3047603
  83.7124866  56.2318434  14.6439700  84.4855742  55.6847421  14.5052576
  84.0650265  57.0962683  14.8554162  86.0491144  52.3911100  12.2758150
  86.3016664  51.8692621  11.5141613  85.1115703  52.2277246  12.3784834
  91.0934426  51.3946879  20.0832893  91.8797516  50.9766302  19.7323310
  91.3573131  52.2992971  20.2514542  91.2644504  56.8319729  14.7821550
  90.6290337  56.9054355  15.4942455  90.9341910  57.4213328  14.1040629
  96.4942854  51.3322112  20.9865872  97.2268025  50.7621329  21.2203701
  95.7382209  50.9443712  21.4272377  85.7687432  54.2939206  14.4782525
  85.6523690  53.6184110  15.1463609  85.8789692  53.8071580  13.6614678
  88.1118973  53.7549353  18.1829214  87.7477181  53.2279974  18.8942136
  88.9686089  53.3647822  18.0095700  94.0168274  45.0443686  25.4460480
  93.6851599  45.9139097  25.2221695  93.4213887  44.7279970  26.1254511
  87.7524460  48.7839253  13.1790563  87.9198863  49.6519489  13.5461034
  87.5621629  48.9466535  12.2551852  83.9612275  53.6970029  20.8793098
  83.0362771  53.5646243  21.0870789  84.2096688  54.4764248  21.3763040
  93.9096937  49.7638772  22.5253830  93.0013815  49.6954181  22.2312591
  93.8584533  50.2410717  23.3535656  87.7313681  51.2396910  14.1637230
  87.6113306  51.6853961  15.0022710  87.0366270  51.5882228  13.6050768
  81.3221086  53.3403302  21.7136887  81.4513467  53.5937781  22.6276298
  80.6418537  53.9331010  21.3941542  85.4920573  64.0100552  17.8127361
  85.4144603  64.9608377  17.8915841  84.8882217  63.6646425  18.4702287
  95.7758584  47.9655210  24.3031704  95.1332964  48.2587744  23.6571499
  95.2713512  47.8508131  25.1084901  93.4298747  51.7118384  14.9917564
  94.3416603  51.9445770  14.8165261  92.9208394  52.2955428  14.4292642
  95.9157561  57.6298640  19.7375509  95.2308600  58.0097541  19.1872542
  96.0001411  58.2393967  20.4707457  91.2170030  48.7319987  27.6593587
  90.9730962  49.4862047  27.1227863  91.4929961  49.1105334  28.4940834
  90.7734722  47.8876420  23.2407425  89.9119201  48.1857673  23.5324162
  90.7997157  48.1046819  22.3088457  87.5896291  56.4318610  19.6481230
  88.0534637  56.7106313  18.8585853  87.3253090  55.5302055  19.4654321
  86.5265178  52.5541763  16.4570795  87.2289221  53.0062806  16.9244722
  86.1945806  51.9125581  17.0850688  80.2690511  50.8125315  21.7587929
  79.4789565  51.0682844  21.2828040  80.7601759  51.6273653  21.8639969
  82.2205257  51.1769894  18.7171406  81.4236420  51.2888589  19.2354901
  81.9930849  51.5156547  17.8512296 102.3760314  54.4969303  20.8578181
 101.6224022  53.9276701  20.7022186 102.5107855  54.4631967  21.8048816
  87.7658942  59.3682705  16.5332901  87.6304617  60.2134241  16.9617748
  88.3068755  59.5701983  15.7698834  81.2188340  56.8858143  17.1060826
  81.7312860  57.6801393  17.2566390  81.8711052  56.1884434  17.0394427
  83.0283224  60.0023900  19.1883579  83.2049853  60.9241864  19.0004563
  83.8240058  59.6882319  19.6177959  91.1151406  42.8913267  25.0631794
  90.7715675  43.7814909  24.9870905  91.4830368  42.7014925  24.2001379
  79.1837256  55.2146798  17.8820396  80.0212478  55.6243806  17.6654104
  79.3615524  54.2746240  17.8520590  91.0801688  52.8821878  13.5704229
  90.5648312  53.6526483  13.8092617  90.8078997  52.2087014  14.1937291
  88.6648799  47.7271579  18.6289468  87.8090396  47.3378429  18.4495106
  89.0775751  47.8063540  17.7689253  90.1947946  45.2617922  23.0281027
  89.6912742  45.2248057  22.2148833  90.4878553  46.1710665  23.0877684
  86.4390832  45.3456652  22.0347209  87.3043829  45.1499461  21.6753098
  86.5068341  45.1167004  22.9616566  96.0535963  55.6354233  15.5057403
  95.2765405  55.2965392  15.0612565  96.7327444  55.6406856  14.8312368
  90.8687992  50.7548970  15.3964010  90.5638127  51.0695119  16.2474154
  91.8218434  50.8330390  15.4391343  89.3134423  56.9139194  17.0456964
  88.7855785  56.1791953  16.7330202  88.8121926  57.6913870  16.7996933
  94.2927269  55.1088214  22.1624011  93.6350944  55.7987475  22.2504139
  95.0967669  55.4984646  22.5057997  84.0453151  47.5758860  19.4063576
  84.6196903  47.3534041  18.6736769  84.6324134  47.6447554  20.1592177
  93.1032728  53.4632587  20.2127952  93.6164610  54.0962579  20.7149662
  93.7533952  52.8633782  19.8471312  84.3722738  49.6063321  13.4259461
  83.5360050  49.9438007  13.7468736  84.2327508  49.4712301  12.4886598
  86.3475819  44.4500109  18.1338645  85.6940231  44.1349126  17.5095260
  86.3056293  43.8275849  18.8598468  87.4587024  54.7319404  10.0491937
  86.5514085  54.5008657  10.2483086  87.9558056  53.9357023  10.2365919
  90.3655103  63.4416911  12.9688624  89.6916801  63.7448608  13.5773581
  90.7520924  64.2445991  12.6194081  90.3648607  52.3373458  17.5888973
  91.1120426  52.8494855  17.2796095  90.6340196  52.0157511  18.4493367
  88.6375257  54.8331999  14.5715927  87.7286476  54.5491032  14.6688397
  88.6670341  55.2531077  13.7119234  93.8694524  58.4438588  18.3407095
  93.4156852  57.6029498  18.3972285  93.2388491  59.0799987  18.6781875
  92.8127444  49.3730574  19.5707762  92.0750201  48.8607960  19.9018005
  93.0654218  48.9330956  18.7591039  92.3127464  60.2815085  19.2756913
  92.6050438  60.8420142  18.5569279  92.8226084  60.5743646  20.0310072
  92.9139071  42.1506826  20.1649532  93.2197948  41.2904190  19.8775447
  93.6391676  42.7424446  19.9648526  79.2063427  52.5537513  18.5531130
  79.0087827  51.9606874  17.8282196  78.6510091  52.2489723  19.2707068
  88.3351345  56.3740742  11.9104006  87.8970775  55.6576601  11.4509643
  89.0761786  56.6016857  11.3489097  85.1252511  51.0637679  18.4316102
  84.3120377  51.3631850  18.8381294  85.6211505  50.6693368  19.1490584
  87.2761089  61.0595436  20.3650366  87.2337268  61.2856282  19.4358898
  88.1923788  60.8258811  20.5136167  90.7226723  51.5279504  27.2630996
  91.0776110  51.7550977  28.1225461  91.3698854  51.8597880  26.6408251
  96.4524460  54.6497939  17.9680325  96.3142358  54.8399535  17.0401514
  96.0960678  55.4117322  18.4248376  96.4793839  56.7174466  22.9791596
  96.9130346  56.6249756  23.8274650  97.1925420  56.6931967  22.3411612
  85.3926890  57.9358465  20.1612329  86.1867488  57.4408785  19.9594904
  84.6818582  57.4076328  19.7980035  81.7009653  52.0801547  16.2372082
  80.7707241  52.0186002  16.4542044  81.7967125  51.5577500  15.4408723
  81.6195202  48.6056360  18.8250323  81.8802020  49.5201693  18.7159484
  82.4412375  48.1380802  18.9746936  97.3409389  56.7598167  25.5124481
  97.5345279  57.6643978  25.7583756  97.2410007  56.3005586  26.3463067
  88.5646318  63.6096583  15.1835703  88.7398073  63.1384627  15.9981325
  87.8779106  64.2362350  15.4116963  89.5203381  57.8869090  21.2299004
  89.1853213  57.8469860  22.1256654  89.0207327  57.2213806  20.7569414
  92.4562572  55.2325124  11.5036064  91.8391743  54.5071952  11.4069116
  91.9879061  55.9934484  11.1603138  83.1307403  66.7585946  21.9575563
  83.3704001  67.3904470  22.6354581  82.2876599  66.4073986  22.2440922
  84.2461118  49.4510548  10.6257368  83.3690585  49.3299349  10.2619615
  84.7218871  48.6596627  10.3736257  75.7663259  54.2387708  20.7198875
  76.4534298  53.9249438  20.1319890  75.6111387  55.1429073  20.4466126
  87.4325044  61.8036839  17.8719888  86.6492566  62.3458519  17.9658113
  88.1317790  62.3210818  18.2714130  90.7421695  47.6131468  20.5154094
  91.2390394  46.8601430  20.1955164  89.9708676  47.6495785  19.9497303
  98.5951452  53.3171834  22.1572385  98.5841328  54.1996549  21.7866318
  97.7268831  52.9643385  21.9626922  91.8251475  56.3703155  18.0892517
  90.8907754  56.4904618  17.9197221  92.0028144  55.4675622  17.8252527
  95.2124027  52.2120475  18.6242551  95.6784479  53.0448466  18.5502854
  95.6631527  51.7465456  19.3287810  93.2800258  58.5564296  15.6228703
  93.5560102  58.4420891  16.5322577  92.4104756  58.1581781  15.5840876
  93.1840689  44.5801062  22.6633453  92.2703769  44.8105289  22.8315660
  93.6133791  44.6639506  23.5147485  92.9547148  52.7690954  25.1633347
  92.3018598  53.0166861  24.5085799  93.3327528  51.9555092  24.8295824
  89.9154322  62.8050647  19.2661517  90.0976716  61.9872303  19.7289269
  90.7387308  63.0218339  18.8286407  90.2496487  61.7318832  16.5276565
  90.7784254  61.2211287  15.9146728  90.5124707  61.4161362  17.3922098
  83.6052235  62.7833949  19.2874341  82.9362610  63.2680076  18.8038381
  83.4665105  63.0303169  20.2017720  75.3431235  52.3188301  22.9916342
  75.3815334  51.7851892  23.7853460  74.8371527  51.7923507  22.3727319
  78.9739812  51.0452404  16.0670274  79.2693253  50.1363082  16.0137327
  78.0727848  51.0240143  15.7451276  90.8825891  62.7659668  22.8720682
  90.7577030  61.9649408  22.3631627  91.5404982  63.2605861  22.3834652
  82.5034059  49.1208400  22.0497822  81.7820645  49.7344368  21.9105295
  83.2927315  49.6566165  21.9714468  92.9460799  60.5668688  24.5000232
  91.9991135  60.4474039  24.4278559  93.2943573  59.6791186  24.5826493
  80.7027654  48.7266501  16.1909599  80.3740360  47.8463880  16.0084705
  81.0567025  48.6714170  17.0785988  89.9507233  60.3621404  20.7004584
  89.8032195  59.4338111  20.8812154  90.7760726  60.3841495  20.2161659
  83.8169477  49.0139471  16.5585076  84.1565549  49.5425392  15.8363685
  84.2641597  49.3519877  17.3343643  93.5541355  61.1849963  21.7869457
  94.4787902  60.9792824  21.6493908  93.3856658  60.9366364  22.6958798
  85.8037624  47.5114093  14.7578369  86.5245987  47.8895345  14.2542086
  85.1802928  48.2302969  14.8613347  89.9468747  48.2159242  15.6936701
  90.1632361  49.0983879  15.3925530  89.4662814  47.8245455  14.9642343
  84.6867968  51.1744955  22.2707446  84.5412549  51.4885258  23.1631728
  84.2093172  51.7929855  21.7178345  86.5464351  48.1647503  22.3188336
  86.5325920  47.2688596  21.9820634  87.2636779  48.1718167  22.9526622
  88.3990482  48.5984843  24.3641463  88.1408260  49.5201914  24.3625793
  87.8675522  48.2015278  25.0541927  93.3436671  61.7035630  17.1431548
  93.5173548  61.1382053  16.3905401  93.8365562  62.5036525  16.9611038
  85.9501247  47.0461883  17.5875906  86.0717158  46.1178529  17.7866793
  85.6603290  47.0600569  16.6754221  88.8192438  44.7316794  20.7242626
  88.8414134  44.7956127  19.7694605  89.2360497  43.8921302  20.9183132
  99.1976062  54.4672053  18.7621848  99.6407208  53.7179378  18.3640971
  98.3202572  54.4582189  18.3795580  94.3311843  61.0202395  14.2428447
  95.0262748  61.6409087  14.4615761  94.6734993  60.1697746  14.5180825
  96.2303266  58.4702100  15.7715777  96.7554590  58.8089373  15.0465097
  96.1425619  57.5349115  15.5878912  87.9143927  64.5374083  20.1311031
  87.4748917  64.0450462  20.8243887  88.6652044  63.9947051  19.8903106
  80.3936266  60.7285624  20.1335659  81.2194286  60.4289396  19.7534302
  80.0430318  59.9593247  20.5825447  78.5944871  58.6471951  21.0924592
  77.7576779  58.2194125  20.9108594  78.5668517  58.8404394  22.0295384
  96.0395047  55.9527470  28.3899704  96.0893052  55.7877478  29.3315227
  95.9308971  55.0854729  27.9997585  84.9231306  58.6316016  15.6791793
  85.0719427  59.3151480  15.0258466  85.7297750  58.6121106  16.1941249
  98.7408927  55.9377291  21.1544296  99.5755818  56.3767095  21.3181856
  98.8768055  55.4615945  20.3352542  95.7900433  53.4957026  27.1021783
  96.2654554  53.6884673  26.2940635  94.8665998  53.5516212  26.8565167
  82.6783939  54.6581193  16.6852862  82.4329981  53.7543523  16.8833072
  82.8479854  54.6598344  15.7432340  90.3680649  45.5304870  26.0677617
  90.8862593  46.2665897  25.7424106  90.0135782  45.8368863  26.9024377
  81.9479587  50.3909551  14.1839023  81.2548832  50.4653906  13.5279059
  81.7031339  49.6269895  14.7060540  90.6193243  41.9505152  21.5878514
  90.8994997  41.2828341  22.2138941  91.4043850  42.1434248  21.0753178
  88.4226712  61.1264146  13.1503540  87.8500679  61.7454333  12.6974012
  88.9959505  61.6763508  13.6843462  94.4902102  50.3722786  25.3350089
  95.4419524  50.4720884  25.3562313  94.3205552  49.5801055  25.8448173
  92.5116481  47.4578370  25.5209490  91.9166413  47.7383382  24.8255979
  92.2266178  47.9472270  26.2926231  91.6423971  61.4101296  14.2812123
  92.5754645  61.3446858  14.4844998  91.5547184  62.2457563  13.8226655
  94.2711988  60.7267167  11.2416070  94.1925620  60.3927030  12.1351828
  95.0921655  61.2188935  11.2407542  96.9690179  53.5928906  24.4492389
  96.9366499  52.6544907  24.6352073  97.5790803  53.6712943  23.7158214
  88.8073510  52.4624959  10.4919593  89.7532615  52.3331167  10.5608011
  88.4287755  51.7239621  10.9689021  97.1184668  50.3839949  24.4950672
  96.6023716  49.5998406  24.3080601  98.0024616  50.0558666  24.6597191
  94.7795395  44.1280965  20.4546485  94.5820216  43.8196053  21.3389817
  95.3895100  44.8542604  20.5844414 102.7866729  54.6544913  23.5898426
 103.5170118  54.3930201  24.1506129 102.1773675  53.9173635  23.6300494
 100.8682026  52.7952775  24.1872877 100.1415190  52.6608740  23.5789368
 100.4529313  53.1029604  24.9929595  86.9916427  50.3874935  10.4274478
  86.0847883  50.0908048  10.5037192  87.2692408  50.0904753   9.5608764
  77.9094368  51.7081299  20.8773524  77.5897152  50.8546607  20.5847898
  77.3627796  51.9229877  21.6331492  88.6078493  44.9311825  16.5818719
  87.7979221  44.5858910  16.9573965  89.2962910  44.6219369  17.1706331
  90.5369041  44.0089872  18.2043016  91.0900080  44.4285325  18.8633039
  90.7739128  43.0825620  18.2465972  85.7615212  47.2461871  10.5686457
  86.6234376  47.5716769  10.8282275  85.9465556  46.4593366  10.0559523
  77.7782628  55.3284210  22.8466646  77.0846099  54.9138163  22.3336600
  78.5255619  55.3704747  22.2500065  93.9147848  46.1190397  17.7121680
  93.3346517  46.7775201  17.3299733  93.6483781  45.2967742  17.3009098
  92.3651415  45.5195455  19.9143001  92.8651193  45.6311989  19.1057319
  93.0087023  45.2156508  20.5543809  79.6919370  55.2602464  20.7232661
  79.6690058  55.3590151  19.7714544  80.0020007  56.1067615  21.0449827
  92.6972726  48.2790487  16.7678028  91.8098581  48.5640138  16.5498223
  93.1126716  48.1184251  15.9205305  96.0487263  48.3037008  20.4832368
  96.8247653  48.7933461  20.7556985  95.3235397  48.7295063  20.9404237
  98.4859821  49.0164628  21.5406308  99.0804312  48.7760364  20.8299617
  98.5586405  48.2971758  22.1679845  80.7056977  62.8598239  21.8549473
  80.5711445  62.0998639  21.2887471  80.2889039  63.5839138  21.3878262
  91.8415940  58.0435162  10.8626048  92.5451790  58.2485165  11.4783704
  91.1178589  58.6111924  11.1275132  92.6713750  53.7945023  16.9828319
  92.6148952  54.2513575  16.1435951  93.2242093  53.0335708  16.8051161
  96.4818556  49.5834755  17.8078438  96.2255490  49.1831391  18.6386646
  95.8571424  50.2978549  17.6828577 100.7930894  52.3230828  20.3149730
 100.2330452  52.3924018  21.0881292 100.1874397  52.1471813  19.5949226
  83.8626103  63.7567556  22.0667916  83.7458487  64.7012988  21.9646606
  83.0418549  63.4541117  22.4553715  93.7502637  58.4817691  12.9124509
  94.5848241  58.0498890  12.7301983  93.5886980  58.3099705  13.8401403
  93.4048530  54.9849805  14.2780848  93.3497333  54.8194076  13.3369292
  92.7794585  55.6925838  14.4343038  86.7144655  44.4857914  13.8566166
  86.7023325  45.4299754  14.0134437  87.6068077  44.3028059  13.5625627
  86.6434219  63.1626804  21.9433923  85.6929850  63.1628666  21.8298295
  86.9466705  62.4159539  21.4269957  90.5296774  41.0800690  18.1112103
  89.7629170  40.5259177  18.2568785  90.9407479  41.1522559  18.9726255
 102.3786912  68.9987342  23.0079685 103.0165322  68.8794090  22.3043025
 102.2607755  69.9468186  23.0667637  99.1876619  68.9514771  22.9441210
  98.8495130  68.8355835  22.0561745 100.0566387  68.5505936  22.9242216
  95.0463434  70.8050247  18.9338101  94.4828300  70.7140184  18.1654389
  94.9315829  69.9850151  19.4140593  99.6696402  70.1049622  28.9027415
  99.6585042  69.7102421  28.0307919  99.8317041  69.3715695  29.4961187
  92.5927866  72.3001439  21.7722321  93.3849158  71.9592263  21.3568621
  92.8324517  72.4096414  22.6924475 100.6262993  74.4721215  14.2452566
  99.9750973  75.0575295  13.8586580 101.4207356  75.0027410  14.3047603
  94.5518620  71.5610352  14.6439700  95.3249496  71.0139339  14.5052576
  94.9044019  72.4254601  14.8554162  96.3903663  72.8886734  27.8506599
  96.0993529  73.7932365  27.7353266  97.0260647  72.9303262  28.5650669
  97.3159870  70.2663583  24.4407959  97.9123442  70.0419605  23.7264922
  97.3734841  69.5248328  25.0433407  96.8884898  67.7203018  12.2758150
  97.1410419  67.1984539  11.5141613  95.9509457  67.5569163  12.3784834
 101.9328181  66.7238796  20.0832893 102.7191270  66.3058219  19.7323310
 102.1966885  67.6284888  20.2514542 102.1038258  72.1611647  14.7821550
 101.4684091  72.2346273  15.4942455 101.7735665  72.7505245  14.1040629
 107.3336608  66.6614029  20.9865872 108.0661780  66.0913246  21.2203701
 106.5775964  66.2735630  21.4272377  96.6081187  69.6231124  14.4782525
  96.4917445  68.9476027  15.1463609  96.7183447  69.1363498  13.6614678
  98.9512728  69.0841271  18.1829214  98.5870935  68.5571892  18.8942136
  99.8079844  68.6939740  18.0095700 104.8562028  60.3735604  25.4460480
 104.5245353  61.2431015  25.2221695 104.2607642  60.0571888  26.1254511
  98.5918215  64.1131171  13.1790563  98.7592617  64.9811407  13.5461034
  98.4015384  64.2758452  12.2551852 101.3493548  72.5748150  24.8456393
 101.0494271  73.4773188  24.7372200 101.0044607  72.3080333  25.6977546
  94.8006029  69.0261946  20.8793098  93.8756526  68.8938161  21.0870789
  95.0490443  69.8056166  21.3763040 104.7490692  65.0930690  22.5253830
 103.8407569  65.0246098  22.2312591 104.6978288  65.5702635  23.3535656
  98.5707436  66.5688828  14.1637230  98.4507061  67.0145879  15.0022710
  97.8760024  66.9174146  13.6050768  92.1614840  68.6695220  21.7136887
  92.2907222  68.9229699  22.6276298  91.4812292  69.2622928  21.3941542
  96.3314328  79.3392470  17.8127361  96.2538357  80.2900295  17.8915841
  95.7275971  78.9938342  18.4702287 106.6152338  63.2947128  24.3031704
 105.9726718  63.5879661  23.6571499 106.1107267  63.1800048  25.1084901
 104.2692502  67.0410301  14.9917564 105.1810358  67.2737688  14.8165261
 103.7602149  67.6247346  14.4292642  97.0777930  69.3205789  30.0306695
  97.8192614  69.8590833  29.7541518  96.3714915  69.9472077  30.1878247
 102.5533269  71.4634929  28.6278856 102.9616625  71.0217340  27.8833489
 101.8310531  70.8887557  28.8813049  98.9064339  66.4007536  26.0012413
  99.7525535  66.8246949  26.1447062  98.8462977  65.7441160  26.6950976
 102.8762084  72.0236120  22.3831145 102.2470947  72.1881834  21.6807213
 102.4887746  72.4377729  23.1542109 106.7551316  72.9590558  19.7375509
 106.0702354  73.3389459  19.1872542 106.8395165  73.5685884  20.4707457
 102.0563785  64.0611904  27.6593587 101.8124717  64.8153965  27.1227863
 102.3323715  64.4397252  28.4940834 104.0102248  70.6050517  26.3370852
 104.2219143  71.2482277  25.6605233 103.9631996  69.7712833  25.8692782
 101.6128477  63.2168337  23.2407425 100.7512956  63.5149591  23.5324162
 101.6390911  63.4338736  22.3088457  98.4290046  71.7610528  19.6481230
  98.8928392  72.0398231  18.8585853  98.1646844  70.8593972  19.4654321
  95.3214127  71.3082009  22.5860993  95.8915484  71.7369278  21.9478478
  95.9122239  71.0264594  23.2845179  97.3658932  67.8833680  16.4570795
  98.0682975  68.3354724  16.9244722  97.0339561  67.2417499  17.0850688
  91.1084266  66.1417233  21.7587929  90.3183320  66.3974761  21.2828040
  91.5995513  66.9565571  21.8639969 105.1248076  73.4822472  24.5093210
 105.9465519  73.0802659  24.2275891 105.1210478  73.3790706  25.4609326
  93.0599011  66.5061812  18.7171406  92.2630175  66.6180506  19.2354901
  92.8324604  66.8448464  17.8512296  98.8904679  73.0306515  26.6653920
  98.9549112  73.4926923  27.5012092  98.1815603  72.4003880  26.7936230
  89.3921969  66.3947723  24.1902920  89.6430007  67.2794733  24.4560496
  89.9281517  66.2152325  23.4178012 113.2154069  69.8261221  20.8578181
 112.4617777  69.2568619  20.7022186 113.3501610  69.7923885  21.8048816
  98.6052697  74.6974623  16.5332901  98.4698371  75.5426159  16.9617748
  99.1462509  74.8993901  15.7698834  92.0582094  72.2150061  17.1060826
  92.5706615  73.0093311  17.2566390  92.7104807  71.5176351  17.0394427
  93.8676979  75.3315817  19.1883579  94.0443607  76.2533782  19.0004563
  94.6633812  75.0174236  19.6177959 100.2321173  75.3198189  30.6633243
  99.7885027  74.5334568  30.3454147 100.8938387  75.5077340  29.9977133
  94.9908294  76.8493991  25.1893921  95.5415719  76.7211054  24.4170915
  94.1519770  77.1488880  24.8388814 102.3302411  75.6000989  28.6914644
 102.3120886  76.4209870  28.1994913 103.2522331  75.4755065  28.9164785
  98.7875465  73.1145119  29.5338152  99.3203802  72.3533407  29.3037460
  98.2589546  72.8218771  30.2762307 101.9545160  58.2205185  25.0631794
 101.6109430  59.1106826  24.9870905 102.3224123  58.0306842  24.2001379
  90.0231011  70.5438715  17.8820396  90.8606233  70.9535724  17.6654104
  90.2009279  69.6038157  17.8520590 101.9195443  68.2113796  13.5704229
 101.4042066  68.9818400  13.8092617 101.6472751  67.5378932  14.1937291
  99.5042554  63.0563497  18.6289468  98.6484150  62.6670347  18.4495106
  99.9169506  63.1355457  17.7689253 101.0341701  60.5909840  23.0281027
 100.5306496  60.5539975  22.2148833 101.3272307  61.5002583  23.0877684
  97.2784586  60.6748570  22.0347209  98.1437583  60.4791378  21.6753098
  97.3462095  60.4458921  22.9616566 106.8929717  70.9646151  15.5057403
 106.1159160  70.6257310  15.0612565 107.5721198  70.9698774  14.8312368
 101.7081746  66.0840888  15.3964010 101.4031882  66.3987037  16.2474154
 102.6612188  66.1622308  15.4391343 100.1528178  72.2431111  17.0456964
  99.6249540  71.5083871  16.7330202  99.6515681  73.0205788  16.7996933
 105.1321024  70.4380132  22.1624011 104.4744698  71.1279393  22.2504139
 105.9361423  70.8276564  22.5057997  94.8846906  62.9050778  19.4063576
  95.4590657  62.6825959  18.6736769  95.4717888  62.9739472  20.1592177
 103.9426483  68.7924504  20.2127952 104.4558365  69.4254496  20.7149662
 104.5927707  68.1925700  19.8471312  95.2116493  64.9355239  13.4259461
  94.3753805  65.2729925  13.7468736  95.0721262  64.8004218  12.4886598
  97.1869573  59.7792026  18.1338645  96.5333986  59.4641044  17.5095260
  97.1450047  59.1567767  18.8598468  98.2980778  70.0611322  10.0491937
  97.3907840  69.8300575  10.2483086  98.7951810  69.2648941  10.2365919
 100.4207314  66.2673960  22.4586293  99.5029875  66.4888907  22.3007981
 100.8367457  66.3420270  21.5998000 101.2042361  67.6665376  17.5888973
 101.9514180  68.1786773  17.2796095 101.4733951  67.3449428  18.4493367
  99.4769012  70.1623916  14.5715927  98.5680231  69.8782949  14.6688397
  99.5064095  70.5822995  13.7119234 104.7088279  73.7730506  18.3407095
 104.2550606  72.9321416  18.3972285 104.0782246  74.4091904  18.6781875
 103.6521199  64.7022492  19.5707762 102.9143955  64.1899878  19.9018005
 103.9047972  64.2622874  18.7591039 103.1521218  75.6107003  19.2756913
 103.4444193  76.1712060  18.5569279 103.6619839  75.9035564  20.0310072
 103.7532826  57.4798744  20.1649532 104.0591703  56.6196107  19.8775447
 104.4785431  58.0716364  19.9648526  90.0457182  67.8829431  18.5531130
  89.8481582  67.2898791  17.8282196  89.4903846  67.5781641  19.2707068
  98.0253906  67.7752537  20.6725723  98.0802515  66.8226373  20.5968199
  97.2145108  67.9311976  21.1567021  99.1745099  71.7032660  11.9104006
  98.7364529  70.9868519  11.4509643  99.9155540  71.9308775  11.3489097
  95.9646266  66.3929597  18.4316102  95.1514131  66.6923767  18.8381294
  96.4605260  65.9985286  19.1490584  98.1154843  76.3887354  20.3650366
  98.0731022  76.6148200  19.4358898  99.0317542  76.1550728  20.5136167
 101.5620477  66.8571421  27.2630996 101.9169865  67.0842894  28.1225461
 102.2092608  67.1889798  26.6408251 107.2918214  69.9789857  17.9680325
 107.1536113  70.1691453  17.0401514 106.9354433  70.7409240  18.4248376
 107.3187594  72.0466384  22.9791596 107.7524100  71.9541673  23.8274650
 108.0319174  72.0223885  22.3411612  96.2320644  73.2650383  20.1612329
  97.0261243  72.7700703  19.9594904  95.5212337  72.7368246  19.7980035
 101.0515489  75.6468478  24.5124697 101.1052511  76.2159415  25.2802413
 100.1830270  75.8170363  24.1478734  92.5403408  67.4093464  16.2372082
  91.6100996  67.3477920  16.4542044  92.6360880  66.8869417  15.4408723
  92.4588957  63.9348277  18.8250323  92.7195774  64.8493611  18.7159484
  93.2806129  63.4672720  18.9746936 108.1803143  72.0890085  25.5124481
 108.3739033  72.9935895  25.7583756 108.0803761  71.6297504  26.3463067
 103.2418252  72.2396828  31.0865362 103.0903758  72.0107379  30.1695446
 103.2322931  73.1967429  31.0996707 100.0103588  69.8128740  26.0711629
 100.9395648  69.9639900  25.8980596  99.5894618  69.9012761  25.2160275
  98.8091920  73.8379405  23.8410166  98.6703006  73.4698189  24.7136104
  98.0206516  74.3527044  23.6694124  99.4040072  78.9388501  15.1835703
  99.5791828  78.4676544  15.9981325  98.7172860  79.5654267  15.4116963
 100.3597135  73.2161007  21.2299004 100.0246968  73.1761777  22.1256654
  99.8601081  72.5505723  20.7569414 103.2956327  70.5617042  11.5036064
 102.6785498  69.8363870  11.4069116 102.8272815  71.3226402  11.1603138
  96.9623680  68.3348597  26.2435265  97.6723298  67.6941789  26.2021883
  96.9192988  68.5861492  27.1661446 104.9510459  75.2715950  29.1641844
 104.8923005  74.5875170  28.4972427 105.3529977  76.0134940  28.7122470
  93.9701157  82.0877864  21.9575563  94.2097756  82.7196388  22.6354581
  93.1270354  81.7365904  22.2440922  95.0854873  64.7802466  10.6257368
  94.2084339  64.6591267  10.2619615  95.5612626  63.9888544  10.3736257
 104.9527866  73.2355534  27.3955824 104.0654645  72.8981456  27.5182223
 105.5226417  72.5038565  27.6324589  86.6057013  69.5679626  20.7198875
  87.2928053  69.2541356  20.1319890  86.4505142  70.4720990  20.4466126
  98.4829019  77.8956986  24.3617067  98.4099191  78.7011958  24.8736371
  98.0406412  78.0948952  23.5365088  98.2718799  77.1328756  17.8719888
  97.4886321  77.6750437  17.9658113  98.9711544  77.6502736  18.2714130
 101.5815449  62.9423386  20.5154094 102.0784149  62.1893348  20.1955164
 100.8102431  62.9787702  19.9497303 109.4345206  68.6463751  22.1572385
 109.4235083  69.5288467  21.7866318 108.5662586  68.2935302  21.9626922
 100.9427703  77.7943820  26.5175226 101.6555675  78.4291285  26.4451127
 100.4517731  77.8907686  25.7015227 102.6645230  71.6995073  18.0892517
 101.7301508  71.8196536  17.9197221 102.8421898  70.7967540  17.8252527
  98.1650418  65.0840769  20.2425778  97.7948205  64.5311809  20.9306684
  98.6609510  64.4798902  19.6900778 106.0517781  67.5412392  18.6242551
 106.5178233  68.3740384  18.5502854 106.5025282  67.0757374  19.3287810
  95.9939616  75.5438264  27.3380796  96.6949076  76.1774747  27.4910191
  95.5234731  75.8852995  26.5776436 104.1194012  73.8856214  15.6228703
 104.3953856  73.7712808  16.5322577 103.2498511  73.4873698  15.5840876
 104.0234444  59.9092979  22.6633453 103.1097524  60.1397206  22.8315660
 104.4527545  59.9931423  23.5147485 103.7940902  68.0982871  25.1633347
 103.1412353  68.3458779  24.5085799 104.1721282  67.2847009  24.8295824
 100.7548076  78.1342564  19.2661517 100.9370471  77.3164220  19.7289269
 101.5781062  78.3510257  18.8286407 101.0890242  77.0610750  16.5276565
 101.6178008  76.5503204  15.9146728 101.3518461  76.7453280  17.3922098
  99.8428475  68.8402682  31.6499384  99.1669112  68.7396812  32.3201759
 100.6656109  68.6841896  32.1135381  91.5907334  75.0774619  24.2711899
  92.1760771  74.3318307  24.4039803  91.3932173  75.3878576  25.1548563
  94.4445990  78.1125866  19.2874341  93.7756365  78.5971994  18.8038381
  94.3058859  78.3595087  20.2017720  86.1824989  67.6480219  22.9916342
  86.2209089  67.1143810  23.7853460  85.6765282  67.1215425  22.3727319
  98.5851258  80.1469610  25.8857000  99.1369566  80.3101231  26.6506085
  98.9257452  80.7374048  25.2137025 103.4362133  74.9730867  31.7405654
 103.9802037  75.5860826  31.2460609 102.8548977  75.5310446  32.2572667
  89.8133567  66.3744321  16.0670274  90.1087008  65.4655000  16.0137327
  88.9121602  66.3532061  15.7451276 101.7219646  78.0951585  22.8720682
 101.5970785  77.2941325  22.3631627 102.3798737  78.5897779  22.3834652
  93.3427814  64.4500318  22.0497822  92.6214399  65.0636286  21.9105295
  94.1321070  64.9858083  21.9714468 103.7854554  75.8960605  24.5000232
 102.8384889  75.7765957  24.4278559 104.1337327  75.0083103  24.5826493
  91.5421408  64.0558419  16.1909599  91.2134114  63.1755798  16.0084705
  91.8960779  64.0006088  17.0785988 100.7900987  75.6913322  20.7004584
 100.6425950  74.7630029  20.8812154 101.6154481  75.7133412  20.2161659
  94.6563231  64.3431389  16.5585076  94.9959304  64.8717310  15.8363685
  95.1035352  64.6811795  17.3343643 104.3935109  76.5141880  21.7869457
 105.3181657  76.3084742  21.6493908 104.2250412  76.2658282  22.6958798
  98.0023144  59.8117752  24.4615467  98.8249213  59.3378230  24.3394358
  98.2461208  60.5908236  24.9614154  96.6431379  62.8406010  14.7578369
  97.3639741  63.2187263  14.2542086  96.0196683  63.5594887  14.8613347
 100.7862502  63.5451159  15.6936701 101.0026116  64.4275797  15.3925530
 100.3056569  63.1537373  14.9642343  95.5261723  66.5036873  22.2707446
  95.3806304  66.8177176  23.1631728  95.0486927  67.1221773  21.7178345
  97.3858106  63.4939420  22.3188336  97.3719675  62.5980514  21.9820634
  98.1030534  63.5010084  22.9526622  99.2384236  63.9276761  24.3641463
  98.9802014  64.8493831  24.3625793  98.7069277  63.5307195  25.0541927
 104.1830425  77.0327548  17.1431548 104.3567303  76.4673970  16.3905401
 104.6759316  77.8328443  16.9611038  90.0007385  69.0442217  25.2095107
  89.4560853  69.8202025  25.3415382  90.8786735  69.3913021  25.0514229
  96.7895002  62.3753801  17.5875906  96.9110913  61.4470447  17.7866793
  96.4997044  62.3892487  16.6754221  99.6586192  60.0608711  20.7242626
  99.6807889  60.1248044  19.7694605 100.0754251  59.2213220  20.9183132
 110.0369816  69.7963971  18.7621848 110.4800962  69.0471296  18.3640971
 109.1596327  69.7874107  18.3795580 105.1705598  76.3494312  14.2428447
 105.8656502  76.9701005  14.4615761 105.5128748  75.4989663  14.5180825
 107.0697021  73.7994018  15.7715777 107.5948345  74.1381291  15.0465097
 106.9819373  72.8641033  15.5878912  98.7317070  77.7128091  27.9005654
  99.0404196  77.4677238  28.7728354  99.5292552  77.9174730  27.4124524
  98.7537682  79.8666001  20.1311031  98.3142672  79.3742380  20.8243887
  99.5045799  79.3238969  19.8903106  91.2330021  76.0577542  20.1335659
  92.0588040  75.7581314  19.7534302  90.8824073  75.2885164  20.5825447
  96.2011554  75.4104010  22.2033332  95.5791563  74.7474715  21.9035560
  96.8716421  75.4365142  21.5206980  89.4338626  73.9763868  21.0924592
  88.5970534  73.5486043  20.9108594  89.4062271  74.1696312  22.0295384
 106.7590927  74.4326921  31.0766975 105.9686471  74.4151060  30.5371475
 106.5224281  74.9715215  31.8316012 106.8788802  71.2819388  28.3899704
 106.9286807  71.1169395  29.3315227 106.7702725  70.4146647  27.9997585
  95.7625061  73.9607933  15.6791793  95.9113181  74.6443398  15.0258466
  96.5691504  73.9413024  16.1941249 104.1692564  67.2650316  29.7059011
 105.0702427  67.1256781  29.4143008 104.2440539  67.4304771  30.6457188
 108.3806999  73.7016329  28.6341726 108.0891807  74.0646310  29.4705186
 107.7679130  72.9883338  28.4555058 109.5802681  71.2669209  21.1544296
 110.4149572  71.7059013  21.3181856 109.7161810  70.7907862  20.3352542
 106.6294187  68.8248944  27.1021783 107.1048309  69.0176590  26.2940635
 105.7059752  68.8808130  26.8565167  93.5177694  69.9873111  16.6852862
  93.2723736  69.0835441  16.8833072  93.6873608  69.9890262  15.7432340
 101.2074404  60.8596787  26.0677617 101.7256347  61.5957814  25.7424106
 100.8529536  61.1660781  26.9024377  92.7873341  65.7201469  14.1839023
  92.0942586  65.7945824  13.5279059  92.5425093  64.9561812  14.7060540
 101.4586998  57.2797070  21.5878514 101.7388751  56.6120259  22.2138941
 102.2437605  57.4726166  21.0753178  99.2620466  76.4556064  13.1503540
  98.6894433  77.0746251  12.6974012  99.8353260  77.0055426  13.6843462
 105.3295856  65.7014704  25.3350089 106.2813279  65.8012802  25.3562313
 105.1599306  64.9092973  25.8448173 103.3510236  62.7870287  25.5209490
 102.7560168  63.0675300  24.8255979 103.0659932  63.2764188  26.2926231
 102.4817726  76.7393214  14.2812123 103.4148399  76.6738776  14.4844998
 102.3940939  77.5749481  13.8226655 107.8083934  68.9220824  24.4492389
 107.7760254  67.9836824  24.6352073 108.4184557  69.0004860  23.7158214
  99.6467265  67.7916877  10.4919593 100.5926369  67.6623085  10.5608011
  99.2681510  67.0531539  10.9689021 107.9578422  65.7131867  24.4950672
 107.4417471  64.9290324  24.3080601 108.8418371  65.3850584  24.6597191
 105.6189149  59.4572883  20.4546485 105.4213970  59.1487971  21.3389817
 106.2288855  60.1834522  20.5844414 113.6260484  69.9836831  23.5898426
 114.3563872  69.7222119  24.1506129 113.0167429  69.2465552  23.6300494
 111.7075781  68.1244693  24.1872877 110.9808944  67.9900658  23.5789368
 111.2923068  68.4321522  24.9929595  99.5305957  71.8434623  31.9520250
 100.4508967  72.0213222  32.1460296  99.4955540  70.8990668  31.7999949
  97.8310182  65.7166853  10.4274478  96.9241637  65.4199966  10.5037192
  98.1086163  65.4196671   9.5608764  88.7488122  67.0373216  20.8773524
  88.4290907  66.1838525  20.5847898  88.2021550  67.2521795  21.6331492
  92.5268030  69.7535657  24.5943031  92.7454040  70.6852765  24.6131065
  92.9393804  69.3943632  25.3797835  99.4472248  60.2603743  16.5818719
  98.6372976  59.9150828  16.9573965 100.1356664  59.9511286  17.1706331
 101.3762796  59.3381790  18.2043016 101.9293834  59.7577243  18.8633039
 101.6132882  58.4117538  18.2465972  96.6008966  62.5753788  10.5686457
  97.4628130  62.9008687  10.8282275  96.7859311  61.7885284  10.0559523
  88.6176382  70.6576128  22.8466646  87.9239854  70.2430081  22.3336600
  89.3649373  70.6996664  22.2500065 104.7541603  61.4482315  17.7121680
 104.1740272  62.1067119  17.3299733 104.4877536  60.6259659  17.3009098
 103.2045169  60.8487372  19.9143001 103.7044948  60.9603907  19.1057319
 103.8480777  60.5448425  20.5543809  90.5313125  70.5894382  20.7232661
  90.5083813  70.6882069  19.7714544  90.8413761  71.4359533  21.0449827
  93.1900503  72.6470537  24.8379275  94.1443756  72.6154479  24.7709207
  92.9913026  72.1861160  25.6529501  93.7799885  71.2171653  27.4050073
  94.5992774  71.7115731  27.4284910  94.0536692  70.3003621  27.3767640
 103.5366481  63.6082405  16.7678028 102.6492336  63.8932056  16.5498223
 103.9520470  63.4476168  15.9205305 106.8881017  63.6328926  20.4832368
 107.6641407  64.1225379  20.7556985 106.1629151  64.0586980  20.9404237
 109.3253576  64.3456545  21.5406308 109.9198067  64.1052281  20.8299617
 109.3980159  63.6263676  22.1679845  91.5450731  78.1890156  21.8549473
  91.4105199  77.4290557  21.2887471  91.1282794  78.9131056  21.3878262
 102.6809694  73.3727080  10.8626048 103.3845545  73.5777082  11.4783704
 101.9572343  73.9403842  11.1275132 103.5107505  69.1236941  16.9828319
 103.4542706  69.5805492  16.1435951 104.0635847  68.3627626  16.8051161
 107.3212311  64.9126673  17.8078438 107.0649245  64.5123309  18.6386646
 106.6965179  65.6270467  17.6828577 111.6324648  67.6522746  20.3149730
 111.0724206  67.7215935  21.0881292 111.0268152  67.4763731  19.5949226
  94.7019857  79.0859473  22.0667916  94.5852241  80.0304906  21.9646606
  93.8812304  78.7833035  22.4553715 104.5896392  73.8109609  12.9124509
 105.4241996  73.3790807  12.7301983 104.4280735  73.6391623  13.8401403
 104.2442284  70.3141722  14.2780848 104.1891088  70.1485994  13.3369292
 103.6188339  71.0217755  14.4343038 101.5588191  72.6190634  33.6034411
 102.4279351  72.7931286  33.2421046 101.0794943  73.4385051  33.4810140
  97.5538409  59.8149831  13.8566166  97.5417079  60.7591671  14.0134437
  98.4461831  59.6319977  13.5625627  95.7274371  79.7387735  25.2823844
  96.6301618  79.7711345  25.5990339  95.5011741  78.8088186  25.2970180
  97.4827973  78.4918722  21.9433923  96.5323604  78.4920583  21.8298295
  97.7860460  77.7451456  21.4269957 101.3690529  56.4092608  18.1112103
 100.6022925  55.8551095  18.2568785 101.7801234  56.4814477  18.9726255
 113.2180667  84.3279260  23.0079685 113.8559077  84.2086007  22.3043025
 113.1001510  85.2760104  23.0667637 110.0270373  84.2806688  22.9441210
 109.6888885  84.1647753  22.0561745 110.8960141  83.8797853  22.9242216
 110.5090156  85.4341540  28.9027415 110.4978797  85.0394338  28.0307919
 110.6710796  84.7007613  29.4961187 103.4321621  87.6293356  21.7722321
 104.2242913  87.2884181  21.3568621 103.6718271  87.7388331  22.6924475
 107.2297417  88.2178652  27.8506599 106.9387283  89.1224283  27.7353266
 107.8654402  88.2595179  28.5650669 108.1553624  85.5955500  24.4407959
 108.7517196  85.3711523  23.7264922 108.2128596  84.8540246  25.0433407
 112.7721935  82.0530714  20.0832893 113.5585025  81.6350137  19.7323310
 113.0360640  82.9576806  20.2514542 115.6955783  75.7027521  25.4460480
 115.3639108  76.5722932  25.2221695 115.1001396  75.3863805  26.1254511
 112.1887302  87.9040067  24.8456393 111.8888026  88.8065106  24.7372200
 111.8438362  87.6372250  25.6977546 105.6399784  84.3553864  20.8793098
 104.7150280  84.2230078  21.0870789 105.8884197  85.1348083  21.3763040
 115.5884446  80.4222607  22.5253830 114.6801324  80.3538016  22.2312591
 115.5372042  80.8994552  23.3535656 103.0008595  83.9987138  21.7136887
 103.1300976  84.2521617  22.6276298 102.3206046  84.5914846  21.3941542
 109.6625312  81.8412253  30.4688728 108.8858646  82.4006173  30.4591592
 110.3015875  82.3269036  30.9903598 117.4546093  78.6239046  24.3031704
 116.8120473  78.9171579  23.6571499 116.9501021  78.5091966  25.1084901
 107.9171684  84.6497706  30.0306695 108.6586369  85.1882750  29.7541518
 107.2108670  85.2763995  30.1878247 113.3927024  86.7926847  28.6278856
 113.8010380  86.3509257  27.8833489 112.6704285  86.2179474  28.8813049
 109.7458094  81.7299454  26.0012413 110.5919289  82.1538867  26.1447062
 109.6856732  81.0733078  26.6950976 112.8957539  79.3903822  27.6593587
 112.6518471  80.1445883  27.1227863 113.1717470  79.7689170  28.4940834
 114.8496002  85.9342434  26.3370852 115.0612897  86.5774194  25.6605233
 114.8025750  85.1004751  25.8692782 112.4522231  78.5460255  23.2407425
 111.5906710  78.8441509  23.5324162 112.4784666  78.7630654  22.3088457
 106.1607882  86.6373927  22.5860993 106.7309239  87.0661195  21.9478478
 106.7515993  86.3556512  23.2845179 106.6533048  81.8037355  30.8322005
 106.0231709  82.4853635  31.0657402 106.5469136  81.6920436  29.8875143
 101.9478020  81.4709151  21.7587929 101.1577074  81.7266679  21.2828040
 102.4389268  82.2857488  21.8639969 103.8992766  81.8353730  18.7171406
 103.1023929  81.9472424  19.2354901 103.6718358  82.1740382  17.8512296
 109.7298433  88.3598433  26.6653920 109.7942866  88.8218840  27.5012092
 109.0209357  87.7295798  26.7936230 100.2315723  81.7239641  24.1902920
 100.4823762  82.6086651  24.4560496 100.7675272  81.5444243  23.4178012
 105.9313791  76.1058120  33.1947256 105.5380736  75.5524319  33.8694900
 106.7479931  76.4168699  33.5853773 108.8481752  77.5215999  30.7867512
 109.5891465  78.1223153  30.7071975 109.0799675  76.7793637  30.2285555
 103.9923090  82.7072367  29.0645742 103.8776605  81.8057624  29.3652841
 103.1367608  82.9536064  28.7130559 111.0714928  90.6490107  30.6633243
 110.6278782  89.8626486  30.3454147 111.7332141  90.8369258  29.9977133
 105.8302049  92.1785909  25.1893921 106.3809474  92.0502972  24.4170915
 104.9913525  92.4780798  24.8388814 113.1696166  90.9292907  28.6914644
 113.1514641  91.7501788  28.1994913 114.0916086  90.8046982  28.9164785
 109.6269220  88.4437036  29.5338152 110.1597557  87.6825325  29.3037460
 109.0983301  88.1510688  30.2762307 112.7938915  73.5497102  25.0631794
 112.4503184  74.4398744  24.9870905 113.1617877  73.3598760  24.2001379
 100.8624765  85.8730633  17.8820396 101.6999987  86.2827641  17.6654104
 101.0403033  84.9330075  17.8520590 110.3436308  78.3855414  18.6289468
 109.4877905  77.9962265  18.4495106 110.7563260  78.4647375  17.7689253
 111.8735455  75.9201758  23.0281027 111.3700251  75.8831893  22.2148833
 112.1666062  76.8294500  23.0877684 108.1178341  76.0040487  22.0347209
 108.9831338  75.8083296  21.6753098 108.1855850  75.7750839  22.9616566
 105.7240660  78.2342695  19.4063576 106.2984412  78.0117877  18.6736769
 106.3111642  78.3031390  20.1592177 108.0263328  75.1083944  18.1338645
 107.3727740  74.7932961  17.5095260 107.9843802  74.4859685  18.8598468
 111.2601068  81.5965878  22.4586293 110.3423629  81.8180825  22.3007981
 111.6761212  81.6712188  21.5998000 114.5926580  72.8090662  20.1649532
 114.8985457  71.9488025  19.8775447 115.3179185  73.4008282  19.9648526
 100.8850936  83.2121348  18.5531130 100.6875336  82.6190709  17.8282196
 100.3297600  82.9073558  19.2707068 108.8647660  83.1044455  20.6725723
 108.9196270  82.1518291  20.5968199 108.0538862  83.2603894  21.1567021
 106.8040020  81.7221514  18.4316102 105.9907886  82.0215685  18.8381294
 107.2999014  81.3277203  19.1490584 112.4014232  82.1863339  27.2630996
 112.7563619  82.4134812  28.1225461 113.0486363  82.5181716  26.6408251
 106.2954095  79.2939870  24.0477337 106.9353474  79.1528629  23.3500300
 105.4631625  79.0074383  23.6715939 111.8909243  90.9760396  24.5124697
 111.9446265  91.5451332  25.2802413 111.0224025  91.1462281  24.1478734
 103.2982711  79.2640195  18.8250323 103.5589529  80.1785528  18.7159484
 104.1199884  78.7964638  18.9746936 104.7707637  80.6777952  25.9949148
 105.4430690  80.4695314  25.3461797 103.9437423  80.4800038  25.5554380
 110.6733209  77.3039893  28.0114809 110.0261124  78.0029843  27.9179285
 111.4434224  77.7376037  28.3791057 114.0812006  87.5688745  31.0865362
 113.9297513  87.3399297  30.1695446 114.0716686  88.5259347  31.0996707
 110.8497343  85.1420658  26.0711629 111.7789403  85.2931818  25.8980596
 110.4288373  85.2304679  25.2160275 109.6485675  89.1671322  23.8410166
 109.5096760  88.7990107  24.7136104 108.8600271  89.6818962  23.6694124
 105.1735134  83.9520555  26.7551585 105.0354932  83.2200794  27.3563124
 106.0840057  83.8629455  26.4735773 107.8017434  83.6640514  26.2435265
 108.5117053  83.0233707  26.2021883 107.7586743  83.9153409  27.1661446
 115.7904213  90.6007868  29.1641844 115.7316759  89.9167088  28.4972427
 116.1923732  91.3426858  28.7122470 106.5146368  80.6505732  28.0630904
 105.9783725  80.1996471  28.7152501 105.9263077  80.7851641  27.3201369
 115.7921620  88.5647452  27.3955824 114.9048399  88.2273373  27.5182223
 116.3620171  87.8330483  27.6324589  97.4450768  84.8971543  20.7198875
  98.1321807  84.5833273  20.1319890  97.2898896  85.8012908  20.4466126
 102.2485490  79.7861740  25.1483899 102.1643678  79.1787410  24.4134309
 101.4268196  80.2770758  25.1493395 112.4209204  78.2715304  20.5154094
 112.9177903  77.5185266  20.1955164 111.6496185  78.3079620  19.9497303
 111.7821457  93.1235738  26.5175226 112.4949430  93.7583203  26.4451127
 111.2911486  93.2199604  25.7015227 109.0044172  80.4132687  20.2425778
 108.6341960  79.8603727  20.9306684 109.5003265  79.8090820  19.6900778
 106.8333371  90.8730182  27.3380796 107.5342830  91.5066664  27.4910191
 106.3628486  91.2144913  26.5776436 114.8628198  75.2384897  22.6633453
 113.9491278  75.4689124  22.8315660 115.2921300  75.3223341  23.5147485
 114.6334657  83.4274789  25.1633347 113.9806107  83.6750696  24.5085799
 115.0115037  82.6138927  24.8295824 110.6822230  84.1694600  31.6499384
 110.0062867  84.0688729  32.3201759 111.5049864  84.0133814  32.1135381
 102.4301089  90.4066537  24.2711899 103.0154526  89.6610224  24.4039803
 102.2325927  90.7170493  25.1548563  97.0218744  82.9772137  22.9916342
  97.0602843  82.4435727  23.7853460  96.5159036  82.4507342  22.3727319
 104.4009506  77.8236677  26.4878884 104.4650832  78.6851508  26.0756282
 104.3376626  77.2110679  25.7551243 103.8761778  79.8959810  30.1351919
 104.5033817  79.5136887  30.7489443 103.0189697  79.6774012  30.5007611
 114.2755887  90.3022785  31.7405654 114.8195791  90.9152743  31.2460609
 113.6942732  90.8602363  32.2572667 100.6527321  81.7036239  16.0670274
 100.9480762  80.7946917  16.0137327  99.7515357  81.6823978  15.7451276
 104.1821568  79.7792236  22.0497822 103.4608154  80.3928203  21.9105295
 104.9714824  80.3150000  21.9714468 106.9847882  77.1146662  28.3238474
 107.5082284  77.3608959  29.0864783 106.7660215  77.9466697  27.9041611
 102.3815163  79.3850337  16.1909599 102.0527869  78.5047716  16.0084705
 102.7354534  79.3298005  17.0785988 105.4956986  79.6723306  16.5585076
 105.8353058  80.2009228  15.8363685 105.9429106  80.0103713  17.3343643
 108.1900427  78.0560357  26.0088144 107.8497247  77.2568170  26.4108824
 107.4839433  78.3562068  25.4364978 108.8416899  75.1409670  24.4615467
 109.6642968  74.6670148  24.3394358 109.0854962  75.9200153  24.9614154
 106.3655477  81.8328790  22.2707446 106.2200058  82.1469093  23.1631728
 105.8880681  82.4513691  21.7178345 108.2251860  78.8231338  22.3188336
 108.2113429  77.9272431  21.9820634 108.9424288  78.8302002  22.9526622
 110.0777991  79.2568678  24.3641463 109.8195769  80.1785749  24.3625793
 109.5463031  78.8599113  25.0541927 100.8401140  84.3734135  25.2095107
 100.2954608  85.1493943  25.3415382 101.7180489  84.7204939  25.0514229
 107.6288756  77.7045718  17.5875906 107.7504667  76.7762365  17.7866793
 107.3390799  77.7184404  16.6754221 110.4979947  75.3900629  20.7242626
 110.5201643  75.4539962  19.7694605 110.9148006  74.5505138  20.9183132
 101.6267161  83.5004031  28.1025264 100.8848897  83.6486666  28.6889895
 101.3059906  83.7612296  27.2392014 109.5710824  93.0420009  27.9005654
 109.8797950  92.7969156  28.7728354 110.3686306  93.2466648  27.4124524
 100.2732380  89.3055786  21.0924592  99.4364288  88.8777960  20.9108594
 100.2456026  89.4988229  22.0295384 107.1129836  79.2177716  31.7965838
 107.1617991  80.0939839  31.4143608 107.6552350  78.6755109  31.2237482
 117.5984681  89.7618839  31.0766975 116.8080225  89.7442978  30.5371475
 117.3618036  90.3007133  31.8316012 117.7182556  86.6111305  28.3899704
 117.7680561  86.4461313  29.3315227 117.6096480  85.7438564  27.9997585
 115.0086319  82.5942233  29.7059011 115.9096182  82.4548698  29.4143008
 115.0834293  82.7596688  30.6457188 109.3429124  79.9709088  28.5512197
 108.4732434  80.2642654  28.2794786 109.5788605  80.5549533  29.2719461
 119.2200753  89.0308247  28.6341726 118.9285562  89.3938228  29.4705186
 118.6072885  88.3175255  28.4555058 117.4687942  84.1540862  27.1021783
 117.9442063  84.3468508  26.2940635 116.5453507  84.2100047  26.8565167
 112.0468158  76.1888705  26.0677617 112.5650102  76.9249732  25.7424106
 111.6923291  76.4952698  26.9024377 112.2980752  72.6088988  21.5878514
 112.5782506  71.9412177  22.2138941 113.0831359  72.8018083  21.0753178
 116.1689611  81.0306622  25.3350089 117.1207033  81.1304719  25.3562313
 115.9993061  80.2384890  25.8448173 114.1903990  78.1162205  25.5209490
 113.5953922  78.3967218  24.8255979 113.9053687  78.6056106  26.2926231
 118.6477688  84.2512741  24.4492389 118.6154008  83.3128742  24.6352073
 119.2578312  84.3296778  23.7158214 118.7972177  81.0423785  24.4950672
 118.2811225  80.2582241  24.3080601 119.6812125  80.7142501  24.6597191
 116.4582904  74.7864800  20.4546485 116.2607725  74.4779889  21.3389817
 117.0682609  75.5126439  20.5844414 110.3699712  87.1726540  31.9520250
 111.2902721  87.3505139  32.1460296 110.3349295  86.2282586  31.7999949
  99.5881877  82.3665134  20.8773524  99.2684661  81.5130442  20.5847898
  99.0415305  82.5813712  21.6331492 103.3661784  85.0827575  24.5943031
 103.5847794  86.0144683  24.6131065 103.7787558  84.7235550  25.3797835
 110.2866002  75.5895660  16.5818719 109.4766730  75.2442745  16.9573965
 110.9750419  75.2803204  17.1706331 112.2156550  74.6673707  18.2043016
 112.7687589  75.0869161  18.8633039 112.4526637  73.7409455  18.2465972
 108.2389650  80.6560781  33.9845780 108.1386376  81.6055138  33.9157871
 108.0211192  80.3279020  33.1121850  99.4570137  85.9868046  22.8466646
  98.7633608  85.5721998  22.3336600 100.2043128  86.0288582  22.2500065
 114.0438924  76.1779290  19.9143001 114.5438702  76.2895825  19.1057319
 114.6874532  75.8740343  20.5543809 108.1020920  84.0857920  32.8010842
 107.6188001  84.8858280  33.0074731 108.1881859  84.0965865  31.8478286
 101.3706879  85.9186299  20.7232661 101.3477567  86.0173987  19.7714544
 101.6807516  86.7651450  21.0449827 104.0294257  87.9762454  24.8379275
 104.9837511  87.9446397  24.7709207 103.8306781  87.5153078  25.6529501
 104.6193639  86.5463570  27.4050073 105.4386528  87.0407649  27.4284910
 104.8930447  85.6295539  27.3767640 117.7274772  78.9620844  20.4832368
 118.5035162  79.4517296  20.7556985 117.0022906  79.3878898  20.9404237
  99.8728553  80.8801704  28.1042270 100.5187417  80.3700658  28.5929495
  99.6645705  81.6170386  28.6785695 112.3981946  87.9482552  33.6034411
 113.2673105  88.1223204  33.2421046 111.9188697  88.7676969  33.4810140
 106.5668126  95.0679653  25.2823844 107.4695373  95.1003263  25.5990339
 106.3405496  94.1380104  25.2970180 112.2084283  71.7384526  18.1112103
 111.4416679  71.1843012  18.2568785 112.6194988  71.8106394  18.9726255
 104.2126044  78.0269321  32.2017284 105.0757506  77.6706126  32.4120609
 103.6391455  77.6883216  32.8892689 116.7707545  91.4350038  33.1947256
 116.3774491  90.8816237  33.8694900 117.5873686  91.7460617  33.5853773
 119.6875506  92.8507917  30.7867512 120.4285220  93.4515070  30.7071975
 119.9193429  92.1085555  30.2285555 114.7155533  95.2251728  30.1351919
 115.3427572  94.8428805  30.7489443 113.8583452  95.0065929  30.5007611
 117.9523590  94.5469633  31.7965838 118.0011746  95.4231756  31.4143608
 118.4946104  94.0047027  31.2237482 119.0783404  95.9852699  33.9845780
 118.9780131  96.9347056  33.9157871 118.8604946  95.6570937  33.1121850
 110.7122308  96.2093622  28.1042270 111.3581172  95.6992576  28.5929495
 110.5039459  96.9462304  28.6785695 115.0519799  93.3561239  32.2017284
 115.9151261  92.9998044  32.4120609 114.4785210  93.0175134  32.8892689
  67.7139911   6.3384559  17.3878549  67.2703765   5.5520938  17.0699454
  68.3757124   6.5263709  16.7222440  69.8121149   6.6187359  15.4159951
  69.7939624   7.4396240  14.9240220  70.7341069   6.4941434  15.6410092
  70.7236990   3.2583197  17.8110669  70.5722496   3.0293749  16.8940752
  70.7141669   4.2153799  17.8242014  72.4329196   6.2902320  15.8887151
  72.3741743   5.6061540  15.2217734  72.8348715   7.0321310  15.4367777
  70.9180870   5.9917237  18.4650961  71.4620774   6.6047195  17.9705916
  70.3367715   6.5496815  18.9817974  74.2409665   5.4513291  17.8012282
  73.4505208   5.4337430  17.2616781  74.0043019   5.9901585  18.5561319
  75.8625737   4.7202699  15.3587032  75.5710545   5.0832679  16.1950493
  75.2497868   4.0069707  15.1800364  69.0406929   3.6377004  20.3279717
  69.9098089   3.8117656  19.9666352  68.5613680   4.4571421  20.2055447
  80.6999405  15.3465630   9.7324992  81.3377815  15.2272377   9.0288332
  80.5820248  16.2946474   9.7912944  77.5089111  15.2993058   9.6686517
  77.1707623  15.1834122   8.7807051  78.3778879  14.8984223   9.6487523
  77.9908894  16.4527909  15.6272722  77.9797535  16.0580708  14.7553226
  78.1529533  15.7193982  16.2206494  70.9140359  18.6479726   8.4967628
  71.7061651  18.3070550   8.0813927  71.1537009  18.7574701   9.4169781
  74.7116155  19.2365021  14.5751906  74.4206021  20.1410652  14.4598572
  75.3473139  19.2781549  15.2895976  75.6372362  16.6141870  11.1653266
  76.2335934  16.3897892  10.4510229  75.6947334  15.8726615  11.7678714
  83.1774521   6.7213891  12.1705787  82.8457845   7.5909302  11.9467002
  82.5820134   6.4050175  12.8499817  79.6706040  18.9226437  11.5701700
  79.3706763  19.8251476  11.4617507  79.3257100  18.6558620  12.4222853
  83.0703184  11.4408977   9.2499137  82.1620061  11.3724385   8.9557898
  83.0190780  11.9180922  10.0780963  74.6526820  25.6870757   4.5372667
  74.5750850  26.6378582   4.6161148  74.0488464  25.3416630   5.1947594
  77.1444050  12.8598623  17.1934034  76.3677384  13.4192543  17.1836899
  77.7834613  13.3455406  17.7148905  84.9364830   9.6425415  11.0277011
  84.2939211   9.9357949  10.3816806  84.4319759   9.5278336  11.8330208
  75.3990422  15.6684076  16.7552001  76.1405106  16.2069120  16.4786825
  74.6927408  16.2950365  16.9123553  80.8745762  17.8113216  15.3524163
  81.2829118  17.3695627  14.6078795  80.1523023  17.2365844  15.6058356
  77.2276832  12.7485823  12.7257720  78.0738027  13.1725237  12.8692369
  77.1675469  12.0919447  13.4196283  81.1974576  18.3714407   9.1076452
  80.5683439  18.5360121   8.4052520  80.8100238  18.7856017   9.8787416
  85.0763808  19.3068845   6.4620816  84.3914846  19.6867746   5.9117849
  85.1607658  19.9164172   7.1952763  80.3776277  10.4090192  14.3838893
  80.1337209  11.1632252  13.8473169  80.6536208  10.7875539  15.2186141
  82.3314740  16.9528804  13.0616159  82.5431635  17.5960564  12.3850540
  82.2844488  16.1191120  12.5938089  76.7502538  18.1088815   6.3726537
  77.2140884  18.3876518   5.5831159  76.4859336  17.2072260   6.1899628
  73.6426619  17.6560297   9.3106300  74.2127976  18.0847565   8.6723785
  74.2334731  17.3742881  10.0090486  74.1351786  12.8223724  17.5567311
  73.5050446  13.5040005  17.7902708  74.0287874  12.7106806  16.6120450
  83.4460568  19.8300759  11.2338516  84.2678012  19.4280947  10.9521198
  83.4422971  19.7268993  12.1854632  77.2117171  19.3784803  13.3899227
  77.2761604  19.8405210  14.2257399  76.5028095  18.7482168  13.5181537
  73.4132529   7.1244490  19.9192562  73.0199474   6.5710689  20.5940207
  74.2298669   7.4355068  20.3099080  72.1889471  21.6794104   5.9128885
  72.3656099  22.6012069   5.7249869  72.9846305  21.3652524   6.3423265
  76.3300490   8.5402369  17.5112819  77.0710203   9.1409522  17.4317281
  76.5618412   7.7980007  16.9530862  71.4741828  13.7258736  15.7891049
  71.3595343  12.8243994  16.0898148  70.6186345  13.9722433  15.4375865
  78.5533665  21.6676477  17.3878549  78.1097519  20.8812855  17.0699454
  79.2150879  21.8555627  16.7222440  73.3120786  23.1972278  11.9139228
  73.8628212  23.0689342  11.1416222  72.4732262  23.4967167  11.5634121
  80.6514903  21.9479277  15.4159951  80.6333379  22.7688158  14.9240220
  81.5734823  21.8233352  15.6410092  77.1087958  19.4623406  16.2583459
  77.6416294  18.7011694  16.0282767  76.5802039  19.1697058  17.0007613
  83.4533516  16.7858419   8.8869317  82.7957191  17.4757680   8.9749446
  84.2573915  17.1754851   9.2303304  82.2638975  15.1402792   6.9373259
  82.7770857  15.7732784   7.4394969  82.9140199  14.5403987   6.5716619
  78.7419806  12.6152247   9.1831600  77.8242367  12.8367194   9.0253288
  79.1579950  12.6898558   8.3243307  83.0300771  20.1208793   5.0652402
  82.5763098  19.2799703   5.1217592  82.3994738  20.7570192   5.4027182
  81.4733711  21.9585290   6.0002220  81.7656685  22.5190347   5.2814585
  81.9832331  22.2513851   6.7555379  76.4367336  22.7365641   7.0895673
  76.3943514  22.9626487   6.1604205  77.3530035  22.5029016   7.2381474
  79.8832969  13.2049708  13.9876302  80.2382357  13.4321182  14.8470768
  80.5305101  13.5368085  13.3653557  85.6400086  18.3944671   9.7036903
  86.0736593  18.3019960  10.5519957  86.3531667  18.3702172   9.0656919
  74.5533136  19.6128670   6.8857636  75.3473735  19.1178990   6.6840211
  73.8424829  19.0846533   6.5225341  79.3727981  21.9946765  11.2370003
  79.4265003  22.5637702  12.0047719  78.5042762  22.1648651  10.8724040
  72.2526374  11.6964322  12.7194455  72.9249428  11.4881684  12.0707103
  71.4256161  11.4986408  12.2799687  86.5015636  18.4368372  12.2369788
  86.6951526  19.3414183  12.4829063  86.4016254  17.9775791  13.0708373
  78.1551946   8.3226263  14.7360115  77.5079861   9.0216212  14.6424592
  78.9252962   8.7562407  15.1036364  81.5630744  18.5875115  17.8110669
  81.4116251  18.3585666  16.8940752  81.5535424  19.5445716  17.8242014
  78.3316081  16.1607028  12.7956935  79.2608141  16.3118187  12.6225902
  77.9107111  16.2491048  11.9405582  77.1304412  20.1857692  10.5655473
  76.9915498  19.8176476  11.4381411  76.3419009  20.7005331  10.3939431
  77.7252564  25.2866788   1.9081009  77.9004320  24.8154832   2.7226632
  77.0385352  25.9132555   2.1362270  78.6809628  19.5639295   7.9544311
  78.3459460  19.5240065   8.8501960  78.1813573  18.8984011   7.4814721
  72.6553872  14.9706925  13.4796892  72.5173670  14.2387163  14.0808431
  73.5658795  14.8815825  13.1981079  75.2836172  14.6826884  12.9680571
  75.9935791  14.0420076  12.9267190  75.2405480  14.9339779  13.8906752
  83.2722951  21.6194237  15.8887151  83.2135497  20.9353457  15.2217734
  83.6742469  22.3613227  15.4367777  73.9965106  11.6692102  14.7876211
  73.4602463  11.2182840  15.4397807  73.4081815  11.8038011  14.0446675
  72.2913650  28.4356151   8.6820870  72.5310248  29.0674675   9.3599888
  71.4482846  28.0844191   8.9686229  83.2740358  19.5833821  14.1201130
  82.3867137  19.2459743  14.2427529  83.8438909  18.8516852  14.3569896
  76.8041512  24.2435274  11.0862373  76.7311683  25.0490245  11.5981678
  76.3618905  24.4427239  10.2610395  76.5931291  23.4807044   4.5965195
  75.8098813  24.0228724   4.6903420  77.2924036  23.9981023   4.9959436
  79.2640195  24.1422108  13.2420532  79.9768167  24.7769572  13.1696434
  78.7730224  24.2385974  12.4260534  80.9857722  18.0473360   4.8137824
  80.0514001  18.1674823   4.6442528  81.1634390  17.1445827   4.5497834
  74.3152109  21.8916551  14.0626103  75.0161568  22.5253034  14.2155497
  73.8447224  22.2331283  13.3021742  82.1153395  14.4461159  11.8878653
  81.4624845  14.6937066  11.2331106  82.4933775  13.6325297  11.5541131
  79.0760568  24.4820852   5.9906824  79.2582963  23.6642508   6.4534576
  79.8993554  24.6988544   5.5531714  79.4102734  23.4089037   3.2521872
  79.9390500  22.8981491   2.6392034  79.6730954  23.0931567   4.1167405
  78.1640968  15.1880970  18.3744690  77.4881605  15.0875099  19.0447066
  78.9868602  15.0320183  18.8380688  69.9119827  21.4252906  10.9957206
  70.4973264  20.6796594  11.1285110  69.7144665  21.7356863  11.8793870
  72.7658482  24.4604154   6.0119648  72.0968857  24.9450281   5.5283688
  72.6271352  24.7073374   6.9263027  76.9063751  26.4947897  12.6102306
  77.4582059  26.6579519  13.3751392  77.2469944  27.0852335  11.9382331
  71.3580516  10.9146179  16.8597225  71.9852555  10.5323257  17.4734750
  70.5008435  10.6960381  17.2252918  81.7574625  21.3209155  18.4650961
  82.3014529  21.9339113  17.9705916  81.1761470  21.8788733  18.9817974
  80.0432138  24.4429873   9.5965989  79.9183277  23.6419612   9.0876934
  80.7011229  24.9376066   9.1079959  82.1067046  22.2438893  11.2245539
  81.1597382  22.1244244  11.1523865  82.4549819  21.3561391  11.3071800
  74.4666620   8.1333032  15.0483781  74.9901021   8.3795328  15.8110090
  74.2478953   8.9653066  14.6286918  79.1113479  22.0391609   7.4249891
  78.9638442  21.1108316   7.6057461  79.9366973  22.0611700   6.9406966
  82.7147601  22.8620168   8.5114764  83.6394149  22.6563029   8.3739215
  82.5462905  22.6136569   9.4204105  75.6719165   9.0746727  12.7333451
  75.3315985   8.2754540  13.1354131  74.9658171   9.3748438  12.1610284
  77.5596729  10.2755048  11.0886770  77.3014507  11.1972119  11.0871100
  77.0281769   9.8785482  11.7787234  82.5042918  23.3805835   3.8676855
  82.6779795  22.8152258   3.1150708  82.9971809  24.1806730   3.6856345
  68.3219877  15.3920504  11.9340414  67.7773345  16.1680312  12.0660688
  69.1999227  15.7391309  11.7759535  69.1085899  14.5190400  14.8270571
  68.3667635  14.6673036  15.4135201  68.7878643  14.7798666  13.9637320
  77.0529562  24.0606379  14.6250961  77.3616688  23.8155525  15.4973660
  77.8505044  24.2653017  14.1369831  77.0750174  26.2144288   6.8556337
  76.6355164  25.7220667   7.5489194  77.8258291  25.6717256   6.6148413
  69.5542513  22.4055829   6.8580965  70.3800533  22.1059601   6.4779609
  69.2036565  21.6363452   7.3070754  74.5224046  21.7582297   8.9278639
  73.9004055  21.0953002   8.6280867  75.1928913  21.7843429   8.2452287
  74.5948574  10.2364085  18.5211145  74.6436729  11.1126208  18.1388915
  75.1371088   9.6941478  17.9482788  85.0803419  20.7805209  17.8012282
  84.2898963  20.7629347  17.2616781  84.8436774  21.3193502  18.5561319
  85.2001294  17.6297675  15.1145011  85.2499299  17.4647682  16.0560533
  85.0915218  16.7624934  14.7242891  82.4905057  13.6128603  16.4304317
  83.3914919  13.4735068  16.1388315  82.5653031  13.7783058  17.3702495
  76.8247862  10.9895458  15.2757504  75.9551171  11.2829024  15.0040092
  77.0607342  11.5735903  15.9964767  86.7019491  20.0494617  15.3587032
  86.4104299  20.4124597  16.1950493  86.0891622  19.3361625  15.1800364
  84.9506679  15.1727231  13.8267090  85.4260801  15.3654877  13.0185942
  84.0272245  15.2286417  13.5810474  79.5286896   7.2075075  12.7922924
  80.0468840   7.9436102  12.4669413  79.1742029   7.5139068  13.6269683
  83.6508348  12.0492991  12.0595396  84.6025771  12.1491089  12.0807620
  83.4811799  11.2571260  12.5693480  81.6722728   9.1348574  12.2454797
  81.0772660   9.4153587  11.5501285  81.3872424   9.6242475  13.0171538
  86.1296426  15.2699111  11.1737695  86.0972746  14.3315112  11.3597379
  86.7397050  15.3483148  10.4403520  77.8518449  18.1912910  18.6765556
  78.7721459  18.3691509  18.8705603  77.8168033  17.2468955  18.5245256
  70.8480522  16.1013945  11.3188338  71.0666532  17.0331053  11.3376371
  71.2606296  15.7421919  12.1043141  75.7208387  11.6747150  20.7091087
  75.6205114  12.6241507  20.6403178  75.5029929  11.3465389  19.8367157
  75.5839657  15.1044289  19.5256148  75.1006739  15.9044649  19.7320037
  75.6700596  15.1152234  18.5723592  71.5112995  18.9948824  11.5624582
  72.4656248  18.9632766  11.4954514  71.3125518  18.5339448  12.3774808
  72.1012377  17.5649940  14.1295380  72.9205266  18.0594019  14.1530217
  72.3749185  16.6481908  14.1012947  69.8663224  24.5368443   8.5794780
  69.7317692  23.7768844   8.0132778  69.4495286  25.2609343   8.1123569
  73.0232350  25.4337761   8.7913222  72.9064734  26.3783193   8.6891913
  72.2024796  25.1311322   9.1799022  67.3547291  11.8988074  14.8287577
  68.0006155  11.3887028  15.3174802  67.1464442  12.6356756  15.4031002
  79.8800683  18.9668921  20.3279717  80.7491843  19.1409574  19.9666352
  79.4007435  19.7863338  20.2055447  74.0486864  26.0866022  12.0069151
  74.9514110  26.1189633  12.3235646  73.8224234  25.1566473  12.0215487
  75.8040466  24.8397009   8.6679230  74.8536097  24.8398871   8.5543602
  76.1072952  24.0929744   8.1515264  71.6944782   9.0455691  18.9262591
  72.5576244   8.6892496  19.1365915  71.1210193   8.7069586  19.6137995
  91.5393159  30.6757547   9.7324992  92.1771569  30.5564295   9.0288332
  91.4214002  31.6238391   9.7912944  88.3482865  30.6284975   9.6686517
  88.0101377  30.5126040   8.7807051  89.2172634  30.2276141   9.6487523
  84.2069681  32.4820452   5.6583408  83.6434546  32.3910389   4.8899695
  84.0922076  31.6620356   6.1385900  88.8302648  31.7819827  15.6272722
  88.8191289  31.3872625  14.7553226  88.9923288  31.0485900  16.2206494
  81.7534113  33.9771643   8.4967628  82.5455405  33.6362468   8.0813927
  81.9930763  34.0866619   9.4169781  89.7869240  36.1491420   0.9697872
  89.1357220  36.7345500   0.5831886  90.5813603  36.6797614   1.0292910
  83.7124867  33.2380557   1.3685007  84.4855743  32.6909544   1.2297883
  84.0650266  34.1024806   1.5799468  85.5509910  34.5656939  14.5751906
  85.2599776  35.4702570  14.4598572  86.1866894  34.6073467  15.2895976
  86.4766116  31.9433787  11.1653266  87.0729689  31.7189810  10.4510229
  86.5341088  31.2018533  11.7678714  91.0934428  28.4009001   6.8078200
  91.8797517  27.9828424   6.4568617  91.3573132  29.3055093   6.9759848
  85.7687434  31.3001329   1.2027832  85.6523692  30.6246232   1.8708916
  85.8789693  30.8133703   0.3859985  88.1118975  30.7611476   4.9074521
  87.7477182  30.2342097   5.6187442  88.9686090  30.3709945   4.7341006
  94.0168275  22.0505808  12.1705787  93.6851600  22.9201219  11.9467002
  93.4213889  21.7342092  12.8499817  90.5099795  34.2518354  11.5701700
  90.2100518  35.1543393  11.4617507  90.1650854  33.9850538  12.4222853
  83.9612276  30.7032151   7.6038404  83.0362773  30.5708365   7.8116096
  84.2096689  31.4826371   8.1008347  93.9096938  26.7700895   9.2499137
  93.0013816  26.7016303   8.9557898  93.8584534  27.2472840  10.0780963
  81.3221087  30.3465425   8.4382193  81.4513468  30.5999904   9.3521605
  80.6418539  30.9393133   8.1186848  85.4920575  41.0162675   4.5372667
  85.4144604  41.9670500   4.6161148  84.8882218  40.6708547   5.1947594
  87.9837804  28.1890540  17.1934034  87.2071138  28.7484460  17.1836899
  88.6228367  28.6747323  17.7148905  95.7758585  24.9717333  11.0277011
  95.1332965  25.2649866  10.3816806  95.2713513  24.8570253  11.8330208
  86.2384177  30.9975994  16.7552001  86.9798861  31.5361038  16.4786825
  85.5321162  31.6242282  16.9123553  91.7139516  33.1405134  15.3524163
  92.1222872  32.6987545  14.6078795  90.9916778  32.5657762  15.6058356
  88.0670586  28.0777741  12.7257720  88.9131781  28.5017154  12.8692369
  88.0069224  27.4211365  13.4196283  92.0368331  33.7006325   9.1076452
  91.4077193  33.8652039   8.4052520  91.6493993  34.1147934   9.8787416
  95.9157563  34.6360763   6.4620816  95.2308601  35.0159664   5.9117849
  96.0001412  35.2456089   7.1952763  91.2170032  25.7382109  14.3838893
  90.9730963  26.4924170  13.8473169  91.4929962  26.1167457  15.2186141
  93.1708494  32.2820722  13.0616159  93.3825390  32.9252481  12.3850540
  93.1238243  31.4483038  12.5938089  90.7734723  24.8938542   9.9652731
  89.9119202  25.1919796  10.2569469  90.7997158  25.1108941   9.0333764
  87.5896293  33.4380733   6.3726537  88.0534638  33.7168436   5.5831159
  87.3253091  32.5364177   6.1899628  84.4820374  32.9852214   9.3106300
  85.0521731  33.4139483   8.6723785  85.0728486  32.7034799  10.0090486
  86.5265179  29.5603885   3.1816102  87.2289222  30.0124929   3.6490028
  86.1945807  28.9187704   3.8095995  84.9745540  28.1515642  17.5567311
  84.3444201  28.8331923  17.7902708  84.8681628  28.0398723  16.6120450
  80.2690513  27.8187438   8.4833236  79.4789567  28.0744966   8.0073346
  80.7601760  28.6335776   8.5885276  94.2854322  35.1592677  11.2338516
  95.1071766  34.7572864  10.9521198  94.2816725  35.0560911  12.1854632
  82.2205258  28.1832017   5.4416712  81.4236421  28.2950711   5.9600208
  81.9930850  28.5218669   4.5757603  88.0510926  34.7076720  13.3899227
  88.1155358  35.1697128  14.2257399  87.3421850  34.0774085  13.5181537
  78.5528216  28.0717928  10.9148226  78.8036254  28.9564938  11.1805802
  79.0887764  27.8922530  10.1423318  87.7658943  36.3744828   3.2578207
  87.6304618  37.2196364   3.6863055  88.3068756  36.5764105   2.4944141
  84.2526283  22.4536408  19.9192562  83.8593229  21.9002606  20.5940207
  85.0692423  22.7646986  20.3099080  81.2188341  33.8920266   3.8306132
  81.7312861  34.6863516   3.9811697  81.8711054  33.1946556   3.7639734
  83.0283226  37.0086022   5.9128885  83.2049854  37.9303987   5.7249869
  83.8240059  36.6944441   6.3423265  87.1694244  23.8694287  17.5112819
  87.9103957  24.4701440  17.4317281  87.4012167  23.1271925  16.9530862
  82.3135582  29.0550654  15.7891049  82.1989097  28.1535911  16.0898148
  81.4580100  29.3014351  15.4375865  89.3927420  36.9968394  17.3878549
  88.9491274  36.2104773  17.0699454  90.0544633  37.1847545  16.7222440
  84.1514541  38.5264196  11.9139228  84.7021966  38.3981259  11.1416222
  83.3126017  38.8259085  11.5634121  91.4908658  37.2771194  15.4159951
  91.4727133  38.0980075  14.9240220  92.4128578  37.1525269  15.6410092
  87.9481712  34.7915324  16.2583459  88.4810049  34.0303612  16.0282767
  87.4195793  34.4988976  17.0007613  91.1151407  19.8975390  11.7877101
  90.7715676  20.7877031  11.7116211  91.4830370  19.7077047  10.9246686
  79.1837258  32.2208920   4.6065703  80.0212480  32.6305928   4.3899411
  79.3615525  31.2808362   4.5765897  90.1947947  22.2680045   9.7526334
  89.6912743  22.2310180   8.9394139  90.4878554  23.1772788   9.8122991
  86.4390833  22.3518775   8.7592516  87.3043830  22.1561583   8.3998405
  86.5068342  22.1229126   9.6861872  89.3134425  33.9201316   3.7702271
  88.7855786  33.1854076   3.4575508  88.8121927  34.6975993   3.5242239
  94.2927271  32.1150337   8.8869317  93.6350945  32.8049598   8.9749446
  95.0967670  32.5046769   9.2303304  84.0453152  24.5820982   6.1308882
  84.6196904  24.3596164   5.3982075  84.6324135  24.6509677   6.8837484
  93.1032730  30.4694709   6.9373259  93.6164611  31.1024701   7.4394969
  93.7533953  29.8695905   6.5716619  90.3655104  40.4479034  -0.3066070
  89.6916803  40.7510730   0.3018888  90.7520926  41.2508114  -0.6560613
  89.5813560  27.9444165   9.1831600  88.6636122  28.1659112   9.0253288
  89.9973704  28.0190475   8.3243307  93.8694526  35.4500711   5.0652402
  93.4156853  34.6091621   5.1217592  93.2388492  36.0862109   5.4027182
  92.3127465  37.2877208   6.0002220  92.6050439  37.8482265   5.2814585
  92.8226086  37.5805769   6.7555379  79.2063429  29.5599635   5.2776436
  79.0087829  28.9668996   4.5527503  78.6510093  29.2551846   5.9952375
  87.1860152  29.4522742   7.3971029  87.2408762  28.4996578   7.3213506
  86.3751354  29.6082181   7.8812328  85.1252512  28.0699802   5.1561408
  84.3120378  28.3693972   5.5626600  85.6211506  27.6755490   5.8735891
  87.2761090  38.0657559   7.0895673  87.2337269  38.2918405   6.1604205
  88.1923789  37.8320933   7.2381474  90.7226724  28.5341626  13.9876302
  91.0776112  28.7613099  14.8470768  91.3698855  28.8660003  13.3653557
  84.6166587  25.6418157  10.7722643  85.2565966  25.5006916  10.0745607
  83.7844118  25.3552671  10.3961245  96.4793841  33.7236589   9.7036903
  96.9130347  33.6311878  10.5519957  97.1925421  33.6994090   9.0656919
  85.3926891  34.9420588   6.8857636  86.1867489  34.4470908   6.6840211
  84.6818583  34.4138451   6.5225341  90.2121735  37.3238683  11.2370003
  90.2658758  37.8929619  12.0047719  89.3436517  37.4940568  10.8724040
  81.7009654  29.0863669   2.9617388  80.7707243  29.0248125   3.1787351
  81.7967126  28.5639622   2.1654030  81.6195203  25.6118482   5.5495630
  81.8802021  26.5263815   5.4404791  82.4412376  25.1442925   5.6992243
  83.0920129  27.0256239  12.7194455  83.7643182  26.8173601  12.0707103
  82.2649915  26.8278325  12.2799687  97.3409390  33.7660290  12.2369788
  97.5345280  34.6706100  12.4829063  97.2410008  33.3067709  13.0708373
  88.9945701  23.6518180  14.7360115  88.3473616  24.3508130  14.6424592
  89.7646716  24.0854324  15.1036364  92.4024499  33.9167032  17.8110669
  92.2510005  33.6877584  16.8940752  92.3929178  34.8737634  17.8242014
  89.1709835  31.4898945  12.7956935  90.1001895  31.6410105  12.6225902
  88.7500865  31.5782966  11.9405582  87.9698167  35.5149610  10.5655473
  87.8309253  35.1468394  11.4381411  87.1812763  36.0297249  10.3939431
  88.5646319  40.6158706   1.9081009  88.7398075  40.1446749   2.7226632
  87.8779107  41.2424472   2.1362270  89.5203382  34.8931212   7.9544311
  89.1853215  34.8531982   8.8501960  89.0207328  34.2275928   7.4814721
  83.4947626  30.2998842  13.4796892  83.3567424  29.5679081  14.0808431
  84.4052550  30.2107742  13.1981079  86.1229927  30.0118802  12.9680571
  86.8329545  29.3711994  12.9267190  86.0799235  30.2631696  13.8906752
  94.1116705  36.9486155  15.8887151  94.0529252  36.2645375  15.2217734
  94.5136224  37.6905145  15.4367777  84.8358861  26.9984020  14.7876211
  84.2996218  26.5474758  15.4397807  84.2475569  27.1329928  14.0446675
  83.1307404  43.7648069   8.6820870  83.3704002  44.3966593   9.3599888
  82.2876601  43.4136109   8.9686229  94.1134113  34.9125739  14.1201130
  93.2260891  34.5751661  14.2427529  94.6832664  34.1808770  14.3569896
  75.7663260  31.2449831   7.4444182  76.4534300  30.9311561   6.8565197
  75.6111388  32.1491195   7.1711433  80.5697982  26.1340027  11.8729205
  80.4856171  25.5265697  11.1379615  79.7480688  26.6249046  11.8738702
  87.6435266  39.5727191  11.0862373  87.5705438  40.3782163  11.5981678
  87.2012659  39.7719157  10.2610395  87.4325046  38.8098961   4.5965195
  86.6492568  39.3520641   4.6903420  88.1317791  39.3272941   4.9959436
  90.1033950  39.4714025  13.2420532  90.8161922  40.1061490  13.1696434
  89.6123978  39.5677891  12.4260534  91.8251477  33.3765278   4.8137824
  90.8907755  33.4966740   4.6442528  92.0028145  32.4737745   4.5497834
  87.3256665  26.7610974   6.9671085  86.9554452  26.2082014   7.6551991
  87.8215757  26.1569107   6.4146085  85.1545863  37.2208469  14.0626103
  85.8555323  37.8544952  14.2155497  84.6840978  37.5623200  13.3021742
  92.9547149  29.7753076  11.8878653  92.3018599  30.0228984  11.2331106
  93.3327529  28.9617214  11.5541131  89.9154323  39.8112769   5.9906824
  90.0976718  38.9934425   6.4534576  90.7387309  40.0280462   5.5531714
  90.2496488  38.7380955   3.2521872  90.7784255  38.2273409   2.6392034
  90.5124708  38.4223485   4.1167405  89.0034722  30.5172887  18.3744690
  88.3275359  30.4167017  19.0447066  89.8262356  30.3612101  18.8380688
  80.7513581  36.7544824  10.9957206  81.3367018  36.0088512  11.1285110
  80.5538420  37.0648781  11.8793870  83.6052236  39.7896071   6.0119648
  82.9362612  40.2742199   5.5283688  83.4665106  40.0365292   6.9263027
  75.3431236  29.3250424   9.7161649  75.3815335  28.7914015  10.5098767
  74.8371529  28.7985630   9.0972626  87.7457505  41.8239815  12.6102306
  88.2975813  41.9871436  13.3751392  88.0863698  42.4144253  11.9382331
  82.7221998  24.1714965  13.2124191  82.7863325  25.0329795  12.8001589
  82.6589118  23.5588966  12.4796550  82.1974271  26.2438097  16.8597225
  82.8246310  25.8615174  17.4734750  81.3402190  26.0252299  17.2252918
  92.5968379  36.6501072  18.4650961  93.1408283  37.2631031  17.9705916
  92.0155224  37.2080651  18.9817974  78.9739814  28.0514526   2.7915580
  79.2693255  27.1425205   2.7382634  78.0727849  28.0302266   2.4696583
  90.8825892  39.7721790   9.5965989  90.7577032  38.9711530   9.0876934
  91.5404983  40.2667984   9.1079959  82.5034061  26.1270523   8.7743129
  81.7820646  26.7406490   8.6350602  83.2927316  26.6628288   8.6959775
  92.9460801  37.5730810  11.2245539  91.9991136  37.4536162  11.1523865
  93.2943574  36.6853308  11.3071800  85.3060374  23.4624949  15.0483781
  85.8294776  23.7087246  15.8110090  85.0872707  24.2944984  14.6286918
  80.7027655  25.7328624   2.9154905  80.3740361  24.8526003   2.7330011
  81.0567026  25.6776293   3.8031295  89.9507234  37.3683527   7.4249891
  89.8032196  36.4400234   7.6057461  90.7760727  37.3903617   6.9406966
  83.8169478  26.0201594   3.2830383  84.1565551  26.5487515   2.5608991
  84.2641599  26.3582000   4.0588950  93.5541356  38.1912085   8.5114764
  94.4787903  37.9854947   8.3739215  93.3856659  37.9428486   9.4204105
  86.5112919  24.4038644  12.7333451  86.1709739  23.6046457  13.1354131
  85.8051925  24.7040355  12.1610284  87.1629391  21.4887957  11.1860774
  87.9855460  21.0148435  11.0639664  87.4067454  22.2678441  11.6859460
  84.6867970  28.1807077   8.9952753  84.5412550  28.4947380   9.8877034
  84.2093173  28.7991978   8.4423651  86.5464353  25.1709625   9.0433642
  86.5325921  24.2750719   8.7065940  87.2636781  25.1780289   9.6771928
  88.3990483  25.6046966  11.0886770  88.1408261  26.5264036  11.0871100
  87.8675524  25.2077400  11.7787234  93.3436672  38.7097753   3.8676855
  93.5173550  38.1444175   3.1150708  93.8365563  39.5098648   3.6856345
  79.1613632  30.7212422  11.9340414  78.6167100  31.4972230  12.0660688
  80.0392982  31.0683226  11.7759535  85.9501248  24.0524006   4.3121212
  86.0717160  23.1240652   4.5112100  85.6603291  24.0662692   3.3999528
  79.9479654  29.8482318  14.8270571  79.2061390  29.9964953  15.4135201
  79.6272398  30.1090584  13.9637320  87.8923316  39.3898296  14.6250961
  88.2010443  39.1447443  15.4973660  88.6898798  39.5944935  14.1369831
  87.9143928  41.5436206   6.8556337  87.4748919  41.0512585   7.5489194
  88.6652045  41.0009174   6.6148413  80.3936267  37.7347747   6.8580965
  81.2194287  37.4351519   6.4779609  80.0430319  36.9655369   7.3070754
  85.3617801  37.0874215   8.9278639  84.7397810  36.4244920   8.6280867
  86.0322667  37.1135347   8.2452287  78.5944872  35.6534073   7.8169899
  77.7576781  35.2256248   7.6353900  78.5668518  35.8466517   8.7540690
  85.4342328  25.5656003  18.5211145  85.4830483  26.4418126  18.1388915
  85.9764842  25.0233396  17.9482788  95.9197174  36.1097126  17.8012282
  95.1292717  36.0921265  17.2616781  95.6830528  36.6485420  18.5561319
  96.0395049  32.9589593  15.1145011  96.0893054  32.7939600  16.0560533
  95.9308972  32.0916852  14.7242891  84.9231307  35.6378138   2.4037100
  85.0719428  36.3213603   1.7503772  85.7297751  35.6183228   2.9186555
  93.3298811  28.9420521  16.4304317  94.2308674  28.8026986  16.1388315
  93.4046786  29.1074976  17.3702495  87.6641616  26.3187375  15.2757504
  86.7944926  26.6120942  15.0040092  87.9001097  26.9027820  15.9964767
  97.5413246  35.3786534  15.3587032  97.2498054  35.7416515  16.1950493
  96.9285377  34.6653542  15.1800364  95.7900434  30.5019149  13.8267090
  96.2654555  30.6946795  13.0185942  94.8665999  30.5578335  13.5810474
  82.6783940  31.6643316   3.4098168  82.4329982  30.7605646   3.6078379
  82.8479855  31.6660466   2.4677646  90.3680650  22.5366992  12.7922924
  90.8862594  23.2728019  12.4669413  90.0135783  22.8430986  13.6269683
  81.9479588  27.3971674   0.9084330  81.2548833  27.4716029   0.2524366
  81.7031340  26.6332017   1.4305847  88.4226713  38.1326269  -0.1251153
  87.8500680  38.7516456  -0.5780681  88.9959507  38.6825631   0.4088769
  94.4902103  27.3784909  12.0595396  95.4419526  27.4783007  12.0807620
  94.3205553  26.5863177  12.5693480  92.5116482  24.4640492  12.2454797
  91.9166414  24.7445505  11.5501285  92.2266179  24.9534393  13.0171538
  91.6423973  38.4163419   1.0057429  92.5754646  38.3508981   1.2090305
  91.5547186  39.2519686   0.5471962  96.9690181  30.5991029  11.1737695
  96.9366501  29.6607029  11.3597379  97.5790804  30.6775065  10.4403520
  88.6912204  33.5204828  18.6765556  89.6115213  33.6983427  18.8705603
  88.6561787  32.5760873  18.5245256  77.9094369  28.7143421   7.6018831
  77.5897153  27.8608730   7.3093205  77.3627797  28.9292000   8.3576798
  81.6874277  31.4305862  11.3188338  81.9060286  32.3622970  11.3376371
  82.1000050  31.0713837  12.1043141  86.5602142  27.0039068  20.7091087
  86.4598869  27.9533425  20.6403178  86.3423684  26.6757307  19.8367157
  77.7782629  32.3346333   9.5711953  77.0846100  31.9200286   9.0581907
  78.5255620  32.3766869   8.9745372  86.4233412  30.4336207  19.5256148
  85.9400494  31.2336567  19.7320037  86.5094351  30.4444152  18.5723592
  79.6919372  32.2664587   7.4477968  79.6690060  32.3652274   6.4959851
  80.0020008  33.1129737   7.7695134  82.3506749  34.3240742  11.5624582
  83.3050003  34.2924684  11.4954514  82.1519273  33.8631365  12.3774808
  82.9406132  32.8941858  14.1295380  83.7599021  33.3885936  14.1530217
  83.2142939  31.9773826  14.1012947  80.7056978  39.8660361   8.5794780
  80.5711446  39.1060762   8.0132778  80.2889040  40.5901261   8.1123569
  83.8626104  40.7629678   8.7913222  83.7458488  41.7075111   8.6891913
  83.0418550  40.4603240   9.1799022  78.1941046  27.2279992  14.8287577
  78.8399909  26.7178946  15.3174802  77.9858197  27.9648673  15.4031002
  90.7194438  34.2960839  20.3279717  91.5885598  34.4701491  19.9666352
  90.2401189  35.1155256  20.2055447  84.8880618  41.4157940  12.0069151
  85.7907865  41.4481550  12.3235646  84.6617988  40.4858391  12.0215487
  86.6434220  40.1688927   8.6679230  85.6929851  40.1690788   8.5543602
  86.9466706  39.4221661   8.1515264  82.5338537  24.3747609  18.9262591
  83.3969998  24.0184414  19.1365915  81.9603947  24.0361503  19.6137995
 102.3786914  46.0049465   9.7324992 103.0165324  45.8856212   9.0288332
 102.2607757  46.9530309   9.7912944  99.1876620  45.9576893   9.6686517
  98.8495131  45.8417958   8.7807051 100.0566388  45.5568058   9.6487523
  95.0463436  47.8112370   5.6583408  94.4828301  47.7202306   4.8899695
  94.9315831  46.9912274   6.1385900  99.6696403  47.1111745  15.6272722
  99.6585044  46.7164543  14.7553226  99.8317042  46.3777817  16.2206494
  92.5927868  49.3063561   8.4967628  93.3849160  48.9654386   8.0813927
  92.8324518  49.4158536   9.4169781 100.6262994  51.4783337   0.9697872
  99.9750974  52.0637418   0.5831886 101.4207357  52.0089532   1.0292910
  94.5518622  48.5672474   1.3685007  95.3249498  48.0201461   1.2297883
  94.9044020  49.4316724   1.5799468  96.3903664  49.8948857  14.5751906
  96.0993530  50.7994487  14.4598572  97.0260648  49.9365384  15.2895976
  97.3159871  47.2725705  11.1653266  97.9123443  47.0481728  10.4510229
  97.3734842  46.5310451  11.7678714 101.9328182  43.7300919   6.8078200
 102.7191271  43.3120342   6.4568617 102.1966887  44.6347011   6.9759848
  96.6081188  46.6293246   1.2027832  96.4917446  45.9538150   1.8708916
  96.7183448  46.1425620   0.3859985  98.9512729  46.0903394   4.9074521
  98.5870936  45.5634015   5.6187442  99.8079845  45.7001863   4.7341006
 104.8562030  37.3797726  12.1705787 104.5245354  38.2493137  11.9467002
 104.2607643  37.0634010  12.8499817 101.3493549  49.5810272  11.5701700
 101.0494272  50.4835311  11.4617507 101.0044609  49.3142455  12.4222853
  94.8006031  46.0324069   7.6038404  93.8756527  45.9000283   7.8116096
  95.0490444  46.8118288   8.1008347 104.7490693  42.0992812   9.2499137
 103.8407570  42.0308221   8.9557898 104.6978289  42.5764757  10.0780963
  92.1614842  45.6757343   8.4382193  92.2907223  45.9291821   9.3521605
  91.4812293  46.2685051   8.1186848  96.3314329  56.3454593   4.5372667
  96.2538359  57.2962418   4.6161148  95.7275973  56.0000465   5.1947594
  98.8231559  43.5182458  17.1934034  98.0464893  44.0776378  17.1836899
  99.4622122  44.0039241  17.7148905 106.6152339  40.3009251  11.0277011
 105.9726720  40.5941784  10.3816806 106.1107268  40.1862171  11.8330208
  97.0777931  46.3267911  16.7552001  97.8192615  46.8652955  16.4786825
  96.3714917  46.9534200  16.9123553 102.5533271  48.4697052  15.3524163
 102.9616627  48.0279462  14.6078795 101.8310532  47.8949679  15.6058356
  98.9064341  43.4069659  12.7257720  99.7525536  43.8309072  12.8692369
  98.8462978  42.7503283  13.4196283 102.8762085  49.0298242   9.1076452
 102.2470948  49.1943957   8.4052520 102.4887747  49.4439852   9.8787416
 106.7551317  49.9652680   6.4620816 106.0702355  50.3451582   5.9117849
 106.8395167  50.5748007   7.1952763 102.0563786  41.0674027  14.3838893
 101.8124718  41.8216087  13.8473169 102.3323717  41.4459374  15.2186141
 104.0102249  47.6112639  13.0616159 104.2219144  48.2544399  12.3850540
 103.9631997  46.7774956  12.5938089 101.6128478  40.2230460   9.9652731
 100.7512957  40.5211713  10.2569469 101.6390912  40.4400859   9.0333764
  98.4290047  48.7672650   6.3726537  98.8928393  49.0460353   5.5831159
  98.1646845  47.8656095   6.1899628  95.3214128  48.3144132   9.3106300
  95.8915485  48.7431400   8.6723785  95.9122240  48.0326717  10.0090486
  97.3658933  44.8895803   3.1816102  98.0682977  45.3416847   3.6490028
  97.0339562  44.2479622   3.8095995  95.8139295  43.4807559  17.5567311
  95.1837955  44.1623840  17.7902708  95.7075383  43.3690641  16.6120450
  91.1084267  43.1479356   8.4833236  90.3183321  43.4036884   8.0073346
  91.5995515  43.9627693   8.5885276 105.1248077  50.4884595  11.2338516
 105.9465521  50.0864782  10.9521198 105.1210480  50.3852829  12.1854632
  93.0599013  43.5123935   5.4416712  92.2630176  43.6242629   5.9600208
  92.8324605  43.8510587   4.5757603  98.8904680  50.0368638  13.3899227
  98.9549113  50.4989045  14.2257399  98.1815604  49.4066003  13.5181537
  89.3921970  43.4009846  10.9148226  89.6430009  44.2856856  11.1805802
  89.9281519  43.2214447  10.1423318  98.6052698  51.7036745   3.2578207
  98.4698373  52.5488281   3.6863055  99.1462510  51.9056023   2.4944141
  95.0920038  37.7828325  19.9192562  94.6986983  37.2294524  20.5940207
  95.9086178  38.0938904  20.3099080  92.0582095  49.2212184   3.8306132
  92.5706616  50.0155434   3.9811697  92.7104808  48.5238474   3.7639734
  93.8676980  52.3377940   5.9128885  94.0443608  53.2595904   5.7249869
  94.6633814  52.0236359   6.3423265  98.0087999  39.1986204  17.5112819
  98.7497712  39.7993358  17.4317281  98.2405921  38.4563842  16.9530862
  93.1529337  44.3842572  15.7891049  93.0382852  43.4827829  16.0898148
  92.2973854  44.6306268  15.4375865 100.2321174  52.3260312  17.3878549
  99.7885028  51.5396691  17.0699454 100.8938388  52.5139462  16.7222440
  94.9908295  53.8556114  11.9139228  95.5415721  53.7273177  11.1416222
  94.1519771  54.1551003  11.5634121 102.3302412  52.6063112  15.4159951
 102.3120888  53.4271993  14.9240220 103.2522332  52.4817187  15.6410092
  98.7875467  50.1207241  16.2583459  99.3203803  49.3595530  16.0282767
  98.2589548  49.8280893  17.0007613 101.9545161  35.2267307  11.7877101
 101.6109431  36.1168949  11.7116211 102.3224124  35.0368965  10.9246686
  90.0231012  47.5500838   4.6065703  90.8606234  47.9597846   4.3899411
  90.2009280  46.6100280   4.5765897 101.0341702  37.5971963   9.7526334
 100.5306497  37.5602098   8.9394139 101.3272309  38.5064705   9.8122991
  97.2784588  37.6810692   8.7592516  98.1437585  37.4853501   8.3998405
  97.3462097  37.4521044   9.6861872 100.1528179  49.2493234   3.7702271
  99.6249541  48.5145993   3.4575508  99.6515682  50.0267910   3.5242239
 105.1321025  47.4442254   8.8869317 104.4744700  48.1341516   8.9749446
 105.9361424  47.8338686   9.2303304  94.8846907  39.9112900   6.1308882
  95.4590659  39.6888082   5.3982075  95.4717889  39.9801595   6.8837484
 103.9426484  45.7986627   6.9373259 104.4558366  46.4316619   7.4394969
 104.5927708  45.1987823   6.5716619 100.4207315  43.2736083   9.1831600
  99.5029876  43.4951030   9.0253288 100.8367459  43.3482393   8.3243307
 104.7088280  50.7792628   5.0652402 104.2550607  49.9383538   5.1217592
 104.0782247  51.4154027   5.4027182 103.1521219  52.6169125   6.0002220
 103.4444194  53.1774182   5.2814585 103.6619840  52.9097686   6.7555379
  90.0457183  44.8891553   5.2776436  89.8481583  44.2960914   4.5527503
  89.4903847  44.5843763   5.9952375  98.0253907  44.7814660   7.3971029
  98.0802517  43.8288496   7.3213506  97.2145109  44.9374099   7.8812328
  95.9646267  43.3991719   5.1561408  95.1514132  43.6985890   5.5626600
  96.4605261  43.0047408   5.8735891  98.1154845  53.3949476   7.0895673
  98.0731023  53.6210323   6.1604205  99.0317544  53.1612851   7.2381474
 101.5620478  43.8633544  13.9876302 101.9169866  44.0905017  14.8470768
 102.2092610  44.1951921  13.3653557  95.4560342  40.9710075  10.7722643
  96.0959721  40.8298834  10.0745607  94.6237872  40.6844588  10.3961245
 107.3187595  49.0528507   9.7036903 107.7524102  48.9603796  10.5519957
 108.0319176  49.0286007   9.0656919  96.2320645  50.2712505   6.8857636
  97.0261244  49.7762825   6.6840211  95.5212338  49.7430368   6.5225341
 101.0515490  52.6530601  11.2370003 101.1052512  53.2221537  12.0047719
 100.1830271  52.8232486  10.8724040  92.5403409  44.4155587   2.9617388
  91.6100997  44.3540043   3.1787351  92.6360881  43.8931540   2.1654030
  92.4588958  40.9410400   5.5495630  92.7195775  41.8555733   5.4404791
  93.2806130  40.4734842   5.6992243  93.9313883  42.3548157  12.7194455
  94.6036937  42.1465519  12.0707103  93.1043670  42.1570243  12.2799687
 108.1803145  49.0952207  12.2369788 108.3739035  49.9998018  12.4829063
 108.0803763  48.6359626  13.0708373  99.8339455  38.9810098  14.7360115
  99.1867370  39.6800048  14.6424592 100.6040471  39.4146242  15.1036364
 103.2418253  49.2458950  17.8110669 103.0903760  49.0169502  16.8940752
 103.2322933  50.2029552  17.8242014 100.0103590  46.8190863  12.7956935
 100.9395650  46.9702022  12.6225902  99.5894620  46.9074884  11.9405582
  98.8091921  50.8441527  10.5655473  98.6703007  50.4760312  11.4381411
  98.0206518  51.3589167  10.3939431  99.4040073  55.9450624   1.9081009
  99.5791829  55.4738667   2.7226632  98.7172861  56.5716390   2.1362270
 100.3597137  50.2223130   7.9544311 100.0246969  50.1823900   8.8501960
  99.8601082  49.5567846   7.4814721  94.3341381  45.6290760  13.4796892
  94.1961178  44.8970999  14.0808431  95.2446304  45.5399660  13.1981079
  96.9623681  45.3410719  12.9680571  97.6723300  44.7003912  12.9267190
  96.9192989  45.5923614  13.8906752 104.9510460  52.2778073  15.8887151
 104.8923006  51.5937293  15.2217734 105.3529978  53.0197063  15.4367777
  95.6752615  42.3275937  14.7876211  95.1389972  41.8766676  15.4397807
  95.0869324  42.4621846  14.0446675  93.9701159  59.0939987   8.6820870
  94.2097757  59.7258511   9.3599888  93.1270355  58.7428027   8.9686229
 104.9527867  50.2417657  14.1201130 104.0654646  49.9043578  14.2427529
 105.5226418  49.5100688  14.3569896  86.6057014  46.5741748   7.4444182
  87.2928054  46.2603478   6.8565197  86.4505143  47.4783113   7.1711433
  91.4091736  41.4631945  11.8729205  91.3249925  40.8557614  11.1379615
  90.5874443  41.9540963  11.8738702  98.4829021  54.9019109  11.0862373
  98.4099192  55.7074080  11.5981678  98.0406414  55.1011075  10.2610395
  98.2718800  54.1390879   4.5965195  97.4886322  54.6812559   4.6903420
  98.9711545  54.6564859   4.9959436 100.9427704  54.8005943  13.2420532
 101.6555676  55.4353408  13.1696434 100.4517733  54.8969809  12.4260534
 102.6645231  48.7057196   4.8137824 101.7301510  48.8258658   4.6442528
 102.8421899  47.8029662   4.5497834  98.1650419  42.0902891   6.9671085
  97.7948207  41.5373932   7.6551991  98.6609512  41.4861025   6.4146085
  95.9939618  52.5500386  14.0626103  96.6949077  53.1836869  14.2155497
  95.5234733  52.8915118  13.3021742 103.7940904  45.1044994  11.8878653
 103.1412354  45.3520901  11.2331106 104.1721283  44.2909132  11.5541131
 100.7548077  55.1404687   5.9906824 100.9370472  54.3226343   6.4534576
 101.5781063  55.3572379   5.5531714 101.0890243  54.0672872   3.2521872
 101.6178009  53.5565327   2.6392034 101.3518463  53.7515402   4.1167405
  99.8428477  45.8464805  18.3744690  99.1669114  45.7458934  19.0447066
 100.6656110  45.6904019  18.8380688  91.5907336  52.0836741  10.9957206
  92.1760772  51.3380429  11.1285110  91.3932174  52.3940698  11.8793870
  94.4445991  55.1187989   6.0119648  93.7756366  55.6034117   5.5283688
  94.3058861  55.3657209   6.9263027  86.1824990  44.6542342   9.7161649
  86.2209090  44.1205932  10.5098767  85.6765283  44.1277547   9.0972626
  98.5851259  57.1531732  12.6102306  99.1369568  57.3163354  13.3751392
  98.9257453  57.7436170  11.9382331  93.5615753  39.5006882  13.2124191
  93.6257079  40.3621713  12.8001589  93.4982873  38.8880884  12.4796550
  93.0368025  41.5730015  16.8597225  93.6640064  41.1907092  17.4734750
  92.1795944  41.3544217  17.2252918 103.4362134  51.9792990  18.4650961
 103.9802038  52.5922948  17.9705916 102.8548979  52.5372568  18.9817974
  89.8133568  43.3806444   2.7915580  90.1087009  42.4717122   2.7382634
  88.9121604  43.3594183   2.4696583 101.7219647  55.1013708   9.5965989
 101.5970786  54.3003448   9.0876934 102.3798738  55.5959901   9.1079959
  93.3427815  41.4562440   8.7743129  92.6214401  42.0698408   8.6350602
  94.1321071  41.9920205   8.6959775 103.7854555  52.9022728  11.2245539
 102.8384891  52.7828079  11.1523865 104.1337328  52.0145226  11.3071800
  96.1454129  38.7916867  15.0483781  96.6688530  39.0379163  15.8110090
  95.9266462  39.6236902  14.6286918  91.5421410  41.0620542   2.9154905
  91.2134116  40.1817920   2.7330011  91.8960780  41.0068210   3.8031295
 100.7900988  52.6975444   7.4249891 100.6425951  51.7692152   7.6057461
 101.6154482  52.7195535   6.9406966  94.6563233  41.3493511   3.2830383
  94.9959305  41.8779433   2.5608991  95.1035353  41.6873917   4.0588950
 104.3935110  53.5204003   8.5114764 105.3181658  53.3146864   8.3739215
 104.2250414  53.2720404   9.4204105  97.3506674  39.7330562  12.7333451
  97.0103494  38.9338375  13.1354131  96.6445680  40.0332273  12.1610284
  98.0023145  36.8179874  11.1860774  98.8249215  36.3440353  11.0639664
  98.2461209  37.5970358  11.6859460  95.5261724  43.5098995   8.9952753
  95.3806305  43.8239298   9.8877034  95.0486928  44.1283895   8.4423651
  97.3858107  40.5001543   9.0433642  97.3719676  39.6042636   8.7065940
  98.1030535  40.5072207   9.6771928  99.2384238  40.9338883  11.0886770
  98.9802016  41.8555954  11.0871100  98.7069278  40.5369318  11.7787234
 104.1830427  54.0389670   3.8676855 104.3567304  53.4736093   3.1150708
 104.6759318  54.8390565   3.6856345  90.0007386  46.0504339  11.9340414
  89.4560854  46.8264147  12.0660688  90.8786736  46.3975144  11.7759535
  96.7895003  39.3815923   4.3121212  96.9110914  38.4532570   4.5112100
  96.4997045  39.3954609   3.3999528  90.7873408  45.1774236  14.8270571
  90.0455144  45.3256871  15.4135201  90.4666152  45.4382501  13.9637320
  98.7317071  54.7190214  14.6250961  99.0404197  54.4739361  15.4973660
  99.5292553  54.9236852  14.1369831  98.7537683  56.8728124   6.8556337
  98.3142673  56.3804502   7.5489194  99.5045800  56.3301091   6.6148413
  91.2330022  53.0639664   6.8580965  92.0588042  52.7643436   6.4779609
  90.8824074  52.2947287   7.3070754  96.2011555  52.4166133   8.9278639
  95.5791564  51.7536838   8.6280867  96.8716422  52.4427265   8.2452287
  89.4338627  50.9825991   7.8169899  88.5970535  50.5548165   7.6353900
  89.4062272  51.1758434   8.7540690  96.2736083  40.8947921  18.5211145
  96.3224238  41.7710044  18.1388915  96.8158597  40.3525314  17.9482788
 106.7590928  51.4389044  17.8012282 105.9686472  51.4213183  17.2616781
 106.5224283  51.9777338  18.5561319 106.8788803  48.2881510  15.1145011
 106.9286808  48.1231518  16.0560533 106.7702727  47.4208769  14.7242891
  95.7625062  50.9670056   2.4037100  95.9113182  51.6505520   1.7503772
  96.5691505  50.9475146   2.9186555 104.1692566  44.2712438  16.4304317
 105.0702428  44.1318903  16.1388315 104.2440540  44.4366893  17.3702495
  98.5035371  41.6479293  15.2757504  97.6338680  41.9412859  15.0040092
  98.7394851  42.2319738  15.9964767 108.3807000  50.7078452  15.3587032
 108.0891808  51.0708432  16.1950493 107.7679131  49.9945460  15.1800364
 106.6294188  45.8311067  13.8267090 107.1048310  46.0238713  13.0185942
 105.7059754  45.8870252  13.5810474  93.5177695  46.9935234   3.4098168
  93.2723737  46.0897564   3.6078379  93.6873609  46.9952384   2.4677646
 101.2074405  37.8658910  12.7922924 101.7256349  38.6019937  12.4669413
 100.8529538  38.1722903  13.6269683  92.7873342  42.7263591   0.9084330
  92.0942587  42.8007946   0.2524366  92.5425094  41.9623935   1.4305847
  99.2620467  53.4618186  -0.1251153  98.6894435  54.0808374  -0.5780681
  99.8353261  54.0117548   0.4088769 105.3295857  42.7076827  12.0595396
 106.2813280  42.8074924  12.0807620 105.1599308  41.9155095  12.5693480
 103.3510237  39.7932410  12.2454797 102.7560169  40.0737423  11.5501285
 103.0659933  40.2826311  13.0171538 102.4817727  53.7455337   1.0057429
 103.4148400  53.6800898   1.2090305 102.3940940  54.5811603   0.5471962
 107.8083935  45.9282946  11.1737695 107.7760255  44.9898947  11.3597379
 108.4184559  46.0066983  10.4403520  99.5305958  48.8496745  18.6765556
 100.4508968  49.0275344  18.8705603  99.4955542  47.9052791  18.5245256
  88.7488123  44.0435339   7.6018831  88.4290908  43.1900647   7.3093205
  88.2021552  44.2583917   8.3576798  92.5268031  46.7597780  11.3188338
  92.7454041  47.6914888  11.3376371  92.9393805  46.4005754  12.1043141
  97.3995896  42.3330986  20.7091087  97.2992623  43.2825343  20.6403178
  97.1817438  42.0049225  19.8367157  88.6176383  47.6638251   9.5711953
  87.9239855  47.2492203   9.0581907  89.3649374  47.7058787   8.9745372
  97.2627166  45.7628125  19.5256148  96.7794248  46.5628485  19.7320037
  97.3488105  45.7736070  18.5723592  90.5313126  47.5956504   7.4477968
  90.5083814  47.6944192   6.4959851  90.8413763  48.4421655   7.7695134
  93.1900504  49.6532659  11.5624582  94.1443757  49.6216602  11.4954514
  92.9913027  49.1923283  12.3774808  93.7799886  48.2233775  14.1295380
  94.5992775  48.7177854  14.1530217  94.0536694  47.3065744  14.1012947
  91.5450733  55.1952279   8.5794780  91.4105201  54.4352680   8.0132778
  91.1282795  55.9193179   8.1123569  94.7019859  56.0921596   8.7913222
  94.5852243  57.0367028   8.6891913  93.8812305  55.7895157   9.1799022
  89.0334800  42.5571909  14.8287577  89.6793664  42.0470863  15.3174802
  88.8251951  43.2940591  15.4031002 101.5588192  49.6252757  20.3279717
 102.4279352  49.7993409  19.9666352 101.0794944  50.4447174  20.2055447
  95.7274373  56.7449858  12.0069151  96.6301619  56.7773468  12.3235646
  95.5011743  55.8150309  12.0215487  97.4827975  55.4980844   8.6679230
  96.5323606  55.4982706   8.5543602  97.7860461  54.7513579   8.1515264
  93.3732291  39.7039526  18.9262591  94.2363753  39.3476331  19.1365915
  92.7997702  39.3653421  19.6137995 113.2180668  61.3341383   9.7324992
 113.8559078  61.2148130   9.0288332 113.1001511  62.2822227   9.7912944
 110.0270374  61.2868811   9.6686517 109.6888886  61.1709875   8.7807051
 110.8960143  60.8859976   9.6487523 110.5090157  62.4403663  15.6272722
 110.4978798  62.0456461  14.7553226 110.6710797  61.7069735  16.2206494
 103.4321622  64.6355479   8.4967628 104.2242914  64.2946303   8.0813927
 103.6718272  64.7450454   9.4169781 107.2297419  65.2240774  14.5751906
 106.9387285  66.1286405  14.4598572 107.8654403  65.2657302  15.2895976
 108.1553625  62.6017623  11.1653266 108.7517198  62.3773645  10.4510229
 108.2128597  61.8602368  11.7678714 112.7721937  59.0592837   6.8078200
 113.5585026  58.6412260   6.4568617 113.0360641  59.9638929   6.9759848
 115.6955784  52.7089644  12.1705787 115.3639109  53.5785055  11.9467002
 115.1001398  52.3925928  12.8499817 112.1887304  64.9102190  11.5701700
 111.8888027  65.8127229  11.4617507 111.8438363  64.6434373  12.4222853
 105.6399785  61.3615987   7.6038404 104.7150282  61.2292201   7.8116096
 105.8884198  62.1410206   8.1008347 115.5884447  57.4284730   9.2499137
 114.6801325  57.3600138   8.9557898 115.5372043  57.9056675  10.0780963
 103.0008596  61.0049260   8.4382193 103.1300977  61.2583739   9.3521605
 102.3206048  61.5976968   8.1186848 109.6625313  58.8474376  17.1934034
 108.8858647  59.4068296  17.1836899 110.3015876  59.3331159  17.7148905
 117.4546094  55.6301168  11.0277011 116.8120474  55.9233702  10.3816806
 116.9501022  55.5154089  11.8330208 107.9171686  61.6559829  16.7552001
 108.6586370  62.1944873  16.4786825 107.2108671  62.2826118  16.9123553
 113.3927025  63.7988969  15.3524163 113.8010381  63.3571380  14.6078795
 112.6704287  63.2241597  15.6058356 109.7458095  58.7361576  12.7257720
 110.5919290  59.1600990  12.8692369 109.6856733  58.0795201  13.4196283
 112.8957541  56.3965945  14.3838893 112.6518472  57.1508005  13.8473169
 113.1717471  56.7751292  15.2186141 114.8496003  62.9404557  13.0616159
 115.0612899  63.5836317  12.3850540 114.8025752  62.1066873  12.5938089
 112.4522232  55.5522378   9.9652731 111.5906711  55.8503631  10.2569469
 112.4784667  55.7692776   9.0333764 106.1607883  63.6436050   9.3106300
 106.7309240  64.0723318   8.6723785 106.7515995  63.3618634  10.0090486
 106.6533049  58.8099477  17.5567311 106.0231710  59.4915758  17.7902708
 106.5469137  58.6982559  16.6120450 101.9478022  58.4771273   8.4833236
 101.1577076  58.7328802   8.0073346 102.4389269  59.2919611   8.5885276
 103.8992767  58.8415852   5.4416712 103.1023930  58.9534547   5.9600208
 103.6718359  59.1802505   4.5757603 109.7298435  65.3660556  13.3899227
 109.7942867  65.8280963  14.2257399 109.0209359  64.7357921  13.5181537
 100.2315725  58.7301764  10.9148226 100.4823763  59.6148774  11.1805802
 100.7675273  58.5506365  10.1423318 105.9313792  53.1120243  19.9192562
 105.5380738  52.5586442  20.5940207 106.7479932  53.4230821  20.3099080
 108.8481753  54.5278122  17.5112819 109.5891466  55.1285275  17.4317281
 109.0799676  53.7855760  16.9530862 103.9923091  59.7134489  15.7891049
 103.8776606  58.8119747  16.0898148 103.1367609  59.9598186  15.4375865
 111.0714929  67.6552230  17.3878549 110.6278783  66.8688608  17.0699454
 111.7332142  67.8431380  16.7222440 105.8302050  69.1848031  11.9139228
 106.3809475  69.0565095  11.1416222 104.9913526  69.4842920  11.5634121
 113.1696167  67.9355030  15.4159951 113.1514642  68.7563911  14.9240220
 114.0916087  67.8109105  15.6410092 109.6269221  65.4499159  16.2583459
 110.1597558  64.6887447  16.0282767 109.0983302  65.1572811  17.0007613
 112.7938916  50.5559225  11.7877101 112.4503185  51.4460867  11.7116211
 113.1617879  50.3660883  10.9246686 100.8624767  62.8792755   4.6065703
 101.6999989  63.2889764   4.3899411 101.0403034  61.9392198   4.5765897
 111.8735456  52.9263880   9.7526334 111.3700252  52.8894015   8.9394139
 112.1666063  53.8356623   9.8122991 108.1178342  53.0102610   8.7592516
 108.9831339  52.8145419   8.3998405 108.1855851  52.7812962   9.6861872
 105.7240661  55.2404818   6.1308882 106.2984413  55.0179999   5.3982075
 106.3111644  55.3093512   6.8837484 111.2601069  58.6028000   9.1831600
 110.3423631  58.8242947   9.0253288 111.6761213  58.6774311   8.3243307
 100.8850938  60.2183471   5.2776436 100.6875338  59.6252832   4.5527503
 100.3297602  59.9135681   5.9952375 108.8647661  60.1106577   7.3971029
 108.9196271  59.1580414   7.3213506 108.0538863  60.2666016   7.8812328
 106.8040021  58.7283637   5.1561408 105.9907887  59.0277808   5.5626600
 107.2999015  58.3339326   5.8735891 112.4014233  59.1925461  13.9876302
 112.7563621  59.4196935  14.8470768 113.0486364  59.5243838  13.3653557
 106.2954096  56.3001993  10.7722643 106.9353475  56.1590752  10.0745607
 105.4631627  56.0136506  10.3961245 111.8909244  67.9822518  11.2370003
 111.9446267  68.5513455  12.0047719 111.0224026  68.1524404  10.8724040
 103.2982712  56.2702318   5.5495630 103.5589530  57.1847651   5.4404791
 104.1199885  55.8026760   5.6992243 104.7707638  57.6840075  12.7194455
 105.4430691  57.4757437  12.0707103 103.9437424  57.4862161  12.2799687
 110.6733210  54.3102016  14.7360115 110.0261125  55.0091965  14.6424592
 111.4434225  54.7438160  15.1036364 114.0812008  64.5750868  17.8110669
 113.9297514  64.3461419  16.8940752 114.0716687  65.5321469  17.8242014
 110.8497344  62.1482781  12.7956935 111.7789404  62.2993940  12.6225902
 110.4288374  62.2366801  11.9405582 109.6485676  66.1733445  10.5655473
 109.5096762  65.8052229  11.4381411 108.8600272  66.6881084  10.3939431
 105.1735135  60.9582678  13.4796892 105.0354933  60.2262917  14.0808431
 106.0840059  60.8691578  13.1981079 107.8017436  60.6702637  12.9680571
 108.5117054  60.0295829  12.9267190 107.7586744  60.9215532  13.8906752
 115.7904214  67.6069990  15.8887151 115.7316761  66.9229210  15.2217734
 116.1923733  68.3488980  15.4367777 106.5146370  57.6567855  14.7876211
 105.9783727  57.2058593  15.4397807 105.9263078  57.7913764  14.0446675
 115.7921622  65.5709574  14.1201130 114.9048400  65.2335496  14.2427529
 116.3620173  64.8392606  14.3569896  97.4450769  61.9033666   7.4444182
  98.1321809  61.5895396   6.8565197  97.2898897  62.8075031   7.1711433
 102.2485491  56.7923863  11.8729205 102.1643680  56.1849532  11.1379615
 101.4268197  57.2832881  11.8738702 111.7821459  70.1297861  13.2420532
 112.4949431  70.7645325  13.1696434 111.2911487  70.2261727  12.4260534
 109.0044174  57.4194809   6.9671085 108.6341961  56.8665849   7.6551991
 109.5003266  56.8152943   6.4146085 106.8333372  67.8792304  14.0626103
 107.5342832  68.5128787  14.2155497 106.3628487  68.2207036  13.3021742
 114.6334658  60.4336912  11.8878653 113.9806108  60.6812819  11.2331106
 115.0115038  59.6201050  11.5541131 110.6822231  61.1756723  18.3744690
 110.0062868  61.0750852  19.0447066 111.5049865  61.0195936  18.8380688
 102.4301090  67.4128659  10.9957206 103.0154527  66.6672347  11.1285110
 102.2325929  67.7232616  11.8793870  97.0218745  59.9834259   9.7161649
  97.0602844  59.4497850  10.5098767  96.5159038  59.4569465   9.0972626
 104.4009507  54.8298800  13.2124191 104.4650834  55.6913631  12.8001589
 104.3376627  54.2172802  12.4796550 103.8761780  56.9021932  16.8597225
 104.5033819  56.5199010  17.4734750 103.0189699  56.6836134  17.2252918
 114.2755888  67.3084908  18.4650961 114.8195792  67.9214866  17.9705916
 113.6942733  67.8664486  18.9817974 100.6527322  58.7098362   2.7915580
 100.9480764  57.8009040   2.7382634  99.7515358  58.6886101   2.4696583
 104.1821569  56.7854358   8.7743129 103.4608155  57.3990326   8.6350602
 104.9714825  57.3212123   8.6959775 106.9847883  54.1208785  15.0483781
 107.5082285  54.3671081  15.8110090 106.7660216  54.9528819  14.6286918
 102.3815164  56.3912459   2.9154905 102.0527870  55.5109838   2.7330011
 102.7354535  56.3360128   3.8031295 105.4956987  56.6785429   3.2830383
 105.8353060  57.2071350   2.5608991 105.9429108  57.0165835   4.0588950
 108.1900428  55.0622480  12.7333451 107.8497248  54.2630293  13.1354131
 107.4839434  55.3624191  12.1610284 108.8416900  52.1471792  11.1860774
 109.6642969  51.6732270  11.0639664 109.0854963  52.9262276  11.6859460
 106.3655479  58.8390913   8.9952753 106.2200059  59.1531216   9.8877034
 105.8880682  59.4575813   8.4423651 108.2251862  55.8293461   9.0433642
 108.2113430  54.9334554   8.7065940 108.9424290  55.8364125   9.6771928
 110.0777992  56.2630801  11.0886770 109.8195770  57.1847872  11.0871100
 109.5463033  55.8661236  11.7787234 100.8401141  61.3796257  11.9340414
 100.2954609  62.1556065  12.0660688 101.7180491  61.7267062  11.7759535
 107.6288757  54.7107841   4.3121212 107.7504669  53.7824487   4.5112100
 107.3390800  54.7246527   3.3999528 101.6267163  60.5066153  14.8270571
 100.8848899  60.6548789  15.4135201 101.3059907  60.7674419  13.9637320
 109.5710825  70.0482132  14.6250961 109.8797952  69.8031278  15.4973660
 110.3686307  70.2528770  14.1369831 100.2732381  66.3117909   7.8169899
  99.4364290  65.8840083   7.6353900 100.2456027  66.5050352   8.7540690
 107.1129837  56.2239838  18.5211145 107.1617992  57.1001961  18.1388915
 107.6552351  55.6817231  17.9482788 117.5984683  66.7680962  17.8012282
 116.8080226  66.7505101  17.2616781 117.3618037  67.3069255  18.5561319
 117.7182558  63.6173428  15.1145011 117.7680563  63.4523435  16.0560533
 117.6096481  62.7500687  14.7242891 115.0086320  59.6004356  16.4304317
 115.9096183  59.4610821  16.1388315 115.0834295  59.7658811  17.3702495
 109.3429125  56.9771211  15.2757504 108.4732435  57.2704777  15.0040092
 109.5788606  57.5611656  15.9964767 119.2200755  66.0370370  15.3587032
 118.9285563  66.4000350  16.1950493 118.6072886  65.3237378  15.1800364
 117.4687943  61.1602984  13.8267090 117.9442064  61.3530630  13.0185942
 116.5453508  61.2162170  13.5810474 112.0468159  53.1950828  12.7922924
 112.5650103  53.9311855  12.4669413 111.6923292  53.5014821  13.6269683
 116.1689612  58.0368744  12.0595396 117.1207035  58.1366842  12.0807620
 115.9993062  57.2447013  12.5693480 114.1903991  55.1224327  12.2454797
 113.5953923  55.4029340  11.5501285 113.9053688  55.6118228  13.0171538
 118.6477690  61.2574864  11.1737695 118.6154010  60.3190865  11.3597379
 119.2578313  61.3358901  10.4403520 110.3699713  64.1788663  18.6765556
 111.2902722  64.3567262  18.8705603 110.3349296  63.2344708  18.5245256
  99.5881878  59.3727257   7.6018831  99.2684662  58.5192565   7.3093205
  99.0415306  59.5875835   8.3576798 103.3661786  62.0889698  11.3188338
 103.5847795  63.0206806  11.3376371 103.7787559  61.7297672  12.1043141
 108.2389651  57.6622903  20.7091087 108.1386378  58.6117260  20.6403178
 108.0211193  57.3341142  19.8367157  99.4570138  62.9930168   9.5711953
  98.7633609  62.5784121   9.0581907 100.2043129  63.0350705   8.9745372
 108.1020921  61.0920042  19.5256148 107.6188003  61.8920402  19.7320037
 108.1881860  61.1027987  18.5723592 101.3706880  62.9248422   7.4477968
 101.3477569  63.0236109   6.4959851 101.6807517  63.7713573   7.7695134
 104.0294258  64.9824577  11.5624582 104.9837512  64.9508519  11.4954514
 103.8306782  64.5215201  12.3774808 104.6193641  63.5525693  14.1295380
 105.4386529  64.0469772  14.1530217 104.8930448  62.6357661  14.1012947
  99.8728555  57.8863827  14.8287577 100.5187418  57.3762781  15.3174802
  99.6645706  58.6232509  15.4031002 112.3981947  64.9544674  20.3279717
 113.2673107  65.1285327  19.9666352 111.9188698  65.7739091  20.2055447
 106.5668127  72.0741775  12.0069151 107.4695374  72.1065386  12.3235646
 106.3405497  71.1442226  12.0215487 104.2126046  55.0331444  18.9262591
 105.0757507  54.6768249  19.1365915 103.6391456  54.6945339  19.6137995
 116.7707547  68.4412161  19.9192562 116.3774492  67.8878359  20.5940207
 117.5873687  68.7522739  20.3099080 119.6875508  69.8570040  17.5112819
 120.4285221  70.4577193  17.4317281 119.9193430  69.1147678  16.9530862
 114.7155534  72.2313850  16.8597225 115.3427573  71.8490927  17.4734750
 113.8583453  72.0128052  17.2252918 117.9523591  71.5531756  18.5211145
 118.0011747  72.4293879  18.1388915 118.4946106  71.0109149  17.9482788
 119.0783405  72.9914821  20.7091087 118.9780132  73.9409178  20.6403178
 118.8604947  72.6633060  19.8367157 110.7122309  73.2155745  14.8287577
 111.3581173  72.7054699  15.3174802 110.5039460  73.9524426  15.4031002
 115.0519800  70.3623362  18.9262591 115.9151262  70.0060167  19.1365915
 114.4785211  70.0237257  19.6137995   4.8216517  77.4907184  87.2351645
   4.0680226  76.9214582  87.0795649   4.9564059  77.4569848  88.1822280
   1.6432265  77.4609934  85.1395312   2.0863411  76.7117259  84.7414435
   0.7658776  77.4520070  84.7569044   1.1865130  78.9315172  87.5317759
   2.0212021  79.3704976  87.6955320   1.3224259  78.4553826  86.7126005
   5.2322932  77.6482794  89.9671889   5.9626321  77.3868082  90.5279593
   4.6229878  76.9111516  90.0073957   3.3138230  75.7890656  90.5646340
   2.5871393  75.6546621  89.9562832   2.8985516  76.0967485  91.3703059
   0.9316025  72.0102509  87.9179772   1.5260515  71.7698245  87.2073080
   1.0042608  71.2909639  88.5453308   3.2387097  75.3168709  86.6923193
   2.6786655  75.3861899  87.4654755   2.6330601  75.1409694  85.9722690
   4.8243116  91.9925223  89.3853149   5.4621526  91.8731971  88.6816489
   4.7063959  92.9406067  89.4441101   1.6332822  91.9452651  89.3214674
   1.2951334  91.8293716  88.4335209   2.5022590  91.5443817  89.3015680
   3.0719196  97.4659096  80.6226030   2.4207176  98.0513176  80.2360043
   3.8663559  97.9965291  80.6821067   4.3784384  89.7176677  86.4606357
   5.1647473  89.2996100  86.1096774   4.6423089  90.6222769  86.6288005
   4.5494462  95.1549528  81.1595014   3.9140295  95.2284154  81.8715918
   4.2191868  95.7443126  80.4814093   9.7792811  89.6551910  87.3639336
  10.5117983  89.0851127  87.5977165   9.0232167  89.2673511  87.8045841
   1.3968931  92.0779152  84.5602678   1.0327138  91.5509773  85.2715599
   2.2536047  91.6877621  84.3869163   7.3018232  83.3673485  91.8233944
   6.9701556  84.2368895  91.5995159   6.7063845  83.0509769  92.5027975
   1.0374418  87.1069052  79.5564027   1.2048820  87.9749288  79.9234498
   0.8471587  87.2696333  78.6325316   3.7949751  95.5686031  91.2229857
   3.4950474  96.4711069  91.1145664   3.4500811  95.3018214  92.0751010
   7.1946895  88.0868571  88.9027294   6.2863772  88.0183979  88.6086055
   7.1434491  88.5640516  89.7309120   9.0608541  86.2885009  90.6805168
   8.4182922  86.5817542  90.0344963   8.5563470  86.1737929  91.4858365
   6.7148705  90.0348182  81.3691027   7.6266561  90.2675569  81.1938725
   6.2058352  90.6185227  80.8066106   4.9989473  94.4572810  95.0052320
   5.4072829  94.0155221  94.2606952   4.2766734  93.8825438  95.2586513
   1.3520543  89.3945417  92.3785877   2.1981738  89.8184830  92.5220526
   1.2919180  88.7379041  93.0724440   5.3218287  95.0174001  88.7604609
   4.6927150  95.1819715  88.0580677   4.9343949  95.4315610  89.5315573
   9.2007519  95.9528439  86.1148973   8.5158557  96.3327340  85.5646006
   9.2851369  96.5623765  86.8480920   4.5019988  87.0549785  94.0367051
   4.2580920  87.8091846  93.5001326   4.7779919  87.4335133  94.8714298
   6.4558451  93.5988398  92.7144316   6.6675346  94.2420158  92.0378697
   6.4088199  92.7650714  92.2466246   4.0584680  86.2106218  89.6180888
   3.1969159  86.5087472  89.9097626   4.0847115  86.4276617  88.6861921
   0.8746249  94.7548409  86.0254694   1.3384595  95.0336112  85.2359316
   0.6103047  93.8531853  85.8427785   7.5704279  96.4760353  90.8866673
   8.3921723  96.0740540  90.6049355   7.5666682  96.3728587  91.8382789
  15.6610272  92.8199102  87.2351645  14.9073980  92.2506500  87.0795649
  15.7957813  92.7861766  88.1822280   1.0508900  97.6912504  82.9106364
   0.9154575  98.5364040  83.3391212   1.5918712  97.8931781  82.1472298
   4.4001364  81.2143066  91.4405258   4.0565633  82.1044707  91.3644368
   4.7680326  81.0244723  90.5774843   4.3651646  91.2051677  79.9477693
   3.8498270  91.9756281  80.1866080   4.0928955  90.5316813  80.5710754
   1.9498757  86.0501378  85.0062931   1.0940354  85.6608228  84.8268570
   2.3625709  86.1293338  84.1462717   3.4797904  83.5847721  89.4054491
   2.9762699  83.5477856  88.5922296   3.7728511  84.4940464  89.4651148
   9.3385920  93.9584031  81.8830866   8.5615363  93.6195191  81.4386028
  10.0177401  93.9636655  81.2085831   4.1537949  89.0778769  81.7737474
   3.8488085  89.3924918  82.6247617   5.1068392  89.1560189  81.8164807
   2.5984381  95.2368992  83.4230428   2.0705743  94.5021752  83.1103665
   2.0971884  96.0143669  83.1770396   7.5777227  93.4318013  88.5397474
   6.9200902  94.1217274  88.6277603   8.3817626  93.8214445  88.8831461
   6.3882686  91.7862385  86.5901416   6.9014568  92.4192377  87.0923126
   7.0383910  91.1863581  86.2244776   3.6505060 101.7646710  79.3462087
   2.9766759 102.0678406  79.9547045   4.0370882 102.5675790  78.9967544
   2.8663517  89.2611841  88.8359757   1.9486078  89.4826788  88.6781445
   3.2823661  89.3358151  87.9771464   3.6498565  90.6603257  83.9662437
   4.3970384  91.1724654  83.6569559   3.9190154  90.3387309  84.8266830
   1.9225215  93.1561797  80.9489391   1.0136434  92.8720830  81.0461861
   1.9520299  93.5760876  80.0892698   7.1544482  96.7668387  84.7180559
   6.7006809  95.9259297  84.7745749   6.5238449  97.4029785  85.0555339
   6.0977402  87.6960373  85.9481226   5.3600159  87.1837759  86.2791469
   6.3504175  87.2560754  85.1364503   5.5977422  98.6044884  85.6530377
   5.8900396  99.1649941  84.9342743   6.1076042  98.8973445  86.4083536
   6.1989029  80.4736625  86.5422995   6.5047906  79.6133988  86.2548911
   6.9241634  81.0654245  86.3421989   1.6201303  94.6970541  78.2877470
   1.1820733  93.9806400  77.8283107   2.3611744  94.9246656  77.7262561
   0.5611047  99.3825235  86.7423830   0.5187226  99.6086081  85.8132362
   1.4773746  99.1488609  86.8909631   4.0076681  89.8509302  93.6404459
   4.3626068  90.0780775  94.4998925   4.6548812  90.1827679  93.0181715
   9.7374417  92.9727738  84.3453788   9.5992316  93.1629334  83.4174978
   9.3810636  93.7347121  84.8021839   9.7643797  95.0404265  89.3565060
  10.1980304  94.9479554  90.2048114  10.4775378  95.0161766  88.7185076
   3.4971692  98.6406359  90.8898160   3.5508714  99.2097295  91.6575876
   2.6286473  98.8108244  90.5252198  10.6259347  95.0827966  91.8897945
  10.8195237  95.9873776  92.1357220  10.5259965  94.6235385  92.7236530
   2.2795657  84.9685856  94.3888273   1.6323572  85.6675806  94.2952749
   3.0496673  85.4022000  94.7564521   2.4559792  92.8066621  92.4485092
   3.3851852  92.9577781  92.2754060   2.0350822  92.8950642  91.5933739
   1.8496275 101.9326382  81.5609166   2.0248031 101.4614425  82.3754789
   1.1629063 102.5592148  81.7890427   2.8053339  96.2098888  87.6072468
   2.4703171  96.1699658  88.5030118   2.3057284  95.5443604  87.1342878
   5.7412530  93.5554923  77.8809527   5.1241701  92.8301751  77.7842580
   5.2729019  94.3164283  77.5376602   7.3966662  98.2653831  95.5415308
   7.3379208  97.5813051  94.8745891   7.7986180  99.0072821  95.0895934
   7.3984069  96.2293415  93.7729287   6.5110848  95.8919337  93.8955686
   7.9682620  95.4976446  94.0098053   4.0271652  85.9361267  86.8927558
   4.5240352  85.1831229  86.5728628   3.2558634  85.9725583  86.3270767
  11.8801410  91.6401632  88.5345849  11.8691286  92.5226348  88.1639782
  11.0118789  91.2873183  88.3400386   5.1101433  94.6932954  84.4665981
   4.1757712  94.8134416  84.2970685   5.2878101  93.7905421  84.2025991
   8.4973984  90.5350273  85.0016015   8.9634437  91.3678265  84.9276318
   8.9481485  90.0695255  85.7061274   6.5650215  96.8794095  82.0002167
   6.8410059  96.7650689  82.9096041   5.6954714  96.4811579  81.9614340
   6.4690647  82.9030860  89.0406916   5.5553727  83.1335087  89.2089123
   6.8983749  82.9869304  89.8920949   6.2397106  91.0920752  91.5406810
   5.5868556  91.3396660  90.8859263   6.6177486  90.2784890  91.2069288
   3.2004280 101.1280445  85.6434981   3.3826674 100.3102101  86.1062733
   4.0237266 101.3448138  85.2059871   3.5346445 100.0548631  82.9050029
   4.0634211  99.5441085  82.2920191   3.7974665  99.7391161  83.7695562
   4.1675849 101.0889466  89.2494146   4.0426988 100.2879206  88.7405091
   4.8254940 101.5835660  88.7608116   6.2310757  98.8898486  90.8773696
   5.2841093  98.7703838  90.8052022   6.5793530  98.0020984  90.9599957
   3.2357190  98.6851203  87.0778048   3.0882153  97.7567910  87.2585618
   4.0610684  98.7071293  86.5935123   6.8391312  99.5079761  88.1642921
   7.7637860  99.3022623  88.0267372   6.6706616  99.2596162  89.0732262
   3.2318705  86.5389040  82.0710165   3.4482319  87.4213678  81.7698993
   2.7512772  86.1475254  81.3415807   1.6840440  86.9214642  90.7414927
   1.4258218  87.8431712  90.7399257   1.1525480  86.5245076  91.4315391
   6.6286629 100.0265429  83.5205012   6.8023506  99.4611851  82.7678865
   7.1215520 100.8266324  83.3384502   2.1042395  83.0546592  87.1016089
   2.1264092  83.1185925  86.1468069   2.5210454  82.2151101  87.2956595
  12.4826020  92.7901852  85.1395312  12.9257166  92.0409177  84.7414435
  11.6052530  92.7811988  84.7569044   7.6161801  99.3432193  80.6201910
   8.3112706  99.9638886  80.8389225   7.9584951  98.4927544  80.8954288
   9.5153224  96.7931899  82.1489241  10.0404548  97.1319171  81.4238561
   9.4275577  95.8578914  81.9652376   1.1993885 102.8603882  86.5084494
   0.7598875 102.3680261  87.2017351   1.9502002 102.3176850  86.2676570
   9.3245005  94.2757269  94.7673168   9.3743010  94.1107276  95.7088690
   9.2158929  93.4084528  94.3771048   6.6148768  90.2588197  96.0832474
   7.5158630  90.1194662  95.7916472   6.6896742  90.4242652  97.0230652
  10.8263202  96.6954210  95.0115189  10.5348010  97.0584191  95.8478650
  10.2135333  95.9821219  94.8328521  12.0258884  94.2607090  87.5317759
  12.8605776  94.6996894  87.6955320  12.1618013  93.7845743  86.7126005
   9.0750390  91.8186825  93.4795247   9.5504512  92.0114471  92.6714099
   8.1515956  91.8746011  93.2338631   3.6530607  83.8534668  92.4451081
   4.1712551  84.5895695  92.1197570   3.2985740  84.1598662  93.2797840
   3.9043201  80.2734951  87.9651978   4.1844955  79.6058140  88.5912404
   4.6893808  80.4664047  87.4526642   1.7076669  99.4493945  79.5277004
   1.1350637 100.0684132  79.0747476   2.2809463  99.9993307  80.0616926
   7.7752059  88.6952585  91.7123553   8.7269482  88.7950683  91.7335777
   7.6055510  87.9030854  92.2221637   5.7966439  85.7808168  91.8982954
   5.2016371  86.0613181  91.2029442   5.5116136  86.2702069  92.6699695
   4.9273929  99.7331095  80.6585586   5.8604602  99.6676657  80.8618462
   4.8397142 100.5687362  80.2000119   7.5561946  99.0496965  77.6189534
   7.4775577  98.7156829  78.5125292   8.3771613  99.5418733  77.6181006
  10.2540137  91.9158705  90.8265852  10.2216457  90.9774705  91.0125536
  10.8640761  91.9942741  90.0931677   2.0923468  90.7854758  76.8693057
   3.0382573  90.6560966  76.9381475   1.7137713  90.0469420  77.3462485
  10.4034626  88.7069748  90.8724136   9.8873674  87.9228205  90.6854065
  11.2874574  88.3788465  91.0370655   8.0645353  82.4510764  86.8319948
   7.8670174  82.1425852  87.7163280   8.6745058  83.1772403  86.9617878
  16.0716687  92.9774711  89.9671889  16.8020075  92.7160000  90.5279593
  15.4623632  92.2403433  90.0073957  14.1531984  91.1182574  90.5646340
  13.4265148  90.9838539  89.9562832  13.7379271  91.4259403  91.3703059
   1.8928451  83.2541624  82.9592183   1.0829179  82.9088709  83.3347429
   2.5812868  82.9449167  83.5479795   3.8218999  82.3319671  84.5816480
   4.3750038  82.7515124  85.2406503   4.0589086  81.4055419  84.6239436
   7.1997806  84.4420196  84.0895144   6.6196475  85.1005000  83.7073196
   6.9333739  83.6197540  83.6782561   5.6501373  83.8425253  86.2916464
   6.1501151  83.9541788  85.4830783   6.2936981  83.5386306  86.9317273
   5.9822684  86.6020286  83.1451492   5.0948539  86.8869937  82.9271687
   6.3976673  86.4414049  82.2978769   9.3337220  86.6266807  86.8605831
  10.1097611  87.1163259  87.1330448   8.6085355  87.0524861  87.3177701
  11.7709779  87.3394426  87.9179772  12.3654270  87.0990162  87.2073080
  11.8436363  86.6201557  88.5453308   5.1265898  96.3664961  77.2399512
   5.8301748  96.5714963  77.8557168   4.4028546  96.9341723  77.5048596
   5.9563708  92.1174822  83.3601782   5.8998909  92.5743373  82.5209415
   6.5092050  91.3565507  83.1824625   9.7668514  87.9064554  84.1851902
   9.5105448  87.5061190  85.0160110   9.1421382  88.6208348  84.0602041
  14.0780852  90.6460627  86.6923193  13.5180410  90.7153816  87.4654755
  13.4724355  90.4701612  85.9722690   7.0352595  96.8047490  79.2897972
   7.8698199  96.3728688  79.1075447   6.8736938  96.6329504  80.2174867
   6.6898487  93.3079603  80.6554312   6.6347291  93.1423875  79.7142756
   6.0644543  94.0155636  80.8116501   3.8146732  79.4030489  84.4885567
   3.0479128  78.8488976  84.6342249   4.2257437  79.4752358  85.3499718
  15.6636870 107.3217141  89.3853149  16.3015280 107.2023888  88.6816489
  15.5457713 108.2697985  89.4441101  12.4726577 107.2744569  89.3214674
  12.1345088 107.1585634  88.4335209  13.3416345 106.8735734  89.3015680
  10.1734856 106.0432817  78.6531614  10.4260377 105.5214338  77.8915077
   9.2359415 105.8798962  78.7558297  15.2178139 105.0468595  86.4606357
  16.0041228 104.6288018  86.1096774  15.4816843 105.9514687  86.6288005
  20.6186566 104.9843828  87.3639336  21.3511738 104.4143045  87.5977165
  19.8625922 104.5965429  87.8045841  12.2362686 107.4071070  84.5602678
  11.8720893 106.8801691  85.2715599  13.0929801 107.0169539  84.3869163
  18.1411986  98.6965402  91.8233944  17.8095311  99.5660813  91.5995159
  17.5457600  98.3801686  92.5027975  11.8768173 102.4360969  79.5564027
  12.0442575 103.3041206  79.9234498  11.6865342 102.5988251  78.6325316
  18.0340650 103.4160488  88.9027294  17.1257527 103.3475897  88.6086055
  17.9828245 103.8932433  89.7309120  11.8557393 104.8918627  80.5410693
  11.7357019 105.3375678  81.3796174  11.1609982 105.2403944  79.9824231
  19.9002296 101.6176927  90.6805168  19.2576676 101.9109460  90.0344963
  19.3957224 101.5029847  91.4858365  17.5542460 105.3640100  81.3691027
  18.4660316 105.5967487  81.1938725  17.0452107 105.9477144  80.8066106
  15.8383227 109.7864728  95.0052320  16.2466583 109.3447138  94.2606952
  15.1160489 109.2117355  95.2586513  12.1914297 104.7237335  92.3785877
  13.0375492 105.1476748  92.5220526  12.1312935 104.0670959  93.0724440
  15.3413743 102.3841703  94.0367051  15.0974674 103.1383763  93.5001326
  15.6173673 102.7627051  94.8714298  17.2952205 108.9280315  92.7144316
  17.5069101 109.5712075  92.0378697  17.2481954 108.0942632  92.2466246
  14.8978434 101.5398136  89.6180888  14.0362913 101.8379390  89.9097626
  14.9240869 101.7568535  88.6861921  10.6508890 106.2063479  82.8344259
  11.3532933 106.6584523  83.3018185  10.3189518 105.5647298  83.4624152
   4.3934224 104.4647032  88.1361393   3.6033278 104.7204560  87.6601503
   4.8845471 105.2795369  88.2413433   6.3448969 104.8291611  85.0944869
   5.5480132 104.9410305  85.6128365   6.1174561 105.1678263  84.2285760
  26.5004026 108.1491019  87.2351645  25.7467735 107.5798417  87.0795649
  26.6351568 108.1153684  88.1822280  11.2937955 100.5153880  97.1640976
  12.0347668 101.1161034  97.0845439  11.5255878  99.7731518  96.6059019
  15.2395118  96.5434983  91.4405258  14.8959387  97.4336625  91.3644368
  15.6074081  96.3536641  90.5774843  15.2045401 106.5343594  79.9477693
  14.6892024 107.3048199  80.1866080  14.9322709 105.8608731  80.5710754
  12.7892512 101.3793295  85.0062931  11.9334108 100.9900146  84.8268570
  13.2019464 101.4585256  84.1462717  14.3191658  98.9139639  89.4054491
  13.8156454  98.8769774  88.5922296  14.6122265  99.8232381  89.4651148
  10.5634544  98.9978368  88.4120673  11.4287541  98.8021177  88.0526562
  10.6312053  98.7688720  89.3390030  20.1779675 109.2875949  81.8830866
  19.4009118 108.9487109  81.4386028  20.8571156 109.2928572  81.2085831
  14.9931704 104.4070687  81.7737474  14.6881839 104.7216836  82.6247617
  15.9462146 104.4852106  81.8164807  18.4170982 108.7609930  88.5397474
  17.7594656 109.4509192  88.6277603  19.2211381 109.1506362  88.8831461
   8.1696863 101.2280576  85.7837040   8.7440615 101.0055758  85.0510233
   8.7567846 101.2969271  86.5365641  17.2276441 107.1154303  86.5901416
  17.7408322 107.7484295  87.0923126  17.8777664 106.5155499  86.2244776
   8.4966450 103.2585037  79.8032925   7.6603763 103.5959724  80.1242200
   8.3571220 103.1234017  78.8660062  10.4719531  98.1021825  84.5112109
   9.8183943  97.7870842  83.8868724  10.4300005  97.4797566  85.2371932
  11.5830736 108.3841120  76.4265401  10.6757798 108.1530374  76.6256550
  12.0801768 107.5878739  76.6139383  13.7057271 104.5903759  88.8359757
  12.7879833 104.8118706  88.6781445  14.1217415 104.6650069  87.9771464
  14.4892319 105.9895174  83.9662437  15.2364138 106.5016572  83.6569559
  14.7583909 105.6679227  84.8266830  12.7618969 108.4853715  80.9489391
  11.8530189 108.2012748  81.0461861  12.7914053 108.9052794  80.0892698
  16.9371156 103.0252291  85.9481226  16.1993913 102.5129677  86.2791469
  17.1897930 102.5852672  85.1364503  17.0382784  95.8028543  86.5422995
  17.3441660  94.9425906  86.2548911  17.7635388  96.3946163  86.3421989
  11.3103863 106.0982336  87.0499187  11.3652473 105.1456172  86.9741663
  10.4995065 106.2541775  87.5340485   9.2496223 104.7159395  84.8089565
   8.4364089 105.0153566  85.2154758   9.7455218 104.3215084  85.5264048
  14.8470435 105.1801220  93.6404459  15.2019823 105.4072693  94.4998925
  15.4942566 105.5119597  93.0181715  20.5768172 108.3019656  84.3453788
  20.4386071 108.4921252  83.4174978  20.2204391 109.0639039  84.8021839
   8.7410298 102.2877751  90.4250800   9.3809677 102.1466510  89.7273764
   7.9087829 102.0012264  90.0489402  20.6037552 110.3696183  89.3565060
  21.0374058 110.2771472  90.2048114  21.3169132 110.3453683  88.7185076
   5.8253365 105.7323263  82.6145545   4.8950954 105.6707719  82.8315508
   5.9210837 105.2099216  81.8182187   5.7438914 102.2578076  85.2023787
   6.0045732 103.1723409  85.0932948   6.5656087 101.7902518  85.3520400
  21.4653101 110.4119883  91.8897945  21.6588991 111.3165694  92.1357220
  21.3653719 109.9527302  92.7236530  13.1189412 100.2977774  94.3888273
  12.4717327 100.9967724  94.2952749  13.8890427 100.7313918  94.7564521
  13.2953546 108.1358539  92.4485092  14.2245606 108.2869699  92.2754060
  12.8744576 108.2242560  91.5933739  16.5806285 108.8846840  77.8809527
  15.9635455 108.1593669  77.7842580  16.1122773 109.6456201  77.5376602
   8.3704831 103.1032265  77.0030832   7.4934297 102.9821065  76.6393078
   8.8462584 102.3118343  76.7509720  14.8665407 101.2653184  86.8927558
  15.3634106 100.5123147  86.5728628  14.0952388 101.3017501  86.3270767
  22.7195164 106.9693550  88.5345849  22.7085040 107.8518265  88.1639782
  21.8512544 106.6165101  88.3400386  11.4500376 103.4070567  86.6199242
  11.0798163 102.8541608  87.3080148  11.9459468 102.8028701  86.0674242
  19.3367739 105.8642191  85.0016015  19.8028191 106.6970183  84.9276318
  19.7875239 105.3987173  85.7061274  17.3084402  98.2322778  89.0406916
  16.3947481  98.4627005  89.2089123  17.7377503  98.3161222  89.8920949
  17.0790860 106.4212670  91.5406810  16.4262310 106.6688577  90.8859263
  17.4571240 105.6076808  91.2069288   6.8465709 100.8174558  92.8652348
   6.9107036 101.6789389  92.4529746   6.7832829 100.2048560  92.1324707
   3.0983525 104.6974120  82.4443737   3.3936966 103.7884798  82.3910791
   2.1971560 104.6761859  82.1224740   6.6277772 102.7730116  88.4271286
   5.9064357 103.3866084  88.2878759   7.4171027 103.3087881  88.3487932
   9.4304085 100.1084543  94.7011938   9.9538487 100.3546840  95.4638247
   9.2116418 100.9404578  94.2815075   4.8271366 102.3788218  82.5683062
   4.4984072 101.4985596  82.3858168   5.1810737 102.3235886  83.4559452
   7.9413189 102.6661187  82.9358540   8.2809262 103.1947109  82.2137148
   8.3885310 103.0041593  83.7117107  10.6356630 101.0498238  92.3861608
  10.2953450 100.2506051  92.7882288   9.9295636 101.3499949  91.8138441
  11.2873102  98.1347550  90.8388931  12.1099171  97.6608029  90.7167822
  11.5311165  98.9138034  91.3387617   9.9281336 101.1635809  81.1351833
  10.6489699 101.5417062  80.6315550   9.3046641 101.8824686  81.2386811
  14.0712459 101.8680958  82.0710165  14.2876074 102.7505596  81.7698993
  13.5906526 101.4767171  81.3415807   8.8111681 104.8266671  88.6480910
   8.6656261 105.1406974  89.5405191   8.3336884 105.4451571  88.0951808
  10.6708064 101.8169219  88.6961799  10.6569632 100.9210312  88.3594097
  11.3880492 101.8239883  89.3300085  12.5234194 102.2506559  90.7414927
  12.2651972 103.1723630  90.7399257  11.9919235 101.8536994  91.4315391
  10.0744959 100.6983599  83.9649369  10.1960871  99.7700246  84.1640257
   9.7847002 100.7122285  83.0527685  12.9436150  98.3838510  87.1016089
  12.9657847  98.4477843  86.1468069  13.3604209  97.5443018  87.2956595
  23.3219774 108.1193769  85.1395312  23.7650920 107.3701095  84.7414435
  22.4446284 108.1103906  84.7569044  20.1638760 109.6049186  94.7673168
  20.2136765 109.4399194  95.7088690  20.0552683 108.7376445  94.3771048
  17.4542522 105.5880114  96.0832474  18.3552385 105.4486579  95.7916472
  17.5290497 105.7534569  97.0230652  11.7885327 102.9646969  94.9285661
  10.9188637 103.2580535  94.6568249  12.0244808 103.5487414  95.6492924
  22.8652639 109.5899008  87.5317759  23.6999530 110.0288812  87.6955320
  23.0011768 109.1137661  86.7126005  19.9144145 107.1478743  93.4795247
  20.3898266 107.3406389  92.6714099  18.9909710 107.2037928  93.2338631
  14.4924361  99.1826586  92.4451081  15.0106305  99.9187613  92.1197570
  14.1379494  99.4890579  93.2797840   6.0723299 104.0431267  80.5612487
   5.3792544 104.1175622  79.9052523   5.8275051 103.2791611  81.0834004
  14.7436955  95.6026869  87.9651978  15.0238709  94.9350058  88.5912404
  15.5287562  95.7955964  87.4526642  18.6145814 104.0244503  91.7123553
  19.5663237 104.1242600  91.7335777  18.4449264 103.2322771  92.2221637
  16.6360193 101.1100086  91.8982954  16.0410125 101.3905099  91.2029442
  16.3509890 101.5993987  92.6699695  21.0933892 107.2450622  90.8265852
  21.0610212 106.3066623  91.0125536  21.7034515 107.3234659  90.0931677
  12.9317222 106.1146675  76.8693057  13.8776327 105.9852883  76.9381475
  12.5531467 105.3761337  77.3462485  21.2428380 104.0361666  90.8724136
  20.7267429 103.2520122  90.6854065  22.1268329 103.7080382  91.0370655
  18.9039107  97.7802681  86.8319948  18.7063928  97.4717770  87.7163280
  19.5138813  98.5064320  86.9617878  26.9110441 108.3066629  89.9671889
  27.6413830 108.0451917  90.5279593  26.3017387 107.5695351  90.0073957
  24.9925739 106.4474492  90.5646340  24.2658902 106.3130457  89.9562832
  24.5773025 106.7551320  91.3703059  11.1160140 104.0396652  76.8047942
  10.2091595 103.7429764  76.8810655  11.3936121 103.7426470  75.9382228
  12.7322205  98.5833541  82.9592183  11.9222934  98.2380626  83.3347429
  13.4206622  98.2741085  83.5479795  14.6612754  97.6611588  84.5816480
  15.2143792  98.0807042  85.2406503  14.8982840  96.7347336  84.6239436
   9.8858924 100.8983587  76.9459921  10.7478088 101.2238485  77.2055738
  10.0709268 100.1115083  76.4332987  18.0391561  99.7712113  84.0895144
  17.4590230 100.4296917  83.7073196  17.7727493  98.9489458  83.6782561
  16.4895127  99.1717171  86.2916464  16.9894905  99.2833706  85.4830783
  17.1330735  98.8678224  86.9317273  16.8216439 101.9312204  83.1451492
  15.9342294 102.2161854  82.9271687  17.2370428 101.7705967  82.2978769
  20.1730975 101.9558725  86.8605831  20.9491365 102.4455177  87.1330448
  19.4479109 102.3816779  87.3177701  22.6103534 102.6686344  87.9179772
  23.2048024 102.4282080  87.2073080  22.6830117 101.9493475  88.5453308
  16.7957462 107.4466740  83.3601782  16.7392664 107.9035291  82.5209415
  17.3485805 106.6857424  83.1824625  20.6062268 103.2356472  84.1851902
  20.3499203 102.8353107  85.0160110  19.9815136 103.9500265  84.0602041
  24.9174606 105.9752545  86.6923193  24.3574164 106.0445734  87.4654755
  24.3118110 105.7993529  85.9722690  17.5292242 108.6371521  80.6554312
  17.4741046 108.4715792  79.7142756  16.9038297 109.3447554  80.8116501
  10.8388367  98.1379630  80.2339630  10.8267037  99.0821470  80.3907901
  11.7311789  97.9549775  79.9399091  14.6540487  94.7322407  84.4885567
  13.8872883  94.1780893  84.6342249  15.0651192  94.8044275  85.3499718
  26.0788872 111.8726901  91.4405258  25.7353142 112.7628543  91.3644368
  26.4467835 111.6828559  90.5774843  27.8776538 111.1320460  86.5422995
  28.1835415 110.2717824  86.2548911  28.6029143 111.7238080  86.3421989
  28.1478156 113.5614696  89.0406916  27.2341236 113.7918922  89.2089123
  28.5771258 113.6453140  89.8920949  25.5830710 110.9318786  87.9651978
  25.8632464 110.2641975  88.5912404  26.3681317 111.1247882  87.4526642
  29.7432862 113.1094599  86.8319948  29.5457683 112.8009687  87.7163280
  30.3532567 113.8356238  86.9617878  25.5006508 112.9903506  84.5816480
  26.0537547 113.4098959  85.2406503  25.7376594 112.0639254  84.6239436
  25.4934241 110.0614324  84.4885567  24.7266637 109.5072811  84.6342249
  25.9044946 110.1336193  85.3499718   4.8216519  54.4969306  73.9596952
   4.0680227  53.9276705  73.8040956   4.9564060  54.4631971  74.9067586
   1.6432266  54.4672057  71.8640619   2.0863413  53.7179382  71.4659742
   0.7658777  54.4582193  71.4814351   1.1865131  55.9377295  74.2563066
   2.0212023  56.3767099  74.4200626   1.3224260  55.4615948  73.4371312
   5.2322934  54.6544916  76.6917196   5.9626322  54.3930205  77.2524899
   4.6229879  53.9173638  76.7319264   3.3138231  52.7952779  77.2891647
   2.5871394  52.6608744  76.6808139   2.8985518  53.1029608  78.0948365
   0.9316026  49.0164631  74.6425079   1.5260517  48.7760367  73.9318387
   1.0042609  48.2971762  75.2698615   3.2387099  52.3230832  73.4168500
   2.6786657  52.3924021  74.1900062   2.6330602  52.1471817  72.6967996
   4.8243117  68.9987346  76.1098456   5.4621527  68.8794093  75.4061796
   4.7063960  69.9468190  76.1686408   1.6332823  68.9514774  76.0459980
   1.2951335  68.8355839  75.1580515   2.5022591  68.5505939  76.0260986
   2.1152606  70.1049626  82.0046186   2.1041247  69.7102424  81.1326690
   2.2773246  69.3715698  82.5979957   3.0719198  74.4721218  67.3471336
   2.4207177  75.0575299  66.9605350   3.8663560  75.0027413  67.4066374
   4.3784385  66.7238800  73.1851664   5.1647475  66.3058223  72.8342081
   4.6423090  67.6284892  73.3533312   4.5494463  72.1611650  67.8840320
   3.9140296  72.2346277  68.5961225   4.2191869  72.7505249  67.2059400
   9.7792813  66.6614033  74.0884642  10.5117985  66.0913250  74.3222472
   9.0232168  66.2735633  74.5291148   1.3968932  69.0841275  71.2847985
   1.0327140  68.5571895  71.9960906   2.2536048  68.6939744  71.1114470
   7.3018233  60.3735607  78.5479251   6.9701558  61.2431018  78.3240466
   6.7063846  60.0571891  79.2273281   1.0374419  64.1131174  66.2809333
   1.2048822  64.9811411  66.6479804   0.8471588  64.2758456  65.3570622
   3.7949752  72.5748153  77.9475164   3.4950476  73.4773192  77.8390971
   3.4500812  72.3080336  78.7996316   7.1946896  65.0930693  75.6272601
   6.2863774  65.0246102  75.3331362   7.1434492  65.5702638  76.4554426
   1.2687762  66.5120339  83.5707498   0.4921096  67.0714259  83.5610363
   1.9078325  66.9977122  84.0922368   9.0608543  63.2947132  77.4050475
   8.4182923  63.5879665  76.7590269   8.5563471  63.1800052  78.2103671
   6.7148706  67.0410305  68.0936334   7.6266562  67.2737692  67.9184032
   6.2058353  67.6247349  67.5311413   4.9989474  71.4634933  81.7297627
   5.4072830  71.0217343  80.9852259   4.2766736  70.8887560  81.9831820
   1.3520544  66.4007539  79.1031184   2.1981739  66.8246953  79.2465833
   1.2919182  65.7441164  79.7969747   5.3218289  72.0236123  75.4849915
   4.6927151  72.1881837  74.7825983   4.9343951  72.4377733  76.2560880
   9.2007521  72.9590561  72.8394279   8.5158559  73.3389463  72.2891313
   9.2851370  73.5685888  73.5726227   4.5019989  64.0611908  80.7612357
   4.2580921  64.8153968  80.2246633   4.7779920  64.4397255  81.5959604
   6.4558452  70.6050520  79.4389623   6.6675347  71.2482280  78.7624004
   6.4088200  69.7712837  78.9711553   4.0584681  63.2168341  76.3426195
   3.1969160  63.5149594  76.6342932   4.0847116  63.4338740  75.4107228
   0.8746251  71.7610531  72.7500001   1.3384596  72.0398234  71.9604623
   0.6103049  70.8593976  72.5673091   7.5704280  73.4822476  77.6111980
   8.3921724  73.0802663  77.3294662   7.5666683  73.3790710  78.5628096
   1.3360884  73.0306519  79.7672691   1.4005316  73.4926926  80.6030862
   0.6271807  72.4003884  79.8955000  15.6610273  69.8261224  73.9596952
  14.9073982  69.2568622  73.8040956  15.7957814  69.7923889  74.9067586
   1.0508901  74.6974626  69.6351671   0.9154576  75.5426162  70.0636519
   1.5918714  74.8993904  68.8717605   2.6777378  75.3198193  83.7652013
   2.2341232  74.5334571  83.4472918   3.3394591  75.5077343  83.0995904
   4.7758616  75.6000993  81.7933414   4.7577091  76.4209874  81.3013683
   5.6978536  75.4755068  82.0183555   1.2331670  73.1145122  82.6356923
   1.7660007  72.3533411  82.4056231   0.7045751  72.8218774  83.3781077
   4.4001365  58.2205188  78.1650564   4.0565634  59.1106830  78.0889675
   4.7680327  58.0306846  77.3020149   4.3651647  68.2113799  66.6723000
   3.8498271  68.9818404  66.9111387   4.0928956  67.5378936  67.2956061
   1.9498759  63.0563500  71.7308238   1.0940355  62.6670351  71.5513877
   2.3625710  63.1355461  70.8708023   3.4797905  60.5909843  76.1299798
   2.9762701  60.5539979  75.3167603   3.7728512  61.5002586  76.1896454
   9.3385922  70.9646154  68.6076173   8.5615364  70.6257314  68.1631335
  10.0177403  70.9698777  67.9331138   4.1537951  66.0840892  68.4982781
   3.8488086  66.3987041  69.3492924   5.1068393  66.1622311  68.5410114
   2.5984383  72.2431115  70.1475735   2.0705744  71.5083874  69.8348972
   2.0971885  73.0205791  69.9015703   7.5777229  70.4380135  75.2642781
   6.9200903  71.1279397  75.3522910   8.3817628  70.8276567  75.6076767
   6.3882687  68.7924508  73.3146723   6.9014569  69.4254500  73.8168432
   7.0383911  68.1925704  72.9490083   3.6505062  78.7708832  66.0707394
   2.9766760  79.0740529  66.6792352   4.0370884  79.5737913  65.7212851
   2.8663518  66.2673964  75.5605063   1.9486080  66.4888911  75.4026751
   3.2823662  66.3420274  74.7016771   3.6498566  67.6665379  70.6907744
   4.3970385  68.1786776  70.3814866   3.9190155  67.3449432  71.5512137
   1.9225216  70.1623920  67.6734698   1.0136435  69.8782953  67.7707168
   1.9520300  70.5822999  66.8138005   7.1544484  73.7730509  71.4425865
   6.7006811  72.9321419  71.4991056   6.5238450  74.4091908  71.7800646
   6.0977403  64.7022495  72.6726533   5.3600160  64.1899882  73.0036775
   6.3504177  64.2622877  71.8609810   5.5977423  75.6107006  72.3775684
   5.8900397  76.1712063  71.6588049   6.1076043  75.9035567  73.1328843
   6.1989030  57.4798747  73.2668302   6.5047907  56.6196111  72.9794217
   6.9241635  58.0716368  73.0667296   1.6201304  71.7032664  65.0122776
   1.1820734  70.9868523  64.5528414   2.3611745  71.9308778  64.4507868
   0.5611048  76.3887357  73.4669137   0.5187227  76.6148204  72.5377669
   1.4773747  76.1550732  73.6154938   4.0076682  66.8571425  80.3649766
   4.3626069  67.0842898  81.2244232   4.6548813  67.1889802  79.7427021
   9.7374419  69.9789861  71.0699095   9.5992317  70.1691457  70.1420284
   9.3810638  70.7409243  71.5267146   9.7643798  72.0466388  76.0810366
  10.1980305  71.9541677  76.9293420  10.4775379  72.0223888  75.4430382
   3.4971693  75.6468482  77.6143467   3.5508716  76.2159418  78.3821183
   2.6286475  75.8170367  77.2497504  10.6259348  72.0890088  78.6143252
  10.8195238  72.9935899  78.8602527  10.5259966  71.6297507  79.4481837
   2.2795659  61.9747979  81.1133579   1.6323574  62.6737929  81.0198056
   3.0496674  62.4084123  81.4809827   5.6874457  72.2396831  84.1884132
   5.5359963  72.0107383  83.2714216   5.6779136  73.1967432  84.2015477
   2.4559793  69.8128744  79.1730399   3.3851853  69.9639903  78.9999366
   2.0350823  69.9012765  78.3179045   1.8496277  78.9388505  68.2854473
   2.0248032  78.4676548  69.1000096   1.1629065  79.5654271  68.5135734
   2.8053340  73.2161011  74.3317774   2.4703172  73.1761781  75.2275424
   2.3057286  72.5505727  73.8588185   5.7412532  70.5617045  64.6054834
   5.1241702  69.8363873  64.5087887   5.2729020  71.3226406  64.2621908
   7.3966663  75.2715954  82.2660614   7.3379209  74.5875174  81.5991197
   7.7986182  76.0134944  81.8141240   7.3984070  73.2355538  80.4974594
   6.5110849  72.8981459  80.6200993   7.9682622  72.5038569  80.7343359
   0.9285224  77.8956990  77.4635837   0.8555395  78.7011961  77.9755142
   0.4862617  78.0948956  76.6383859   4.0271654  62.9423389  73.6172864
   4.5240353  62.1893352  73.2973934   3.2558635  62.9787706  73.0516073
  11.8801411  68.6463755  75.2591156  11.8691287  69.5288470  74.8885089
  11.0118790  68.2935306  75.0645693   3.3883907  77.7943824  79.6193996
   4.1011880  78.4291289  79.5469897   2.8973936  77.8907690  78.8033998
   5.1101434  71.6995077  71.1911288   4.1757713  71.8196539  71.0215992
   5.2878103  70.7967543  70.9271297   8.4973986  67.5412396  71.7261322
   8.9634438  68.3740387  71.6521624   8.9481486  67.0757377  72.4306580
   6.5650217  73.8856217  68.7247474   6.8410061  73.7712812  69.6341348
   5.6954715  73.4873702  68.6859647   6.4690648  59.9092983  75.7652223
   5.5553728  60.1397210  75.9334430   6.8983750  59.9931427  76.6166255
   6.2397107  68.0982875  78.2652117   5.5868557  68.3458782  77.6104570
   6.6177487  67.2847013  77.9314594   3.2004281  78.1342568  72.3680287
   3.3826675  77.3164224  72.8308040   4.0237267  78.3510260  71.9305177
   3.5346446  77.0610753  69.6295336   4.0634213  76.5503208  69.0165498
   3.7974666  76.7453283  70.4940869   2.2884680  68.8402686  84.7518154
   1.6125317  68.7396815  85.4220529   3.1112314  68.6841900  85.2154151
   1.0307463  80.1469613  78.9875770   1.5825771  80.3101235  79.7524855
   1.3713656  80.7374051  78.3155795   5.8818337  74.9730871  84.8424425
   6.4258241  75.5860829  84.3479379   5.3005182  75.5310449  85.3591438
   4.1675850  78.0951589  75.9739452   4.0426990  77.2941329  75.4650398
   4.8254941  78.5897782  75.4853422   6.2310758  75.8960609  77.6019002
   5.2841094  75.7765960  77.5297329   6.5793532  75.0083107  77.6845264
   3.2357192  75.6913325  73.8023355   3.0882154  74.7630033  73.9830925
   4.0610685  75.7133416  73.3180430   6.8391314  76.5141884  74.8888227
   7.7637861  76.3084745  74.7512678   6.6706617  76.2658285  75.7977569
   3.2318706  63.5451163  68.7955472   3.4482320  64.4275801  68.4944300
   2.7512773  63.1537376  68.0661114   1.6840441  63.9276764  77.4660233
   1.4258219  64.8493835  77.4644564   1.1525481  63.5307199  78.1560698
   6.6286630  77.0327551  70.2450319   6.8023507  76.4673974  69.4924171
   7.1215521  77.8328446  70.0629809   2.1042397  60.0608715  73.8261396
   2.1264093  60.1248048  72.8713376   2.5210456  59.2213223  74.0201902
  12.4826021  69.7963974  71.8640619  12.9257167  69.0471300  71.4659742
  11.6052531  69.7874111  71.4814351   7.6161802  76.3494316  67.3447217
   8.3112707  76.9701008  67.5634532   7.9584952  75.4989667  67.6199595
   9.5153225  73.7994021  68.8734548  10.0404549  74.1381294  68.1483868
   9.4275578  72.8641037  68.6897682   1.1773274  77.7128095  81.0024424
   1.4860401  77.4677242  81.8747124   1.9748756  77.9174733  80.5143295
   1.1993886  79.8666005  73.2329801   0.7598876  79.3742383  73.9262658
   1.9502003  79.3238972  72.9921876   9.2047131  74.4326925  84.1785746
   8.4142675  74.4151064  83.6390245   8.9680486  74.9715219  84.9334782
   9.3245007  71.2819391  81.4918474   9.3743011  71.1169399  82.4333997
   9.2158930  70.4146650  81.1016355   6.6148769  67.2650319  82.8077781
   7.5158632  67.1256784  82.5161779   6.6896743  67.4304774  83.7475958
  10.8263203  73.7016333  81.7360496  10.5348012  74.0646313  82.5723957
  10.2135335  72.9883341  81.5573828  12.0258886  71.2669213  74.2563066
  12.8605777  71.7059017  74.4200626  12.1618014  70.7907866  73.4371312
   9.0750392  68.8248947  80.2040554   9.5504513  69.0176594  79.3959405
   8.1515957  68.8808133  79.9583938   3.6530608  60.8596791  79.1696388
   4.1712552  61.5957818  78.8442876   3.2985741  61.1660784  80.0043147
   3.9043202  57.2797074  74.6897284   4.1844956  56.6120263  75.3157711
   4.6893809  57.4726169  74.1771948   1.7076671  76.4556067  66.2522311
   1.1350638  77.0746255  65.7992783   2.2809464  77.0055429  66.7862233
   7.7752061  65.7014708  78.4368859   8.7269483  65.8012805  78.4581084
   7.6055511  64.9092976  78.9466944   5.7966440  62.7870291  78.6228260
   5.2016372  63.0675303  77.9274749   5.5116137  63.2764192  79.3945002
   4.9273931  76.7393218  67.3830893   5.8604604  76.6738779  67.5863768
   4.8397143  77.5749484  66.9245426   7.5561947  76.0559088  64.3434841
   7.4775579  75.7218952  65.2370598   8.3771614  76.5480856  64.3426313
  10.2540138  68.9220827  77.5511159  10.2216458  67.9836828  77.7370843
  10.8640762  69.0004864  76.8176984   2.0923469  67.7916880  63.5938363
   3.0382574  67.6623088  63.6626781   1.7137714  67.0531542  64.0707791
  10.4034627  65.7131871  77.5969442   9.8873676  64.9290327  77.4099371
  11.2874575  65.3850587  77.7615962   8.0645354  59.4572886  73.5565255
   7.8670175  59.1487974  74.4408587   8.6745059  60.1834525  73.6863185
  16.0716688  69.9836834  76.6917196  16.8020077  69.7222122  77.2524899
  15.4623634  69.2465556  76.7319264  14.1531985  68.1244697  77.2891647
  13.4265149  67.9900662  76.6808139  13.7379272  68.4321525  78.0948365
   1.9762162  71.8434626  85.0539020   2.8965171  72.0213225  85.2479067
   1.9411745  70.8990672  84.9018719   1.8928452  60.2603746  69.6837490
   1.0829180  59.9150831  70.0592736   2.5812869  59.9511290  70.2725101
   3.8219000  59.3381793  71.3061786   4.3750039  59.7577247  71.9651809
   4.0589087  58.4117541  71.3484742   7.1997807  61.4482318  70.8140451
   6.6196477  62.1067122  70.4318503   6.9333740  60.6259663  70.4027868
   5.6501374  60.8487376  73.0161771   6.1501152  60.9603911  72.2076090
   6.2936982  60.5448429  73.6562579   5.9822686  63.6082409  69.8696799
   5.0948541  63.8932059  69.6516994   6.3976675  63.4476172  69.0224076
   9.3337222  63.6328930  73.5851138  10.1097612  64.1225382  73.8575755
   8.6085356  64.0586984  74.0423008  11.7709780  64.3456549  74.6425079
  12.3654271  64.1052285  73.9318387  11.8436364  63.6263679  75.2698615
   5.1265899  73.3727083  63.9644819   5.8301749  73.5777086  64.5802474
   4.4028548  73.9403845  64.2293902   5.9563709  69.1236945  70.0847089
   5.8998911  69.5805496  69.2454721   6.5092052  68.3627629  69.9069932
   9.7668515  64.9126676  70.9097209   9.5105449  64.5123312  71.7405416
   9.1421383  65.6270470  70.7847348  14.0780853  67.6522750  73.4168500
  13.5180411  67.7215939  74.1900062  13.4724356  67.4763734  72.6967996
   7.0352596  73.8109613  66.0143279   7.8698200  73.3790811  65.8320754
   6.8736939  73.6391626  66.9420173   6.6898489  70.3141726  67.3799618
   6.6347292  70.1485997  66.4388062   6.0644544  71.0217759  67.5361808
   4.0044396  72.6190638  86.7053181   4.8735555  72.7931290  86.3439816
   3.5251147  73.4385055  86.5828910   3.8146733  56.4092611  71.2130873
   3.0479129  55.8551098  71.3587556   4.2257438  56.4814480  72.0745025
  15.6636871  84.3279264  76.1098456  16.3015281  84.2086011  75.4061796
  15.5457714  85.2760108  76.1686408  12.4726578  84.2806692  76.0459980
  12.1345089  84.1647756  75.1580515  13.3416346  83.8797857  76.0260986
   8.3313393  86.1342168  72.0356871   7.7678259  86.0432105  71.2673159
   8.2165788  85.3142073  72.5159364  12.9546361  85.4341543  82.0046186
  12.9435002  85.0394342  81.1326690  13.1167000  84.7007616  82.5979957
   5.8777825  87.6293360  74.8741092   6.6699117  87.2884184  74.4587391
   6.1174476  87.7388335  75.7943245  13.9112952  89.8013136  67.3471336
  13.2600932  90.3867216  66.9605350  14.7057315  90.3319331  67.4066374
   7.8368579  86.8902273  67.7458471   8.6099455  86.3431260  67.6071346
   8.1893978  87.7546522  67.9572932   9.6753622  88.2178655  80.9525370
   9.3843488  89.1224286  80.8372036  10.3110606  88.2595183  81.6669439
  10.6009829  85.5955504  77.5426729  11.1973401  85.3711526  76.8283692
  10.6584800  84.8540249  78.1452177  10.1734857  83.0494939  65.3776920
  10.4260378  82.5276460  64.6160383   9.2359416  82.8861085  65.4803604
  15.2178140  82.0530717  73.1851664  16.0041229  81.6350141  72.8342081
  15.4816844  82.9576810  73.3533312  15.3888217  87.4903568  67.8840320
  14.7534050  87.5638194  68.5961225  15.0585624  88.0797167  67.2059400
  20.6186567  81.9905951  74.0884642  21.3511739  81.4205168  74.3222472
  19.8625923  81.6027551  74.5291148   9.8931146  84.9523045  67.5801295
   9.7767404  84.2767948  68.2482380  10.0033406  84.4655419  66.7633448
  12.2362687  84.4133192  71.2847985  11.8720894  83.8863813  71.9960906
  13.0929803  84.0231661  71.1114470  18.1411987  75.7027525  78.5479251
  17.8095312  76.5722936  78.3240466  17.5457601  75.3863809  79.2273281
  11.8768174  79.4423092  66.2809333  12.0442576  80.3103328  66.6479804
  11.6865343  79.6050374  65.3570622  14.6343507  87.9040071  77.9475164
  14.3344230  88.8065110  77.8390971  14.2894566  87.6372254  78.7996316
   8.0855988  84.3553868  73.9811868   7.1606485  84.2230082  74.1889560
   8.3340402  85.1348087  74.4781810  18.0340651  80.4222611  75.6272601
  17.1257528  80.3538019  75.3331362  17.9828247  80.8994556  76.4554426
  11.8557395  81.8980749  67.2656000  11.7357020  82.3437800  68.1041480
  11.1609983  82.2466067  66.7069538   5.4464799  83.9987141  74.8155657
   5.5757181  84.2521620  75.7295069   4.7662251  84.5914849  74.4960312
   9.6164287  94.6684391  70.9146131   9.5388316  95.6192216  70.9934612
   9.0125930  94.3230264  71.5721058  12.1081517  81.8412257  83.5707498
  11.3314851  82.4006177  83.5610363  12.7472080  82.3269040  84.0922368
  19.9002297  78.6239049  77.4050475  19.2576677  78.9171583  76.7590269
  19.3957226  78.5091970  78.2103671  17.5542461  82.3702223  68.0936334
  18.4660317  82.6029609  67.9184032  17.0452108  82.9539267  67.5311413
  10.3627889  84.6497710  83.1325465  11.1042573  85.1882754  82.8560289
   9.6564874  85.2763999  83.2897017  15.8383228  86.7926850  81.7297627
  16.2466585  86.3509261  80.9852259  15.1160490  86.2179478  81.9831820
  12.1914299  81.7299457  79.1031184  13.0375494  82.1538871  79.2465833
  12.1312936  81.0733081  79.7969747  16.1612043  87.3528041  75.4849915
  15.5320906  87.5173755  74.7825983  15.7737705  87.7669651  76.2560880
  20.0401275  88.2882479  72.8394279  19.3552313  88.6681380  72.2891313
  20.1245124  88.8977806  73.5726227  15.3413744  79.3903826  80.7612357
  15.0974676  80.1445886  80.2246633  15.6173674  79.7689173  81.5959604
  17.2952207  85.9342438  79.4389623  17.5069102  86.5774198  78.7624004
  17.2481955  85.1004754  78.9711553  14.8978436  78.5460259  76.3426195
  14.0362915  78.8441512  76.6342932  14.9240870  78.7630657  75.4107228
  11.7140005  87.0902449  72.7500001  12.1778351  87.3690152  71.9604623
  11.4496803  86.1885894  72.5673091   8.6064086  86.6373931  75.6879764
   9.1765443  87.0661199  75.0497248   9.1972198  86.3556515  76.3863950
  10.6508891  83.2125601  69.5589566  11.3532934  83.6646645  70.0263492
  10.3189520  82.5709420  70.1869459   9.0989253  81.8037358  83.9340775
   8.4687913  82.4853639  84.1676172   8.9925340  81.6920440  82.9893913
   4.3934225  81.4709154  74.8606699   3.6033279  81.7266683  74.3846810
   4.8845472  82.2857492  74.9658740  18.4098035  88.8114393  77.6111980
  19.2315478  88.4094581  77.3294662  18.4060437  88.7082627  78.5628096
   6.3448970  81.8353733  71.8190176   5.5480134  81.9472428  72.3373672
   6.1174563  82.1740386  70.9531067  12.1754638  88.3598437  79.7672691
  12.2399071  88.8218844  80.6030862  11.4665562  87.7295802  79.8955000
   2.6771928  81.7239645  77.2921690   2.9279966  82.6086655  77.5579266
   3.2131476  81.5444246  76.5196782  26.5004028  85.1553142  73.9596952
  25.7467736  84.5860540  73.8040956  26.6351569  85.1215806  74.9067586
  11.8902656  90.0266544  69.6351671  11.7548330  90.8718080  70.0636519
  12.4312468  90.2285822  68.8717605   8.3769995  76.1058124  86.2966026
   7.9836941  75.5524323  86.9713670   9.1936136  76.4168702  86.6872544
   5.3432053  87.5441982  70.2079596   5.8556574  88.3385232  70.3585161
   5.9954766  86.8468273  70.1413197   7.1526938  90.6607738  72.2902349
   7.3293566  91.5825703  72.1023333   7.9483771  90.3466158  72.7196729
  11.2937956  77.5216003  83.8886283  12.0347670  78.1223156  83.8090745
  11.5255879  76.7793641  83.3304325   6.4379294  82.7072370  82.1664512
   6.3232809  81.8057628  82.4671611   5.5823812  82.9536067  81.8149329
  13.5171132  90.6490111  83.7652013  13.0734986  89.8626489  83.4472918
  14.1788346  90.8369261  83.0995904   8.2758253  92.1785912  78.2912692
   8.8265678  92.0502976  77.5189685   7.4369729  92.4780801  77.9407584
  15.6152370  90.9292911  81.7933414  15.5970845  91.7501792  81.3013683
  16.5372290  90.8046986  82.0183555  12.0725424  88.4437040  82.6356923
  12.6053761  87.6825328  82.4056231  11.5439505  88.1510692  83.3781077
  15.2395119  73.5497106  78.1650564  14.8959389  74.4398748  78.0889675
  15.6074082  73.3598764  77.3020149   3.3080970  85.8730636  70.9839167
   4.1456192  86.2827645  70.7672874   3.4859238  84.9330079  70.9539360
  15.2045402  83.5405717  66.6723000  14.6892025  84.3110322  66.9111387
  14.9322710  82.8670853  67.2956061  12.7892513  78.3855418  71.7308238
  11.9334109  77.9962268  71.5513877  13.2019465  78.4647379  70.8708023
  14.3191660  75.9201761  76.1299798  13.8156455  75.8831896  75.3167603
  14.6122267  76.8294504  76.1896454  10.5634546  76.0040491  75.1365979
  11.4287542  75.8083300  74.7771869  10.6312054  75.7750843  76.0635336
  20.1779676  86.2938072  68.6076173  19.4009119  85.9549231  68.1631335
  20.8571157  86.2990695  67.9331138  14.9931705  81.4132809  68.4982781
  14.6881841  81.7278958  69.3492924  15.9462147  81.4914229  68.5410114
  13.4378137  87.5723033  70.1475735  12.9099499  86.8375792  69.8348972
  12.9365640  88.3497709  69.9015703  18.4170983  85.7672053  75.2642781
  17.7594657  86.4571314  75.3522910  19.2211382  86.1568485  75.6076767
   8.1696865  78.2342699  72.5082346   8.7440617  78.0117880  71.7755539
   8.7567847  78.3031393  73.2610948  17.2276442  84.1216426  73.3146723
  17.7408324  84.7546418  73.8168432  17.8777666  83.5217621  72.9490083
   8.4966452  80.2647160  66.5278231   7.6603764  80.6021846  66.8487506
   8.3571221  80.1296140  65.5905368  10.4719532  75.1083948  71.2357416
   9.8183945  74.7932965  70.6114030  10.4300006  74.4859688  71.9617239
  11.5830737  85.3903243  63.1510708  10.6757799  85.1592496  63.3501857
  12.0801769  84.5940862  63.3384689  14.4898816  94.1000750  66.0707394
  13.8160515  94.4032447  66.6792352  14.8764638  94.9029830  65.7212851
  13.7057273  81.5965881  75.5605063  12.7879834  81.8180828  75.4026751
  14.1217416  81.6712192  74.7016771  14.4892320  82.9957297  70.6907744
  15.2364139  83.5078694  70.3814866  14.7583910  82.6741350  71.5512137
  12.7618971  85.4915838  67.6734698  11.8530190  85.2074870  67.7707168
  12.7914054  85.9114916  66.8138005  17.9938238  89.1022427  71.4425865
  17.5400565  88.2613337  71.4991056  17.3632205  89.7383826  71.7800646
  16.9371158  80.0314413  72.6726533  16.1993914  79.5191799  73.0036775
  17.1897931  79.5914795  71.8609810  16.4371177  90.9398924  72.3775684
  16.7294152  91.5003981  71.6588049  16.9469798  91.2327485  73.1328843
  17.0382785  72.8090665  73.2668302  17.3441662  71.9488029  72.9794217
  17.7635390  73.4008285  73.0667296   3.3307141  83.2121352  71.6549900
   3.1331541  82.6190712  70.9300967   2.7753805  82.9073562  72.3725839
  11.3103865  83.1044458  73.7744493  11.3652474  82.1518295  73.6986970
  10.4995067  83.2603897  74.2585792  12.4595058  87.0324581  65.0122776
  12.0214488  86.3160440  64.5528414  13.2005499  87.2600696  64.4507868
   9.2496225  81.7221518  71.5334872   8.4364090  82.0215689  71.9400064
   9.7455219  81.3277207  72.2509354  11.4004802  91.7179275  73.4669137
  11.3580981  91.9440121  72.5377669  12.3167501  91.4842649  73.6154938
  14.8470436  82.1863342  80.3649766  15.2019824  82.4134816  81.2244232
  15.4942567  82.5181719  79.7427021  20.5768173  85.3081778  71.0699095
  20.4386072  85.4983374  70.1420284  20.2204392  86.0701161  71.5267146
   8.7410299  79.2939874  77.1496107   9.3809679  79.1528633  76.4519070
   7.9087830  79.0074387  76.7734709  20.6037553  87.3758305  76.0810366
  21.0374059  87.2833594  76.9293420  21.3169134  87.3515806  75.4430382
   9.5170603  88.5942304  73.2631099  10.3111202  88.0992624  73.0613674
   8.8062296  88.0660167  72.8998805  14.3365448  90.9760399  77.6143467
  14.3902470  91.5451336  78.3821183  13.4680229  91.1462284  77.2497504
   5.8253367  82.7385386  69.3390852   4.8950955  82.6769841  69.5560814
   5.9210839  82.2161338  68.5427493   5.7438916  79.2640198  71.9269094
   6.0045733  80.1785532  71.8178254   6.5656088  78.7964641  72.0765707
   7.2163841  80.6777956  79.0967918   7.8886895  80.4695318  78.4480567
   6.3893628  80.4800042  78.6573151  21.4653102  87.4182006  78.6143252
  21.6588992  88.3227817  78.8602527  21.3653721  86.9589425  79.4481837
  13.1189413  77.3039897  81.1133579  12.4717328  78.0029846  81.0198056
  13.8890429  77.7376041  81.4809827  16.5268211  87.5688749  84.1884132
  16.3753717  87.3399300  83.2714216  16.5172891  88.5259350  84.2015477
  13.2953547  85.1420661  79.1730399  14.2245607  85.2931821  78.9999366
  12.8744577  85.2304682  78.3179045  12.0941879  89.1671326  76.9428937
  11.9552965  88.7990110  77.8154875  11.3056475  89.6818965  76.7712894
  12.6890031  94.2680422  68.2854473  12.8641787  93.7968466  69.1000096
  12.0022819  94.8946189  68.5135734  13.6447094  88.5452929  74.3317774
  13.3096927  88.5053699  75.2275424  13.1451040  87.8797645  73.8588185
   7.6191338  83.9520559  79.8570355   7.4811136  83.2200797  80.4581895
   8.5296262  83.8629459  79.5754543  16.5806286  85.8908963  64.6054834
  15.9635457  85.1655791  64.5087887  16.1122774  86.6518323  64.2621908
  10.2473639  83.6640518  79.3454035  10.9573258  83.0233710  79.3040654
  10.2042947  83.9153413  80.2680216  18.2360418  90.6007871  82.2660614
  18.1772964  89.9167091  81.5991197  18.6379936  91.3426861  81.8141240
   8.9602573  80.6505736  81.1649675   8.4239930  80.1996474  81.8171271
   8.3719281  80.7851645  80.4220139   7.2551116  97.4169785  75.0594333
   7.4947715  98.0488309  75.7373352   6.4120313  97.0657825  75.3459692
   8.3704832  80.1094387  63.7276138   7.4934298  79.9883188  63.3638385
   8.8462585  79.3180466  63.4755027  18.2377825  88.5647455  80.4974594
  17.3504604  88.2273377  80.6200993  18.8076376  87.8330486  80.7343359
   4.6941694  79.7861744  78.2502669   4.6099883  79.1787413  77.5153079
   3.8724401  80.2770762  78.2512165  11.7678978  93.2248908  77.4635837
  11.6949150  94.0303879  77.9755142  11.3256371  93.4240873  76.6383859
  11.5568758  92.4620678  70.9738659  10.7736280  93.0042358  71.0676883
  12.2561503  92.9794657  71.3732900  14.8665408  78.2715307  73.6172864
  15.3634108  77.5185269  73.2973934  14.0952390  78.3079624  73.0516073
  22.7195165  83.9755673  75.2591156  22.7085042  84.8580388  74.8885089
  21.8512545  83.6227223  75.0645693  14.2277662  93.1235742  79.6193996
  14.9405634  93.7583206  79.5469897  13.7367691  93.2199608  78.8033998
  15.9495189  87.0286994  71.1911288  15.0151468  87.1488457  71.0215992
  16.1271857  86.1259461  70.9271297  11.4500377  80.4132690  73.3444549
  11.0798164  79.8603730  74.0325454  11.9459469  79.8090824  72.7919549
  19.3367740  82.8704314  71.7261322  19.8028192  83.7032305  71.6521624
  19.7875241  82.4049295  72.4306580   9.2789575  90.8730185  80.4399567
   9.9799035  91.5066668  80.5928961   8.8084690  91.2144917  79.6795206
  17.4043971  89.2148135  68.7247474  17.6803815  89.1004729  69.6341348
  16.5348470  88.8165620  68.6859647  17.3084403  75.2384901  75.7652223
  16.3947483  75.4689127  75.9334430  17.7377504  75.3223345  76.6166255
  17.0790861  83.4274793  78.2652117  16.4262312  83.6750700  77.6104570
  17.4571241  82.6138931  77.9314594  14.0398035  93.4634486  72.3680287
  14.2220430  92.6456142  72.8308040  14.8631021  93.6802178  71.9305177
  14.3740201  92.3902671  69.6295336  14.9027967  91.8795125  69.0165498
  14.6368420  92.0745201  70.4940869  13.1278434  84.1694604  84.7518154
  12.4519071  84.0688733  85.4220529  13.9506068  84.0133817  85.2154151
   4.8757293  90.4066540  77.3730669   5.4610730  89.6610228  77.5058574
   4.6782132  90.7170497  78.2567333   7.7295949  93.4417788  72.3893112
   7.0606324  93.9263915  71.9057152   7.5908818  93.6887008  73.3036490
  11.8701217  95.4761531  78.9875770  12.4219525  95.6393153  79.7524855
  12.2107411  96.0665969  78.3155795   6.8465710  77.8236681  79.5897655
   6.9107037  78.6851512  79.1775053   6.7832831  77.2110682  78.8570013
   6.3217983  79.8959813  83.2370689   6.9490022  79.5136891  83.8508213
   5.4645902  79.6774015  83.6026382  16.7212092  90.3022789  84.8424425
  17.2651996  90.9152747  84.3479379  16.1398936  90.8602367  85.3591438
   3.0983526  81.7036242  69.1689044   3.3936967  80.7946921  69.1156098
   2.1971562  81.6823982  68.8470046  15.0069605  93.4243507  75.9739452
  14.8820744  92.6233246  75.4650398  15.6648696  93.9189700  75.4853422
   6.6277773  79.7792239  75.1516593   5.9064359  80.3928207  75.0124066
   7.4171029  80.3150004  75.0733238  17.0704513  91.2252527  77.6019002
  16.1234848  91.1057878  77.5297329  17.4187286  90.3375025  77.6845264
   9.4304086  77.1146666  81.4257244   9.9538488  77.3608962  82.1883554
   9.2116420  77.9466700  81.0060382   4.8271367  79.3850340  69.2928369
   4.4984074  78.5047719  69.1103475   5.1810738  79.3298009  70.1804758
  14.0750946  91.0205243  73.8023355  13.9275909  90.0921950  73.9830925
  14.9004440  91.0425334  73.3180430   7.9413191  79.6723310  69.6603847
   8.2809263  80.2009231  68.9382455   8.3885311  80.0103716  70.4362413
  17.6785068  91.8433802  74.8888227  18.6031616  91.6376663  74.7512678
  17.5100371  91.5950203  75.7977569  10.6356631  78.0560361  79.1106915
  10.2953452  77.2568174  79.5127595   9.9295638  78.3562072  78.5383748
  11.2873103  75.1409673  77.5634238  12.1099172  74.6670151  77.4413128
  11.5311167  75.9200157  78.0632924   9.9281338  78.1697932  67.8597140
  10.6489700  78.5479184  67.3560856   9.3046642  78.8886808  67.9632117
  14.0712461  78.8743081  68.7955472  14.2876075  79.7567718  68.4944300
  13.5906528  78.4829294  68.0661114   8.8111682  81.8328794  75.3726216
   8.6656263  82.1469097  76.2650498   8.3336886  82.4513694  74.8197115
  10.6708065  78.8231342  75.4207106  10.6569634  77.9272435  75.0839404
  11.3880493  78.8302005  76.0545392  12.5234196  79.2568682  77.4660233
  12.2651973  80.1785753  77.4644564  11.9919236  78.8599116  78.1560698
  17.4680384  92.3619469  70.2450319  17.6417262  91.7965892  69.4924171
  17.9609276  93.1620364  70.0629809   3.2857344  84.3734138  78.3113878
   2.7410812  85.1493946  78.4434152   4.1636694  84.7204943  78.1532999
  10.0744961  77.7045722  70.6894676  10.1960872  76.7762368  70.8885564
   9.7847003  77.7184408  69.7772992  12.9436151  75.3900632  73.8261396
  12.9657848  75.4539966  72.8713376  13.3604210  74.5505141  74.0201902
  23.3219775  85.1255892  71.8640619  23.7650921  84.3763217  71.4659742
  22.4446286  85.1166028  71.4814351  18.4555557  91.6786233  67.3447217
  19.1506461  92.2992926  67.5634532  18.7978707  90.8281585  67.6199595
   4.0723366  83.5004034  81.2044034   3.3305102  83.6486670  81.7908665
   3.7516110  83.7612300  80.3410784  20.3546980  89.1285939  68.8734548
  20.8798304  89.4673212  68.1483868  20.2669332  88.1932954  68.6897682
  12.0167029  93.0420013  81.0024424  12.3254155  92.7969159  81.8747124
  12.8142511  93.2466651  80.5143295  12.0387641  95.1957922  73.2329801
  11.5992631  94.7034301  73.9262658  12.7895758  94.6530890  72.9921876
   4.5179980  91.3869463  73.2354429   5.3438000  91.0873235  72.8553073
   4.1674032  90.6177086  73.6844218   9.4861513  90.7395931  75.3052103
   8.8641522  90.0766636  75.0054331  10.1566380  90.7657063  74.6225750
   2.7188585  89.3055790  74.1943363   1.8820493  88.8777964  74.0127364
   2.6912230  89.4988233  75.1314154   9.5586040  79.2177719  84.8984609
   9.6074196  80.0939842  84.5162378  10.1008554  78.6755112  84.3256252
  20.0440886  89.7618843  84.1785746  19.2536430  89.7442981  83.6390245
  19.8074241  90.3007136  84.9334782  20.1638761  86.6111309  81.4918474
  20.2136766  86.4461316  82.4333997  20.0552684  85.7438568  81.1016355
   9.0475020  89.2899855  68.7810563   9.1963140  89.9735319  68.1277236
   9.8541463  89.2704945  69.2960019  17.4542523  82.5942237  82.8077781
  18.3552386  82.4548702  82.5161779  17.5290498  82.7596692  83.7475958
  11.7885329  79.9709092  81.6530967  10.9188638  80.2642658  81.3813556
  12.0244809  80.5549537  82.3738231  21.6656958  89.0308251  81.7360496
  21.3741766  89.3938231  82.5723957  21.0529089  88.3175259  81.5573828
  22.8652640  86.5961130  74.2563066  23.6999532  87.0350934  74.4200626
  23.0011769  86.1199784  73.4371312  19.9144146  84.1540865  80.2040554
  20.3898268  84.3468511  79.3959405  18.9909711  84.2100051  79.9583938
   6.8027653  85.3165032  69.7871632   6.5573695  84.4127362  69.9851842
   6.9723567  85.3182183  68.8451110  14.4924363  76.1888709  79.1696388
  15.0106306  76.9249736  78.8442876  14.1379495  76.4952702  80.0043147
   6.0723300  81.0493390  67.2857794   5.3792545  81.1237745  66.6297830
   5.8275052  80.2853734  67.8079311  14.7436957  72.6088991  74.6897284
  15.0238711  71.9412180  75.3157711  15.5287564  72.8018087  74.1771948
  12.5470425  91.7847985  66.2522311  11.9744392  92.4038172  65.7992783
  13.1203219  92.3347347  66.7862233  18.6145815  81.0306625  78.4368859
  19.5663238  81.1304723  78.4581084  18.4449266  80.2384894  78.9466944
  16.6360195  78.1162208  78.6228260  16.0410127  78.3967221  77.9274749
  16.3509891  78.6056109  79.3945002  15.7667685  92.0685135  67.3830893
  16.6998358  92.0030697  67.5863768  15.6790898  92.9041402  66.9245426
  18.3955702  91.3851006  64.3434841  18.3169333  91.0510869  65.2370598
  19.2165368  91.8772774  64.3426313  21.0933893  84.2512745  77.5511159
  21.0610213  83.3128746  77.7370843  21.7034517  84.3296782  76.8176984
  12.9317224  83.1208798  63.5938363  13.8776328  82.9915006  63.6626781
  12.5531469  82.3823460  64.0707791  21.2428381  81.0423788  77.5969442
  20.7267430  80.2582245  77.4099371  22.1268330  80.7142505  77.7615962
  18.9039108  74.7864804  73.5565255  18.7063929  74.4779892  74.4408587
  19.5138814  75.5126443  73.6863185  26.9110443  85.3128752  76.6917196
  27.6413831  85.0514040  77.2524899  26.3017388  84.5757474  76.7319264
  24.9925740  83.4536614  77.2891647  24.2658903  83.3192579  76.6808139
  24.5773027  83.7613443  78.0948365  12.8155916  87.1726544  85.0539020
  13.7358926  87.3505143  85.2479067  12.7805499  86.2282589  84.9018719
  11.1160141  81.0458774  63.5293248  10.2091596  80.7491887  63.6055962
  11.3936122  80.7488592  62.6627535   2.0338081  82.3665138  73.9792295
   1.7140866  81.5130446  73.6866669   1.4871509  82.5813716  74.7350262
   5.8117989  85.0827579  77.6961801   6.0303999  86.0144686  77.7149835
   6.2243763  84.7235553  78.4816605  12.7322207  75.5895664  69.6837490
  11.9222935  75.2442749  70.0592736  13.4206624  75.2803208  70.2725101
  14.6612755  74.6673711  71.3061786  15.2143794  75.0869164  71.9651809
  14.8982841  73.7409459  71.3484742  10.6845854  80.6560784  87.0864550
  10.5842581  81.6055141  87.0176641  10.4667396  80.3279023  86.2140620
   9.8858926  77.9045709  63.6705228  10.7478090  78.2300608  63.9301045
  10.0709270  77.1177205  63.1578293   1.9026341  85.9868049  75.9485416
   1.2089813  85.5722002  75.4355371   2.6499332  86.0288586  75.3518835
  18.0391562  76.7774236  70.8140451  17.4590231  77.4359040  70.4318503
  17.7727495  75.9551581  70.4027868  16.4895128  76.1779294  73.0161771
  16.9894907  76.2895828  72.2076090  17.1330736  75.8740347  73.6562579
  10.5477124  84.0857923  85.9029612  10.0644206  84.8858283  86.1093501
  10.6338063  84.0965868  84.9497056   3.8163084  85.9186303  73.8251431
   3.7933772  86.0173990  72.8733314   4.1263720  86.7651454  74.1468597
   6.4750462  87.9762458  77.9398046   7.4293715  87.9446400  77.8727977
   6.2762985  87.5153082  78.7548272   7.0649844  86.5463574  80.5068843
   7.8842733  87.0407653  80.5303681   7.3386652  85.6295542  80.4786411
  16.8216440  78.9374326  69.8696799  15.9342295  79.2223977  69.6516994
  17.2370429  78.7768090  69.0224076  20.1730976  78.9620847  73.5851138
  20.9491366  79.4517300  73.8575755  19.4479110  79.3878902  74.0423008
  22.6103535  79.6748467  74.6425079  23.2048026  79.4344202  73.9318387
  22.6830118  78.9555597  75.2698615   4.8300690  93.5182077  74.9568244
   4.6955158  92.7582478  74.3906242   4.4132753  94.2422977  74.4897032
  15.9659653  88.7019001  63.9644819  16.6695504  88.9069004  64.5802474
  15.2422302  89.2695763  64.2293902  16.7957464  84.4528862  70.0847089
  16.7392665  84.9097414  69.2454721  17.3485806  83.6919547  69.9069932
  20.6062270  80.2418594  70.9097209  20.3499204  79.8415230  71.7405416
  19.9815138  80.9562388  70.7847348  24.9174608  82.9814667  73.4168500
  24.3574165  83.0507857  74.1900062  24.3118111  82.8055652  72.6967996
   7.9869816  94.4151395  75.1686686   7.8702200  95.3596827  75.0665376
   7.1662263  94.1124956  75.5572485  17.8746351  89.1401530  66.0143279
  18.7091955  88.7082729  65.8320754  17.7130694  88.9683544  66.9420173
  17.5292243  85.6433644  67.3799618  17.4741047  85.4777915  66.4388062
  16.9038298  86.3509676  67.5361808   2.3184758  80.8801708  81.2061040
   2.9643622  80.3700662  81.6948266   2.1101909  81.6170390  81.7804466
  14.8438150  87.9482555  86.7053181  15.7129310  88.1223208  86.3439816
  14.3644902  88.7676972  86.5828910  10.8388369  75.1441753  66.9584937
  10.8267038  76.0883592  67.1153207  11.7311790  74.9611898  66.6644398
   9.0124330  95.0679656  78.3842615   9.9151577  95.1003267  78.7009110
   8.7861701  94.1380107  78.3988950  10.7677932  93.8210643  75.0452693
   9.8173563  93.8212505  74.9317066  11.0710419  93.0743378  74.5288728
  14.6540488  71.7384529  71.2130873  13.8872884  71.1843016  71.3587556
  15.0651193  71.8106398  72.0745025   6.6582249  78.0269325  85.3036055
   7.5213711  77.6706130  85.5139379   6.0847660  77.6883220  85.9911459
  26.5030626  99.6571181  76.1098456  27.1409036  99.5377929  75.4061796
  26.3851469 100.6052025  76.1686408  23.3120332  99.6098609  76.0459980
  22.9738844  99.4939674  75.1580515  24.1810100  99.2089775  76.0260986
  19.1707148 101.4634086  72.0356871  18.6072013 101.3724023  71.2673159
  19.0559543 100.6433990  72.5159364  23.7940115 100.7633461  82.0046186
  23.7828756 100.3686259  81.1326690  23.9560755 100.0299534  82.5979957
  16.7171580 102.9585277  74.8741092  17.5092872 102.6176102  74.4587391
  16.9568230 103.0680252  75.7943245  24.7506707 105.1305054  67.3471336
  24.0994686 105.7159134  66.9605350  25.5451069 105.6611248  67.4066374
  18.6762334 102.2194191  67.7458471  19.4493210 101.6723178  67.6071346
  19.0287733 103.0838440  67.9572932  20.5147376 103.5470573  80.9525370
  20.2237242 104.4516204  80.8372036  21.1504361 103.5887101  81.6669439
  21.4403583 100.9247421  77.5426729  22.0367155 100.7003444  76.8283692
  21.4978555 100.1832167  78.1452177  21.0128612  98.3786857  65.3776920
  21.2654132  97.8568378  64.6160383  20.0753171  98.2153002  65.4803604
  26.0571894  97.3822635  73.1851664  26.8434984  96.9642058  72.8342081
  26.3210599  98.2868727  73.3533312  26.2281972 102.8195485  67.8840320
  25.5927805 102.8930112  68.5961225  25.8979378 103.4089084  67.2059400
  31.4580322  97.3197868  74.0884642  32.1905494  96.7497085  74.3222472
  30.7019677  96.9319469  74.5291148  20.7324900 100.2814963  67.5801295
  20.6161158  99.6059866  68.2482380  20.8427160  99.7947337  66.7633448
  23.0756441  99.7425110  71.2847985  22.7114649  99.2155731  71.9960906
  23.9323557  99.3523579  71.1114470  28.9805742  91.0319442  78.5479251
  28.6489067  91.9014853  78.3240466  28.3851355  90.7155726  79.2273281
  22.7161928  94.7715010  66.2809333  22.8836331  95.6395246  66.6479804
  22.5259097  94.9342291  65.3570622  25.4737261 103.2331988  77.9475164
  25.1737985 104.1357027  77.8390971  25.1288321 102.9664172  78.7996316
  18.9249743  99.6845785  73.9811868  18.0000239  99.5521999  74.1889560
  19.1734156 100.4640005  74.4781810  28.8734405  95.7514529  75.6272601
  27.9651283  95.6829937  75.3331362  28.8222001  96.2286474  76.4554426
  22.6951149  97.2272667  67.2656000  22.5750774  97.6729718  68.1041480
  22.0003738  97.5757985  66.7069538  16.2858554  99.3279059  74.8155657
  16.4150935  99.5813538  75.7295069  15.6056005  99.9206767  74.4960312
  20.4558041 109.9976309  70.9146131  20.3782071 110.9484134  70.9934612
  19.8519685 109.6522181  71.5721058  22.9475271  97.1704174  83.5707498
  22.1708605  97.7298094  83.5610363  23.5865834  97.6560957  84.0922368
  30.7396052  93.9530967  77.4050475  30.0970432  94.2463500  76.7590269
  30.2350980  93.8383887  78.2103671  28.3936215  97.6994140  68.0936334
  29.3054071  97.9321527  67.9184032  27.8845862  98.2831184  67.5311413
  21.2021643  99.9789628  83.1325465  21.9436328 100.5174672  82.8560289
  20.4958629 100.6055916  83.2897017  26.6776983 102.1218768  81.7297627
  27.0860339 101.6801179  80.9852259  25.9554244 101.5471396  81.9831820
  23.0308053  97.0591375  79.1031184  23.8769248  97.4830788  79.2465833
  22.9706691  96.4024999  79.7969747  27.0005798 102.6819959  75.4849915
  26.3714660 102.8465673  74.7825983  26.6131460 103.0961568  76.2560880
  30.8795030 103.6174397  72.8394279  30.1946068 103.9973298  72.2891313
  30.9638879 104.2269723  73.5726227  26.1807498  94.7195743  80.7612357
  25.9368430  95.4737804  80.2246633  26.4567429  95.0981091  81.5959604
  28.1345961 101.2634356  79.4389623  28.3462856 101.9066115  78.7624004
  28.0875709 100.4296672  78.9711553  25.7372190  93.8752176  76.3426195
  24.8756669  94.1733430  76.6342932  25.7634625  94.0922575  75.4107228
  22.5533760 102.4194367  72.7500001  23.0172105 102.6982070  71.9604623
  22.2890558 101.5177811  72.5673091  19.4457841 101.9665848  75.6879764
  20.0159198 102.3953117  75.0497248  20.0365952 101.6848433  76.3863950
  21.4902646  98.5417519  69.5589566  22.1926689  98.9938563  70.0263492
  21.1583274  97.9001338  70.1869459  19.9383007  97.1329276  83.9340775
  19.3081668  97.8145557  84.1676172  19.8319095  97.0212357  82.9893913
  15.2327980  96.8001072  74.8606699  14.4427034  97.0558600  74.3846810
  15.7239227  97.6149410  74.9658740  29.2491789 104.1406311  77.6111980
  30.0709233 103.7386498  77.3294662  29.2454192 104.0374545  78.5628096
  17.1842725  97.1645651  71.8190176  16.3873888  97.2764345  72.3373672
  16.9568317  97.5032303  70.9531067  23.0148393 103.6890354  79.7672691
  23.0792825 104.1510762  80.6030862  22.3059316 103.0587719  79.8955000
  13.5165683  97.0531562  77.2921690  13.7673721  97.9378572  77.5579266
  14.0525231  96.8736164  76.5196782  37.3397782 100.4845059  73.9596952
  36.5861491  99.9152458  73.8040956  37.4745323 100.4507724  74.9067586
  22.7296410 105.3558462  69.6351671  22.5942085 106.2009998  70.0636519
  23.2706223 105.5577739  68.8717605  19.2163750  91.4350042  86.2966026
  18.8230695  90.8816240  86.9713670  20.0329890  91.7460620  86.6872544
  16.1825808 102.8733900  70.2079596  16.6950328 103.6677150  70.3585161
  16.8348520 102.1760190  70.1413197  17.9920692 105.9899656  72.2902349
  18.1687321 106.9117621  72.1023333  18.7877526 105.6758075  72.7196729
  22.1331711  92.8507921  83.8886283  22.8741424  93.4515074  83.8090745
  22.3649634  92.1085559  83.3304325  17.2773049  98.0364288  82.1664512
  17.1626564  97.1349545  82.4671611  16.4217567  98.2827985  81.8149329
  24.3564887 105.9782028  83.7652013  23.9128741 105.1918407  83.4472918
  25.0182100 106.1661179  83.0995904  19.1152008 107.5077830  78.2912692
  19.6659433 107.3794893  77.5189685  18.2763484 107.8072719  77.9407584
  26.4546125 106.2584828  81.7933414  26.4364600 107.0793709  81.3013683
  27.3766045 106.1338903  82.0183555  22.9119179 103.7728958  82.6356923
  23.4447516 103.0117246  82.4056231  22.3833260 103.4802610  83.3781077
  26.0788874  88.8789024  78.1650564  25.7353143  89.7690665  78.0889675
  26.4467836  88.6890681  77.3020149  14.1474724 101.2022554  70.9839167
  14.9849946 101.6119562  70.7672874  14.3252992 100.2621996  70.9539360
  26.0439156  98.8697635  66.6723000  25.5285780  99.6402239  66.9111387
  25.7716465  98.1962771  67.2956061  23.6286268  93.7147336  71.7308238
  22.7727864  93.3254186  71.5513877  24.0413219  93.7939296  70.8708023
  25.1585414  91.2493679  76.1299798  24.6550210  91.2123814  75.3167603
  25.4516021  92.1586422  76.1896454  21.4028300  91.3332409  75.1365979
  22.2681297  91.1375217  74.7771869  21.4705809  91.1042760  76.0635336
  31.0173431 101.6229989  68.6076173  30.2402873 101.2841149  68.1631335
  31.6964912 101.6282613  67.9331138  25.8325460  96.7424727  68.4982781
  25.5275595  97.0570876  69.3492924  26.7855902  96.8206147  68.5410114
  24.2771891 102.9014950  70.1475735  23.7493253 102.1667710  69.8348972
  23.7759394 103.6789627  69.9015703  29.2564738 101.0963971  75.2642781
  28.5988412 101.7863232  75.3522910  30.0605137 101.4860403  75.6076767
  19.0090619  93.5634616  72.5082346  19.5834371  93.3409798  71.7755539
  19.5961602  93.6323311  73.2610948  28.0670196  99.4508343  73.3146723
  28.5802078 100.0838335  73.8168432  28.7171420  98.8509539  72.9490083
  19.3360206  95.5939077  66.5278231  18.4997518  95.9313764  66.8487506
  19.1964976  95.4588057  65.5905368  21.3113287  90.4375865  71.2357416
  20.6577699  90.1224883  70.6114030  21.2693761  89.8151606  71.9617239
  22.4224492 100.7195160  63.1510708  21.5151553 100.4884414  63.3501857
  22.9195524  99.9232780  63.3384689  25.3292571 109.4292668  66.0707394
  24.6554269 109.7324364  66.6792352  25.7158393 110.2321748  65.7212851
  24.5451027  96.9257799  75.5605063  23.6273589  97.1472746  75.4026751
  24.9611171  97.0004109  74.7016771  25.3286075  98.3249215  70.6907744
  26.0757894  98.8370612  70.3814866  25.5977664  98.0033267  71.5512137
  23.6012725 100.8207755  67.6734698  22.6923944 100.5366788  67.7707168
  23.6307809 101.2406834  66.8138005  28.8331993 104.4314345  71.4425865
  28.3794320 103.5905255  71.4991056  28.2025959 105.0675743  71.7800646
  27.7764912  95.3606331  72.6726533  27.0387669  94.8483717  73.0036775
  28.0291686  94.9206712  71.8609810  27.2764932 106.2690842  72.3775684
  27.5687906 106.8295899  71.6588049  27.7863552 106.5619402  73.1328843
  27.8776539  88.1382583  73.2668302  28.1835416  87.2779946  72.9794217
  28.6029144  88.7300203  73.0667296  14.1700895  98.5413269  71.6549900
  13.9725295  97.9482630  70.9300967  13.6147559  98.2365480  72.3725839
  22.1497619  98.4336376  73.7744493  22.2046229  97.4810212  73.6986970
  21.3388821  98.5895815  74.2585792  23.2988813 102.3616499  65.0122776
  22.8608243 101.6452358  64.5528414  24.0399254 102.5892614  64.4507868
  20.0889979  97.0513436  71.5334872  19.2757845  97.3507606  71.9400064
  20.5848973  96.6569124  72.2509354  22.2398557 107.0471193  73.4669137
  22.1974736 107.2732039  72.5377669  23.1561256 106.8134567  73.6154938
  25.6864191  97.5155260  80.3649766  26.0413578  97.7426733  81.2244232
  26.3336322  97.8473637  79.7427021  31.4161928 100.6373696  71.0699095
  31.2779826 100.8275292  70.1420284  31.0598147 101.3993079  71.5267146
  19.5804054  94.6231791  77.1496107  20.2203433  94.4820550  76.4519070
  18.7481584  94.3366305  76.7734709  31.4431307 102.7050223  76.0810366
  31.8767814 102.6125512  76.9293420  32.1562888 102.6807723  75.4430382
  20.3564358 103.9234222  73.2631099  21.1504956 103.4284542  73.0613674
  19.6456050 103.3952085  72.8998805  25.1759202 106.3052317  77.6143467
  25.2296224 106.8743253  78.3821183  24.3073984 106.4754202  77.2497504
  16.6647121  98.0677303  69.3390852  15.7344709  98.0061759  69.5560814
  16.7604593  97.5453256  68.5427493  16.5832670  94.5932116  71.9269094
  16.8439488  95.5077449  71.8178254  17.4049843  94.1256559  72.0765707
  18.0557596  96.0069873  79.0967918  18.7280649  95.7987235  78.4480567
  17.2287382  95.8091959  78.6573151  32.3046857 102.7473924  78.6143252
  32.4982747 103.6519734  78.8602527  32.2047475 102.2881343  79.4481837
  23.9583168  92.6331814  81.1133579  23.3111083  93.3321764  81.0198056
  24.7284183  93.0667958  81.4809827  27.3661966 102.8980666  84.1884132
  27.2147472 102.6691218  83.2714216  27.3566645 103.8551268  84.2015477
  24.1347302 100.4712579  79.1730399  25.0639362 100.6223739  78.9999366
  23.7138332 100.5596600  78.3179045  22.9335634 104.4963244  76.9428937
  22.7946719 104.1282028  77.8154875  22.1450230 105.0110883  76.7712894
  23.5283786 109.5972340  68.2854473  23.7035541 109.1260383  69.1000096
  22.8416574 110.2238106  68.5135734  24.4840849 103.8744846  74.3317774
  24.1490681 103.8345616  75.2275424  23.9844795 103.2089562  73.8588185
  18.4585093  99.2812476  79.8570355  18.3204891  98.5492715  80.4581895
  19.3690016  99.1921376  79.5754543  27.4200041 101.2200881  64.6054834
  26.8029211 100.4947709  64.5087887  26.9516529 101.9810241  64.2621908
  21.0867393  98.9932436  79.3454035  21.7967012  98.3525628  79.3040654
  21.0436702  99.2445330  80.2680216  29.0754172 105.9299789  82.2660614
  29.0166718 105.2459009  81.5991197  29.4773691 106.6718779  81.8141240
  19.7996327  95.9797654  81.1649675  19.2633684  95.5288392  81.8171271
  19.2113036  96.1143562  80.4220139  19.2098586  95.4386305  63.7276138
  18.3328053  95.3175106  63.3638385  19.6856339  94.6472383  63.4755027
  29.0771579 103.8939373  80.4974594  28.1898358 103.5565295  80.6200993
  29.6470131 103.1622404  80.7343359  10.7300727 100.2263465  73.8217645
  11.4171766  99.9125195  73.2338661  10.5748855 101.1304829  73.5484897
  15.5335449  95.1153661  78.2502669  15.4493637  94.5079331  77.5153079
  14.7118155  95.6062680  78.2512165  22.6072733 108.5540825  77.4635837
  22.5342904 109.3595797  77.9755142  22.1650126 108.7532791  76.6383859
  22.3962512 107.7912595  70.9738659  21.6130034 108.3334275  71.0676883
  23.0955258 108.3086575  71.3732900  25.7059163  93.6007225  73.6172864
  26.2027862  92.8477187  73.2973934  24.9346144  93.6371541  73.0516073
  33.5588920  99.3047590  75.2591156  33.5478796 100.1872306  74.8885089
  32.6906299  98.9519141  75.0645693  25.0671416 108.4527659  79.6193996
  25.7799389 109.0875124  79.5469897  24.5761445 108.5491525  78.8033998
  26.7888943 102.3578912  71.1911288  25.8545222 102.4780374  71.0215992
  26.9665612 101.4551379  70.9271297  22.2894131  95.7424608  73.3444549
  21.9191919  95.1895648  74.0325454  22.7853224  95.1382741  72.7919549
  30.1761495  98.1996231  71.7261322  30.6421947  99.0324223  71.6521624
  30.6268995  97.7341213  72.4306580  20.1183330 106.2022103  80.4399567
  20.8192789 106.8358586  80.5928961  19.6478445 106.5436834  79.6795206
  28.2437726 104.5440053  68.7247474  28.5197570 104.4296647  69.6341348
  27.3742224 104.1457537  68.6859647  28.1478157  90.5676818  75.7652223
  27.2341237  90.7981045  75.9334430  28.5771259  90.6515262  76.6166255
  27.9184616  98.7566710  78.2652117  27.2656066  99.0042618  77.6104570
  28.2964996  97.9430848  77.9314594  24.8791790 108.7926403  72.3680287
  25.0614184 107.9748059  72.8308040  25.7024776 109.0094096  71.9305177
  25.2133955 107.7194589  69.6295336  25.7421722 107.2087043  69.0165498
  25.4762175 107.4037119  70.4940869  23.9672189  99.4986521  84.7518154
  23.2912826  99.3980651  85.4220529  24.7899823  99.3425735  85.2154151
  15.7151048 105.7358458  77.3730669  16.3004485 104.9902146  77.5058574
  15.5175886 106.0462415  78.2567333  18.5689703 108.7709705  72.3893112
  17.9000078 109.2555833  71.9057152  18.4302573 109.0178926  73.3036490
  10.3068703  98.3064058  76.0935113  10.3452802  97.7727649  76.8872231
   9.8008996  97.7799264  75.4746090  22.7094972 110.8053449  78.9875770
  23.2613280 110.9685070  79.7524855  23.0501165 111.3957887  78.3155795
  17.6859465  93.1528599  79.5897655  17.7500791  94.0143429  79.1775053
  17.6226585  92.5402600  78.8570013  17.1611738  95.2251731  83.2370689
  17.7883776  94.8428808  83.8508213  16.3039656  95.0065933  83.6026382
  27.5605846 105.6314706  84.8424425  28.1045750 106.2444665  84.3479379
  26.9792691 106.1894285  85.3591438  13.9377280  97.0328160  69.1689044
  14.2330721  96.1238839  69.1156098  13.0365316  97.0115900  68.8470046
  25.8463359 108.7535424  75.9739452  25.7214498 107.9525164  75.4650398
  26.5042450 109.2481618  75.4853422  17.4671527  95.1084157  75.1516593
  16.7458113  95.7220124  75.0124066  18.2564783  95.6441922  75.0733238
  27.9098267 106.5544444  77.6019002  26.9628603 106.4349796  77.5297329
  28.2581041 105.6666942  77.6845264  20.2697841  92.4438583  81.4257244
  20.7932243  92.6900880  82.1883554  20.0510174  93.2758618  81.0060382
  15.6665122  94.7142258  69.2928369  15.3377828  93.8339637  69.1103475
  16.0204493  94.6589927  70.1804758  24.9144701 106.3497161  73.8023355
  24.7669663 105.4213868  73.9830925  25.7398194 106.3717251  73.3180430
  18.7806945  95.0015228  69.6603847  19.1203018  95.5301149  68.9382455
  19.2279065  95.3395634  70.4362413  28.5178823 107.1725719  74.8888227
  29.4425370 106.9668581  74.7512678  28.3494126 106.9242120  75.7977569
  21.4750386  93.3852278  79.1106915  21.1347206  92.5860091  79.5127595
  20.7689392  93.6853989  78.5383748  22.1266858  90.4701591  77.5634238
  22.9492927  89.9962069  77.4413128  22.3704921  91.2492075  78.0632924
  20.7675092  93.4989849  67.8597140  21.4883455  93.8771102  67.3560856
  20.1440396  94.2178726  67.9632117  24.9106215  94.2034998  68.7955472
  25.1269829  95.0859636  68.4944300  24.4300282  93.8121212  68.0661114
  19.6505436  97.1620711  75.3726216  19.5050017  97.4761014  76.2650498
  19.1730640  97.7805612  74.8197115  21.5101819  94.1523259  75.4207106
  21.4963388  93.2564353  75.0839404  22.2274247  94.1593923  76.0545392
  23.3627950  94.5860600  77.4660233  23.1045728  95.5077670  77.4644564
  22.8312990  94.1891034  78.1560698  28.3074139 107.6911387  70.2450319
  28.4811016 107.1257809  69.4924171  28.8003030 108.4912282  70.0629809
  14.1251099  99.7026056  78.3113878  13.5804567 100.4785864  78.4434152
  15.0030448 100.0496860  78.1532999  20.9138715  93.0337640  70.6894676
  21.0354626  92.1054286  70.8885564  20.6240758  93.0476326  69.7772992
  23.7829906  90.7192550  73.8261396  23.8051602  90.7831883  72.8713376
  24.1997965  89.8797059  74.0201902  34.1613530 100.4547810  71.8640619
  34.6044676  99.7055135  71.4659742  33.2840040 100.4457946  71.4814351
  29.2949311 107.0078151  67.3447217  29.9900216 107.6284844  67.5634532
  29.6372461 106.1573502  67.6199595  14.9117120  98.8295952  81.2044034
  14.1698856  98.9778587  81.7908665  14.5909865  99.0904218  80.3410784
  31.1940734 104.4577857  68.8734548  31.7192058 104.7965129  68.1483868
  31.1063087 103.5224872  68.6897682  22.8560783 108.3711930  81.0024424
  23.1647910 108.1261077  81.8747124  23.6536265 108.5758569  80.5143295
  22.8781395 110.5249840  73.2329801  22.4386385 110.0326219  73.9262658
  23.6289512 109.9822808  72.9921876  15.3573734 106.7161381  73.2354429
  16.1831754 106.4165153  72.8553073  15.0067786 105.9469003  73.6844218
  20.3255267 106.0687849  75.3052103  19.7035277 105.4058554  75.0054331
  20.9960134 106.0948981  74.6225750  13.5582339 104.6347707  74.1943363
  12.7214247 104.2069882  74.0127364  13.5305985 104.8280151  75.1314154
  20.3979795  94.5469637  84.8984609  20.4467950  95.4231760  84.5162378
  20.9402309  94.0047030  84.3256252  30.8834640 105.0910760  84.1785746
  30.0930184 105.0734899  83.6390245  30.6467995 105.6299054  84.9334782
  31.0032516 101.9403227  81.4918474  31.0530520 101.7753234  82.4333997
  30.8946439 101.0730486  81.1016355  19.8868774 104.6191772  68.7810563
  20.0356895 105.3027237  68.1277236  20.6935218 104.5996862  69.2960019
  28.2936278  97.9234155  82.8077781  29.1946141  97.7840620  82.5161779
  28.3684252  98.0888610  83.7475958  22.6279083  95.3001009  81.6530967
  21.7582393  95.5934576  81.3813556  22.8638564  95.8841454  82.3738231
  32.5050712 104.3600168  81.7360496  32.2135521 104.7230149  82.5723957
  31.8922844 103.6467176  81.5573828  33.7046395 101.9253048  74.2563066
  34.5393286 102.3642852  74.4200626  33.8405523 101.4491701  73.4371312
  30.7537901  99.4832783  80.2040554  31.2292022  99.6760429  79.3959405
  29.8303466  99.5391969  79.9583938  17.6421407 100.6456950  69.7871632
  17.3967449  99.7419280  69.9851842  17.8117322 100.6474100  68.8451110
  25.3318117  91.5180626  79.1696388  25.8500061  92.2541653  78.8442876
  24.9773250  91.8244620  80.0043147  16.9117055  96.3785308  67.2857794
  16.2186300  96.4529663  66.6297830  16.6668807  95.6145651  67.8079311
  25.5830711  87.9380909  74.6897284  25.8632465  87.2704098  75.3157711
  26.3681318  88.1310005  74.1771948  23.3864180 107.1139903  66.2522311
  22.8138147 107.7330090  65.7992783  23.9596973 107.6639265  66.7862233
  29.4539570  96.3598543  78.4368859  30.4056992  96.4596641  78.4581084
  29.2843020  95.5676811  78.9466944  27.4753949  93.4454126  78.6228260
  26.8803881  93.7259139  77.9274749  27.1903646  93.9348027  79.3945002
  26.6061440 107.3977053  67.3830893  27.5392113 107.3322615  67.5863768
  26.5184652 108.2333320  66.9245426  29.2349456 106.7142923  64.3434841
  29.1563088 106.3802787  65.2370598  30.0559123 107.2064691  64.3426313
  31.9327647  99.5804663  77.5511159  31.9003967  98.6420663  77.7370843
  32.5428271  99.6588699  76.8176984  23.7710978  98.4500716  63.5938363
  24.7170083  98.3206924  63.6626781  23.3925223  97.7115377  64.0707791
  32.0822136  96.3715706  77.5969442  31.5661184  95.5874163  77.4099371
  32.9662084  96.0434423  77.7615962  29.7432863  90.1156722  73.5565255
  29.5457684  89.8071810  74.4408587  30.3532568  90.8418361  73.6863185
  37.7504197 100.6420669  76.6917196  38.4807586 100.3805958  77.2524899
  37.1411143  99.9049391  76.7319264  35.8319494  98.7828532  77.2891647
  35.1052658  98.6484497  76.6808139  35.4166781  99.0905361  78.0948365
  23.6549671 102.5018462  85.0539020  24.5752680 102.6797061  85.2479067
  23.6199254 101.5574507  84.9018719  21.9553895  96.3750692  63.5293248
  21.0485351  96.0783805  63.6055962  22.2329876  96.0780510  62.6627535
  12.8731836  97.6957055  73.9792295  12.5534620  96.8422364  73.6866669
  12.3265264  97.9105634  74.7350262  16.6511743 100.4119496  77.6961801
  16.8697753 101.3436604  77.7149835  17.0637517 100.0527471  78.4816605
  23.5715961  90.9187582  69.6837490  22.7616689  90.5734667  70.0592736
  24.2600378  90.6095125  70.2725101  25.5006509  89.9965628  71.3061786
  26.0537548  90.4161082  71.9651809  25.7376596  89.0701377  71.3484742
  21.5239609  95.9852702  87.0864550  21.4236336  96.9347059  87.0176641
  21.3061151  95.6570941  86.2140620  20.7252680  93.2337627  63.6705228
  21.5871844  93.5592525  63.9301045  20.9103024  92.4469123  63.1578293
  12.7420096 101.3159967  75.9485416  12.0483567 100.9013920  75.4355371
  13.4893087 101.3580503  75.3518835  28.8785316  92.1066154  70.8140451
  28.2983986  92.7650958  70.4318503  28.6121249  91.2843498  70.4027868
  27.3288883  91.5071211  73.0161771  27.8288661  91.6187746  72.2076090
  27.9724491  91.2032264  73.6562579  21.3870879  99.4149841  85.9029612
  20.9037960 100.2150201  86.1093501  21.4731818  99.4257786  84.9497056
  14.6556838 101.2478221  73.8251431  14.6327526 101.3465908  72.8733314
  14.9657475 102.0943371  74.1468597  17.3144216 103.3054376  77.9398046
  18.2687470 103.2738318  77.8727977  17.1156740 102.8444999  78.7548272
  17.9043598 101.8755492  80.5068843  18.7236487 102.3699570  80.5303681
  18.1780406 100.9587460  80.4786411  27.6610194  94.2666244  69.8696799
  26.7736050  94.5515895  69.6516994  28.0764184  94.1060007  69.0224076
  31.0124731  94.2912765  73.5851138  31.7885121  94.7809217  73.8575755
  30.2872865  94.7170819  74.0423008  33.4497289  95.0040384  74.6425079
  34.0441780  94.7636120  73.9318387  33.5223873  94.2847515  75.2698615
  15.6694445 108.8473995  74.9568244  15.5348913 108.0874396  74.3906242
  15.2526507 109.5714895  74.4897032  26.8053408 104.0310919  63.9644819
  27.5089258 104.2360921  64.5802474  26.0816057 104.5987681  64.2293902
  27.6351218  99.7820780  70.0847089  27.5786420 100.2389331  69.2454721
  28.1879561  99.0211465  69.9069932  31.4456024  95.5710512  70.9097209
  31.1892958  95.1707147  71.7405416  30.8208892  96.2854306  70.7847348
  35.7568362  98.3106585  73.4168500  35.1967920  98.3799774  74.1900062
  35.1511865  98.1347570  72.6967996  18.8263571 109.7443312  75.1686686
  18.7095955 110.6888745  75.0665376  18.0056017 109.4416874  75.5572485
  28.7140105 104.4693448  66.0143279  29.5485709 104.0374646  65.8320754
  28.5524448 104.2975462  66.9420173  28.3685998 100.9725561  67.3799618
  28.3134801 100.8069833  66.4388062  27.7432053 101.6801594  67.5361808
  13.1578513  96.2093626  81.2061040  13.8037376  95.6992580  81.6948266
  12.9495664  96.9462307  81.7804466  25.6831905 103.2774473  86.7053181
  26.5523064 103.4515125  86.3439816  25.2038656 104.0968890  86.5828910
  21.6782123  90.4733670  66.9584937  21.6660793  91.4175510  67.1153207
  22.5705545  90.2903816  66.6644398  19.8518085 110.3971574  78.3842615
  20.7545332 110.4295184  78.7009110  19.6255455 109.4672025  78.3988950
  21.6071687 109.1502561  75.0452693  20.6567318 109.1504422  74.9317066
  21.9104173 108.4035295  74.5288728  25.4934242  87.0676447  71.2130873
  24.7266638  86.5134934  71.3587556  25.9044947  87.1398316  72.0745025
  17.4976004  93.3561243  85.3036055  18.3607465  92.9998048  85.5139379
  16.9241414  93.0175137  85.9911459  37.3424380 114.9863099  76.1098456
  37.9802790 114.8669846  75.4061796  37.2245223 115.9343943  76.1686408
  34.1514087 114.9390527  76.0459980  33.8132598 114.8231592  75.1580515
  35.0203855 114.5381692  76.0260986  34.6333870 116.0925379  82.0046186
  34.6222510 115.6978177  81.1326690  34.7954509 115.3591451  82.5979957
  31.8522366 113.7078774  65.3776920  32.1047887 113.1860296  64.6160383
  30.9146925 113.5444920  65.4803604  36.8965649 112.7114553  73.1851664
  37.6828738 112.2933976  72.8342081  37.1604353 113.6160645  73.3533312
  42.2974076 112.6489786  74.0884642  43.0299248 112.0789003  74.3222472
  41.5413432 112.2611386  74.5291148  33.9150196 115.0717028  71.2847985
  33.5508403 114.5447649  71.9960906  34.7717312 114.6815497  71.1114470
  39.8199496 106.3611360  78.5479251  39.4882821 107.2306771  78.3240466
  39.2245110 106.0447644  79.2273281  33.5555683 110.1006927  66.2809333
  33.7230085 110.9687164  66.6479804  33.3652852 110.2634209  65.3570622
  39.7128160 111.0806446  75.6272601  38.8045037 111.0121855  75.3331362
  39.6615756 111.5578391  76.4554426  33.5344904 112.5564585  67.2656000
  33.4144529 113.0021636  68.1041480  32.8397492 112.9049902  66.7069538
  33.7869026 112.4996092  83.5707498  33.0102360 113.0590012  83.5610363
  34.4259589 112.9852875  84.0922368  41.5789806 109.2822885  77.4050475
  40.9364186 109.5755418  76.7590269  41.0744735 109.1675805  78.2103671
  39.2329970 113.0286058  68.0936334  40.1447826 113.2613445  67.9184032
  38.7239617 113.6123102  67.5311413  37.5170737 117.4510686  81.7297627
  37.9254094 117.0093096  80.9852259  36.7947999 116.8763313  81.9831820
  33.8701808 112.3883293  79.1031184  34.7163003 112.8122706  79.2465833
  33.8100445 111.7316917  79.7969747  37.0201253 110.0487661  80.7612357
  36.7762185 110.8029721  80.2246633  37.2961183 110.4273008  81.5959604
  38.9739716 116.5926273  79.4389623  39.1856611 117.2358033  78.7624004
  38.9269464 115.7588590  78.9711553  36.5765945 109.2044094  76.3426195
  35.7150424 109.5025347  76.6342932  36.6028379 109.4214493  75.4107228
  32.3296400 113.8709437  69.5589566  33.0320443 114.3230480  70.0263492
  31.9977029 113.2293256  70.1869459  30.7776762 112.4621193  83.9340775
  30.1475422 113.1437474  84.1676172  30.6712849 112.3504275  82.9893913
  26.0721734 112.1292989  74.8606699  25.2820788 112.3850518  74.3846810
  26.5632981 112.9441327  74.9658740  28.0236479 112.4937569  71.8190176
  27.2267643 112.6056263  72.3373672  27.7962072 112.8324221  70.9531067
  48.1791537 115.8136977  73.9596952  47.4255245 115.2444375  73.8040956
  48.3139078 115.7799642  74.9067586  30.0557504 106.7641959  86.2966026
  29.6624450 106.2108158  86.9713670  30.8723645 107.0752538  86.6872544
  32.9725465 108.1799838  83.8886283  33.7135179 108.7806992  83.8090745
  33.2043388 107.4377476  83.3304325  28.1166803 113.3656206  82.1664512
  28.0020318 112.4641463  82.4671611  27.2611321 113.6119902  81.8149329
  36.9182628 104.2080941  78.1650564  36.5746898 105.0982583  78.0889675
  37.2861591 104.0182599  77.3020149  36.8832911 114.1989552  66.6723000
  36.3679534 114.9694157  66.9111387  36.6110219 113.5254689  67.2956061
  34.4680022 109.0439253  71.7308238  33.6121618 108.6546104  71.5513877
  34.8806974 109.1231214  70.8708023  35.9979169 106.5785596  76.1299798
  35.4943964 106.5415732  75.3167603  36.2909775 107.4878339  76.1896454
  32.2422055 106.6624326  75.1365979  33.1075051 106.4667135  74.7771869
  32.3099563 106.4334678  76.0635336  41.8567185 116.9521907  68.6076173
  41.0796628 116.6133067  68.1631335  42.5358666 116.9574530  67.9331138
  36.6719214 112.0716645  68.4982781  36.3669350 112.3862794  69.3492924
  37.6249656 112.1498064  68.5410114  40.0958492 116.4255888  75.2642781
  39.4382166 117.1155150  75.3522910  40.8998891 116.8152320  75.6076767
  29.8484374 108.8926534  72.5082346  30.4228125 108.6701716  71.7755539
  30.4355356 108.9615229  73.2610948  38.9063951 114.7800261  73.3146723
  39.4195833 115.4130253  73.8168432  39.5565175 114.1801457  72.9490083
  30.1753961 110.9230995  66.5278231  29.3391273 111.2605682  66.8487506
  30.0358730 110.7879975  65.5905368  32.1507041 105.7667783  71.2357416
  31.4971454 105.4516800  70.6114030  32.1087515 105.1443524  71.9617239
  33.2618246 116.0487078  63.1510708  32.3545308 115.8176332  63.3501857
  33.7589278 115.2524697  63.3384689  35.3844782 112.2549717  75.5605063
  34.4667343 112.4764664  75.4026751  35.8004925 112.3296027  74.7016771
  36.1679829 113.6541132  70.6907744  36.9151648 114.1662529  70.3814866
  36.4371419 113.3325185  71.5512137  34.4406480 116.1499673  67.6734698
  33.5317699 115.8658706  67.7707168  34.4701563 116.5698752  66.8138005
  38.6158667 110.6898249  72.6726533  37.8781423 110.1775635  73.0036775
  38.8685440 110.2498630  71.8609810  38.7170294 103.4674501  73.2668302
  39.0229171 102.6071864  72.9794217  39.4422899 104.0592121  73.0667296
  32.9891374 113.7628294  73.7744493  33.0439983 112.8102130  73.6986970
  32.1782576 113.9187733  74.2585792  30.9283734 112.3805353  71.5334872
  30.1151599 112.6799524  71.9400064  31.4242728 111.9861042  72.2509354
  36.5257945 112.8447178  80.3649766  36.8807333 113.0718651  81.2244232
  37.1730076 113.1765555  79.7427021  42.2555682 115.9665614  71.0699095
  42.1173581 116.1567210  70.1420284  41.8991901 116.7284997  71.5267146
  30.4197808 109.9523709  77.1496107  31.0597188 109.8112468  76.4519070
  29.5875339 109.6658222  76.7734709  42.2825062 118.0342141  76.0810366
  42.7161568 117.9417430  76.9293420  42.9956642 118.0099641  75.4430382
  27.5040876 113.3969221  69.3390852  26.5738464 113.3353677  69.5560814
  27.5998348 112.8745174  68.5427493  27.4226425 109.9224034  71.9269094
  27.6833242 110.8369367  71.8178254  28.2443597 109.4548476  72.0765707
  28.8951350 111.3361791  79.0967918  29.5674403 111.1279153  78.4480567
  28.0681137 111.1383877  78.6573151  43.1440611 118.0765841  78.6143252
  43.3376501 118.9811652  78.8602527  43.0441230 117.6173260  79.4481837
  34.7976922 107.9623732  81.1133579  34.1504837 108.6613682  81.0198056
  35.5677937 108.3959876  81.4809827  34.9741056 115.8004497  79.1730399
  35.9033116 115.9515656  78.9999366  34.5532086 115.8888518  78.3179045
  29.2978847 114.6104394  79.8570355  29.1598645 113.8784633  80.4581895
  30.2083771 114.5213294  79.5754543  38.2593795 116.5492798  64.6054834
  37.6422966 115.8239626  64.5087887  37.7910283 117.3102159  64.2621908
  31.9261148 114.3224353  79.3454035  32.6360767 113.6817546  79.3040654
  31.8830456 114.5737248  80.2680216  30.6390082 111.3089571  81.1649675
  30.1027439 110.8580310  81.8171271  30.0506790 111.4435480  80.4220139
  30.0492341 110.7678223  63.7276138  29.1721807 110.6467023  63.3638385
  30.5250094 109.9764301  63.4755027  26.3729203 110.4445579  78.2502669
  26.2887392 109.8371248  77.5153079  25.5511910 110.9354597  78.2512165
  36.5452917 108.9299142  73.6172864  37.0421617 108.1769105  73.2973934
  35.7739899 108.9663459  73.0516073  44.3982674 114.6339508  75.2591156
  44.3872551 115.5164223  74.8885089  43.5300054 114.2811059  75.0645693
  33.1287886 111.0716525  73.3444549  32.7585673 110.5187566  74.0325454
  33.6246978 110.4674659  72.7919549  41.0155249 113.5288149  71.7261322
  41.4815701 114.3616141  71.6521624  41.4662750 113.0633131  72.4306580
  38.9871912 105.8968736  75.7652223  38.0734992 106.1272963  75.9334430
  39.4165013 105.9807180  76.6166255  38.7578370 114.0858628  78.2652117
  38.1049821 114.3334535  77.6104570  39.1358750 113.2722766  77.9314594
  34.8065943 114.8278439  84.7518154  34.1306580 114.7272568  85.4220529
  35.6293577 114.6717653  85.2154151  28.5253219 108.4820516  79.5897655
  28.5894546 109.3435347  79.1775053  28.4620340 107.8694518  78.8570013
  28.0005492 110.5543649  83.2370689  28.6277531 110.1720726  83.8508213
  27.1433411 110.3357851  83.6026382  24.7771035 112.3620078  69.1689044
  25.0724476 111.4530756  69.1156098  23.8759071 112.3407817  68.8470046
  28.3065282 110.4376074  75.1516593  27.5851868 111.0512042  75.0124066
  29.0958538 110.9733839  75.0733238  31.1091595 107.7730501  81.4257244
  31.6325997 108.0192797  82.1883554  30.8903929 108.6050536  81.0060382
  26.5058876 110.0434176  69.2928369  26.1771583 109.1631554  69.1103475
  26.8598247 109.9881844  70.1804758  29.6200700 110.3307145  69.6603847
  29.9596772 110.8593067  68.9382455  30.0672820 110.6687551  70.4362413
  32.3144140 108.7144196  79.1106915  31.9740961 107.9152009  79.5127595
  31.6083147 109.0145907  78.5383748  32.9660612 105.7993508  77.5634238
  33.7886681 105.3253987  77.4413128  33.2098676 106.5783992  78.0632924
  31.6068847 108.8281767  67.8597140  32.3277209 109.2063020  67.3560856
  30.9834151 109.5470644  67.9632117  35.7499970 109.5326916  68.7955472
  35.9663584 110.4151554  68.4944300  35.2694037 109.1413129  68.0661114
  30.4899191 112.4912629  75.3726216  30.3443772 112.8052932  76.2650498
  30.0124395 113.1097529  74.8197115  32.3495574 109.4815177  75.4207106
  32.3357143 108.5856270  75.0839404  33.0668002 109.4885841  76.0545392
  34.2021705 109.9152517  77.4660233  33.9439482 110.8369588  77.4644564
  33.6706745 109.5182952  78.1560698  31.7532470 108.3629557  70.6894676
  31.8748381 107.4346204  70.8885564  31.4634512 108.3768243  69.7772992
  34.6223660 106.0484468  73.8261396  34.6445357 106.1123801  72.8713376
  35.0391719 105.2088976  74.0201902  45.0007284 115.7839727  71.8640619
  45.4438430 115.0347053  71.4659742  44.1233795 115.7749864  71.4814351
  31.2373549 109.8761555  84.8984609  31.2861705 110.7523678  84.5162378
  31.7796063 109.3338948  84.3256252  41.8426270 117.2695144  81.4918474
  41.8924275 117.1045152  82.4333997  41.7340193 116.4022403  81.1016355
  39.1330032 113.2526072  82.8077781  40.0339895 113.1132537  82.5161779
  39.2078007 113.4180527  83.7475958  33.4672838 110.6292927  81.6530967
  32.5976147 110.9226493  81.3813556  33.7032318 111.2133372  82.3738231
  44.5440149 117.2544966  74.2563066  45.3787041 117.6934770  74.4200626
  44.6799278 116.7783619  73.4371312  41.5931655 114.8124700  80.2040554
  42.0685777 115.0052347  79.3959405  40.6697220 114.8683886  79.9583938
  36.1711872 106.8472544  79.1696388  36.6893815 107.5833571  78.8442876
  35.8167004 107.1536537  80.0043147  27.7510809 111.7077225  67.2857794
  27.0580054 111.7821580  66.6297830  27.5062561 110.9437569  67.8079311
  36.4224466 103.2672827  74.6897284  36.7026219 102.5996016  75.3157711
  37.2075073 103.4601922  74.1771948  40.2933324 111.6890461  78.4368859
  41.2450747 111.7888558  78.4581084  40.1236774 110.8968729  78.9466944
  38.3147704 108.7746044  78.6228260  37.7197636 109.0551057  77.9274749
  38.0297400 109.2639945  79.3945002  42.7721402 114.9096580  77.5511159
  42.7397722 113.9712581  77.7370843  43.3822026 114.9880617  76.8176984
  34.6104733 113.7792633  63.5938363  35.5563837 113.6498841  63.6626781
  34.2318978 113.0407295  64.0707791  42.9215890 111.7007624  77.5969442
  42.4054939 110.9166080  77.4099371  43.8055839 111.3726340  77.7615962
  40.5826617 105.4448639  73.5565255  40.3851438 105.1363727  74.4408587
  41.1926323 106.1710278  73.6863185  48.5897952 115.9712587  76.6917196
  49.3201340 115.7097875  77.2524899  47.9804897 115.2341309  76.7319264
  46.6713249 114.1120450  77.2891647  45.9446412 113.9776415  76.6808139
  46.2560536 114.4197278  78.0948365  32.7947650 111.7042610  63.5293248
  31.8879105 111.4075722  63.6055962  33.0723631 111.4072428  62.6627535
  34.4109716 106.2479499  69.6837490  33.6010444 105.9026584  70.0592736
  35.0994133 105.9387043  70.2725101  36.3400264 105.3257546  71.3061786
  36.8931302 105.7453000  71.9651809  36.5770350 104.3993294  71.3484742
  32.3633363 111.3144620  87.0864550  32.2630090 112.2638977  87.0176641
  32.1454905 110.9862859  86.2140620  31.5646434 108.5629545  63.6705228
  32.4265598 108.8884443  63.9301045  31.7496779 107.7761041  63.1578293
  39.7179071 107.4358071  70.8140451  39.1377740 108.0942875  70.4318503
  39.4515004 106.6135416  70.4027868  38.1682637 106.8363129  73.0161771
  38.6682416 106.9479664  72.2076090  38.8118245 106.5324182  73.6562579
  32.2264633 114.7441759  85.9029612  31.7431715 115.5442119  86.1093501
  32.3125572 114.7549704  84.9497056  38.5003949 109.5958162  69.8696799
  37.6129804 109.8807812  69.6516994  38.9157938 109.4351925  69.0224076
  41.8518485 109.6204683  73.5851138  42.6278875 110.1101135  73.8575755
  41.1266619 110.0462737  74.0423008  44.2891044 110.3332302  74.6425079
  44.8835535 110.0928038  73.9318387  44.3617627 109.6139432  75.2698615
  38.4744973 115.1112698  70.0847089  38.4180174 115.5681249  69.2454721
  39.0273315 114.3503382  69.9069932  42.2849779 110.9002429  70.9097209
  42.0286713 110.4999065  71.7405416  41.6602647 111.6146223  70.7847348
  46.5962116 113.6398503  73.4168500  46.0361674 113.7091692  74.1900062
  45.9905620 113.4639487  72.6967996  39.2079752 116.3017479  67.3799618
  39.1528556 116.1361750  66.4388062  38.5825807 117.0093512  67.5361808
  23.9972267 111.5385543  81.2061040  24.6431131 111.0284497  81.6948266
  23.7889418 112.2754225  81.7804466  32.5175878 105.8025588  66.9584937
  32.5054547 106.7467428  67.1153207  33.4099299 105.6195733  66.6644398
  36.3327997 102.3968365  71.2130873  35.5660393 101.8426851  71.3587556
  36.7438702 102.4690233  72.0745025  28.3369758 108.6853160  85.3036055
  29.2001220 108.3289965  85.5139379  27.7635169 108.3467055  85.9911459
  47.7576383 119.5372859  78.1650564  47.4140652 120.4274501  78.0889675
  48.1255345 119.3474517  77.3020149  49.5564048 118.7966418  73.2668302
  49.8622925 117.9363782  72.9794217  50.2816653 119.3884038  73.0667296
  49.8265666 121.2260654  75.7652223  48.9128746 121.4564880  75.9334430
  50.2558768 121.3099098  76.6166255  47.2618220 118.5964744  74.6897284
  47.5419974 117.9287933  75.3157711  48.0468827 118.7893840  74.1771948
  51.4220372 120.7740557  73.5565255  51.2245193 120.4655645  74.4408587
  52.0320077 121.5002196  73.6863185  47.1794018 120.6549464  71.3061786
  47.7325057 121.0744917  71.9651809  47.4164105 119.7285212  71.3484742
  47.1721751 117.7260282  71.2130873  46.4054147 117.1718769  71.3587556
  47.5832456 117.7982151  72.0745025   4.8216520  31.5031429  60.6842258
   4.0680228  30.9338827  60.5286263   4.9564061  31.4694094  61.6312893
   1.6432268  31.4734179  58.5885925   2.0863414  30.7241504  58.1905048
   0.7658778  31.4644316  58.2059657   1.1865132  32.9439418  60.9808373
   2.0212024  33.3829222  61.1445933   1.3224261  32.4678071  60.1616619
   5.2322935  31.6607039  63.4162503   5.9626323  31.3992327  63.9770206
   4.6229880  30.9235761  63.4564571   3.3138232  29.8014902  64.0136954
   2.5871396  29.6670867  63.4053445   2.8985519  30.1091730  64.8193672
   0.9316027  26.0226754  61.3670385   1.5260518  25.7822490  60.6563694
   1.0042611  25.3033884  61.9943922   3.2387100  29.3292955  60.1413807
   2.6786658  29.3986144  60.9145369   2.6330603  29.1533939  59.4213303
   4.8243118  46.0049469  62.8343762   5.4621528  45.8856216  62.1307102
   4.7063961  46.9530313  62.8931714   1.6332825  45.9576897  62.7705287
   1.2951336  45.8417961  61.8825822   2.5022593  45.5568062  62.7506293
   2.1152608  47.1111748  68.7291492   2.1041248  46.7164547  67.8571996
   2.2773247  46.3777821  69.3225264   3.0719199  51.4783341  54.0716643
   2.4207179  52.0637421  53.6850657   3.8663562  52.0089536  54.1311680
   4.3784387  43.7300922  59.9096970   5.1647476  43.3120346  59.5587387
   4.6423091  44.6347015  60.0778619   4.5494464  49.1673773  54.6085627
   3.9140297  49.2408399  55.3206532   4.2191870  49.7567372  53.9304706
   9.7792814  43.6676156  60.8129949  10.5117986  43.0975372  61.0467778
   9.0232170  43.2797756  61.2536454   1.3968934  46.0903397  58.0093291
   1.0327141  45.5634018  58.7206213   2.2536049  45.7001866  57.8359777
   7.3018234  37.3797730  65.2724557   6.9701559  38.2493141  65.0485772
   6.7063848  37.0634014  65.9518588   1.0374421  41.1193297  53.0054640
   1.2048823  41.9873533  53.3725111   0.8471590  41.2820579  52.0815929
   3.7949754  49.5810276  64.6720470   3.4950477  50.4835315  64.5636277
   3.4500813  49.3142459  65.5241623   7.1946898  42.0992816  62.3517907
   6.2863775  42.0308224  62.0576668   7.1434493  42.5764761  63.1799733
   1.2687763  43.5182461  70.2952805   0.4921097  44.0776382  70.2855669
   1.9078326  44.0039244  70.8167675   9.0608544  40.3009254  64.1295781
   8.4182924  40.5941787  63.4835576   8.5563472  40.1862175  64.9348978
   6.7148708  44.0472427  54.8181641   7.6266564  44.2799814  54.6429338
   6.2058355  44.6309472  54.2556719   4.9989475  48.4697055  68.4542933
   5.4072831  48.0279466  67.7097566   4.2766737  47.8949683  68.7077126
   1.3520545  43.4069662  65.8276490   2.1981741  43.8309076  65.9711139
   1.2919183  42.7503286  66.5215053   5.3218290  49.0298246  62.2095222
   4.6927152  49.1943960  61.5071290   4.9343952  49.4439855  62.9806186
   9.2007522  49.9652684  59.5639586   8.5158560  50.3451585  59.0136619
   9.2851371  50.5748010  60.2971534   4.5019991  41.0674030  67.4857664
   4.2580923  41.8216091  66.9491940   4.7779921  41.4459378  68.3204911
   6.4558453  47.6112643  66.1634929   6.6675349  48.2544403  65.4869310
   6.4088202  46.7774959  65.6956859   4.0584682  40.2230463  63.0671502
   3.1969161  40.5211717  63.3588239   4.0847117  40.4400862  62.1352534
   0.8746252  48.7672654  59.4745307   1.3384597  49.0460357  58.6849930
   0.6103050  47.8656099  59.2918398   7.5704281  50.4884598  64.3357287
   8.3921725  50.0864786  64.0539968   7.5666684  50.3852832  65.2873403
   1.3360885  50.0368642  66.4917997   1.4005317  50.4989049  67.3276169
   0.6271809  49.4066006  66.6200307  15.6610274  46.8323347  60.6842258
  14.9073983  46.2630745  60.5286263  15.7957816  46.7986011  61.6312893
   1.0508902  51.7036749  56.3596978   0.9154577  52.5488285  56.7881825
   1.5918715  51.9056027  55.5962911   2.6777379  52.3260316  70.4897320
   2.2341233  51.5396694  70.1718224   3.3394592  52.5139466  69.8241210
   4.7758617  52.6063115  68.5178721   4.7577092  53.4271997  68.0258990
   5.6978537  52.4817191  68.7428862   1.2331671  50.1207245  69.3602229
   1.7660008  49.3595533  69.1301537   0.7045752  49.8280897  70.1026384
   4.4001366  35.2267311  64.8895871   4.0565635  36.1168953  64.8134982
   4.7680329  35.0368969  64.0265456   4.3651649  45.2175922  53.3968306
   3.8498272  45.9880527  53.6356694   4.0928957  44.5441058  54.0201368
   1.9498760  40.0625623  58.4553545   1.0940356  39.6732473  58.2759183
   2.3625712  40.1417584  57.5953330   3.4797906  37.5971966  62.8545104
   2.9762702  37.5602101  62.0412910   3.7728513  38.5064709  62.9141761
   9.3385923  47.9708277  55.3321480   8.5615366  47.6319436  54.8876642
  10.0177404  47.9760900  54.6576445   4.1537952  43.0903014  55.2228087
   3.8488087  43.4049163  56.0738231   5.1068394  43.1684434  55.2655420
   2.5984384  49.2493237  56.8721041   2.0705745  48.5145997  56.5594279
   2.0971886  50.0267914  56.6261010   7.5777230  47.4442258  61.9888088
   6.9200904  48.1341519  62.0768216   8.3817629  47.8338690  62.3322074
   6.3882689  45.7986631  60.0392029   6.9014570  46.4316622  60.5413739
   7.0383912  45.1987826  59.6735389   3.6505063  55.7770955  52.7952701
   2.9766762  56.0802652  53.4037658   4.0370885  56.5800035  52.4458158
   2.8663519  43.2736086  62.2850370   1.9486081  43.4951033  62.1272058
   3.2823663  43.3482397  61.4262077   3.6498567  44.6727502  57.4153050
   4.3970386  45.1848899  57.1060172   3.9190157  44.3511555  58.2757444
   1.9225217  47.1686043  54.3980004   1.0136437  46.8845075  54.4952474
   1.9520301  47.5885121  53.5383311   7.1544485  50.7792632  58.1671172
   6.7006812  49.9383542  58.2236362   6.5238452  51.4154030  58.5045952
   6.0977404  41.7084618  59.3971839   5.3600161  41.1962004  59.7282082
   6.3504178  41.2685000  58.5855116   5.5977424  52.6169129  59.1020990
   5.8900398  53.1774186  58.3833356   6.1076045  52.9097690  59.8574149
   6.1989032  34.4860870  59.9913609   6.5047908  33.6258234  59.7039524
   6.9241636  35.0778490  59.7912603   1.6201305  48.7094786  51.7368083
   1.1820735  47.9930645  51.2773720   2.3611746  48.9370901  51.1753174
   0.5611049  53.3949480  60.1914443   0.5187228  53.6210326  59.2622975
   1.4773748  53.1612854  60.3400245   4.0076683  43.8633547  67.0895073
   4.3626071  44.0905021  67.9489538   4.6548814  44.1951924  66.4672328
   9.7374420  46.9851983  57.7944402   9.5992319  47.1753579  56.8665591
   9.3810639  47.7471366  58.2512453   9.7643800  49.0528510  62.8055673
  10.1980306  48.9603799  63.6538727  10.4775380  49.0286011  62.1675689
   3.4971694  52.6530604  64.3388774   3.5508717  53.2221541  65.1066490
   2.6286476  52.8232489  63.9742811  10.6259349  49.0952211  65.3388558
  10.8195239  49.9998021  65.5847833  10.5259967  48.6359630  66.1727144
   2.2795660  38.9810102  67.8378886   1.6323575  39.6800051  67.7443362
   3.0496675  39.4146245  68.2055134   5.6874458  49.2458954  70.9129439
   5.5359964  49.0169505  69.9959523   5.6779137  50.2029555  70.9260784
   2.4559794  46.8190866  65.8975706   3.3851854  46.9702026  65.7244673
   2.0350824  46.9074887  65.0424352   1.8496278  55.9450627  55.0099780
   2.0248034  55.4738670  55.8245402   1.1629066  56.5716393  55.2381040
   2.8053341  50.2223134  61.0563081   2.4703174  50.1823903  61.9520731
   2.3057287  49.5567849  60.5833491   5.7412533  47.5679168  51.3300141
   5.1241703  46.8425996  51.2333193   5.2729021  48.3288528  50.9867215
   7.3966664  52.2778076  68.9905921   7.3379211  51.5937296  68.3236504
   7.7986183  53.0197066  68.5386547   7.3984072  50.2417660  67.2219901
   6.5110850  49.9043582  67.3446300   7.9682623  49.5100691  67.4588666
   0.9285225  54.9019113  64.1881144   0.8555397  55.7074084  64.7000448
   0.4862618  55.1011078  63.3629165   4.0271655  39.9485512  60.3418171
   4.5240354  39.1955474  60.0219241   3.2558636  39.9849829  59.7761380
  11.8801412  45.6525878  61.9836462  11.8691289  46.5350593  61.6130395
  11.0118792  45.2997428  61.7890999   3.3883909  54.8005947  66.3439303
   4.1011881  55.4353411  66.2715204   2.8973937  54.8969813  65.5279304
   5.1101436  48.7057199  57.9156594   4.1757714  48.8258662  57.7461299
   5.2878104  47.8029666  57.6516604   8.4973987  44.5474518  58.4506628
   8.9634439  45.3802510  58.3766931   8.9481487  44.0819500  59.1551887
   6.5650218  50.8918340  55.4492780   6.8410062  50.7774934  56.3586654
   5.6954717  50.4935825  55.4104953   6.4690650  36.9155105  62.4897530
   5.5553729  37.1459332  62.6579737   6.8983751  36.9993550  63.3411562
   6.2397108  45.1044997  64.9897424   5.5868558  45.3520905  64.3349876
   6.6177488  44.2909136  64.6559901   3.2004282  55.1404691  59.0925594
   3.3826677  54.3226347  59.5553346   4.0237268  55.3572383  58.6550484
   3.5346448  54.0672876  56.3540642   4.0634214  53.5565330  55.7410805
   3.7974667  53.7515406  57.2186175   2.2884681  45.8464809  71.4763461
   1.6125318  45.7458938  72.1465836   3.1112315  45.6904022  71.9399458
   1.0307464  57.1531736  65.7121077   1.5825772  57.3163357  66.4770162
   1.3713658  57.7436174  65.0401102   5.8818338  51.9792993  71.5669731
   6.4258242  52.5922952  71.0724686   5.3005183  52.5372572  72.0836744
   4.1675851  55.1013711  62.6984759   4.0426991  54.3003451  62.1895704
   4.8254942  55.5959905  62.2098729   6.2310760  52.9022732  64.3264309
   5.2841095  52.7828083  64.2542636   6.5793533  52.0145230  64.4090570
   3.2357193  52.6975448  60.5268661   3.0882155  51.7692155  60.7076231
   4.0610687  52.7195538  60.0425736   6.8391315  53.5204007  61.6133534
   7.7637862  53.3146868  61.4757985   6.6706618  53.2720408  62.5222875
   3.2318707  40.5513285  55.5200778   3.4482322  41.4337923  55.2189607
   2.7512774  40.1599499  54.7906420   1.6840442  40.9338887  64.1905540
   1.4258220  41.8555957  64.1889870   1.1525483  40.5369321  64.8806004
   6.6286631  54.0389674  56.9695625   6.8023509  53.4736096  56.2169478
   7.1215522  54.8390569  56.7875115   2.1042398  37.0670837  60.5506703
   2.1264095  37.1310170  59.5958682   2.5210457  36.2275346  60.7447209
  12.4826022  46.8026097  58.5885925  12.9257168  46.0533422  58.1905048
  11.6052533  46.7936233  58.2059657   7.6161804  53.3556438  54.0692524
   8.3112708  53.9763131  54.2879838   7.9584954  52.5051790  54.3444902
   9.5153227  50.8056144  55.5979854  10.0404551  51.1443417  54.8729175
   9.4275579  49.8703159  55.4142989   1.1773275  54.7190218  67.7269731
   1.4860402  54.4739364  68.5992431   1.9748757  54.9236856  67.2388601
   1.1993887  56.8728127  59.9575108   0.7598878  56.3804506  60.6507964
   1.9502004  56.3301095  59.7167183   9.2047133  51.4389048  70.9031052
   8.4142676  51.4213186  70.3635552   8.9680487  51.9777341  71.6580089
   9.3245008  48.2881514  68.2163781   9.3743013  48.1231521  69.1579304
   9.2158931  47.4208773  67.8261662   6.6148770  44.2712442  69.5323088
   7.5158633  44.1318907  69.2407085   6.6896745  44.4366897  70.4721265
  10.8263205  50.7078455  68.4605803  10.5348013  51.0708436  69.2969263
  10.2135336  49.9945464  68.2819135  12.0258887  48.2731335  60.9808373
  12.8605778  48.7121139  61.1445933  12.1618016  47.7969988  60.1616619
   9.0750393  45.8311070  66.9285861   9.5504514  46.0238716  66.1204712
   8.1515958  45.8870256  66.6829244   3.6530609  37.8658914  65.8941694
   4.1712553  38.6019941  65.5688183   3.2985742  38.1722907  66.7288454
   3.9043203  34.2859196  61.4142591   4.1844957  33.6182385  62.0403018
   4.6893810  34.4788292  60.9017255   1.7076672  53.4618190  52.9767617
   1.1350639  54.0808377  52.5238089   2.2809466  54.0117552  53.5107539
   7.7752062  42.7076830  65.1614166   8.7269485  42.8074928  65.1826390
   7.6055512  41.9155099  65.6712250   5.7966441  39.7932413  65.3473567
   5.2016373  40.0737426  64.6520056   5.5116138  40.2826314  66.1190308
   4.9273932  53.7455340  54.1076200   5.8604605  53.6800902  54.3109075
   4.8397145  54.5811607  53.6490732   7.5561948  53.0621211  51.0680147
   7.4775580  52.7281074  51.9615905   8.3771615  53.5542978  51.0671619
  10.2540140  45.9282950  64.2756466  10.2216460  44.9898951  64.4616150
  10.8640763  46.0066987  63.5422291   2.0923470  44.7979003  50.3183670
   3.0382575  44.6685211  50.3872088   1.7137715  44.0593665  50.7953098
  10.4034628  42.7193993  64.3214749   9.8873677  41.9352450  64.1344678
  11.2874577  42.3912710  64.4861268   8.0645355  36.4635009  60.2810562
   7.8670176  36.1550097  61.1653894   8.6745061  37.1896648  60.4108491
  16.0716689  46.9898957  63.4162503  16.8020078  46.7284245  63.9770206
  15.4623635  46.2527679  63.4564571  14.1531987  45.1306819  64.0136954
  13.4265150  44.9962784  63.4053445  13.7379273  45.4383648  64.8193672
   1.9762163  48.8496749  71.7784327   2.8965172  49.0275348  71.9724373
   1.9411746  47.9052794  71.6264026   1.8928453  37.2665869  56.4082796
   1.0829182  36.9212954  56.7838042   2.5812870  36.9573413  56.9970408
   3.8219002  36.3443916  58.0307093   4.3750040  36.7639369  58.6897116
   4.0589088  35.4179664  58.0730049   7.1997809  38.4544441  57.5385757
   6.6196478  39.1129245  57.1563810   6.9333741  37.6321785  57.1273175
   5.6501375  37.8549499  59.7407078   6.1501153  37.9666033  58.9321396
   6.2936983  37.5510551  60.3807886   5.9822687  40.6144531  56.5942105
   5.0948542  40.8994182  56.3762300   6.3976676  40.4538295  55.7469382
   9.3337223  40.6391052  60.3096445  10.1097613  41.1287505  60.5821062
   8.6085357  41.0649106  60.7668314  11.7709782  41.3518671  61.3670385
  12.3654272  41.1114407  60.6563694  11.8436365  40.6325802  61.9943922
   5.1265900  50.3789206  50.6890125   5.8301750  50.5839208  51.3047781
   4.4028549  50.9465968  50.9539209   5.9563711  46.1299067  56.8092396
   5.8998912  46.5867619  55.9700028   6.5092053  45.3689752  56.6315238
   9.7668516  41.9188799  57.6342515   9.5105451  41.5185435  58.4650723
   9.1421384  42.6332593  57.5092654  14.0780854  44.6584872  60.1413807
  13.5180412  44.7278062  60.9145369  13.4724358  44.4825857  59.4213303
   7.0352598  50.8171735  52.7388586   7.8698202  50.3852934  52.5566060
   6.8736941  50.6453749  53.6665480   6.6898490  47.3203848  54.1044925
   6.6347294  47.1548120  53.1633369   6.0644545  48.0279881  54.2607115
   4.0044397  49.6252760  73.4298488   4.8735557  49.7993413  73.0685123
   3.5251148  50.4447177  73.3074217   3.8146735  33.4154734  57.9376180
   3.0479131  32.8613221  58.0832862   4.2257440  33.4876603  58.7990332
  15.6636873  61.3341386  62.8343762  16.3015283  61.2148134  62.1307102
  15.5457716  62.2822230  62.8931714  12.4726579  61.2868814  62.7705287
  12.1345091  61.1709879  61.8825822  13.3416347  60.8859979  62.7506293
   8.3313395  63.1404291  58.7602178   7.7678260  63.0494228  57.9918466
   8.2165790  62.3204195  59.2404670  12.9546362  62.4403666  68.7291492
  12.9435003  62.0456464  67.8571996  13.1167001  61.7069739  69.3225264
   5.8777827  64.6355482  61.5986398   6.6699119  64.2946307  61.1832698
   6.1174477  64.7450457  62.5188552  13.9112953  66.8075258  54.0716643
  13.2600933  67.3929339  53.6850657  14.7057316  67.3381453  54.1311680
   7.8368581  63.8964396  54.4703777   8.6099457  63.3493383  54.3316653
   8.1893979  64.7608645  54.6818239   9.6753623  65.2240778  67.6770676
   9.3843489  66.1286409  67.5617343  10.3110608  65.2657305  68.3914746
  10.6009830  62.6017626  64.2672036  11.1973402  62.3773649  63.5528999
  10.6584802  61.8602372  64.8697484  10.1734858  60.0557062  52.1022227
  10.4260379  59.5338583  51.3405690   9.2359417  59.8923207  52.2048911
  15.2178141  59.0592840  59.9096970  16.0041230  58.6412263  59.5587387
  15.4816846  59.9638932  60.0778619  15.3888219  64.4965690  54.6085627
  14.7534052  64.5700317  55.3206532  15.0585625  65.0859289  53.9304706
  20.6186568  58.9968073  60.8129949  21.3511740  58.4267290  61.0467778
  19.8625924  58.6089674  61.2536454   9.8931147  61.9585168  54.3046602
   9.7767405  61.2830071  54.9727686  10.0033407  61.4717542  53.4878755
  12.2362688  61.4195315  58.0093291  11.8720895  60.8925936  58.7206213
  13.0929804  61.0293784  57.8359777  18.1411989  52.7089647  65.2724557
  17.8095313  53.5785058  65.0485772  17.5457602  52.3925931  65.9518588
  11.8768175  56.4485214  53.0054640  12.0442577  57.3165451  53.3725111
  11.6865344  56.6112496  52.0815929  14.6343508  64.9102193  64.6720470
  14.3344231  65.8127232  64.5636277  14.2894568  64.6434377  65.5241623
   8.0855990  61.3615990  60.7057175   7.1606486  61.2292204  60.9134866
   8.3340403  62.1410209  61.2027117  18.0340652  57.4284734  62.3517907
  17.1257529  57.3600142  62.0576668  17.9828248  57.9056679  63.1799733
  11.8557396  58.9042872  53.9901307  11.7357021  59.3499923  54.8286787
  11.1609984  59.2528190  53.4314845   5.4464801  61.0049264  61.5400964
   5.5757182  61.2583743  62.4540375   4.7662252  61.5976972  61.2205619
   9.6164288  71.6746514  57.6391438   9.5388318  72.6254339  57.7179918
   9.0125932  71.3292386  58.2966364  12.1081518  58.8474379  70.2952805
  11.3314852  59.4068299  70.2855669  12.7472081  59.3331162  70.8167675
  19.9002298  55.6301172  64.1295781  19.2576679  55.9233705  63.4835576
  19.3957227  55.5154092  64.9348978  17.5542462  59.3764345  54.8181641
  18.4660318  59.6091732  54.6429338  17.0452109  59.9601389  54.2556719
  10.3627890  61.6559833  69.8570772  11.1042574  62.1944876  69.5805595
   9.6564876  62.2826121  70.0142324  15.8383230  63.7988973  68.4542933
  16.2466586  63.3571384  67.7097566  15.1160491  63.2241601  68.7077126
  12.1914300  58.7361580  65.8276490  13.0375495  59.1600993  65.9711139
  12.1312937  58.0795204  66.5215053  16.1612044  64.3590164  62.2095222
  15.5320907  64.5235878  61.5071290  15.7737706  64.7731773  62.9806186
  20.0401276  65.2944601  59.5639586  19.3552314  65.6743503  59.0136619
  20.1245126  65.9039928  60.2971534  15.3413745  56.3965948  67.4857664
  15.0974677  57.1508009  66.9491940  15.6173676  56.7751296  68.3204911
  17.2952208  62.9404560  66.1634929  17.5069103  63.5836320  65.4869310
  17.2481956  62.1066877  65.6956859  14.8978437  55.5522381  63.0671502
  14.0362916  55.8503635  63.3588239  14.9240872  55.7692780  62.1352534
  11.7140006  64.0964572  59.4745307  12.1778352  64.3752275  58.6849930
  11.4496804  63.1948016  59.2918398   8.6064087  63.6436053  62.4125070
   9.1765444  64.0723322  61.7742555   9.1972199  63.3618638  63.1109256
  10.6508892  60.2187724  56.2834872  11.3532936  60.6708768  56.7508799
  10.3189521  59.5771543  56.9114765   9.0989254  58.8099481  70.6586082
   8.4687914  59.4915762  70.8921479   8.9925342  58.6982562  69.7139220
   4.3934226  58.4771277  61.5852006   3.6033280  58.7328805  61.1092117
   4.8845474  59.2919615  61.6904046  18.4098036  65.8176516  64.3357287
  19.2315480  65.4156703  64.0539968  18.4060439  65.7144750  65.2873403
   6.3448972  58.8415856  58.5435483   5.5480135  58.9534550  59.0618978
   6.1174564  59.1802508  57.6776373  12.1754639  65.3660559  66.4917997
  12.2399072  65.8280966  67.3276169  11.4665563  64.7357924  66.6200307
   2.6771929  58.7301767  64.0166997   2.9279968  59.6148777  64.2824573
   3.2131478  58.5506369  63.2442089  26.5004029  62.1615264  60.6842258
  25.7467737  61.5922662  60.5286263  26.6351570  62.1277929  61.6312893
  11.8902657  67.0328667  56.3596978  11.7548332  67.8780202  56.7881825
  12.4312469  67.2347944  55.5962911   8.3769997  53.1120247  73.0211333
   7.9836942  52.5586445  73.6958977   9.1936137  53.4230825  73.4117850
   5.3432054  64.5504105  56.9324903   5.8556575  65.3447355  57.0830467
   5.9954767  63.8530395  56.8658504   7.1526939  67.6669861  59.0147656
   7.3293567  68.5887826  58.8268640   7.9483773  67.3528280  59.4442036
  11.2937958  54.5278126  70.6131589  12.0347671  55.1285279  70.5336052
  11.5255880  53.7855763  70.0549632   6.4379296  59.7134493  68.8909819
   6.3232811  58.8119750  69.1916918   5.5823813  59.9598190  68.5394636
  13.5171133  67.6552233  70.4897320  13.0734988  66.8688612  70.1718224
  14.1788347  67.8431384  69.8241210   8.2758255  69.1848035  65.0157998
   8.8265680  69.0565098  64.2434992   7.4369730  69.4842924  64.6652891
  15.6152371  67.9355033  68.5178721  15.5970847  68.7563914  68.0258990
  16.5372291  67.8109108  68.7428862  12.0725426  65.4499163  69.3602229
  12.6053762  64.6887451  69.1301537  11.5439507  65.1572814  70.1026384
  15.2395121  50.5559229  64.8895871  14.8959390  51.4460870  64.8134982
  15.6074083  50.3660886  64.0265456   3.3080971  62.8792759  57.7084473
   4.1456193  63.2889767  57.4918181   3.4859239  61.9392201  57.6784667
  15.2045403  60.5467840  53.3968306  14.6892027  61.3172444  53.6356694
  14.9322712  59.8732976  54.0201368  12.7892514  55.3917540  58.4553545
  11.9334111  55.0024391  58.2759183  13.2019466  55.4709501  57.5953330
  14.3191661  52.9263884  62.8545104  13.8156456  52.8894019  62.0412910
  14.6122268  53.8356626  62.9141761  10.5634547  53.0102613  61.8611286
  11.4287544  52.8145422  61.5017175  10.6312056  52.7812965  62.7880643
  20.1779677  63.3000194  55.3321480  19.4009120  62.9611354  54.8876642
  20.8571158  63.3052817  54.6576445  14.9931706  58.4194932  55.2228087
  14.6881842  58.7341081  56.0738231  15.9462149  58.4976352  55.2655420
  13.4378138  64.5785155  56.8721041  12.9099500  63.8437915  56.5594279
  12.9365641  65.3559831  56.6261010  18.4170984  62.7734176  61.9888088
  17.7594659  63.4633437  62.0768216  19.2211383  63.1630608  62.3322074
   8.1696866  55.2404821  59.2327653   8.7440618  55.0180003  58.5000846
   8.7567848  55.3093516  59.9856254  17.2276443  61.1278548  60.0392029
  17.7408325  61.7608540  60.5413739  17.8777667  60.5279744  59.6735389
   8.4966453  57.2709282  53.2523538   7.6603765  57.6083969  53.5732813
   8.3571223  57.1358262  52.3150675  10.4719534  52.1146070  57.9602722
   9.8183946  51.7995087  57.3359337  10.4300008  51.4921811  58.6862545
  11.5830738  62.3965365  49.8756014  10.6757800  62.1654619  50.0747163
  12.0801770  61.6002985  50.0629996  14.4898817  71.1062873  52.7952701
  13.8160516  71.4094569  53.4037658  14.8764639  71.9091953  52.4458158
  13.7057274  58.6028004  62.2850370  12.7879835  58.8242951  62.1272058
  14.1217418  58.6774314  61.4262077  14.4892322  60.0019420  57.4153050
  15.2364141  60.5140817  57.1060172  14.7583911  59.6803472  58.2757444
  12.7618972  62.4977960  54.3980004  11.8530191  62.2136993  54.4952474
  12.7914056  62.9177039  53.5383311  17.9938239  66.1084550  58.1671172
  17.5400566  65.2675460  58.2236362  17.3632206  66.7445948  58.5045952
  16.9371159  57.0376536  59.3971839  16.1993916  56.5253922  59.7282082
  17.1897932  56.5976917  58.5855116  16.4371179  67.9461046  59.1020990
  16.7294153  68.5066104  58.3833356  16.9469799  68.2389607  59.8574149
  17.0382786  49.8152788  59.9913609  17.3441663  48.9550151  59.7039524
  17.7635391  50.4070408  59.7912603   3.3307142  60.2183474  58.3795207
   3.1331542  59.6252835  57.6546273   2.7753806  59.9135685  59.0971145
  11.3103866  60.1106581  60.4989800  11.3652476  59.1580417  60.4232276
  10.4995068  60.2666020  60.9831098  12.4595060  64.0386704  51.7368083
  12.0214490  63.3222563  51.2773720  13.2005501  64.2662819  51.1753174
   9.2496226  58.7283641  58.2580179   8.4364091  59.0277811  58.6645371
   9.7455220  58.3339329  58.9754661  11.4004804  68.7241398  60.1914443
  11.3580983  68.9502244  59.2622975  12.3167503  68.4904772  60.3400245
  14.8470438  59.1925465  67.0895073  15.2019825  59.4196938  67.9489538
  15.4942569  59.5243842  66.4672328  20.5768174  62.3143901  57.7944402
  20.4386073  62.5045497  56.8665591  20.2204393  63.0763284  58.2512453
   8.7410301  56.3001996  63.8741414   9.3809680  56.1590755  63.1764377
   7.9087831  56.0136509  63.4980016  20.6037554  64.3820428  62.8055673
  21.0374061  64.2895717  63.6538727  21.3169135  64.3577928  62.1675689
   9.5170604  65.6004427  59.9876406  10.3111203  65.1054747  59.7858981
   8.8062297  65.0722290  59.6244112  14.3365449  67.9822522  64.3388774
  14.3902471  68.5513458  65.1066490  13.4680230  68.1524407  63.9742811
   5.8253368  59.7447508  56.0636159   4.8950956  59.6831964  56.2806121
   5.9210840  59.2223461  55.2672800   5.7438917  56.2702321  58.6514400
   6.0045734  57.1847654  58.5423561   6.5656089  55.8026764  58.8011013
   7.2163842  57.6840078  65.8213225   7.8886896  57.4757440  65.1725874
   6.3893629  57.4862164  65.3818457  21.4653104  64.4244129  65.3388558
  21.6588994  65.3289939  65.5847833  21.3653722  63.9651548  66.1727144
  13.1189414  54.3102019  67.8378886  12.4717329  55.0091969  67.7443362
  13.8890430  54.7438163  68.2055134  16.5268212  64.5750871  70.9129439
  16.3753719  64.3461423  69.9959523  16.5172892  65.5321473  70.9260784
  13.2953549  62.1482784  65.8975706  14.2245609  62.2993944  65.7244673
  12.8744579  62.2366805  65.0424352  12.0941880  66.1733449  63.6674243
  11.9552966  65.8052233  64.5400181  11.3056477  66.6881088  63.4958201
  12.6890032  71.2742545  55.0099780  12.8641788  70.8030588  55.8245402
  12.0022820  71.9008311  55.2381040  13.6447096  65.5515051  61.0563081
  13.3096928  65.5115821  61.9520731  13.1451041  64.8859767  60.5833491
   7.6191340  60.9582681  66.5815662   7.4811138  60.2262920  67.1827201
   8.5296263  60.8691581  66.2999850  16.5806287  62.8971086  51.3300141
  15.9635458  62.1717914  51.2333193  16.1122776  63.6580446  50.9867215
  10.2473640  60.6702641  66.0699342  10.9573259  60.0295833  66.0285960
  10.2042948  60.9215535  66.9925523  18.2360419  67.6069994  68.9905921
  18.1772965  66.9229214  68.3236504  18.6379937  68.3488984  68.5386547
   8.9602574  57.6567858  67.8894981   8.4239931  57.2058597  68.5416578
   8.3719283  57.7913767  67.1465446   7.2551118  74.4231908  61.7839640
   7.4947716  75.0550432  62.4618658   6.4120314  74.0719948  62.0704999
   8.3704833  57.1156510  50.4521445   7.4934300  56.9945311  50.0883692
   8.8462586  56.3242588  50.2000334  18.2377826  65.5709578  67.2219901
  17.3504605  65.2335500  67.3446300  18.8076377  64.8392609  67.4588666
   4.6941695  56.7923866  64.9747976   4.6099884  56.1849536  64.2398386
   3.8724402  57.2832884  64.9757472  11.7678980  70.2311030  64.1881144
  11.6949151  71.0366002  64.7000448  11.3256373  70.4302996  63.3629165
  11.5568759  69.4682800  57.6983965  10.7736281  70.0104480  57.7922190
  12.2561504  69.9856780  58.0978207  14.8665409  55.2777430  60.3418171
  15.3634109  54.5247392  60.0219241  14.0952391  55.3141746  59.7761380
  22.7195167  60.9817795  61.9836462  22.7085043  61.8642511  61.6130395
  21.8512546  60.6289346  61.7890999  14.2277663  70.1297864  66.3439303
  14.9405635  70.7645329  66.2715204  13.7367692  70.2261730  65.5279304
  15.9495190  64.0349117  57.9156594  15.0151469  64.1550579  57.7461299
  16.1271859  63.1321584  57.6516604  11.4500378  57.4194813  60.0689855
  11.0798166  56.8665853  60.7570761  11.9459471  56.8152946  59.5164855
  19.3367741  59.8766436  58.4506628  19.8028194  60.7094428  58.3766931
  19.7875242  59.4111418  59.1551887   9.2789577  67.8792308  67.1644873
   9.9799036  68.5128791  67.3174268   8.8084692  68.2207039  66.4040513
  17.4043973  66.2210257  55.4492780  17.6803816  66.1066852  56.3586654
  16.5348471  65.8227742  55.4104953  17.3084404  52.2447023  62.4897530
  16.3947484  52.4751250  62.6579737  17.7377506  52.3285467  63.3411562
  17.0790863  60.4336915  64.9897424  16.4262313  60.6812823  64.3349876
  17.4571243  59.6201053  64.6559901  14.0398037  70.4696608  59.0925594
  14.2220431  69.6518264  59.5553346  14.8631023  70.6864301  58.6550484
  14.3740202  69.3964793  56.3540642  14.9027968  68.8857248  55.7410805
  14.6368422  69.0807324  57.2186175  13.1278436  61.1756726  71.4763461
  12.4519073  61.0750856  72.1465836  13.9506070  61.0195940  71.9399458
   4.8757295  67.4128663  64.0975976   5.4610732  66.6672351  64.2303880
   4.6782133  67.7232619  64.9812640   7.7295950  70.4479910  59.1138418
   7.0606325  70.9326038  58.6302458   7.5908820  70.6949131  60.0281797
  11.8701219  72.4823654  65.7121077  12.4219527  72.6455275  66.4770162
  12.2107412  73.0728091  65.0401102   6.8465712  54.8298803  66.3142961
   6.9107038  55.6913634  65.9020359   6.7832832  54.2172805  65.5815320
   6.3217984  56.9021936  69.9615996   6.9490023  56.5199013  70.5753520
   5.4645903  56.6836138  70.3271688  16.7212093  67.3084911  71.5669731
  17.2651997  67.9214869  71.0724686  16.1398938  67.8664490  72.0836744
   3.0983527  58.7098365  55.8934351   3.3936968  57.8009044  55.8401404
   2.1971563  58.6886105  55.5715353  15.0069606  70.4305629  62.6984759
  14.8820745  69.6295369  62.1895704  15.6648697  70.9251823  62.2098729
   6.6277774  56.7854362  61.8761899   5.9064360  57.3990329  61.7369372
   7.4171030  57.3212126  61.7978545  17.0704514  68.2314649  64.3264309
  16.1234850  68.1120000  64.2542636  17.4187287  67.3437147  64.4090570
   9.4304088  54.1208788  68.1502551   9.9538489  54.3671085  68.9128860
   9.2116421  54.9528823  67.7305688   4.8271369  56.3912463  56.0173676
   4.4984075  55.5109842  55.8348782   5.1810739  56.3360131  56.9050065
  14.0750948  68.0267365  60.5268661  13.9275910  67.0984073  60.7076231
  14.9004441  68.0487456  60.0425736   7.9413192  56.6785433  56.3849153
   8.2809264  57.2071354  55.6627762   8.3885312  57.0165839  57.1607720
  17.6785069  68.8495924  61.6133534  18.6031617  68.6438786  61.4757985
  17.5100373  68.6012325  62.5222875  10.6356633  55.0622483  65.8352221
  10.2953453  54.2630296  66.2372901   9.9295639  55.3624194  65.2629055
  11.2873104  52.1471796  64.2879544  12.1099174  51.6732274  64.1658435
  11.5311168  52.9262279  64.7878231   9.9281339  55.1760054  54.5842446
  10.6489701  55.5541307  54.0806163   9.3046643  55.8948931  54.6877424
  14.0712462  55.8805203  55.5200778  14.2876076  56.7629841  55.2189607
  13.5906529  55.4891417  54.7906420   8.8111683  58.8390916  62.0971523
   8.6656264  59.1531219  62.9895805   8.3336887  59.4575817  61.5442422
  10.6708066  55.8293464  62.1452413  10.6569635  54.9334558  61.8084711
  11.3880494  55.8364128  62.7790699  12.5234197  56.2630805  64.1905540
  12.2651975  57.1847875  64.1889870  11.9919237  55.8661239  64.8806004
  17.4680386  69.3681592  56.9695625  17.6417263  68.8028014  56.2169478
  17.9609277  70.1682487  56.7875115   3.2857345  61.3796261  65.0359184
   2.7410813  62.1556069  65.1679459   4.1636695  61.7267065  64.8778306
  10.0744962  54.7107845  57.4139983  10.1960873  53.7824491  57.6130870
   9.7847004  54.7246531  56.5018298  12.9436152  52.3962755  60.5506703
  12.9657849  52.4602088  59.5958682  13.3604211  51.5567264  60.7447209
  23.3219777  62.1318015  58.5885925  23.7650923  61.3825340  58.1905048
  22.4446287  62.1228151  58.2059657  18.4555558  68.6848356  54.0692524
  19.1506463  69.3055049  54.2879838  18.7978708  67.8343707  54.3444902
   4.0723367  60.5066157  67.9289341   3.3305103  60.6548792  68.5153972
   3.7516111  60.7674423  67.0656091  20.3546981  66.1348062  55.5979854
  20.8798305  66.4735334  54.8729175  20.2669334  65.1995077  55.4142989
  12.0167030  70.0482135  67.7269731  12.3254156  69.8031282  68.5992431
  12.8142512  70.2528774  67.2388601  12.0387642  72.2020045  59.9575108
  11.5992632  71.7096424  60.6507964  12.7895759  71.6593013  59.7167183
   4.5179981  68.3931586  59.9599736   5.3438001  68.0935358  59.5798379
   4.1674033  67.6239208  60.4089524   9.4861514  67.7458054  62.0297409
   8.8641523  67.0828759  61.7299637  10.1566381  67.7719186  61.3471057
   2.7188586  66.3117912  60.9188669   1.8820494  65.8840087  60.7372671
   2.6912231  66.5050356  61.8559461   9.5586042  56.2239842  71.6229915
   9.6074197  57.1001965  71.2407685  10.1008556  55.6817235  71.0501559
  20.0440887  66.7680965  70.9031052  19.2536431  66.7505104  70.3635552
  19.8074242  67.3069259  71.6580089  20.1638762  63.6173432  68.2163781
  20.2136767  63.4523439  69.1579304  20.0552686  62.7500691  67.8261662
   9.0475021  66.2961977  55.5055870   9.1963141  66.9797442  54.8522543
   9.8541464  66.2767067  56.0205326  17.4542525  59.6004360  69.5323088
  18.3552387  59.4610824  69.2407085  17.5290499  59.7658814  70.4721265
  11.7885330  56.9771214  68.3776274  10.9188639  57.2704780  68.1058863
  12.0244810  57.5611659  69.0983538  21.6656959  66.0370373  68.4605803
  21.3741767  66.4000354  69.2969263  21.0529090  65.3237381  68.2819135
  22.8652641  63.6023253  60.9808373  23.6999533  64.0413057  61.1445933
  23.0011770  63.1261906  60.1616619  19.9144147  61.1602988  66.9285861
  20.3898269  61.3530634  66.1204712  18.9909713  61.2162174  66.6829244
   6.8027654  62.3227155  56.5116939   6.5573696  61.4189485  56.7097149
   6.9723568  62.3244305  55.5696417  14.4924364  53.1950831  65.8941694
  15.0106308  53.9311858  65.5688183  14.1379497  53.5014825  66.7288454
   6.0723301  58.0555513  54.0103100   5.3792546  58.1299867  53.3543136
   5.8275053  57.2915856  54.5324617  14.7436958  49.6151114  61.4142591
  15.0238712  48.9474303  62.0403018  15.5287565  49.8080209  60.9017255
  12.5470426  68.7910108  52.9767617  11.9744394  69.4100295  52.5238089
  13.1203220  69.3409469  53.5107539  18.6145816  58.0368748  65.1614166
  19.5663239  58.1366845  65.1826390  18.4449267  57.2447016  65.6712250
  16.6360196  55.1224331  65.3473567  16.0410128  55.4029344  64.6520056
  16.3509893  55.6118232  66.1190308  15.7667686  69.0747258  54.1076200
  16.6998359  69.0092820  54.3109075  15.6790899  69.9103525  53.6490732
  18.3955703  68.3913128  51.0680147  18.3169334  68.0572992  51.9615905
  19.2165370  68.8834896  51.0671619  21.0933894  61.2574868  64.2756466
  21.0610214  60.3190868  64.4616150  21.7034518  61.3358904  63.5422291
  12.9317225  60.1270920  50.3183670  13.8776330  59.9977129  50.3872088
  12.5531470  59.3885582  50.7953098  21.2428383  58.0485911  64.3214749
  20.7267431  57.2644368  64.1344678  22.1268331  57.7204628  64.4861268
  18.9039110  51.7926927  60.2810562  18.7063931  51.4842015  61.1653894
  19.5138815  52.5188565  60.4108491  26.9110444  62.3190874  63.4162503
  27.6413832  62.0576162  63.9770206  26.3017389  61.5819596  63.4564571
  24.9925741  60.4598737  64.0136954  24.2658905  60.3254702  63.4053445
  24.5773028  60.7675566  64.8193672  12.8155918  64.1788667  71.7784327
  13.7358927  64.3567266  71.9724373  12.7805501  63.2344712  71.6264026
  11.1160142  58.0520897  50.2538555  10.2091598  57.7554010  50.3301269
  11.3936123  57.7550715  49.3872841   2.0338083  59.3727260  60.7037601
   1.7140867  58.5192568  60.4111975   1.4871511  59.5875838  61.4595569
   5.8117990  62.0889701  64.4207108   6.0304000  63.0206809  64.4395142
   6.2243764  61.7297676  65.2061912  12.7322208  52.5957787  56.4082796
  11.9222936  52.2504872  56.7838042  13.4206625  52.2865330  56.9970408
  14.6612756  51.6735833  58.0307093  15.2143795  52.0931287  58.6897116
  14.8982843  50.7471582  58.0730049  10.6845855  57.6622907  73.8109857
  10.5842582  58.6117264  73.7421948  10.4667397  57.3341146  72.9385927
   9.8858927  54.9107832  50.3950534  10.7478091  55.2362730  50.6546352
  10.0709271  54.1239328  49.8823600   1.9026343  62.9930172  62.6730723
   1.2089814  62.5784125  62.1600677   2.6499334  63.0350708  62.0764142
  18.0391563  53.7836359  57.5385757  17.4590232  54.4421163  57.1563810
  17.7727496  52.9613703  57.1273175  16.4895130  53.1841416  59.7407078
  16.9894908  53.2957951  58.9321396  17.1330738  52.8802469  60.3807886
  10.5477125  61.0920046  72.6274919  10.0644207  61.8920406  72.8338808
  10.6338064  61.1027991  71.6742363   3.8163085  62.9248426  60.5496738
   3.7933773  63.0236113  59.5978621   4.1263722  63.7713576  60.8713904
   6.4750463  64.9824581  64.6643352   7.4293716  64.9508523  64.5973284
   6.2762987  64.5215204  65.4793578   7.0649845  63.5525697  67.2314150
   7.8842734  64.0469775  67.2548987   7.3386653  62.6357665  67.2031717
  16.8216441  55.9436449  56.5942105  15.9342296  56.2286100  56.3762300
  17.2370430  55.7830212  55.7469382  20.1730977  55.9682970  60.3096445
  20.9491368  56.4579422  60.5821062  19.4479112  56.3941024  60.7668314
  22.6103536  56.6810589  61.3670385  23.2048027  56.4406325  60.6563694
  22.6830120  55.9617720  61.9943922   4.8300692  70.5244200  61.6813550
   4.6955160  69.7644601  61.1151548   4.4132754  71.2485100  61.2142339
  15.9659655  65.7081124  50.6890125  16.6695505  65.9131126  51.3047781
  15.2422303  66.2757886  50.9539209  16.7957465  61.4590985  56.8092396
  16.7392666  61.9159536  55.9700028  17.3485807  60.6981669  56.6315238
  20.6062271  57.2480717  57.6342515  20.3499205  56.8477352  58.4650723
  19.9815139  57.9624511  57.5092654  24.9174609  59.9876790  60.1413807
  24.3574167  60.0569979  60.9145369  24.3118112  59.8117775  59.4213303
   7.9869818  71.4213517  61.8931993   7.8702202  72.3658950  61.7910683
   7.1662264  71.1187079  62.2817792  17.8746352  66.1463653  52.7388586
  18.7091956  65.7144851  52.5566060  17.7130695  65.9745666  53.6665480
  17.5292244  62.6495766  54.1044925  17.4741048  62.4840038  53.1633369
  16.9038300  63.3571799  54.2607115   2.3184759  57.8863830  67.9306347
   2.9643623  57.3762784  68.4193572   2.1101910  58.6232512  68.5049772
  14.8438151  64.9544678  73.4298488  15.7129311  65.1285330  73.0685123
  14.3644903  65.7739095  73.3074217  10.8388370  52.1503875  53.6830243
  10.8267040  53.0945715  53.8398514  11.7311792  51.9674021  53.3889704
   9.0124332  72.0741779  65.1087921   9.9151578  72.1065389  65.4254416
   8.7861702  71.1442230  65.1234257  10.7677934  70.8272766  61.7698000
   9.8173565  70.8274627  61.6562372  11.0710420  70.0805500  61.2534034
  14.6540489  48.7446652  57.9376180  13.8872885  48.1905138  58.0832862
  15.0651194  48.8168521  58.7990332   6.6582250  55.0331448  72.0281361
   7.5213712  54.6768252  72.2384686   6.0847661  54.6945342  72.7156766
  23.3120334  76.6160732  62.7705287  22.9738845  76.5001797  61.8825822
  24.1810102  76.2151897  62.7506293  19.1707149  78.4696208  58.7602178
  18.6072014  78.3786145  57.9918466  19.0559544  77.6496113  59.2404670
  23.7940117  77.7695584  68.7291492  23.7828757  77.3748382  67.8571996
  23.9560756  77.0361656  69.3225264  16.7171581  79.9647400  61.5986398
  17.5092873  79.6238225  61.1832698  16.9568231  80.0742375  62.5188552
  24.7506708  82.1367176  54.0716643  24.0994688  82.7221257  53.6850657
  25.5451071  82.6673371  54.1311680  18.6762335  79.2256313  54.4703777
  19.4493211  78.6785300  54.3316653  19.0287734  80.0900563  54.6818239
  20.5147378  80.5532696  67.6770676  20.2237244  81.4578326  67.5617343
  21.1504362  80.5949223  68.3914746  21.4403584  77.9309544  64.2672036
  22.0367157  77.7065566  63.5528999  21.4978556  77.1894290  64.8697484
  21.0128613  75.3848979  52.1022227  21.2654134  74.8630501  51.3405690
  20.0753172  75.2215125  52.2048911  26.0571896  74.3884758  59.9096970
  26.8434985  73.9704181  59.5587387  26.3210600  75.2930850  60.0778619
  26.2281973  79.8257608  54.6085627  25.5927806  79.8992235  55.3206532
  25.8979379  80.4151207  53.9304706  20.7324902  77.2877085  54.3046602
  20.6161160  76.6121989  54.9727686  20.8427162  76.8009459  53.4878755
  23.0756443  76.7487232  58.0093291  22.7114650  76.2217853  58.7206213
  23.9323558  76.3585702  57.8359777  28.9805743  68.0381565  65.2724557
  28.6489068  68.9076976  65.0485772  28.3851357  67.7217849  65.9518588
  22.7161930  71.7777132  53.0054640  22.8836332  72.6457369  53.3725111
  22.5259099  71.9404414  52.0815929  18.9249744  76.6907908  60.7057175
  18.0000241  76.5584122  60.9134866  19.1734157  77.4702127  61.2027117
  28.8734407  72.7576651  62.3517907  27.9651284  72.6892060  62.0576668
  28.8222002  73.2348596  63.1799733  22.6951150  74.2334790  53.9901307
  22.5750776  74.6791840  54.8286787  22.0003739  74.5820107  53.4314845
  16.2858555  76.3341181  61.5400964  16.4150936  76.5875660  62.4540375
  15.6056007  76.9268889  61.2205619  20.4558043  87.0038431  57.6391438
  20.3782072  87.9546257  57.7179918  19.8519686  86.6584304  58.2966364
  22.9475272  74.1766297  70.2952805  22.1708606  74.7360217  70.2855669
  23.5865835  74.6623080  70.8167675  28.3936217  74.7056263  54.8181641
  29.3054073  74.9383650  54.6429338  27.8845864  75.2893307  54.2556719
  21.2021645  76.9851750  69.8570772  21.9436329  77.5236794  69.5805595
  20.4958630  77.6118039  70.0142324  23.0308054  74.0653497  65.8276490
  23.8769249  74.4892911  65.9711139  22.9706692  73.4087122  66.5215053
  26.1807500  71.7257866  67.4857664  25.9368431  72.4799926  66.9491940
  26.4567430  72.1043213  68.3204911  25.7372191  70.8814299  63.0671502
  24.8756670  71.1795552  63.3588239  25.7634626  71.0984698  62.1352534
  22.5533761  79.4256489  59.4745307  23.0172106  79.7044192  58.6849930
  22.2890559  78.5239934  59.2918398  19.4457842  78.9727971  62.4125070
  20.0159199  79.4015239  61.7742555  20.0365954  78.6910556  63.1109256
  21.4902647  75.5479642  56.2834872  22.1926690  76.0000685  56.7508799
  21.1583275  74.9063461  56.9114765  19.9383008  74.1391398  70.6586082
  19.3081669  74.8207679  70.8921479  19.8319096  74.0274480  69.7139220
  15.2327981  73.8063194  61.5852006  14.4427035  74.0620723  61.1092117
  15.7239228  74.6211532  61.6904046  17.1842726  74.1707774  58.5435483
  16.3873889  74.2826468  59.0618978  16.9568318  74.5094426  57.6776373
  23.0148394  80.6952477  66.4917997  23.0792826  81.1572884  67.3276169
  22.3059318  80.0649842  66.6200307  13.5165684  74.0593685  64.0166997
  13.7673722  74.9440695  64.2824573  14.0525232  73.8798286  63.2442089
  22.7296411  82.3620584  56.3596978  22.5942086  83.2072120  56.7881825
  23.2706224  82.5639862  55.5962911  19.2163751  68.4412164  73.0211333
  18.8230697  67.8878363  73.6958977  20.0329891  68.7522743  73.4117850
  16.1825809  79.8796022  56.9324903  16.6950329  80.6739273  57.0830467
  16.8348522  79.1822313  56.8658504  17.9920694  82.9961779  59.0147656
  18.1687322  83.9179743  58.8268640  18.7877527  82.6820198  59.4442036
  22.1331712  69.8570043  70.6131589  22.8741425  70.4577196  70.5336052
  22.3649635  69.1147681  70.0549632  17.2773050  75.0426411  68.8909819
  17.1626565  74.1411668  69.1916918  16.4217568  75.2890107  68.5394636
  24.3564888  82.9844151  70.4897320  23.9128742  82.1980529  70.1718224
  25.0182101  83.1723301  69.8241210  19.1152009  84.5139952  65.0157998
  19.6659434  84.3857016  64.2434992  18.2763485  84.8134841  64.6652891
  26.4546126  83.2646951  68.5178721  26.4364601  84.0855832  68.0258990
  27.3766046  83.1401026  68.7428862  22.9119180  80.7791080  69.3602229
  23.4447517  80.0179368  69.1301537  22.3833261  80.4864732  70.1026384
  26.0788875  65.8851146  64.8895871  25.7353144  66.7752788  64.8134982
  26.4467838  65.6952804  64.0265456  14.1474726  78.2084677  57.7084473
  14.9849948  78.6181685  57.4918181  14.3252993  77.2684119  57.6784667
  26.0439158  75.8759757  53.3968306  25.5285781  76.6464362  53.6356694
  25.7716466  75.2024894  54.0201368  23.6286269  70.7209458  58.4553545
  22.7727865  70.3316309  58.2759183  24.0413221  70.8001419  57.5953330
  25.1585415  68.2555801  62.8545104  24.6550211  68.2185937  62.0412910
  25.4516022  69.1648544  62.9141761  21.4028301  68.3394531  61.8611286
  22.2681298  68.1437340  61.5017175  21.4705810  68.1104883  62.7880643
  25.8325461  73.7486849  55.2228087  25.5275596  74.0632999  56.0738231
  26.7855903  73.8268269  55.2655420  24.2771893  79.9077073  56.8721041
  23.7493254  79.1729832  56.5594279  23.7759395  80.6851749  56.6261010
  19.0090620  70.5696739  59.2327653  19.5834372  70.3471921  58.5000846
  19.5961603  70.6385434  59.9856254  19.3360207  72.6001200  53.2523538
  18.4997520  72.9375887  53.5732813  19.1964977  72.4650180  52.3150675
  21.3113288  67.4437988  57.9602722  20.6577700  67.1287005  57.3359337
  21.2693762  66.8213728  58.6862545  22.4224493  77.7257283  49.8756014
  21.5151555  77.4946536  50.0747163  22.9195525  76.9294902  50.0629996
  25.3292572  86.4354790  52.7952701  24.6554271  86.7386487  53.4037658
  25.7158394  87.2383871  52.4458158  24.5451028  73.9319922  62.2850370
  23.6273590  74.1534869  62.1272058  24.9611172  74.0066232  61.4262077
  25.3286076  75.3311337  57.4153050  26.0757895  75.8432734  57.1060172
  25.5977666  75.0095390  58.2757444  23.6012726  77.8269878  54.3980004
  22.6923946  77.5428911  54.4952474  23.6307810  78.2468956  53.5383311
  27.7764913  72.3668453  59.3971839  27.0387670  71.8545840  59.7282082
  28.0291687  71.9268835  58.5855116  27.2764933  83.2752964  59.1020990
  27.5687907  83.8358021  58.3833356  27.7863554  83.5681525  59.8574149
  27.8776541  65.1444705  59.9913609  28.1835417  64.2842069  59.7039524
  28.6029145  65.7362326  59.7912603  14.1700897  75.5475392  58.3795207
  13.9725297  74.9544753  57.6546273  13.6147561  75.2427602  59.0971145
  22.1497620  75.4398499  60.4989800  22.2046230  74.4872335  60.4232276
  21.3388822  75.5957938  60.9831098  23.2988814  79.3678622  51.7368083
  22.8608244  78.6514481  51.2773720  24.0399255  79.5954736  51.1753174
  20.0889980  74.0575558  58.2580179  19.2757846  74.3569729  58.6645371
  20.5848975  73.6631247  58.9754661  22.2398558  84.0533315  60.1914443
  22.1974737  84.2794161  59.2622975  23.1561257  83.8196690  60.3400245
  19.5804055  71.6293914  63.8741414  20.2203434  71.4882673  63.1764377
  18.7481586  71.3428427  63.4980016  20.3564359  80.9296344  59.9876406
  21.1504957  80.4346664  59.7858981  19.6456051  80.4014207  59.6244112
  25.1759203  83.3114440  64.3388774  25.2296226  83.8805376  65.1066490
  24.3073985  83.4816325  63.9742811  16.6647122  75.0739426  56.0636159
  15.7344711  75.0123881  56.2806121  16.7604594  74.5515379  55.2672800
  16.5832672  71.5994239  58.6514400  16.8439489  72.5139572  58.5423561
  17.4049844  71.1318681  58.8011013  18.0557597  73.0131996  65.8213225
  18.7280650  72.8049358  65.1725874  17.2287383  72.8154082  65.3818457
  23.9583169  69.6393937  67.8378886  23.3111084  70.3383887  67.7443362
  24.7284184  70.0730081  68.2055134  24.1347303  77.4774702  65.8975706
  25.0639363  77.6285861  65.7244673  23.7138333  77.5658723  65.0424352
  22.9335635  81.5025366  63.6674243  22.7946721  81.1344151  64.5400181
  22.1450231  82.0173006  63.4958201  23.5283787  86.6034463  55.0099780
  23.7035543  86.1322506  55.8245402  22.8416575  87.2300229  55.2381040
  24.4840850  80.8806969  61.0563081  24.1490683  80.8407739  61.9520731
  23.9844796  80.2151685  60.5833491  18.4585094  76.2874599  66.5815662
  18.3204892  75.5554838  67.1827201  19.3690018  76.1983499  66.2999850
  27.4200042  78.2263003  51.3300141  26.8029212  77.5009831  51.2333193
  26.9516530  78.9872363  50.9867215  21.0867395  75.9994558  66.0699342
  21.7967013  75.3587750  66.0285960  21.0436703  76.2507453  66.9925523
  19.7996329  72.9859776  67.8894981  19.2633686  72.5350515  68.5416578
  19.2113037  73.1205685  67.1465446  18.0944872  89.7523825  61.7839640
  18.3341470  90.3842350  62.4618658  17.2514069  89.4011865  62.0704999
  19.2098588  72.4448428  50.4521445  18.3328054  72.3237228  50.0883692
  19.6856341  71.6534506  50.2000334  10.7300728  77.2325587  60.5462952
  11.4171768  76.9187317  59.9583967  10.5748857  78.1366952  60.2730203
  15.5335450  72.1215784  64.9747976  15.4493639  71.5141453  64.2398386
  14.7118156  72.6124802  64.9757472  22.6072734  85.5602948  64.1881144
  22.5342906  86.3657919  64.7000448  22.1650127  85.7594914  63.3629165
  22.3962514  84.7974718  57.6983965  21.6130036  85.3396398  57.7922190
  23.0955259  85.3148698  58.0978207  25.7059164  70.6069347  60.3418171
  26.2027863  69.8539310  60.0219241  24.9346145  70.6433664  59.7761380
  25.0671418  85.4589782  66.3439303  25.7799390  86.0937247  66.2715204
  24.5761446  85.5553648  65.5279304  22.2894133  72.7486730  60.0689855
  21.9191920  72.1957771  60.7570761  22.7853225  72.1444864  59.5164855
  20.1183331  83.2084225  67.1644873  20.8192791  83.8420708  67.3174268
  19.6478446  83.5498957  66.4040513  28.2437727  81.5502175  55.4492780
  28.5197571  81.4358770  56.3586654  27.3742226  81.1519660  55.4104953
  28.1478159  67.5738941  62.4897530  27.2341238  67.8043168  62.6579737
  28.5771260  67.6577385  63.3411562  24.8791791  85.7988526  59.0925594
  25.0614186  84.9810182  59.5553346  25.7024777  86.0156218  58.6550484
  25.2133957  84.7256711  56.3540642  25.7421723  84.2149166  55.7410805
  25.4762176  84.4099241  57.2186175  23.9672190  76.5048644  71.4763461
  23.2912827  76.4042773  72.1465836  24.7899824  76.3487858  71.9399458
  15.7151049  82.7420580  64.0975976  16.3004486  81.9964268  64.2303880
  15.5175888  83.0524537  64.9812640  18.5689704  85.7771828  59.1138418
  17.9000080  86.2617955  58.6302458  18.4302574  86.0241048  60.0281797
  10.3068704  75.3126181  62.8180419  10.3452803  74.7789771  63.6117537
   9.8008997  74.7861386  62.1991396  22.7094973  87.8115571  65.7121077
  23.2613281  87.9747193  66.4770162  23.0501166  88.4020009  65.0401102
  17.6859466  70.1590721  66.3142961  17.7500793  71.0205552  65.9020359
  17.6226586  69.5464723  65.5815320  17.1611739  72.2313854  69.9615996
  17.7883778  71.8490931  70.5753520  16.3039658  72.0128056  70.3271688
  13.9377282  74.0390283  55.8934351  14.2330723  73.1300961  55.8401404
  13.0365317  74.0178022  55.5715353  25.8463360  85.7597547  62.6984759
  25.7214500  84.9587287  62.1895704  26.5042451  86.2543740  62.2098729
  17.4671529  72.1146279  61.8761899  16.7458114  72.7282247  61.7369372
  18.2564784  72.6504044  61.7978545  27.9098269  83.5606567  64.3264309
  26.9628604  83.4411918  64.2542636  28.2581042  82.6729065  64.4090570
  20.2697842  69.4500706  68.1502551  20.7932244  69.6963002  68.9128860
  20.0510175  70.2820741  67.7305688  15.6665123  71.7204380  56.0173676
  15.3377829  70.8401759  55.8348782  16.0204494  71.6652049  56.9050065
  24.9144702  83.3559283  60.5268661  24.7669664  82.4275991  60.7076231
  25.7398195  83.3779374  60.0425736  18.7806946  72.0077350  56.3849153
  19.1203019  72.5363271  55.6627762  19.2279067  72.3457756  57.1607720
  28.5178824  84.1787842  61.6133534  29.4425371  83.9730703  61.4757985
  28.3494127  83.9304243  62.5222875  21.4750387  70.3914401  65.8352221
  21.1347207  69.5922214  66.2372901  20.7689393  70.6916112  65.2629055
  22.1266859  67.4763713  64.2879544  22.9492928  67.0024192  64.1658435
  22.3704922  68.2554197  64.7878231  20.7675093  70.5051972  54.5842446
  21.4883456  70.8833225  54.0806163  20.1440398  71.2240849  54.6877424
  24.9106216  71.2097121  55.5200778  25.1269831  72.0921759  55.2189607
  24.4300283  70.8183334  54.7906420  19.6505438  74.1682834  62.0971523
  19.5050018  74.4823137  62.9895805  19.1730641  74.7867734  61.5442422
  21.5101821  71.1585382  62.1452413  21.4963389  70.2626475  61.8084711
  22.2274249  71.1656046  62.7790699  23.3627951  71.5922722  64.1905540
  23.1045729  72.5139793  64.1889870  22.8312992  71.1953157  64.8806004
  28.3074140  84.6973509  56.9695625  28.4811018  84.1319932  56.2169478
  28.8003031  85.4974404  56.7875115  14.1251100  76.7088178  65.0359184
  13.5804568  77.4847986  65.1679459  15.0030450  77.0558983  64.8778306
  20.9138716  70.0399762  57.4139983  21.0354628  69.1116408  57.6130870
  20.6240759  70.0538448  56.5018298  23.7829907  67.7254673  60.5506703
  23.8051604  67.7894006  59.5958682  24.1997966  66.8859181  60.7447209
  29.2949313  84.0140274  54.0692524  29.9900217  84.6346966  54.2879838
  29.6372463  83.1635625  54.3444902  14.9117122  75.8358075  67.9289341
  14.1698858  75.9840710  68.5153972  14.5909866  76.0966340  67.0656091
  31.1940736  81.4639979  55.5979854  31.7192060  81.8027252  54.8729175
  31.1063088  80.5286995  55.4142989  22.8560784  85.3774053  67.7269731
  23.1647911  85.1323200  68.5992431  23.6536266  85.5820691  67.2388601
  22.8781396  87.5311963  59.9575108  22.4386387  87.0388341  60.6507964
  23.6289513  86.9884930  59.7167183  15.3573735  83.7223503  59.9599736
  16.1831755  83.4227275  59.5798379  15.0067787  82.9531126  60.4089524
  20.3255269  83.0749972  62.0297409  19.7035278  82.4120677  61.7299637
  20.9960135  83.1011104  61.3471057  13.5582340  81.6409830  60.9188669
  12.7214249  81.2132004  60.7372671  13.5305986  81.8342273  61.8559461
  20.3979796  71.5531760  71.6229915  20.4467952  72.4293882  71.2407685
  20.9402310  71.0109153  71.0501559  19.8868775  81.6253895  55.5055870
  20.0356896  82.3089359  54.8522543  20.6935219  81.6058985  56.0205326
  22.6279084  72.3063132  68.3776274  21.7582394  72.5996698  68.1058863
  22.8638565  72.8903577  69.0983538  17.6421408  77.6519073  56.5116939
  17.3967450  76.7481403  56.7097149  17.8117323  77.6536223  55.5696417
  25.3318118  68.5242749  65.8941694  25.8500062  69.2603776  65.5688183
  24.9773251  68.8306742  66.7288454  16.9117056  73.3847430  54.0103100
  16.2186301  73.4591785  53.3543136  16.6668808  72.6207774  54.5324617
  25.5830712  64.9443032  61.4142591  25.8632466  64.2766221  62.0403018
  26.3681319  65.1372127  60.9017255  23.3864181  84.1202025  52.9767617
  22.8138148  84.7392213  52.5238089  23.9596975  84.6701387  53.5107539
  27.4753950  70.4516249  65.3473567  26.8803882  70.7321261  64.6520056
  27.1903647  70.9410150  66.1190308  26.6061441  84.4039176  54.1076200
  27.5392114  84.3384737  54.3109075  26.5184654  85.2395442  53.6490732
  29.2349457  83.7205046  51.0680147  29.1563089  83.3864909  51.9615905
  30.0559124  84.2126814  51.0671619  23.7710979  75.4562838  50.3183670
  24.7170084  75.3269046  50.3872088  23.3925224  74.7177500  50.7953098
  29.7432864  67.1218844  60.2810562  29.5457685  66.8133932  61.1653894
  30.3532570  67.8480483  60.4108491  23.6549672  79.5080584  71.7784327
  24.5752681  79.6859183  71.9724373  23.6199255  78.5636630  71.6264026
  21.9553897  73.3812815  50.2538555  21.0485352  73.0845927  50.3301269
  22.2329878  73.0842633  49.3872841  12.8731837  74.7019178  60.7037601
  12.5534621  73.8484486  60.4111975  12.3265265  74.9167756  61.4595569
  16.6511745  77.4181619  64.4207108  16.8697754  78.3498727  64.4395142
  17.0637518  77.0589593  65.2061912  23.5715962  67.9249704  56.4082796
  22.7616691  67.5796789  56.7838042  24.2600379  67.6157248  56.9970408
  25.5006511  67.0027751  58.0307093  26.0537549  67.4223204  58.6897116
  25.7376597  66.0763499  58.0730049  21.5239610  72.9914825  73.8109857
  21.4236337  73.9409182  73.7421948  21.3061152  72.6633064  72.9385927
  20.7252681  70.2399750  50.3950534  21.5871845  70.5654648  50.6546352
  20.9103025  69.4531246  49.8823600  12.7420097  78.3222089  62.6730723
  12.0483568  77.9076042  62.1600677  13.4893088  78.3642626  62.0764142
  28.8785318  69.1128276  57.5385757  28.2983987  69.7713080  57.1563810
  28.6121250  68.2905621  57.1273175  27.3288884  68.5133334  59.7407078
  27.8288662  68.6249868  58.9321396  27.9724492  68.2094387  60.3807886
  21.3870880  76.4211964  72.6274919  20.9037962  77.2212324  72.8338808
  21.4731819  76.4319908  71.6742363  14.6556840  78.2540343  60.5496738
  14.6327528  78.3528031  59.5978621  14.9657476  79.1005494  60.8713904
  17.3144217  80.3116498  64.6643352  18.2687471  80.2800441  64.5973284
  17.1156741  79.8507122  65.4793578  17.9043600  78.8817614  67.2314150
  18.7236489  79.3761693  67.2548987  18.1780407  77.9649582  67.2031717
  27.6610196  71.2728367  56.5942105  26.7736051  71.5578017  56.3762300
  28.0764185  71.1122130  55.7469382  31.0124732  71.2974888  60.3096445
  31.7885122  71.7871340  60.5821062  30.2872866  71.7232942  60.7668314
  15.6694446  85.8536118  61.6813550  15.5348914  85.0936519  61.1151548
  15.2526508  86.5777018  61.2142339  26.8053409  81.0373041  50.6890125
  27.5089259  81.2423044  51.3047781  26.0816058  81.6049803  50.9539209
  18.8263572  86.7505435  61.8931993  18.7095956  87.6950867  61.7910683
  18.0056018  86.4478996  62.2817792  28.7140107  81.4755570  52.7388586
  29.5485711  81.0436769  52.5566060  28.5524450  81.3037584  53.6665480
  28.3685999  77.9787684  54.1044925  28.3134803  77.8131955  53.1633369
  27.7432054  78.6863717  54.2607115  13.1578514  73.2155748  67.9306347
  13.8037377  72.7054702  68.4193572  12.9495665  73.9524430  68.5049772
  25.6831906  80.2836596  73.4298488  26.5523066  80.4577248  73.0685123
  25.2038657  81.1031012  73.3074217  21.6782124  67.4795793  53.6830243
  21.6660794  68.4237633  53.8398514  22.5705546  67.2965938  53.3889704
  19.8518086  87.4033697  65.1087921  20.7545333  87.4357307  65.4254416
  19.6255456  86.4734148  65.1234257  21.6071688  86.1564683  61.7698000
  20.6567319  86.1566545  61.6562372  21.9104174  85.4097418  61.2534034
  25.4934244  64.0738569  57.9376180  24.7266640  63.5197056  58.0832862
  25.9044949  64.1460438  58.7990332  17.4976005  70.3623365  72.0281361
  18.3607466  70.0060170  72.2384686  16.9241415  70.0237260  72.7156766
  37.3424382  91.9925222  62.8343762  37.9802792  91.8731969  62.1307102
  37.2245225  92.9406066  62.8931714  34.1514088  91.9452650  62.7705287
  33.8132600  91.8293714  61.8825822  35.0203856  91.5443815  62.7506293
  30.0100904  93.7988126  58.7602178  29.4465769  93.7078063  57.9918466
  29.8953299  92.9788031  59.2404670  34.6333871  93.0987501  68.7291492
  34.6222512  92.7040300  67.8571996  34.7954510  92.3653574  69.3225264
  27.5565336  95.2939318  61.5986398  28.3486628  94.9530142  61.1832698
  27.7961986  95.4034293  62.5188552  35.5900462  97.4659094  54.0716643
  34.9388442  98.0513174  53.6850657  36.3844825  97.9965289  54.1311680
  29.5156090  94.5548231  54.4703777  30.2886966  94.0077218  54.3316653
  29.8681488  95.4192480  54.6818239  31.3541132  95.8824613  67.6770676
  31.0630998  96.7870244  67.5617343  31.9898116  95.9241141  68.3914746
  32.2797339  93.2601462  64.2672036  32.8760911  93.0357484  63.5528999
  32.3372311  92.5186207  64.8697484  31.8522367  90.7140897  52.1022227
  32.1047888  90.1922418  51.3405690  30.9146926  90.5507043  52.2048911
  36.8965650  89.7176675  59.9096970  37.6828739  89.2996099  59.5587387
  37.1604355  90.6222768  60.0778619  37.0675728  95.1549526  54.6085627
  36.4321561  95.2284152  55.3206532  36.7373134  95.7443125  53.9304706
  42.2974077  89.6551909  60.8129949  43.0299249  89.0851125  61.0467778
  41.5413433  89.2673509  61.2536454  31.5718656  92.6169003  54.3046602
  31.4554914  91.9413906  54.9727686  31.6820916  92.1301377  53.4878755
  33.9150197  92.0779150  58.0093291  33.5508404  91.5509771  58.7206213
  34.7717313  91.6877619  57.8359777  33.5555684  87.1069050  53.0054640
  33.7230086  87.9749286  53.3725111  33.3652853  87.2696332  52.0815929
  36.3131017  95.5686029  64.6720470  36.0131740  96.4711068  64.5636277
  35.9682077  95.3018212  65.5241623  29.7643499  92.0199826  60.7057175
  28.8393995  91.8876040  60.9134866  30.0127912  92.7994045  61.2027117
  39.7128161  88.0868569  62.3517907  38.8045038  88.0183977  62.0576668
  39.6615757  88.5640514  63.1799733  33.5344905  89.5626707  53.9901307
  33.4144530  90.0083758  54.8286787  32.8397493  89.9112025  53.4314845
  27.1252310  91.6633099  61.5400964  27.2544691  91.9167578  62.4540375
  26.4449761  92.2560807  61.2205619  31.2951797 102.3330349  57.6391438
  31.2175827 103.2838174  57.7179918  30.6913441 101.9876222  58.2966364
  33.7869027  89.5058215  70.2952805  33.0102361  90.0652135  70.2855669
  34.4259590  89.9914997  70.8167675  41.5789807  86.2885007  64.1295781
  40.9364188  86.5817540  63.4835576  41.0744736  86.1737928  64.9348978
  39.2329971  90.0348181  54.8181641  40.1447827  90.2675567  54.6429338
  38.7239618  90.6185225  54.2556719  32.0415399  92.3143668  69.8570772
  32.7830083  92.8528712  69.5805595  31.3352385  92.9409957  70.0142324
  37.5170739  94.4572808  68.4542933  37.9254095  94.0155219  67.7097566
  36.7948000  93.8825436  68.7077126  33.8701809  89.3945415  65.8276490
  34.7163004  89.8184829  65.9711139  33.8100446  88.7379039  66.5215053
  37.8399553  95.0173999  62.2095222  37.2108416  95.1819713  61.5071290
  37.4525215  95.4315609  62.9806186  41.7188785  95.9528437  59.5639586
  41.0339823  96.3327338  59.0136619  41.8032635  96.5623763  60.2971534
  37.0201254  87.0549783  67.4857664  36.7762186  87.8091844  66.9491940
  37.2961185  87.4335131  68.3204911  38.9739717  93.5988396  66.1634929
  39.1856612  94.2420156  65.4869310  38.9269465  92.7650712  65.6956859
  36.5765946  86.2106216  63.0671502  35.7150425  86.5087470  63.3588239
  36.6028380  86.4276615  62.1352534  33.3927515  94.7548407  59.4745307
  33.8565861  95.0336110  58.6849930  33.1284313  93.8531852  59.2918398
  30.2851596  94.3019889  62.4125070  30.8552953  94.7307157  61.7742555
  30.8759708  94.0202473  63.1109256  32.3296401  90.8771559  56.2834872
  33.0320445  91.3292603  56.7508799  31.9977030  90.2355378  56.9114765
  30.7776763  89.4683316  70.6586082  30.1475423  90.1499597  70.8921479
  30.6712851  89.3566398  69.7139220  26.0721735  89.1355112  61.5852006
  25.2820789  89.3912641  61.1092117  26.5632983  89.9503450  61.6904046
  40.0885545  96.4760351  64.3357287  40.9102989  96.0740539  64.0539968
  40.0847948  96.3728585  65.2873403  28.0236481  89.4999691  58.5435483
  27.2267644  89.6118386  59.0618978  27.7962073  89.8386344  57.6776373
  33.8542148  96.0244395  66.4917997  33.9186581  96.4864802  67.3276169
  33.1453072  95.3941759  66.6200307  24.3559438  89.3885603  64.0166997
  24.6067477  90.2732612  64.2824573  24.8918987  89.2090204  63.2442089
  48.1791538  92.8199100  60.6842258  47.4255246  92.2506498  60.5286263
  48.3139079  92.7861764  61.6312893  33.5690166  97.6912502  56.3596978
  33.4335841  98.5364038  56.7881825  34.1099978  97.8931780  55.5962911
  27.0219563  95.2087940  56.9324903  27.5344084  96.0031190  57.0830467
  27.6742276  94.5114231  56.8658504  28.8314448  98.3253696  59.0147656
  29.0081076  99.2471661  58.8268640  29.6271282  98.0112116  59.4442036
  32.9725467  85.1861961  70.6131589  33.7135180  85.7869114  70.5336052
  33.2043389  84.4439599  70.0549632  28.1166805  90.3718328  68.8909819
  28.0020320  89.4703585  69.1916918  27.2611322  90.6182025  68.5394636
  35.1958642  98.3136069  70.4897320  34.7522496  97.5272447  70.1718224
  35.8575856  98.5015219  69.8241210  29.9545763  99.8431870  65.0157998
  30.5053189  99.7148934  64.2434992  29.1157239 100.1426759  64.6652891
  37.2939880  98.5938868  68.5178721  37.2758356  99.4147750  68.0258990
  38.2159800  98.4692944  68.7428862  33.7512935  96.1082998  69.3602229
  34.2841271  95.3471286  69.1301537  33.2227016  95.8156650  70.1026384
  24.9868480  93.5376594  57.7084473  25.8243702  93.9473603  57.4918181
  25.1646748  92.5976037  57.6784667  36.8832912  91.2051675  53.3968306
  36.3679536  91.9756280  53.6356694  36.6110221  90.5316811  54.0201368
  34.4680023  86.0501376  58.4553545  33.6121620  85.6608226  58.2759183
  34.8806975  86.1293337  57.5953330  32.2422056  83.6686449  61.8611286
  33.1075053  83.4729257  61.5017175  32.3099565  83.4396801  62.7880643
  41.8567186  93.9584030  55.3321480  41.0796629  93.6195189  54.8876642
  42.5358667  93.9636653  54.6576445  36.6719215  89.0778767  55.2228087
  36.3669351  89.3924916  56.0738231  37.6249658  89.1560187  55.2655420
  35.1165647  95.2368990  56.8721041  34.5887009  94.5021750  56.5594279
  34.6153150  96.0143667  56.6261010  40.0958493  93.4318011  61.9888088
  39.4382168  94.1217272  62.0768216  40.8998892  93.8214443  62.3322074
  29.8484375  85.8988657  59.2327653  30.4228127  85.6763838  58.5000846
  30.4355357  85.9677351  59.9856254  38.9063952  91.7862384  60.0392029
  39.4195834  92.4192375  60.5413739  39.5565176  91.1863579  59.6735389
  30.1753962  87.9293118  53.2523538  29.3391274  88.2667804  53.5732813
  30.0358732  87.7942098  52.3150675  32.1507043  82.7729906  57.9602722
  31.4971455  82.4578923  57.3359337  32.1087517  82.1505646  58.6862545
  33.2618247  93.0549201  49.8756014  32.3545309  92.8238454  50.0747163
  33.7589279  92.2586820  50.0629996  36.1686326 101.7646708  52.7952701
  35.4948025 102.0678405  53.4037658  36.5552148 102.5675788  52.4458158
  35.3844783  89.2611839  62.2850370  34.4667344  89.4826786  62.1272058
  35.8004927  89.3358150  61.4262077  36.1679831  90.6603255  57.4153050
  36.9151650  91.1724652  57.1060172  36.4371420  90.3387308  58.2757444
  34.4406481  93.1561796  54.3980004  33.5317700  92.8720828  54.4952474
  34.4701565  93.5760874  53.5383311  39.6725748  96.7668385  58.1671172
  39.2188075  95.9259295  58.2236362  39.0419715  97.4029783  58.5045952
  38.6158668  87.6960371  59.3971839  37.8781425  87.1837757  59.7282082
  38.8685441  87.2560753  58.5855116  38.1158688  98.6044882  59.1020990
  38.4081662  99.1649939  58.3833356  38.6257308  98.8973443  59.8574149
  38.7170295  80.4736623  59.9913609  39.0229172  79.6133987  59.7039524
  39.4422900  81.0654243  59.7912603  25.0094651  90.8767310  58.3795207
  24.8119051  90.2836670  57.6546273  24.4541315  90.5719520  59.0971145
  32.9891375  90.7690416  60.4989800  33.0439985  89.8164253  60.4232276
  32.1782577  90.9249855  60.9831098  34.1382569  94.6970539  51.7368083
  33.7001999  93.9806398  51.2773720  34.8793010  94.9246654  51.1753174
  30.9283735  89.3867476  58.2580179  30.1151600  89.6861646  58.6645371
  31.4242729  88.9923165  58.9754661  33.0792313  99.3825233  60.1914443
  33.0368491  99.6086079  59.2622975  33.9955012  99.1488607  60.3400245
  36.5257947  89.8509300  67.0895073  36.8807334  90.0780774  67.9489538
  37.1730078  90.1827677  66.4672328  42.2555683  92.9727736  57.7944402
  42.1173582  93.1629332  56.8665591  41.8991902  93.7347119  58.2512453
  30.4197810  86.9585831  63.8741414  31.0597189  86.8174591  63.1764377
  29.5875340  86.6720345  63.4980016  42.2825063  95.0404263  62.8055673
  42.7161570  94.9479552  63.6538727  42.9956644  95.0161764  62.1675689
  31.1958113  96.2588262  59.9876406  31.9898712  95.7638582  59.7858981
  30.4849806  95.7306125  59.6244112  36.0152958  98.6406357  64.3388774
  36.0689980  99.2097294  65.1066490  35.1467739  98.8108242  63.9742811
  27.5040877  90.4031344  56.0636159  26.5738465  90.3415799  56.2806121
  27.5998349  89.8807296  55.2672800  27.4226426  86.9286156  58.6514400
  27.6833243  87.8431490  58.5423561  28.2443598  86.4610599  58.8011013
  28.8951351  88.3423914  65.8213225  29.5674405  88.1341276  65.1725874
  28.0681138  88.1446000  65.3818457  43.1440613  95.0827964  65.3388558
  43.3376503  95.9873774  65.5847833  43.0441231  94.6235383  66.1727144
  34.7976923  84.9685855  67.8378886  34.1504838  85.6675804  67.7443362
  35.5677939  85.4021998  68.2055134  38.2055721  95.2334707  70.9129439
  38.0541228  95.0045258  69.9959523  38.1960401  96.1905308  70.9260784
  34.9741058  92.8066619  65.8975706  35.9033118  92.9577779  65.7244673
  34.5532088  92.8950640  65.0424352  33.7729389  96.8317284  63.6674243
  33.6340475  96.4636068  64.5400181  32.9843986  97.3464923  63.4958201
  34.3677541 101.9326380  55.0099780  34.5429297 101.4614424  55.8245402
  33.6810329 102.5592147  55.2381040  35.3234605  96.2098887  61.0563081
  34.9884437  96.1699657  61.9520731  34.8238550  95.5443602  60.5833491
  29.2978849  91.6166517  66.5815662  29.1598647  90.8846755  67.1827201
  30.2083772  91.5275417  66.2999850  38.2593796  93.5554921  51.3300141
  37.6422967  92.8301749  51.2333193  37.7910285  94.3164281  50.9867215
  31.9261149  91.3286476  66.0699342  32.6360768  90.6879668  66.0285960
  31.8830457  91.5799371  66.9925523  39.9147928  98.2653829  68.9905921
  39.8560474  97.5813049  68.3236504  40.3167446  99.0072819  68.5386547
  30.6390083  88.3151694  67.8894981  30.1027440  87.8642432  68.5416578
  30.0506792  88.4497603  67.1465446  28.9338627 105.0815743  61.7839640
  29.1735225 105.7134267  62.4618658  28.0907823 104.7303783  62.0704999
  30.0492342  87.7740345  50.4521445  29.1721809  87.6529146  50.0883692
  30.5250095  86.9826424  50.2000334  39.9165335  96.2293413  67.2219901
  39.0292114  95.8919335  67.3446300  40.4863886  95.4976444  67.4588666
  21.5694482  92.5617505  60.5462952  22.2565522  92.2479235  59.9583967
  21.4142611  93.4658870  60.2730203  26.3729204  87.4507701  64.9747976
  26.2887393  86.8433371  64.2398386  25.5511911  87.9416720  64.9757472
  33.4466489 100.8894866  64.1881144  33.3736660 101.6949837  64.7000448
  33.0043882 101.0886831  63.3629165  33.2356268 100.1266636  57.6983965
  32.4523790 100.6688316  57.7922190  33.9349013 100.6440615  58.0978207
  36.5452918  85.9361265  60.3418171  37.0421618  85.1831227  60.0219241
  35.7739900  85.9725582  59.7761380  44.3982676  91.6401631  61.9836462
  44.3872552  92.5226346  61.6130395  43.5300055  91.2873181  61.7890999
  35.9065172 100.7881700  66.3439303  36.6193144 101.4229164  66.2715204
  35.4155201 100.8845566  65.5279304  37.6282699  94.6932952  57.9156594
  36.6938978  94.8134415  57.7461299  37.8059367  93.7905419  57.6516604
  33.1287887  88.0778648  60.0689855  32.7585675  87.5249688  60.7570761
  33.6246980  87.4736781  59.5164855  41.0155250  90.5350272  58.4506628
  41.4815703  91.3678263  58.3766931  41.4662751  90.0695253  59.1551887
  30.9577086  98.5376143  67.1644873  31.6586545  99.1712626  67.3174268
  30.4872201  98.8790875  66.4040513  39.0831481  96.8794093  55.4492780
  39.3591325  96.7650687  56.3586654  38.2135980  96.4811578  55.4104953
  38.7578372  91.0920750  64.9897424  38.1049822  91.3396658  64.3349876
  39.1358752  90.2784889  64.6559901  35.7185545 101.1280444  59.0925594
  35.9007940 100.3102100  59.5553346  36.5418532 101.3448136  58.6550484
  36.0527711 100.0548629  56.3540642  36.5815477  99.5441083  55.7410805
  36.3155931  99.7391159  57.2186175  34.8065945  91.8340562  71.4763461
  34.1306582  91.7334691  72.1465836  35.6293579  91.6779775  71.9399458
  26.5544804  98.0712498  64.0975976  27.1398241  97.3256186  64.2303880
  26.3569642  98.3816455  64.9812640  29.4083459 101.1063745  59.1138418
  28.7393834 101.5909873  58.6302458  29.2696329 101.3532966  60.0281797
  21.1462458  90.6418098  62.8180419  21.1846558  90.1081689  63.6117537
  20.6402751  90.1153304  62.1991396  33.5488728 103.1407489  65.7121077
  34.1007036 103.3039110  66.4770162  33.8894921 103.7311927  65.0401102
  28.5253221  85.4882639  66.3142961  28.5894547  86.3497470  65.9020359
  28.4620341  84.8756640  65.5815320  28.0005493  87.5605771  69.9615996
  28.6277532  87.1782849  70.5753520  27.1433412  87.3419973  70.3271688
  38.3999602  97.9668746  71.5669731  38.9439506  98.5798705  71.0724686
  37.8186447  98.5248325  72.0836744  24.7771036  89.3682200  55.8934351
  25.0724477  88.4592879  55.8401404  23.8759072  89.3469940  55.5715353
  36.6857115 101.0889465  62.6984759  36.5608254 100.2879204  62.1895704
  37.3436206 101.5835658  62.2098729  28.3065283  87.4438197  61.8761899
  27.5851869  88.0574165  61.7369372  29.0958539  87.9795962  61.7978545
  38.7492023  98.8898485  64.3264309  37.8022359  98.7703836  64.2542636
  39.0974796  98.0020983  64.4090570  31.1091597  84.7792624  68.1502551
  31.6325998  85.0254920  68.9128860  30.8903930  85.6112658  67.7305688
  26.5058878  87.0496298  56.0173676  26.1771584  86.1693677  55.8348782
  26.8598248  86.9943967  56.9050065  35.7538456  98.6851201  60.5268661
  35.6063419  97.7567908  60.7076231  36.5791950  98.7071292  60.0425736
  29.6200701  87.3369268  56.3849153  29.9596773  87.8655189  55.6627762
  30.0672821  87.6749674  57.1607720  39.3572578  99.5079760  61.6133534
  40.2819126  99.3022621  61.4757985  39.1887882  99.2596161  62.5222875
  32.3144142  85.7206319  65.8352221  31.9740962  84.9214132  66.2372901
  31.6083148  86.0208029  65.2629055  31.6068848  85.8343889  54.5842446
  32.3277210  86.2125142  54.0806163  30.9834152  86.5532766  54.6877424
  35.7499971  86.5389038  55.5200778  35.9663585  87.4213676  55.2189607
  35.2694038  86.1475252  54.7906420  30.4899192  89.4974752  62.0971523
  30.3443773  89.8115055  62.9895805  30.0124396  90.1159652  61.5442422
  32.3495575  86.4877300  62.1452413  32.3357144  85.5918393  61.8084711
  33.0668003  86.4947963  62.7790699  34.2021706  86.9214640  64.1905540
  33.9439484  87.8431711  64.1889870  33.6706746  86.5245074  64.8806004
  39.1467895 100.0265427  56.9695625  39.3204772  99.4611849  56.2169478
  39.6396786 100.8266322  56.7875115  24.9644854  92.0380096  65.0359184
  24.4198322  92.8139904  65.1679459  25.8424204  92.3850901  64.8778306
  31.7532471  85.3691680  57.4139983  31.8748382  84.4408326  57.6130870
  31.4634513  85.3830366  56.5018298  45.0007286  92.7901850  58.5885925
  45.4438432  92.0409175  58.1905048  44.1233796  92.7811986  58.2059657
  40.1343067  99.3432191  54.0692524  40.8293972  99.9638884  54.2879838
  40.4766217  98.4927543  54.3444902  25.7510876  91.1649992  67.9289341
  25.0092612  91.3132628  68.5153972  25.4303620  91.4258258  67.0656091
  42.0334490  96.7931897  55.5979854  42.5585814  97.1319170  54.8729175
  41.9456843  95.8578912  55.4142989  33.6954539 100.7065971  67.7269731
  34.0041665 100.4615117  68.5992431  34.4930021 100.9112609  67.2388601
  33.7175151 102.8603880  59.9575108  33.2780141 102.3680259  60.6507964
  34.4683268 102.3176848  59.7167183  26.1967490  99.0515421  59.9599736
  27.0225510  98.7519193  59.5798379  25.8461542  98.2823044  60.4089524
  31.1649023  98.4041889  62.0297409  30.5429032  97.7412594  61.7299637
  31.8353890  98.4303021  61.3471057  24.3976095  96.9701748  60.9188669
  23.5608003  96.5423922  60.7372671  24.3699740  97.1634191  61.8559461
  31.2373551  86.8823677  71.6229915  31.2861706  87.7585800  71.2407685
  31.7796065  86.3401070  71.0501559  41.7228396  97.4264801  70.9031052
  40.9323940  97.4088939  70.3635552  41.4861751  97.9653094  71.6580089
  41.8426271  94.2757267  68.2163781  41.8924276  94.1107274  69.1579304
  41.7340195  93.4084526  67.8261662  30.7262530  96.9545813  55.5055870
  30.8750650  97.6381277  54.8522543  31.5328973  96.9350903  56.0205326
  39.1330034  90.2588195  69.5323088  40.0339896  90.1194660  69.2407085
  39.2078008  90.4242650  70.4721265  33.4672839  87.6355050  68.3776274
  32.5976148  87.9288616  68.1058863  33.7032319  88.2195495  69.0983538
  43.3444468  96.6954208  68.4605803  43.0529276  97.0584189  69.2969263
  42.7316599  95.9821217  68.2819135  44.5440150  94.2607088  60.9808373
  45.3787042  94.6996892  61.1445933  44.6799279  93.7845741  60.1616619
  41.5931656  91.8186823  66.9285861  42.0685778  92.0114469  66.1204712
  40.6697222  91.8746009  66.6829244  28.4815163  92.9810990  56.5116939
  28.2361205  92.0773320  56.7097149  28.6511077  92.9828141  55.5696417
  27.7510810  88.7139348  54.0103100  27.0580055  88.7883703  53.3543136
  27.5062562  87.9499691  54.5324617  34.2257935  99.4493943  52.9767617
  33.6531903 100.0684130  52.5238089  34.7990729  99.9993305  53.5107539
  40.2933325  88.6952583  65.1614166  41.2450748  88.7950681  65.1826390
  40.1236776  87.9030852  65.6712250  38.3147705  85.7808166  65.3473567
  37.7197637  86.0613179  64.6520056  38.0297401  86.2702067  66.1190308
  37.4455195  99.7331093  54.1076200  38.3785868  99.6676655  54.3109075
  37.3578408 100.5687360  53.6490732  40.0743212  99.0496964  51.0680147
  39.9956843  98.7156827  51.9615905  40.8952879  99.5418731  51.0671619
  42.7721403  91.9158703  64.2756466  42.7397723  90.9774704  64.4616150
  43.3822027  91.9942740  63.5422291  34.6104734  90.7854756  50.3183670
  35.5563839  90.6560964  50.3872088  34.2318979  90.0469418  50.7953098
  42.9215892  88.7069746  64.3214749  42.4054940  87.9228203  64.1344678
  43.8055840  88.3788463  64.4861268  40.5826619  82.4510762  60.2810562
  40.3851440  82.1425850  61.1653894  41.1926324  83.1772401  60.4108491
  48.5897953  92.9774710  63.4162503  49.3201341  92.7159998  63.9770206
  47.9804898  92.2403432  63.4564571  46.6713250  91.1182572  64.0136954
  45.9446414  90.9838537  63.4053445  46.2560537  91.4259401  64.8193672
  34.4943427  94.8372502  71.7784327  35.4146436  95.0151101  71.9724373
  34.4593010  93.8928547  71.6264026  32.7947651  88.7104732  50.2538555
  31.8879107  88.4137845  50.3301269  33.0723632  88.4134550  49.3872841
  23.7125592  90.0311096  60.7037601  23.3928376  89.1776404  60.4111975
  23.1659020  90.2459674  61.4595569  27.4905499  92.7473537  64.4207108
  27.7091509  93.6790644  64.4395142  27.9031273  92.3881511  65.2061912
  34.4109717  83.2541622  56.4082796  33.6010445  82.9088707  56.7838042
  35.0994134  82.9449166  56.9970408  36.3400265  82.3319669  58.0307093
  36.8931304  82.7515122  58.6897116  36.5770351  81.4055417  58.0730049
  32.3633364  88.3206742  73.8109857  32.2630091  89.2701099  73.7421948
  32.1454906  87.9924981  72.9385927  31.5646436  85.5691667  50.3950534
  32.4265600  85.8946566  50.6546352  31.7496780  84.7823163  49.8823600
  23.5813852  93.6514007  62.6730723  22.8877323  93.2367960  62.1600677
  24.3286843  93.6934544  62.0764142  39.7179072  84.4420194  57.5385757
  39.1377741  85.1004998  57.1563810  39.4515005  83.6197539  57.1273175
  38.1682639  83.8425252  59.7407078  38.6682417  83.9541786  58.9321396
  38.8118247  83.5386304  60.3807886  32.2264634  91.7503881  72.6274919
  31.7431716  92.5504241  72.8338808  32.3125573  91.7611826  71.6742363
  25.4950594  93.5832261  60.5496738  25.4721282  93.6819948  59.5978621
  25.8051231  94.4297412  60.8713904  28.1537972  95.6408416  64.6643352
  29.1081225  95.6092358  64.5973284  27.9550495  95.1799040  65.4793578
  28.7437354  94.2109532  67.2314150  29.5630243  94.7053611  67.2548987
  29.0174162  93.2941500  67.2031717  38.5003950  86.6020284  56.5942105
  37.6129805  86.8869935  56.3762300  38.9157939  86.4414048  55.7469382
  41.8518486  86.6266805  60.3096445  42.6278876  87.1163258  60.5821062
  41.1266621  87.0524859  60.7668314  44.2891045  87.3394424  61.3670385
  44.8835536  87.0990160  60.6563694  44.3617629  86.6201555  61.9943922
  26.5088201 101.1828035  61.6813550  26.3742669 100.4228436  61.1151548
  26.0920263 101.9068935  61.2142339  37.6447164  96.3664959  50.6890125
  38.3483014  96.5714961  51.3047781  36.9209812  96.9341721  50.9539209
  38.4744974  92.1174820  56.8092396  38.4180175  92.5743372  55.9700028
  39.0273316  91.3565505  56.6315238  42.2849780  87.9064552  57.6342515
  42.0286714  87.5061188  58.4650723  41.6602648  88.6208346  57.5092654
  46.5962118  90.6460625  60.1413807  46.0361676  90.7153815  60.9145369
  45.9905621  90.4701610  59.4213303  29.6657327 102.0797352  61.8931993
  29.5489711 103.0242785  61.7910683  28.8449773 101.7770914  62.2817792
  39.5533861  96.8047488  52.7388586  40.3879465  96.3728687  52.5566060
  39.3918204  96.6329502  53.6665480  39.2079753  93.3079601  54.1044925
  39.1528557  93.1423873  53.1633369  38.5825809  94.0155634  54.2607115
  23.9972268  88.5447666  67.9306347  24.6431132  88.0346620  68.4193572
  23.7889419  89.2816347  68.5049772  36.5225660  95.6128513  73.4298488
  37.3916820  95.7869166  73.0685123  36.0432412  96.4322930  73.3074217
  32.5175879  82.8087710  53.6830243  32.5054549  83.7529550  53.8398514
  33.4099301  82.6257856  53.3889704  30.6911841 102.7325614  65.1087921
  31.5939087 102.7649225  65.4254416  30.4649211 101.8026065  65.1234257
  32.4465443 101.4856601  61.7698000  31.4961074 101.4858462  61.6562372
  32.7497929 100.7389335  61.2534034  28.3369759  85.6915283  72.0281361
  29.2001221  85.3352088  72.2384686  27.7635170  85.3529178  72.7156766
  48.1818136 107.3217139  62.8343762  48.8196546 107.2023887  62.1307102
  48.0638979 108.2697983  62.8931714  44.9907842 107.2744567  62.7705287
  44.6526354 107.1585632  61.8825822  45.8597611 106.8735732  62.7506293
  40.8494658 109.1280044  58.7602178  40.2859523 109.0369981  57.9918466
  40.7347053 108.3079948  59.2404670  45.4727625 108.4279419  68.7291492
  45.4616266 108.0332217  67.8571996  45.6348265 107.6945492  69.3225264
  38.3959090 110.6231235  61.5986398  39.1880382 110.2822060  61.1832698
  38.6355740 110.7326210  62.5188552  46.4294217 112.7951011  54.0716643
  45.7782197 113.3805092  53.6850657  47.2238580 113.3257206  54.1311680
  40.3549844 109.8840149  54.4703777  41.1280720 109.3369136  54.3316653
  40.7075243 110.7484398  54.6818239  42.1934887 111.2116531  67.6770676
  41.9024753 112.1162162  67.5617343  42.8291871 111.2533059  68.3914746
  43.1191093 108.5893379  64.2672036  43.7154666 108.3649402  63.5528999
  43.1766065 107.8478125  64.8697484  42.6916122 106.0432815  52.1022227
  42.9441643 105.5214336  51.3405690  41.7540681 105.8798960  52.2048911
  47.7359405 105.0468593  59.9096970  48.5222494 104.6288016  59.5587387
  47.9998109 105.9514685  60.0778619  47.9069482 110.4841443  54.6085627
  47.2715315 110.5576070  55.3206532  47.5766888 111.0735042  53.9304706
  53.1367832 104.9843826  60.8129949  53.8693004 104.4143043  61.0467778
  52.3807188 104.5965427  61.2536454  42.4112411 107.9460921  54.3046602
  42.2948669 107.2705824  54.9727686  42.5214671 107.4593295  53.4878755
  44.7543952 107.4071068  58.0093291  44.3902159 106.8801689  58.7206213
  45.6111067 107.0169537  57.8359777  50.6593252  98.6965400  65.2724557
  50.3276577  99.5660811  65.0485772  50.0638866  98.3801684  65.9518588
  44.3949439 102.4360968  53.0054640  44.5623841 103.3041204  53.3725111
  44.2046608 102.5988249  52.0815929  47.1524772 110.8977946  64.6720470
  46.8525495 111.8002985  64.5636277  46.8075831 110.6310130  65.5241623
  40.6037253 107.3491743  60.7057175  39.6787750 107.2167957  60.9134866
  40.8521666 108.1285963  61.2027117  50.5521916 103.4160487  62.3517907
  49.6438793 103.3475895  62.0576668  50.5009511 103.8932432  63.1799733
  44.3738659 104.8918625  53.9901307  44.2538285 105.3375676  54.8286787
  43.6791248 105.2403943  53.4314845  37.9646064 106.9925017  61.5400964
  38.0938445 107.2459496  62.4540375  37.2843516 107.5852725  61.2205619
  42.1345552 117.6622267  57.6391438  42.0569581 118.6130092  57.7179918
  41.5307195 117.3168139  58.2966364  44.6262781 104.8350132  70.2952805
  43.8496115 105.3944052  70.2855669  45.2653344 105.3206915  70.8167675
  52.4183562 101.6176925  64.1295781  51.7757942 101.9109458  63.4835576
  51.9138490 101.5029845  64.9348978  50.0723726 105.3640098  54.8181641
  50.9841582 105.5967485  54.6429338  49.5633373 105.9477142  54.2556719
  42.8809154 107.6435586  69.8570772  43.6223838 108.1820630  69.5805595
  42.1746139 108.2701874  70.0142324  48.3564493 109.7864726  68.4542933
  48.7647849 109.3447137  67.7097566  47.6341755 109.2117354  68.7077126
  44.7095563 104.7237333  65.8276490  45.5556758 105.1476746  65.9711139
  44.6494201 104.0670957  66.5215053  48.6793308 110.3465917  62.2095222
  48.0502170 110.5111631  61.5071290  48.2918970 110.7607526  62.9806186
  52.5582540 111.2820354  59.5639586  51.8733578 111.6619256  59.0136619
  52.6426389 111.8915681  60.2971534  47.8595009 102.3841701  67.4857664
  47.6155940 103.1383762  66.9491940  48.1354939 102.7627049  68.3204911
  49.8133471 108.9280314  66.1634929  50.0250367 109.5712073  65.4869310
  49.7663220 108.0942630  65.6956859  47.4159700 101.5398134  63.0671502
  46.5544179 101.8379388  63.3588239  47.4422135 101.7568533  62.1352534
  44.2321270 110.0840325  59.4745307  44.6959615 110.3628028  58.6849930
  43.9678068 109.1823769  59.2918398  41.1245351 109.6311806  62.4125070
  41.6946708 110.0599075  61.7742555  41.7153463 109.3494391  63.1109256
  43.1690156 106.2063477  56.2834872  43.8714199 106.6584521  56.7508799
  42.8370784 105.5647296  56.9114765  41.6170517 104.7975234  70.6586082
  40.9869178 105.4791515  70.8921479  41.5106605 104.6858315  69.7139220
  36.9115490 104.4647030  61.5852006  36.1214544 104.7204558  61.1092117
  37.4026737 105.2795368  61.6904046  50.9279299 111.8052269  64.3357287
  51.7496743 111.4032456  64.0539968  50.9241702 111.7020503  65.2873403
  38.8630235 104.8291609  58.5435483  38.0661398 104.9410303  59.0618978
  38.6355827 105.1678261  57.6776373  44.6935903 111.3536312  66.4917997
  44.7580335 111.8156719  67.3276169  43.9846827 110.7233677  66.6200307
  35.1953193 104.7177520  64.0166997  35.4461231 105.6024530  64.2824573
  35.7312741 104.5382122  63.2442089  59.0185292 108.1491017  60.6842258
  58.2649001 107.5798415  60.5286263  59.1532834 108.1153682  61.6312893
  44.4083920 113.0204420  56.3596978  44.2729595 113.8655955  56.7881825
  44.9493733 113.2223697  55.5962911  40.8951260  99.0996000  73.0211333
  40.5018206  98.5462198  73.6958977  41.7117400  99.4106578  73.4117850
  37.8613318 110.5379858  56.9324903  38.3737838 111.3323108  57.0830467
  38.5136031 109.8406148  56.8658504  39.6708203 113.6545614  59.0147656
  39.8474831 114.5763579  58.8268640  40.4665036 113.3404033  59.4442036
  43.8119221 100.5153879  70.6131589  44.5528934 101.1161032  70.5336052
  44.0437144  99.7731516  70.0549632  38.9560559 105.7010246  68.8909819
  38.8414074 104.7995503  69.1916918  38.1005077 105.9473943  68.5394636
  46.0352397 113.6427986  70.4897320  45.5916251 112.8564365  70.1718224
  46.6969610 113.8307137  69.8241210  40.7939518 115.1723788  65.0157998
  41.3446943 115.0440851  64.2434992  39.9550994 115.4718677  64.6652891
  48.1333635 113.9230786  68.5178721  48.1152110 114.7439667  68.0258990
  49.0553555 113.7984861  68.7428862  44.5906689 111.4374916  69.3602229
  45.1235026 110.6763204  69.1301537  44.0620770 111.1448567  70.1026384
  47.7576384  96.5434982  64.8895871  47.4140653  97.4336623  64.8134982
  48.1255347  96.3536639  64.0265456  35.8262235 108.8668512  57.7084473
  36.6637457 109.2765520  57.4918181  36.0040502 107.9267954  57.6784667
  47.7226667 106.5343593  53.3968306  47.2073290 107.3048197  53.6356694
  47.4503975 105.8608729  54.0201368  45.3073778 101.3793293  58.4553545
  44.4515374 100.9900144  58.2759183  45.7200730 101.4585254  57.5953330
  46.8372924  98.9139637  62.8545104  46.3337720  98.8769772  62.0412910
  47.1303531  99.8232379  62.9141761  43.0815810  98.9978366  61.8611286
  43.9468807  98.8021175  61.5017175  43.1493319  98.7688718  62.7880643
  52.6960941 109.2875947  55.3321480  51.9190384 108.9487107  54.8876642
  53.3752422 109.2928571  54.6576445  47.5112970 104.4070685  55.2228087
  47.2063105 104.7216834  56.0738231  48.4643412 104.4852105  55.2655420
  45.9559402 110.5660908  56.8721041  45.4280763 109.8313668  56.5594279
  45.4546904 111.3435584  56.6261010  50.9352248 108.7609929  61.9888088
  50.2775922 109.4509190  62.0768216  51.7392647 109.1506361  62.3322074
  40.6878129 101.2280574  59.2327653  41.2621881 101.0055756  58.5000846
  41.2749112 101.2969269  59.9856254  49.7457707 107.1154301  60.0392029
  50.2589588 107.7484293  60.5413739  50.3958930 106.5155497  59.6735389
  41.0147716 103.2585035  53.2523538  40.1785029 103.5959722  53.5732813
  40.8752486 103.1234015  52.3150675  42.9900797  98.1021823  57.9602722
  42.3365209  97.7870840  57.3359337  42.9481271  97.4797564  58.6862545
  44.1012002 108.3841118  49.8756014  43.1939064 108.1530372  50.0747163
  44.5983034 107.5878738  50.0629996  47.0080081 117.0938626  52.7952701
  46.3341780 117.3970322  53.4037658  47.3945903 117.8967706  52.4458158
  46.2238537 104.5903757  62.2850370  45.3061099 104.8118704  62.1272058
  46.6398681 104.6650067  61.4262077  47.0073585 105.9895173  57.4153050
  47.7545404 106.5016570  57.1060172  47.2765175 105.6679225  58.2757444
  45.2800235 108.4853713  54.3980004  44.3711455 108.2012746  54.4952474
  45.3095319 108.9052792  53.5383311  50.5119503 112.0960303  58.1671172
  50.0581830 111.2551213  58.2236362  49.8813469 112.7321701  58.5045952
  49.4552422 103.0252289  59.3971839  48.7175179 102.5129675  59.7282082
  49.7079196 102.5852670  58.5855116  48.9552442 113.9336799  59.1020990
  49.2475416 114.4941857  58.3833356  49.4651063 114.2265360  59.8574149
  49.5564050  95.8028541  59.9913609  49.8622926  94.9425904  59.7039524
  50.2816654  96.3946161  59.7912603  35.8488406 106.2059227  58.3795207
  35.6512806 105.6128588  57.6546273  35.2935070 105.9011438  59.0971145
  43.8285129 106.0982334  60.4989800  43.8833739 105.1456170  60.4232276
  43.0176331 106.2541773  60.9831098  44.9776323 110.0262457  51.7368083
  44.5395753 109.3098316  51.2773720  45.7186764 110.2538572  51.1753174
  41.7677489 104.7159394  58.2580179  40.9545355 105.0153564  58.6645371
  42.2636483 104.3215082  58.9754661  43.9186067 114.7117151  60.1914443
  43.8762246 114.9377997  59.2622975  44.8348766 114.4780525  60.3400245
  47.3651701 105.1801218  67.0895073  47.7201089 105.4072691  67.9489538
  48.0123832 105.5119595  66.4672328  53.0949438 108.3019654  57.7944402
  52.9567337 108.4921250  56.8665591  52.7385657 109.0639037  58.2512453
  41.2591564 102.2877749  63.8741414  41.8990943 102.1466508  63.1764377
  40.4269095 102.0012263  63.4980016  53.1218818 110.3696181  62.8055673
  53.5555324 110.2771470  63.6538727  53.8350398 110.3453681  62.1675689
  42.0351868 111.5880180  59.9876406  42.8292466 111.0930500  59.7858981
  41.3243560 111.0598043  59.6244112  46.8546712 113.9698275  64.3388774
  46.9083735 114.5389211  65.1066490  45.9861494 114.1400160  63.9742811
  38.3434631 105.7323261  56.0636159  37.4132220 105.6707717  56.2806121
  38.4392103 105.2099214  55.2672800  38.2620180 102.2578074  58.6514400
  38.5226998 103.1723407  58.5423561  39.0837353 101.7902517  58.8011013
  39.7345106 103.6715831  65.8213225  40.4068159 103.4633193  65.1725874
  38.9074892 103.4737917  65.3818457  53.9834367 110.4119882  65.3388558
  54.1770257 111.3165692  65.5847833  53.8834985 109.9527301  66.1727144
  45.6370678 100.2977772  67.8378886  44.9898593 100.9967722  67.7443362
  46.4071693 100.7313916  68.2055134  49.0449476 110.5626624  70.9129439
  48.8934982 110.3337176  69.9959523  49.0354155 111.5197226  70.9260784
  45.8134812 108.1358537  65.8975706  46.7426872 108.2869697  65.7244673
  45.3925842 108.2242558  65.0424352  44.6123144 112.1609202  63.6674243
  44.4734230 111.7927986  64.5400181  43.8237740 112.6756841  63.4958201
  45.2071296 117.2618298  55.0099780  45.3823052 116.7906341  55.8245402
  44.5204084 117.8884064  55.2381040  46.1628359 111.5390804  61.0563081
  45.8278192 111.4991574  61.9520731  45.6632305 110.8735520  60.5833491
  40.1372603 106.9458434  66.5815662  39.9992401 106.2138673  67.1827201
  41.0477527 106.8567334  66.2999850  49.0987551 108.8846839  51.3300141
  48.4816721 108.1593667  51.2333193  48.6304039 109.6456199  50.9867215
  42.7654904 106.6578394  66.0699342  43.4754522 106.0171586  66.0285960
  42.7224212 106.9091288  66.9925523  50.7541682 113.5945747  68.9905921
  50.6954229 112.9104967  68.3236504  51.1561201 114.3364737  68.5386547
  41.4783838 103.6443611  67.8894981  40.9421195 103.1934350  68.5416578
  40.8900546 103.7789520  67.1465446  40.8886097 103.1032263  50.4521445
  40.0115563 102.9821064  50.0883692  41.3643850 102.3118341  50.2000334
  50.7559090 111.5585331  67.2219901  49.8685868 111.2211253  67.3446300
  51.3257641 110.8268362  67.4588666  32.4088237 107.8909423  60.5462952
  33.0959277 107.5771153  59.9583967  32.2536365 108.7950787  60.2730203
  37.2122959 102.7799619  64.9747976  37.1281148 102.1725289  64.2398386
  36.3905665 103.2708637  64.9757472  44.2860243 116.2186783  64.1881144
  44.2130415 117.0241755  64.7000448  43.8437636 116.4178749  63.3629165
  44.0750023 115.4558553  57.6983965  43.2917545 115.9980233  57.7922190
  44.7742768 115.9732533  58.0978207  47.3846673 101.2653183  60.3418171
  47.8815372 100.5123145  60.0219241  46.6133654 101.3017499  59.7761380
  55.2376430 106.9693548  61.9836462  55.2266306 107.8518264  61.6130395
  54.3693810 106.6165099  61.7890999  46.7458927 116.1173617  66.3439303
  47.4586899 116.7521082  66.2715204  46.2548955 116.2137483  65.5279304
  48.4676454 110.0224870  57.9156594  47.5332732 110.1426332  57.7461299
  48.6453122 109.1197337  57.6516604  43.9681642 103.4070566  60.0689855
  43.5979429 102.8541606  60.7570761  44.4640734 102.8028699  59.5164855
  51.8549005 105.8642189  58.4506628  52.3209457 106.6970181  58.3766931
  52.3056505 105.3987171  59.1551887  41.7970840 113.8668061  67.1644873
  42.4980300 114.5004544  67.3174268  41.3265955 114.2082792  66.4040513
  49.9225236 112.2086010  55.4492780  50.1985080 112.0942605  56.3586654
  49.0529735 111.8103495  55.4104953  49.8265668  98.2322776  62.4897530
  48.9128747  98.4627003  62.6579737  50.2558769  98.3161220  63.3411562
  49.5972126 106.4212668  64.9897424  48.9443576 106.6688576  64.3349876
  49.9752506 105.6076806  64.6559901  46.5579300 116.4572361  59.0925594
  46.7401695 115.6394017  59.5553346  47.3812286 116.6740054  58.6550484
  46.8921465 115.3840546  56.3540642  47.4209232 114.8733001  55.7410805
  47.1549685 115.0683077  57.2186175  45.6459699 107.1632479  71.4763461
  44.9700336 107.0626609  72.1465836  46.4687333 107.0071693  71.9399458
  37.3938558 113.4004416  64.0975976  37.9791995 112.6548104  64.2303880
  37.1963397 113.7108372  64.9812640  40.2477213 116.4355663  59.1138418
  39.5787589 116.9201791  58.6302458  40.1090083 116.6824884  60.0281797
  31.9856213 105.9710016  62.8180419  32.0240312 105.4373607  63.6117537
  31.4796506 105.4445221  62.1991396  44.3882482 118.4699407  65.7121077
  44.9400790 118.6331028  66.4770162  44.7288675 119.0603844  65.0401102
  39.3646975 100.8174556  66.3142961  39.4288302 101.6789387  65.9020359
  39.3014095 100.2048558  65.5815320  38.8399248 102.8897689  69.9615996
  39.4671287 102.5074766  70.5753520  37.9827167 102.6711891  70.3271688
  49.2393356 113.2960664  71.5669731  49.7833260 113.9090622  71.0724686
  48.6580201 113.8540243  72.0836744  35.6164791 104.6974118  55.8934351
  35.9118232 103.7884797  55.8401404  34.7152826 104.6761858  55.5715353
  47.5250869 116.4181382  62.6984759  47.4002009 115.6171122  62.1895704
  48.1829960 116.9127576  62.2098729  39.1459038 102.7730115  61.8761899
  38.4245623 103.3866082  61.7369372  39.9352293 103.3087880  61.7978545
  49.5885778 114.2190402  64.3264309  48.6416113 114.0995753  64.2542636
  49.9368551 113.3312900  64.4090570  41.9485351 100.1084541  68.1502551
  42.4719753 100.3546838  68.9128860  41.7297684 100.9404576  67.7305688
  37.3452632 102.3788216  56.0173676  37.0165338 101.4985595  55.8348782
  37.6992003 102.3235884  56.9050065  46.5932211 114.0143118  60.5268661
  46.4457173 113.0859826  60.7076231  47.4185704 114.0363209  60.0425736
  40.4594455 102.6661186  56.3849153  40.7990528 103.1947107  55.6627762
  40.9066576 103.0041592  57.1607720  50.1966333 114.8371677  61.6133534
  51.1212880 114.6314539  61.4757985  50.0281636 114.5888078  62.5222875
  43.1537896 101.0498236  65.8352221  42.8134716 100.2506049  66.2372901
  42.4476902 101.3499947  65.2629055  43.8054368  98.1347549  64.2879544
  44.6280437  97.6608027  64.1658435  44.0492431  98.9138032  64.7878231
  42.4462602 101.1635807  54.5842446  43.1670965 101.5417060  54.0806163
  41.8227907 101.8824684  54.6877424  46.5893725 101.8680956  55.5200778
  46.8057340 102.7505594  55.2189607  46.1087792 101.4767170  54.7906420
  41.3292947 104.8266669  62.0971523  41.1837527 105.1406972  62.9895805
  40.8518150 105.4451570  61.5442422  43.1889330 101.8169217  62.1452413
  43.1750898 100.9210311  61.8084711  43.9061758 101.8239881  62.7790699
  45.0415460 102.2506558  64.1905540  44.7833238 103.1723628  64.1889870
  44.5100501 101.8536992  64.8806004  49.9861649 115.3557345  56.9695625
  50.1598527 114.7903767  56.2169478  50.4790540 116.1558240  56.7875115
  35.8038609 107.3672014  65.0359184  35.2592077 108.1431822  65.1679459
  36.6817959 107.7142818  64.8778306  42.5926225 100.6983598  57.4139983
  42.7142137  99.7700244  57.6130870  42.3028268 100.7122284  56.5018298
  45.4617416  98.3838508  60.5506703  45.4839113  98.4477841  59.5958682
  45.8785475  97.5443017  60.7447209  55.8401040 108.1193768  58.5885925
  56.2832186 107.3701093  58.1905048  54.9627550 108.1103904  58.2059657
  50.9736822 114.6724109  54.0692524  51.6687726 115.2930802  54.2879838
  51.3159972 113.8219460  54.3444902  36.5904631 106.4941910  67.9289341
  35.8486367 106.6424545  68.5153972  36.2697375 106.7550176  67.0656091
  52.8728245 112.1223815  55.5979854  53.3979569 112.4611087  54.8729175
  52.7850597 111.1870830  55.4142989  44.5348293 116.0357888  67.7269731
  44.8435420 115.7907035  68.5992431  45.3323775 116.2404527  67.2388601
  44.5568905 118.1895798  59.9575108  44.1173896 117.6972177  60.6507964
  45.3077022 117.6468766  59.7167183  37.0361244 114.3807339  59.9599736
  37.8619264 114.0811111  59.5798379  36.6855296 113.6114961  60.4089524
  42.0042778 113.7333807  62.0297409  41.3822787 113.0704512  61.7299637
  42.6747644 113.7594939  61.3471057  35.2369849 112.2993665  60.9188669
  34.4001758 111.8715840  60.7372671  35.2093495 112.4926109  61.8559461
  42.0767305 102.2115595  71.6229915  42.1255460 103.0877718  71.2407685
  42.6189819 101.6692988  71.0501559  52.5622151 112.7556718  70.9031052
  51.7717694 112.7380857  70.3635552  52.3255505 113.2945012  71.6580089
  52.6820026 109.6049185  68.2163781  52.7318031 109.4399192  69.1579304
  52.5733949 108.7376444  67.8261662  41.5656284 112.2837730  55.5055870
  41.7144405 112.9673195  54.8522543  42.3722728 112.2642820  56.0205326
  49.9723788 105.5880113  69.5323088  50.8733651 105.4486578  69.2407085
  50.0471763 105.7534567  70.4721265  44.3066593 102.9646967  68.3776274
  43.4369903 103.2580533  68.1058863  44.5426074 103.5487412  69.0983538
  54.1838223 112.0246126  68.4605803  53.8923031 112.3876107  69.2969263
  53.5710354 111.3113134  68.2819135  55.3833905 109.5899006  60.9808373
  56.2180796 110.0288810  61.1445933  55.5193034 109.1137659  60.1616619
  52.4325411 107.1478741  66.9285861  52.9079532 107.3406387  66.1204712
  51.5090976 107.2037927  66.6829244  39.3208917 108.3102908  56.5116939
  39.0754959 107.4065238  56.7097149  39.4904832 108.3120058  55.5696417
  47.0105627  99.1826584  65.8941694  47.5287571  99.9187611  65.5688183
  46.6560760  99.4890578  66.7288454  38.5904565 104.0431266  54.0103100
  37.8973810 104.1175621  53.3543136  38.3456317 103.2791609  54.5324617
  47.2618221  95.6026867  61.4142591  47.5419975  94.9350056  62.0403018
  48.0468828  95.7955962  60.9017255  45.0651690 114.7785861  52.9767617
  44.4925657 115.3976048  52.5238089  45.6384484 115.3285222  53.5107539
  51.1327080 104.0244501  65.1614166  52.0844503 104.1242599  65.1826390
  50.9630530 103.2322769  65.6712250  49.1541459 101.1100084  65.3473567
  48.5591391 101.3905097  64.6520056  48.8691156 101.5993985  66.1190308
  48.2848950 115.0623011  54.1076200  49.2179623 114.9968573  54.3109075
  48.1972163 115.8979278  53.6490732  50.9136966 114.3788881  51.0680147
  50.8350598 114.0448745  51.9615905  51.7346633 114.8710649  51.0671619
  53.6115158 107.2450621  64.2756466  53.5791478 106.3066621  64.4616150
  54.2215781 107.3234657  63.5422291  45.4498488 106.1146674  50.3183670
  46.3957593 105.9852882  50.3872088  45.0712733 105.3761335  50.7953098
  53.7609646 104.0361664  64.3214749  53.2448695 103.2520121  64.1344678
  54.6449595 103.7080381  64.4861268  51.4220373  97.7802680  60.2810562
  51.2245194  97.4717768  61.1653894  52.0320079  98.5064318  60.4108491
  59.4291707 108.3066627  63.4162503  60.1595096 108.0451916  63.9770206
  58.8198653 107.5695349  63.4564571  57.5107005 106.4474490  64.0136954
  56.7840168 106.3130455  63.4053445  57.0954291 106.7551319  64.8193672
  45.3337181 110.1664420  71.7784327  46.2540190 110.3443019  71.9724373
  45.2986764 109.2220465  71.6264026  43.6341406 104.0396650  50.2538555
  42.7272861 103.7429763  50.3301269  43.9117387 103.7426468  49.3872841
  34.5519346 105.3603013  60.7037601  34.2322130 104.5068322  60.4111975
  34.0052774 105.5751591  61.4595569  38.3299254 108.0765454  64.4207108
  38.5485263 109.0082562  64.4395142  38.7425027 107.7173429  65.2061912
  45.2503471  98.5833540  56.4082796  44.4404200  98.2380625  56.7838042
  45.9387888  98.2741083  56.9970408  47.1794020  97.6611586  58.0307093
  47.7325058  98.0807040  58.6897116  47.4164106  96.7347335  58.0730049
  43.2027119 103.6498660  73.8109857  43.1023846 104.5993017  73.7421948
  42.9848661 103.3216899  72.9385927  42.4040190 100.8983585  50.3950534
  43.2659354 101.2238483  50.6546352  42.5890534 100.1115081  49.8823600
  34.4207606 108.9805925  62.6730723  33.7271077 108.5659878  62.1600677
  35.1680597 109.0226461  62.0764142  50.5572827  99.7712112  57.5385757
  49.9771496 100.4296916  57.1563810  50.2908759  98.9489456  57.1273175
  49.0076393  99.1717169  59.7407078  49.5076171  99.2833704  58.9321396
  49.6512001  98.8678222  60.3807886  43.0658389 107.0795799  72.6274919
  42.5825471 107.8796159  72.8338808  43.1519328 107.0903744  71.6742363
  36.3344349 108.9124179  60.5496738  36.3115037 109.0111866  59.5978621
  36.6444985 109.7589329  60.8713904  38.9931726 110.9700334  64.6643352
  39.9474980 110.9384276  64.5973284  38.7944250 110.5090957  65.4793578
  39.5831109 109.5401450  67.2314150  40.4023998 110.0345528  67.2548987
  39.8567916 108.6233418  67.2031717  49.3397705 101.9312202  56.5942105
  48.4523560 102.2161853  56.3762300  49.7551694 101.7705965  55.7469382
  52.6912241 101.9558723  60.3096445  53.4672631 102.4455175  60.5821062
  51.9660375 102.3816777  60.7668314  55.1284799 102.6686342  61.3670385
  55.7229290 102.4282078  60.6563694  55.2011383 101.9493473  61.9943922
  37.3481955 116.5119953  61.6813550  37.2136423 115.7520354  61.1151548
  36.9314017 117.2360853  61.2142339  48.4840918 111.6956877  50.6890125
  49.1876768 111.9006879  51.3047781  47.7603567 112.2633639  50.9539209
  49.3138728 107.4466738  56.8092396  49.2573930 107.9035289  55.9700028
  49.8667071 106.6857422  56.6315238  53.1243534 103.2356470  57.6342515
  52.8680469 102.8353105  58.4650723  52.4996402 103.9500264  57.5092654
  57.4355872 105.9752543  60.1413807  56.8755430 106.0445732  60.9145369
  56.8299376 105.7993528  59.4213303  40.5051081 117.4089270  61.8931993
  40.3883465 118.3534703  61.7910683  39.6843527 117.1062832  62.2817792
  50.3927616 112.1339406  52.7388586  51.2273220 111.7020604  52.5566060
  50.2311959 111.9621420  53.6665480  50.0473508 108.6371519  54.1044925
  49.9922312 108.4715791  53.1633369  49.4219563 109.3447552  54.2607115
  34.8366023 103.8739584  67.9306347  35.4824886 103.3638538  68.4193572
  34.6283174 104.6108265  68.5049772  47.3619415 110.9420431  73.4298488
  48.2310575 111.1161083  73.0685123  46.8826166 111.7614848  73.3074217
  43.3569633  98.1379628  53.6830243  43.3448303  99.0821468  53.8398514
  44.2493055  97.9549774  53.3889704  41.5305595 118.0617532  65.1087921
  42.4332842 118.0941142  65.4254416  41.3042965 117.1317983  65.1234257
  43.2859197 116.8148519  61.7698000  42.3354828 116.8150380  61.6562372
  43.5891683 116.0681253  61.2534034  47.1721753  94.7322405  57.9376180
  46.4054149  94.1780891  58.0832862  47.5832458  94.8044274  58.7990332
  39.1763514 101.0207201  72.0281361  40.0394975 100.6644005  72.2384686
  38.6028924 100.6821095  72.7156766  59.0211891 122.6509057  62.8343762
  59.6590301 122.5315804  62.1307102  58.9032734 123.5989901  62.8931714
  55.8301597 122.6036485  62.7705287  55.4920109 122.4877550  61.8825822
  56.6991365 122.2027650  62.7506293  56.3121380 123.7571337  68.7291492
  56.3010021 123.3624135  67.8571996  56.4742019 123.0237409  69.3225264
  53.5309876 121.3724732  52.1022227  53.7835397 120.8506254  51.3405690
  52.5934435 121.2090878  52.2048911  58.5753159 120.3760511  59.9096970
  59.3616248 119.9579934  59.5587387  58.8391864 121.2806603  60.0778619
  63.9761586 120.3135744  60.8129949  64.7086758 119.7434961  61.0467778
  63.2200942 119.9257344  61.2536454  55.5937706 122.7362985  58.0093291
  55.2295913 122.2093606  58.7206213  56.4504822 122.3461455  57.8359777
  61.4987007 114.0257318  65.2724557  61.1670331 114.8952729  65.0485772
  60.9032620 113.7093602  65.9518588  55.2343193 117.7652885  53.0054640
  55.4017595 118.6333122  53.3725111  55.0440362 117.9280167  52.0815929
  61.3915670 118.7452404  62.3517907  60.4832547 118.6767813  62.0576668
  61.3403266 119.2224349  63.1799733  55.2132414 120.2210543  53.9901307
  55.0932039 120.6667593  54.8286787  54.5185002 120.5695860  53.4314845
  55.4656536 120.1642050  70.2952805  54.6889870 120.7235970  70.2855669
  56.1047099 120.6498833  70.8167675  63.2577316 116.9468843  64.1295781
  62.6151697 117.2401376  63.4835576  62.7532245 116.8321763  64.9348978
  60.9117480 120.6932016  54.8181641  61.8235336 120.9259403  54.6429338
  60.4027127 121.2769060  54.2556719  59.1958248 125.1156644  68.4542933
  59.6041604 124.6739054  67.7097566  58.4735509 124.5409271  68.7077126
  55.5489318 120.0529250  65.8276490  56.3950513 120.4768664  65.9711139
  55.4887955 119.3962875  66.5215053  58.6988763 117.7133619  67.4857664
  58.4549695 118.4675679  66.9491940  58.9748694 118.0918966  68.3204911
  60.6527226 124.2572231  66.1634929  60.8644121 124.9003991  65.4869310
  60.6056974 123.4234548  65.6956859  58.2553455 116.8690052  63.0671502
  57.3937934 117.1671305  63.3588239  58.2815889 117.0860451  62.1352534
  54.0083910 121.5355395  56.2834872  54.7107954 121.9876438  56.7508799
  53.6764539 120.8939214  56.9114765  52.4564272 120.1267151  70.6586082
  51.8262932 120.8083432  70.8921479  52.3500360 120.0150233  69.7139220
  47.7509244 119.7938947  61.5852006  46.9608298 120.0496476  61.1092117
  48.2420492 120.6087285  61.6904046  49.7023990 120.1583527  58.5435483
  48.9055153 120.2702221  59.0618978  49.4749582 120.4970179  57.6776373
  69.8579047 123.4782935  60.6842258  69.1042755 122.9090333  60.5286263
  69.9926588 123.4445600  61.6312893  51.7345015 114.4287917  73.0211333
  51.3411960 113.8754116  73.6958977  52.5511155 114.7398496  73.4117850
  54.6512976 115.8445796  70.6131589  55.3922689 116.4452949  70.5336052
  54.8830898 115.1023434  70.0549632  49.7954314 121.0302164  68.8909819
  49.6807829 120.1287421  69.1916918  48.9398831 121.2765860  68.5394636
  58.5970138 111.8726899  64.8895871  58.2534408 112.7628541  64.8134982
  58.9649101 111.6828557  64.0265456  58.5620421 121.8635510  53.3968306
  58.0467045 122.6340115  53.6356694  58.2897730 121.1900647  54.0201368
  56.1467532 116.7085211  58.4553545  55.2909129 116.3192062  58.2759183
  56.5594484 116.7877172  57.5953330  57.6766679 114.2431554  62.8545104
  57.1731474 114.2061690  62.0412910  57.9697286 115.1524297  62.9141761
  53.9209565 114.3270284  61.8611286  54.7862562 114.1313093  61.5017175
  53.9887074 114.0980636  62.7880643  63.5354695 124.6167865  55.3321480
  62.7584138 124.2779025  54.8876642  64.2146176 124.6220488  54.6576445
  58.3506724 119.7362602  55.2228087  58.0456860 120.0508752  56.0738231
  59.3037166 119.8144022  55.2655420  61.7746002 124.0901846  61.9888088
  61.1169677 124.7801108  62.0768216  62.5786401 124.4798278  62.3322074
  51.5271884 116.5572492  59.2327653  52.1015636 116.3347674  58.5000846
  52.1142866 116.6261187  59.9856254  60.5851461 122.4446219  60.0392029
  61.0983343 123.0776211  60.5413739  61.2352685 121.8447414  59.6735389
  51.8541471 118.5876953  53.2523538  51.0178783 118.9251640  53.5732813
  51.7146241 118.4525933  52.3150675  53.8294552 113.4313741  57.9602722
  53.1758964 113.1162758  57.3359337  53.7875026 112.8089481  58.6862545
  54.9405756 123.7133036  49.8756014  54.0332818 123.4822290  50.0747163
  55.4376788 122.9170655  50.0629996  57.0632292 119.9195675  62.2850370
  56.1454853 120.1410622  62.1272058  57.4792436 119.9941985  61.4262077
  57.8467340 121.3187090  57.4153050  58.5939159 121.8308487  57.1060172
  58.1158929 120.9971143  58.2757444  56.1193990 123.8145631  54.3980004
  55.2105209 123.5304664  54.4952474  56.1489074 124.2344709  53.5383311
  60.2946177 118.3544206  59.3971839  59.5568934 117.8421593  59.7282082
  60.5472950 117.9144588  58.5855116  60.3957804 111.1320458  59.9913609
  60.7016681 110.2717822  59.7039524  61.1210409 111.7238079  59.7912603
  54.6678884 121.4274252  60.4989800  54.7227494 120.4748088  60.4232276
  53.8570086 121.5833691  60.9831098  52.6071244 120.0451311  58.2580179
  51.7939109 120.3445482  58.6645371  53.1030238 119.6507000  58.9754661
  58.2045455 120.5093136  67.0895073  58.5594843 120.7364609  67.9489538
  58.8517587 120.8411513  66.4672328  63.9343192 123.6311572  57.7944402
  63.7961091 123.8213168  56.8665591  63.5779411 124.3930954  58.2512453
  52.0985319 117.6169667  63.8741414  52.7384698 117.4758426  63.1764377
  51.2662849 117.3304180  63.4980016  63.9612572 125.6988099  62.8055673
  64.3949079 125.6063388  63.6538727  64.6744153 125.6745599  62.1675689
  49.1828386 121.0615179  56.0636159  48.2525974 120.9999634  56.2806121
  49.2785858 120.5391132  55.2672800  49.1013935 117.5869992  58.6514400
  49.3620752 118.5015325  58.5423561  49.9231107 117.1194434  58.8011013
  50.5738860 119.0007749  65.8213225  51.2461914 118.7925111  65.1725874
  49.7468647 118.8029835  65.3818457  64.8228122 125.7411799  65.3388558
  65.0164012 126.6457610  65.5847833  64.7228740 125.2819218  66.1727144
  56.4764432 115.6269690  67.8378886  55.8292347 116.3259640  67.7443362
  57.2465448 116.0605834  68.2055134  56.6528567 123.4650455  65.8975706
  57.5820627 123.6161614  65.7244673  56.2319597 123.5534476  65.0424352
  50.9766358 122.2750352  66.5815662  50.8386156 121.5430591  67.1827201
  51.8871281 122.1859252  66.2999850  59.9381305 124.2138756  51.3300141
  59.3210476 123.4885584  51.2333193  59.4697794 124.9748117  50.9867215
  53.6048658 121.9870311  66.0699342  54.3148277 121.3463503  66.0285960
  53.5617966 122.2383206  66.9925523  52.3177592 118.9735529  67.8894981
  51.7814949 118.5226268  68.5416578  51.7294301 119.1081438  67.1465446
  51.7279851 118.4324181  50.4521445  50.8509317 118.3112981  50.0883692
  52.2037604 117.6410259  50.2000334  48.0516713 118.1091537  64.9747976
  47.9674902 117.5017206  64.2398386  47.2299420 118.6000555  64.9757472
  58.2240427 116.5945100  60.3418171  58.7209127 115.8415063  60.0219241
  57.4527409 116.6309417  59.7761380  66.0770185 122.2985466  61.9836462
  66.0660061 123.1810181  61.6130395  65.2087564 121.9457017  61.7890999
  54.8075396 118.7362483  60.0689855  54.4373184 118.1833524  60.7570761
  55.3034489 118.1320617  59.5164855  62.6942759 121.1934107  58.4506628
  63.1603212 122.0262098  58.3766931  63.1450260 120.7279088  59.1551887
  60.6659422 113.5614694  62.4897530  59.7522502 113.7918921  62.6579737
  61.0952524 113.6453138  63.3411562  60.4365881 121.7504586  64.9897424
  59.7837331 121.9980493  64.3349876  60.8146260 120.9368724  64.6559901
  56.4853454 122.4924397  71.4763461  55.8094091 122.3918526  72.1465836
  57.3081088 122.3363611  71.9399458  50.2040730 116.1466474  66.3142961
  50.2682056 117.0081305  65.9020359  50.1407850 115.5340476  65.5815320
  49.6793002 118.2189607  69.9615996  50.3065041 117.8366684  70.5753520
  48.8220921 118.0003809  70.3271688  46.4558545 120.0266036  55.8934351
  46.7511986 119.1176714  55.8401404  45.5546581 120.0053775  55.5715353
  49.9852792 118.1022032  61.8761899  49.2639378 118.7158000  61.7369372
  50.7746048 118.6379797  61.7978545  52.7879106 115.4376459  68.1502551
  53.3113507 115.6838755  68.9128860  52.5691439 116.2696494  67.7305688
  48.1846387 117.7080133  56.0173676  47.8559093 116.8277512  55.8348782
  48.5385757 117.6527802  56.9050065  51.2988210 117.9953103  56.3849153
  51.6384282 118.5239025  55.6627762  51.7460330 118.3333509  57.1607720
  53.9931651 116.3790154  65.8352221  53.6528471 115.5797967  66.2372901
  53.2870657 116.6791865  65.2629055  54.6448122 113.4639466  64.2879544
  55.4674192 112.9899945  64.1658435  54.8886186 114.2429950  64.7878231
  53.2856357 116.4927725  54.5842446  54.0064719 116.8708978  54.0806163
  52.6621661 117.2116602  54.6877424  57.4287480 117.1972874  55.5200778
  57.6451094 118.0797512  55.2189607  56.9481547 116.8059087  54.7906420
  52.1686701 120.1558587  62.0971523  52.0231282 120.4698890  62.9895805
  51.6911905 120.7743487  61.5442422  54.0283084 117.1461135  62.1452413
  54.0144653 116.2502228  61.8084711  54.7455512 117.1531799  62.7790699
  55.8809215 117.5798475  64.1905540  55.6226993 118.5015546  64.1889870
  55.3494255 117.1828910  64.8806004  53.4319980 116.0275515  57.4139983
  53.5535891 115.0992161  57.6130870  53.1422022 116.0414201  56.5018298
  56.3011170 113.7130426  60.5506703  56.3232867 113.7769759  59.5958682
  56.7179229 112.8734934  60.7447209  66.6794795 123.4485685  58.5885925
  67.1225941 122.6993010  58.1905048  65.8021305 123.4395822  58.2059657
  52.9161060 117.5407513  71.6229915  52.9649215 118.4169635  71.2407685
  53.4583574 116.9984906  71.0501559  63.5213780 124.9341102  68.2163781
  63.5711785 124.7691110  69.1579304  63.4127704 124.0668361  67.8261662
  60.8117543 120.9172030  69.5323088  61.7127405 120.7778495  69.2407085
  60.8865517 121.0826485  70.4721265  55.1460348 118.2938885  68.3776274
  54.2763657 118.5872451  68.1058863  55.3819828 118.8779330  69.0983538
  66.2227659 124.9190924  60.9808373  67.0574551 125.3580728  61.1445933
  66.3586788 124.4429577  60.1616619  63.2719165 122.4770658  66.9285861
  63.7473287 122.6698305  66.1204712  62.3484731 122.5329844  66.6829244
  57.8499382 114.5118502  65.8941694  58.3681326 115.2479529  65.5688183
  57.4954515 114.8182495  66.7288454  49.4298319 119.3723183  54.0103100
  48.7367564 119.4467538  53.3543136  49.1850071 118.6083527  54.5324617
  58.1011976 110.9318785  61.4142591  58.3813730 110.2641974  62.0403018
  58.8862583 111.1247880  60.9017255  61.9720834 119.3536419  65.1614166
  62.9238257 119.4534516  65.1826390  61.8024285 118.5614687  65.6712250
  59.9935214 116.4392002  65.3473567  59.3985146 116.7197014  64.6520056
  59.7084910 116.9285903  66.1190308  64.4508912 122.5742538  64.2756466
  64.4185232 121.6358539  64.4616150  65.0609536 122.6526575  63.5422291
  56.2892243 121.4438591  50.3183670  57.2351348 121.3144799  50.3872088
  55.9106488 120.7053253  50.7953098  64.6003401 119.3653582  64.3214749
  64.0842449 118.5812038  64.1344678  65.4843349 119.0372298  64.4861268
  62.2614127 113.1094597  60.2810562  62.0638949 112.8009685  61.1653894
  62.8713833 113.8356236  60.4108491  70.2685462 123.6358545  63.4162503
  70.9988850 123.3743833  63.9770206  69.6592407 122.8987267  63.4564571
  68.3500759 121.7766408  64.0136954  67.6233923 121.6422373  63.4053445
  67.9348046 122.0843236  64.8193672  54.4735160 119.3688568  50.2538555
  53.5666615 119.0721680  50.3301269  54.7511141 119.0718386  49.3872841
  56.0897226 113.9125457  56.4082796  55.2797954 113.5672542  56.7838042
  56.7781643 113.6033001  56.9970408  58.0187774 112.9903504  58.0307093
  58.5718813 113.4098958  58.6897116  58.2557860 112.0639252  58.0730049
  54.0420873 118.9790578  73.8109857  53.9417600 119.9284935  73.7421948
  53.8242415 118.6508817  72.9385927  53.2433945 116.2275503  50.3950534
  54.1053109 116.5530401  50.6546352  53.4284289 115.4406999  49.8823600
  61.3966581 115.1004029  57.5385757  60.8165250 115.7588833  57.1563810
  61.1302514 114.2781374  57.1273175  59.8470148 114.5009087  59.7407078
  60.3469926 114.6125621  58.9321396  60.4905755 114.1970140  60.3807886
  53.9052143 122.4087717  72.6274919  53.4219225 123.2088077  72.8338808
  53.9913082 122.4195661  71.6742363  60.1791459 117.2604120  56.5942105
  59.2917314 117.5453770  56.3762300  60.5945448 117.0997883  55.7469382
  63.5305995 117.2850641  60.3096445  64.3066385 117.7747093  60.5821062
  62.8054130 117.7108695  60.7668314  65.9678554 117.9978260  61.3670385
  66.5623045 117.7573996  60.6563694  66.0405138 117.2785390  61.9943922
  60.1532483 122.7758656  56.8092396  60.0967684 123.2327207  55.9700028
  60.7060825 122.0149340  56.6315238  63.9637289 118.5648387  57.6342515
  63.7074223 118.1645023  58.4650723  63.3390157 119.2792181  57.5092654
  68.2749627 121.3044461  60.1413807  67.7149185 121.3737650  60.9145369
  67.6693130 121.1285445  59.4213303  60.8867262 123.9663437  54.1044925
  60.8316066 123.8007708  53.1633369  60.2613318 124.6739470  54.2607115
  45.6759777 119.2031501  67.9306347  46.3218641 118.6930455  68.4193572
  45.4676928 119.9400183  68.5049772  54.1963388 113.4671546  53.6830243
  54.1842058 114.4113386  53.8398514  55.0886810 113.2841691  53.3889704
  58.0115507 110.0614322  57.9376180  57.2447903 109.5072809  58.0832862
  58.4226212 110.1336191  58.7990332  50.0157268 116.3499118  72.0281361
  50.8788730 115.9935923  72.2384686  49.4422679 116.0113013  72.7156766
  69.4363893 127.2018817  64.8895871  69.0928162 128.0920459  64.8134982
  69.8042856 127.0120475  64.0265456  71.2351559 126.4612376  59.9913609
  71.5410435 125.6009740  59.7039524  71.9604163 127.0529996  59.7912603
  71.5053177 128.8906612  62.4897530  70.5916256 129.1210838  62.6579737
  71.9346278 128.9745056  63.3411562  68.9405730 126.2610702  61.4142591
  69.2207484 125.5933891  62.0403018  69.7256337 126.4539798  60.9017255
  73.1007882 128.4386515  60.2810562  72.9032703 128.1301603  61.1653894
  73.7107588 129.1648154  60.4108491  68.8581529 128.3195422  58.0307093
  69.4112567 128.7390875  58.6897116  69.0951615 127.3931170  58.0730049
  68.8509262 125.3906240  57.9376180  68.0841657 124.8364727  58.0832862
  69.2619967 125.4628109  58.7990332   4.8243119  23.0111591  49.5589069
   5.4621529  22.8918339  48.8552409   4.7063962  23.9592435  49.6177021
   1.6332826  22.9639019  49.4950594   1.2951337  22.8480084  48.6071128
   2.5022594  22.5630184  49.4751600   2.1152609  24.1173871  55.4536799
   2.1041250  23.7226669  54.5817303   2.2773248  23.3839944  56.0470571
   3.0719200  28.4845463  40.7961949   2.4207180  29.0699544  40.4095963
   3.8663563  29.0151658  40.8556987   4.3784388  20.7363045  46.6342277
   5.1647477  20.3182468  46.2832694   4.6423092  21.6409137  46.8023925
   4.5494465  26.1735895  41.3330934   3.9140298  26.2470522  42.0451838
   4.2191872  26.7629494  40.6550013   9.7792815  20.6738278  47.5375255
  10.5117987  20.1037495  47.7713085   9.0232171  20.2859879  47.9781761
   1.3968935  23.0965520  44.7338598   1.0327142  22.5696141  45.4451519
   2.2536051  22.7063989  44.5605083   7.3018235  14.3859852  51.9969864
   6.9701560  15.2555263  51.7731079   6.7063849  14.0696136  52.6763894
   1.0374422  18.1255419  39.7299946   1.2048824  18.9935656  40.0970417
   0.8471591  18.2882701  38.8061236   3.7949755  26.5872398  51.3965777
   3.4950478  27.4897437  51.2881584   3.4500815  26.3204582  52.2486930
   7.1946899  19.1054939  49.0763214   6.2863776  19.0370347  48.7821975
   7.1434495  19.5826883  49.9045040   1.2687765  20.5244584  57.0198111
   0.4921099  21.0838504  57.0100976   1.9078328  21.0101367  57.5412982
   9.0608545  17.3071377  50.8541088   8.4182925  17.6003910  50.2080883
   8.5563474  17.1924297  51.6594285   6.7148709  21.0534550  41.5426947
   7.6266565  21.2861937  41.3674645   6.2058356  21.6371594  40.9802026
   4.9989477  25.4759178  55.1788240   5.4072833  25.0341588  54.4342872
   4.2766738  24.9011805  55.4322433   1.3520547  20.4131785  52.5521797
   2.1981742  20.8371198  52.6956446   1.2919184  19.7565409  53.2460360
   5.3218291  26.0360369  48.9340529   4.6927154  26.2006083  48.2316597
   4.9343953  26.4501978  49.7051493   9.2007523  26.9714806  46.2884893
   8.5158561  27.3513708  45.7381926   9.2851372  27.5810133  47.0216840
   4.5019992  18.0736153  54.2102970   4.2580924  18.8278214  53.6737246
   4.7779922  18.4521501  55.0450218   6.4558455  24.6174765  52.8880236
   6.6675350  25.2606525  52.2114617   6.4088203  23.7837082  52.4202166
   4.0584684  17.2292586  49.7916808   3.1969163  17.5273840  50.0833546
   4.0847118  17.4462985  48.8597841   0.8746253  25.7734777  46.1990614
   1.3384599  26.0522480  45.4095236   0.6103051  24.8718221  46.0163705
   7.5704283  27.4946721  51.0602593   8.3921726  27.0926908  50.7785275
   7.5666685  27.3914955  52.0118709   1.3360886  27.0430764  53.2163304
   1.4005319  27.5051171  54.0521476   0.6271810  26.4128129  53.3445614
  15.6610276  23.8385469  47.4087565  14.9073984  23.2692867  47.2531569
  15.7957817  23.8048134  48.3558200   1.0508904  28.7098872  43.0842284
   0.9154578  29.5550407  43.5127132   1.5918716  28.9118149  42.3208218
   2.6777380  29.3322438  57.2142626   2.2341234  28.5458817  56.8963531
   3.3394594  29.5201589  56.5486517   4.7758618  29.6125238  55.2424028
   4.7577094  30.4334119  54.7504297   5.6978538  29.4879313  55.4674169
   1.2331672  27.1269368  56.0847536   1.7660009  26.3657656  55.8546844
   0.7045753  26.8343019  56.8271690   4.3651650  22.2238045  40.1213613
   3.8498273  22.9942649  40.3602000   4.0928958  21.5503181  40.7446674
   9.3385924  24.9770399  42.0566786   8.5615367  24.6381559  41.6121948
  10.0177405  24.9823022  41.3821751   4.1537953  20.0965137  41.9473394
   3.8488089  20.4111286  42.7983537   5.1068395  20.1746557  41.9900727
   2.5984385  26.2555360  43.5966348   2.0705747  25.5208120  43.2839585
   2.0971888  27.0330036  43.3506316   7.5777231  24.4504381  48.7133394
   6.9200905  25.1403642  48.8013523   8.3817630  24.8400812  49.0567381
   6.3882690  22.8048753  46.7637336   6.9014572  23.4378745  47.2659046
   7.0383914  22.2049949  46.3980696   3.6505064  32.7833077  39.5198007
   2.9766763  33.0864774  40.1282965   4.0370886  33.5862158  39.1703464
   2.8663521  20.2798209  49.0095677   1.9486082  20.5013156  48.8517365
   3.2823664  20.3544519  48.1507384   3.6498568  21.6789624  44.1398357
   4.3970387  22.1911022  43.8305479   3.9190158  21.3573677  45.0002750
   1.9225219  24.1748165  41.1225311   1.0136438  23.8907198  41.2197781
   1.9520302  24.5947244  40.2628618   7.1544486  27.7854755  44.8916479
   6.7006813  26.9445665  44.9481669   6.5238453  28.4216153  45.2291259
   6.0977406  18.7146741  46.1217146   5.3600162  18.2024127  46.4527389
   6.3504179  18.2747122  45.3100423   5.5977425  29.6231251  45.8266297
   5.8900400  30.1836308  45.1078662   6.1076046  29.9159812  46.5819456
   1.6201306  25.7156909  38.4613390   1.1820736  24.9992768  38.0019027
   2.3611747  25.9433024  37.8998481   0.5611050  30.4011602  46.9159750
   0.5187229  30.6272449  45.9868282   1.4773749  30.1674977  47.0645551
   4.0076684  20.8695670  53.8140379   4.3626072  21.0967143  54.6734845
   4.6548816  21.2014047  53.1917634   9.7374421  23.9914106  44.5189708
   9.5992320  24.1815702  43.5910897   9.3810640  24.7533489  44.9757759
   9.7643801  26.0590633  49.5300980  10.1980307  25.9665922  50.3784034
  10.4775382  26.0348133  48.8920996   3.4971696  29.6592727  51.0634080
   3.5508718  30.2283663  51.8311796   2.6286477  29.8294612  50.6988117
  10.6259350  26.1014334  52.0633865  10.8195240  27.0060144  52.3093140
  10.5259969  25.6421753  52.8972450   5.6874459  26.2521076  57.6374746
   5.5359965  26.0231628  56.7204829   5.6779139  27.2091678  57.6506091
   2.4559795  23.8252989  52.6221012   3.3851855  23.9764149  52.4489980
   2.0350825  23.9137010  51.7669659   1.8496279  32.9512750  41.7345086
   2.0248035  32.4800793  42.5490709   1.1629067  33.5778516  41.9626347
   2.8053342  27.2285256  47.7808388   2.4703175  27.1886026  48.6766037
   2.3057288  26.5629972  47.3078798   5.7412534  24.5741290  38.0545447
   5.1241705  23.8488119  37.9578500   5.2729023  25.3350651  37.7112522
   7.3966666  29.2840199  55.7151228   7.3379212  28.5999419  55.0481811
   7.7986184  30.0259189  55.2631854   7.3984073  27.2479783  53.9465207
   6.5110852  26.9105705  54.0691606   7.9682624  26.5162814  54.1833973
   0.9285226  31.9081235  50.9126450   0.8555398  32.7136207  51.4245755
   0.4862619  32.1073201  50.0874472   4.0271656  16.9547635  47.0663477
   4.5240356  16.2017597  46.7464548   3.2558638  16.9911951  46.5006687
  11.8801414  22.6588000  48.7081769  11.8691290  23.5412716  48.3375702
  11.0118793  22.3059551  48.5136306   3.3883910  31.8068069  53.0684609
   4.1011882  32.4415534  52.9960511   2.8973939  31.9031935  52.2524611
   5.1101437  25.7119322  44.6401901   4.1757716  25.8320784  44.4706605
   5.2878105  24.8091789  44.3761911   8.4973988  21.5536641  45.1751935
   8.9634440  22.3864633  45.1012238   8.9481489  21.0881623  45.8797193
   6.5650219  27.8980462  42.1738087   6.8410063  27.7837057  43.0831961
   5.6954718  27.4997947  42.1350260   6.2397109  22.1107120  51.7142730
   5.5868560  22.3583027  51.0595183   6.6177489  21.2971258  51.3805208
   3.2004283  32.1466813  45.8170901   3.3826678  31.3288469  46.2798653
   4.0237269  32.3634505  45.3795791   3.5346449  31.0734998  43.0785949
   4.0634215  30.5627453  42.4656111   3.7974668  30.7577529  43.9431482
   2.2884682  22.8526931  58.2008767   1.6125319  22.7521060  58.8711143
   3.1112316  22.6966145  58.6644765   1.0307465  34.1593859  52.4366383
   1.5825773  34.3225480  53.2015469   1.3713659  34.7498296  51.7646408
   5.8818340  28.9855116  58.2915038   6.4258244  29.5985074  57.7969993
   5.3005184  29.5434694  58.8082051   4.1675853  32.1075834  49.4230066
   4.0426992  31.3065574  48.9141011   4.8254944  32.6022027  48.9344036
   6.2310761  29.9084854  51.0509616   5.2841096  29.7890205  50.9787942
   6.5793534  29.0207352  51.1335877   3.2357194  29.7037570  47.2513968
   3.0882157  28.7754278  47.4321538   4.0610688  29.7257661  46.7671043
   6.8391316  30.5266129  48.3378841   7.7637864  30.3208990  48.2003292
   6.6706619  30.2782530  49.2468182   3.2318709  17.5575408  42.2446085
   3.4482323  18.4400046  41.9434913   2.7512776  17.1661621  41.5151727
   6.6286632  31.0451797  43.6940932   6.8023510  30.4798219  42.9414785
   7.1215524  31.8452691  43.5120422  12.4826023  23.8088220  45.3131232
  12.9257170  23.0595545  44.9150355  11.6052534  23.7998356  44.9304964
   7.6161805  30.3618561  40.7937830   8.3112709  30.9825254  41.0125145
   7.9584955  29.5113912  41.0690208   9.5153228  27.8118267  42.3225161
  10.0404552  28.1505539  41.5974481   9.4275580  26.8765282  42.1388296
   1.1773277  31.7252340  54.4515038   1.4860403  31.4801487  55.3237737
   1.9748759  31.9298979  53.9633908   1.1993889  33.8790250  46.6820414
   0.7598879  33.3866628  47.3753271   1.9502006  33.3363217  46.4412490
   9.2047134  28.4451170  57.6276359   8.4142678  28.4275309  57.0880859
   8.9680489  28.9839464  58.3825396   9.3245009  25.2943637  54.9409088
   9.3743014  25.1293644  55.8824610   9.2158932  24.4270896  54.5506968
   6.6148771  21.2774565  56.2568394   7.5158634  21.1381029  55.9652392
   6.6896746  21.4429019  57.1966572  10.8263206  27.7140578  55.1851109
  10.5348014  28.0770559  56.0214570  10.2135337  27.0007586  55.0064441
  12.0258888  25.2793458  47.7053679  12.8605780  25.7183262  47.8691240
  12.1618017  24.8032111  46.8861925   9.0750394  22.8373193  53.6531167
   9.5504516  23.0300839  52.8450019   8.1515959  22.8932378  53.4074551
   1.7076673  30.4680313  39.7012924   1.1350640  31.0870500  39.2483396
   2.2809467  31.0179674  40.2352846   7.7752063  19.7138953  51.8859473
   8.7269486  19.8137050  51.9071697   7.6055514  18.9217221  52.3957557
   5.7966443  16.7994536  52.0718874   5.2016375  17.0799549  51.3765362
   5.5116139  17.2888437  52.8435615   4.9273933  30.7517463  40.8321506
   5.8604606  30.6863024  41.0354382   4.8397146  31.5873730  40.3736039
   7.5561950  30.0683333  37.7925454   7.4775581  29.7343197  38.6861212
   8.3771617  30.5605101  37.7916926  10.2540141  22.9345072  51.0001772
  10.2216461  21.9961073  51.1861456  10.8640765  23.0129109  50.2667597
   2.0923472  21.8041125  37.0428976   3.0382576  21.6747334  37.1117394
   1.7137717  21.0655787  37.5198405  10.4034629  19.7256116  51.0460056
   9.8873678  18.9414573  50.8589984  11.2874578  19.3974832  51.2106575
   8.0645356  13.4697131  47.0055868   7.8670177  13.1612220  47.8899200
   8.6745062  14.1958770  47.1353798  16.0716691  23.9961079  50.1407809
  16.8020079  23.7346367  50.7015513  15.4623636  23.2589801  50.1809877
  14.1531988  22.1368942  50.7382260  13.4265151  22.0024907  50.1298752
  13.7379275  22.4445770  51.5438978   1.9762164  25.8558872  58.5029633
   2.8965174  26.0337471  58.6969680   1.9411747  24.9114917  58.3509333
   7.1997810  15.4606563  44.2631064   6.6196479  16.1191368  43.8809116
   6.9333743  14.6383908  43.8518481   5.6501376  14.8611621  46.4652384
   6.1501155  14.9728156  45.6566703   6.2936984  14.5572674  47.1053193
   5.9822688  17.6206654  43.3187412   5.0948543  17.9056304  43.1007607
   6.3976677  17.4600417  42.4714689   9.3337224  17.6453175  47.0341751
  10.1097614  18.1349627  47.3066368   8.6085358  18.0711229  47.4913621
  11.7709783  18.3580794  48.0915692  12.3654274  18.1176530  47.3809000
  11.8436366  17.6387925  48.7189228   5.1265901  27.3851329  37.4135432
   5.8301752  27.5901331  38.0293088   4.4028550  27.9528090  37.6784516
   5.9563712  23.1361190  43.5337702   5.8998913  23.5929741  42.6945335
   6.5092054  22.3751874  43.3560545   9.7668518  18.9250922  44.3587822
   9.5105452  18.5247557  45.1896029   9.1421386  19.6394716  44.2337961
  14.0780856  21.6646995  46.8659113  13.5180414  21.7340184  47.6390675
  13.4724359  21.4887980  46.1458609   7.0352599  27.8233858  39.4633892
   7.8698203  27.3915056  39.2811367   6.8736942  27.6515871  40.3910787
   6.6898491  24.3265971  40.8290231   6.6347295  24.1610242  39.8878676
   6.0644546  25.0342004  40.9852421   4.0044398  26.6314883  60.1543794
   4.8735558  26.8055535  59.7930429   3.5251150  27.4509300  60.0319524
  15.6636874  38.3403509  49.5589069  16.3015284  38.2210256  48.8552409
  15.5457717  39.2884353  49.6177021  12.4726580  38.2930937  49.4950594
  12.1345092  38.1772002  48.6071128  13.3416348  37.8922102  49.4751600
   8.3313396  40.1466413  45.4847485   7.7678261  40.0556350  44.7163772
   8.2165791  39.3266318  45.9649977  12.9546363  39.4465789  55.4536799
  12.9435004  39.0518587  54.5817303  13.1167003  38.7131861  56.0470571
   5.8777828  41.6417605  48.3231705   6.6699120  41.3008430  47.9078004
   6.1174478  41.7512580  49.2433858  13.9112955  43.8137381  40.7961949
  13.2600934  44.3991461  40.4095963  14.7057317  44.3443576  40.8556987
   7.8368582  40.9026518  41.1949084   8.6099458  40.3555505  41.0561960
   8.1893981  41.7670768  41.4063545   9.6753624  42.2302900  54.4015983
   9.3843490  43.1348531  54.2862649  10.3110609  42.2719428  55.1160053
  10.6009831  39.6079749  50.9917343  11.1973404  39.3835771  50.2774306
  10.6584803  38.8664494  51.5942791  10.1734860  37.0619184  38.8267534
  10.4260380  36.5400706  38.0650997   9.2359419  36.8985330  38.9294217
  15.2178142  36.0654963  46.6342277  16.0041232  35.6474386  46.2832694
  15.4816847  36.9701055  46.8023925  15.3888220  41.5027813  41.3330934
  14.7534053  41.5762440  42.0451838  15.0585626  42.0921412  40.6550013
  20.6186570  36.0030196  47.5375255  21.3511742  35.4329413  47.7713085
  19.8625925  35.6151796  47.9781761   9.8931148  38.9647290  41.0291909
   9.7767406  38.2892194  41.6972993  10.0033408  38.4779664  40.2124062
  12.2362689  38.4257437  44.7338598  11.8720897  37.8988058  45.4451519
  13.0929805  38.0355906  44.5605083  18.1411990  29.7151770  51.9969864
  17.8095315  30.5847181  51.7731079  17.5457603  29.3988054  52.6763894
  11.8768176  33.4547337  39.7299946  12.0442579  34.3227573  40.0970417
  11.6865345  33.6174619  38.8061236  14.6343509  41.9164316  51.3965777
  14.3344233  42.8189355  51.2881584  14.2894569  41.6496499  52.2486930
   8.0855991  38.3678113  47.4302481   7.1606487  38.2354327  47.6380173
   8.3340404  39.1472332  47.9272424  18.0340653  34.4346856  49.0763214
  17.1257531  34.3662265  48.7821975  17.9828249  34.9118801  49.9045040
  11.8557397  35.9104995  40.7146613  11.7357022  36.3562045  41.5532094
  11.1609986  36.2590312  40.1560151   5.4464802  38.0111386  48.2646270
   5.5757183  38.2645865  49.1785682   4.7662253  38.6039094  47.9450925
   9.6164289  48.6808636  44.3636744   9.5388319  49.6316461  44.4425225
   9.0125933  48.3354509  45.0211671  12.1081519  35.8536502  57.0198111
  11.3314853  36.4130422  57.0100976  12.7472082  36.3393285  57.5412982
  19.9002300  32.6363295  50.8541088  19.2576680  32.9295828  50.2080883
  19.3957228  32.5216215  51.6594285  17.5542463  36.3826468  41.5426947
  18.4660319  36.6153855  41.3674645  17.0452110  36.9663512  40.9802026
  10.3627891  38.6621955  56.5816078  11.1042576  39.2006999  56.3050902
   9.6564877  39.2888244  56.7387630  15.8383231  40.8051096  55.1788240
  16.2466587  40.3633506  54.4342872  15.1160493  40.2303723  55.4322433
  12.1914301  35.7423702  52.5521797  13.0375496  36.1663116  52.6956446
  12.1312939  35.0857327  53.2460360  16.1612046  41.3652286  48.9340529
  15.5320908  41.5298000  48.2316597  15.7737708  41.7793896  49.7051493
  20.0401278  42.3006724  46.2884893  19.3552316  42.6805625  45.7381926
  20.1245127  42.9102051  47.0216840  15.3413746  33.4028071  54.2102970
  15.0974678  34.1570131  53.6737246  15.6173677  33.7813418  55.0450218
  17.2952209  39.9466683  52.8880236  17.5069104  40.5898443  52.2114617
  17.2481957  39.1129000  52.4202166  14.8978438  32.5584504  49.7916808
  14.0362917  32.8565757  50.0833546  14.9240873  32.7754903  48.8597841
  11.7140008  41.1026694  46.1990614  12.1778353  41.3814397  45.4095236
  11.4496806  40.2010139  46.0163705   8.6064089  40.6498176  49.1370377
   9.1765446  41.0785444  48.4987862   9.1972200  40.3680761  49.8354563
  10.6508894  37.2249847  43.0080179  11.3532937  37.6770890  43.4754105
  10.3189522  36.5833666  43.6360072   9.0989255  35.8161603  57.3831388
   8.4687916  36.4977884  57.6166785   8.9925343  35.7044685  56.4384527
   4.3934228  35.4833399  48.3097313   3.6033282  35.7390928  47.8337423
   4.8845475  36.2981737  48.4149353  18.4098037  42.8238639  51.0602593
  19.2315481  42.4218826  50.7785275  18.4060440  42.7206873  52.0118709
   6.3448973  35.8477979  45.2680789   5.5480136  35.9596673  45.7864285
   6.1174565  36.1864631  44.4021680  12.1754641  42.3722682  53.2163304
  12.2399073  42.8343089  54.0521476  11.4665564  41.7420047  53.3445614
   2.6771931  35.7363890  50.7412303   2.9279969  36.6210900  51.0069879
   3.2131479  35.5568491  49.9687395  26.5004030  39.1677387  47.4087565
  25.7467739  38.5984785  47.2531569  26.6351571  39.1340051  48.3558200
  11.8902658  44.0390789  43.0842284  11.7548333  44.8842325  43.5127132
  12.4312471  44.2410067  42.3208218   8.3769998  30.1182369  59.7456639
   7.9836943  29.5648568  60.4204284   9.1936138  30.4292948  60.1363157
   5.3432056  41.5566227  43.6570209   5.8556576  42.3509478  43.8075774
   5.9954768  40.8592518  43.5903811   7.1526940  44.6731984  45.7392962
   7.3293569  45.5949948  45.5513946   7.9483774  44.3590403  46.1687342
  11.2937959  31.5340248  57.3376896  12.0347672  32.1347401  57.2581358
  11.5255882  30.7917886  56.7794939   6.4379297  36.7196616  55.6155126
   6.3232812  35.8181873  55.9162225   5.5823815  36.9660312  55.2639942
  13.5171135  44.6614356  57.2142626  13.0734989  43.8750734  56.8963531
  14.1788348  44.8493506  56.5486517   8.2758256  46.1910157  51.7403305
   8.8265681  46.0627221  50.9680299   7.4369732  46.4905046  51.3898198
  15.6152373  44.9417156  55.2424028  15.5970848  45.7626037  54.7504297
  16.5372293  44.8171231  55.4674169  12.0725427  42.4561285  56.0847536
  12.6053764  41.6949573  55.8546844  11.5439508  42.1634937  56.8271690
  15.2395122  27.5621351  51.6141178  14.8959391  28.4522993  51.5380288
  15.6074084  27.3723009  50.7510763   3.3080972  39.8854882  44.4329780
   4.1456194  40.2951890  44.2163488   3.4859240  38.9454324  44.4029974
  15.2045404  37.5529962  40.1213613  14.6892028  38.3234567  40.3602000
  14.9322713  36.8795098  40.7446674  12.7892516  32.3979663  45.1798851
  11.9334112  32.0086513  45.0004490  13.2019467  32.4771624  44.3198637
  14.3191662  29.9326006  49.5790411  13.8156458  29.8956141  48.7658216
  14.6122269  30.8418749  49.6387068  10.5634548  30.0164736  48.5856593
  11.4287545  29.8207545  48.2262482  10.6312057  29.7875088  49.5125949
  20.1779679  40.3062317  42.0566786  19.4009121  39.9673476  41.6121948
  20.8571160  40.3114940  41.3821751  14.9931708  35.4257054  41.9473394
  14.6881843  35.7403204  42.7983537  15.9462150  35.5038474  41.9900727
  13.4378140  41.5847278  43.5966348  12.9099501  40.8500037  43.2839585
  12.9365642  42.3621954  43.3506316  18.4170986  39.7796298  48.7133394
  17.7594660  40.4695560  48.8013523  19.2211385  40.1692730  49.0567381
   8.1696867  32.2466944  45.9572959   8.7440619  32.0242125  45.2246152
   8.7567850  32.3155638  46.7101561  17.2276444  38.1340671  46.7637336
  17.7408326  38.7670663  47.2659046  17.8777668  37.5341866  46.3980696
   8.4966454  34.2771405  39.9768845   7.6603766  34.6146092  40.2978119
   8.3571224  34.1420385  39.0395982  10.4719535  29.1208193  44.6848029
   9.8183947  28.8057210  44.0604644  10.4300009  28.4983933  45.4107852
  11.5830740  39.4027488  36.6001321  10.6757801  39.1716741  36.7992470
  12.0801772  38.6065107  36.7875303  14.4898819  48.1124995  39.5198007
  13.8160517  48.4156692  40.1282965  14.8764641  48.9154075  39.1703464
  13.7057275  35.6090126  49.0095677  12.7879837  35.8305073  48.8517365
  14.1217419  35.6836437  48.1507384  14.4892323  37.0081542  44.1398357
  15.2364142  37.5202939  43.8305479  14.7583913  36.6865595  45.0002750
  12.7618973  39.5040083  41.1225311  11.8530192  39.2199116  41.2197781
  12.7914057  39.9239161  40.2628618  17.9938241  43.1146672  44.8916479
  17.5400568  42.2737582  44.9481669  17.3632207  43.7508071  45.2291259
  16.9371160  34.0438658  46.1217146  16.1993917  33.5316045  46.4527389
  17.1897934  33.6039040  45.3100423  16.4371180  44.9523169  45.8266297
  16.7294154  45.5128226  45.1078662  16.9469800  45.2451730  46.5819456
  17.0382787  26.8214910  46.7158915  17.3441664  25.9612274  46.4284830
  17.7635392  27.4132531  46.5157909   3.3307144  37.2245597  45.1040513
   3.1331543  36.6314958  44.3791580   2.7753808  36.9197807  45.8216452
  11.3103867  37.1168703  47.2235106  11.3652477  36.1642540  47.1477583
  10.4995069  37.2728143  47.7076405  12.4595061  41.0448826  38.4613390
  12.0214491  40.3284685  38.0019027  13.2005502  41.2724941  37.8998481
   9.2496227  35.7345763  44.9825485   8.4364093  36.0339934  45.3890677
   9.7455221  35.3401452  45.6999968  11.4004805  45.7303520  46.9159750
  11.3580984  45.9564366  45.9868282  12.3167504  45.4966895  47.0645551
  14.8470439  36.1987588  53.8140379  15.2019826  36.4259061  54.6734845
  15.4942570  36.5305964  53.1917634  20.5768176  39.3206024  44.5189708
  20.4386074  39.5107620  43.5910897  20.2204395  40.0825406  44.9757759
   8.7410302  33.3064119  50.5986720   9.3809681  33.1652878  49.9009684
   7.9087832  33.0198632  50.2225322  20.6037555  41.3882551  49.5300980
  21.0374062  41.2957840  50.3784034  21.3169136  41.3640051  48.8920996
   9.5170606  42.6066549  46.7121713  10.3111204  42.1116869  46.5104288
   8.8062298  42.0784412  46.3489418  14.3365450  44.9884645  51.0634080
  14.3902473  45.5575581  51.8311796  13.4680232  45.1586530  50.6988117
   5.8253369  36.7509631  42.7881465   4.8950957  36.6894086  43.0051428
   5.9210841  36.2285584  41.9918107   5.7438918  33.2764444  45.3759707
   6.0045736  34.1909777  45.2668868   6.5656091  32.8088886  45.5256320
   7.2163844  34.6902201  52.5458532   7.8886897  34.4819563  51.8971181
   6.3893630  34.4924287  52.1063764  21.4653105  41.4306251  52.0633865
  21.6588995  42.3352062  52.3093140  21.3653723  40.9713670  52.8972450
  13.1189416  31.3164142  54.5624192  12.4717331  32.0154091  54.4688669
  13.8890431  31.7500286  54.9300441  16.5268214  41.5812994  57.6374746
  16.3753720  41.3523546  56.7204829  16.5172893  42.5383595  57.6506091
  13.2953550  39.1544907  52.6221012  14.2245610  39.3056066  52.4489980
  12.8744580  39.2428927  51.7669659  12.0941882  43.1795571  50.3919550
  11.9552967  42.8114356  51.2645488  11.3056478  43.6943211  50.2203508
  12.6890034  48.2804668  41.7345086  12.8641789  47.8092711  42.5490709
  12.0022822  48.9070434  41.9626347  13.6447097  42.5577174  47.7808388
  13.3096930  42.5177944  48.6766037  13.1451043  41.8921890  47.3078798
   7.6191341  37.9644804  53.3060969   7.4811139  37.2325043  53.9072508
   8.5296264  37.8753704  53.0245157  16.5806289  39.9033208  38.0545447
  15.9635459  39.1780036  37.9578500  16.1122777  40.6642568  37.7112522
  10.2473642  37.6764763  52.7944648  10.9573260  37.0357955  52.7531267
  10.2042950  37.9277658  53.7170829  18.2360420  44.6132116  55.7151228
  18.1772966  43.9291337  55.0481811  18.6379939  45.3551106  55.2631854
   8.9602576  34.6629981  54.6140288   8.4239933  34.2120719  55.2661884
   8.3719284  34.7975890  53.8710752   7.2551119  51.4294030  48.5084947
   7.4947717  52.0612554  49.1863965   6.4120315  51.0782070  48.7950306
   8.3704834  34.1218632  37.1766752   7.4934301  34.0007433  36.8128998
   8.8462588  33.3304711  36.9245640  18.2377827  42.5771700  53.9465207
  17.3504606  42.2397622  54.0691606  18.8076379  41.8454732  54.1833973
   4.6941697  33.7985989  51.6993282   4.6099885  33.1911658  50.9643692
   3.8724403  34.2895007  51.7002779  11.7678981  47.2373153  50.9126450
  11.6949152  48.0428124  51.4245755  11.3256374  47.4365119  50.0874472
  11.5568760  46.4744923  44.4229272  10.7736282  47.0166603  44.5167497
  12.2561506  46.9918902  44.8223513  14.8665411  32.2839552  47.0663477
  15.3634110  31.5309515  46.7464548  14.0952392  32.3203869  46.5006687
  22.7195168  37.9879918  48.7081769  22.7085044  38.8704633  48.3375702
  21.8512547  37.6351469  48.5136306  14.2277664  47.1359987  53.0684609
  14.9405637  47.7707452  52.9960511  13.7367693  47.2323853  52.2524611
  15.9495191  41.0411239  44.6401901  15.0151470  41.1612702  44.4706605
  16.1271860  40.1383706  44.3761911  11.4500379  34.4256935  46.7935162
  11.0798167  33.8727976  47.4816068  11.9459472  33.8215069  46.2410162
  19.3367743  36.8828559  45.1751935  19.8028195  37.7156550  45.1012238
  19.7875243  36.4173540  45.8797193   9.2789578  44.8854430  53.8890180
   9.9799037  45.5190913  54.0419574   8.8084693  45.2269162  53.1285819
  17.4043974  43.2272380  42.1738087  17.6803818  43.1128975  43.0831961
  16.5348472  42.8289865  42.1350260  17.3084405  29.2509146  49.2142836
  16.3947485  29.4813373  49.3825043  17.7377507  29.3347590  50.0656869
  17.0790864  37.4399038  51.7142730  16.4262314  37.6874945  51.0595183
  17.4571244  36.6263176  51.3805208  14.0398038  47.4758731  45.8170901
  14.2220432  46.6580387  46.2798653  14.8631024  47.6926423  45.3795791
  14.3740203  46.4026916  43.0785949  14.9027970  45.8919371  42.4656111
  14.6368423  46.0869446  43.9431482  13.1278437  38.1818849  58.2008767
  12.4519074  38.0812978  58.8711143  13.9506071  38.0258063  58.6644765
   4.8757296  44.4190785  50.8221283   5.4610733  43.6734473  50.9549187
   4.6782134  44.7294742  51.7057947   7.7295951  47.4542033  45.8383725
   7.0606326  47.9388160  45.3547765   7.5908821  47.7011253  46.7527104
  11.8701220  49.4885776  52.4366383  12.4219528  49.6517398  53.2015469
  12.2107413  50.0790214  51.7646408   6.8465713  31.8360926  53.0388268
   6.9107040  32.6975757  52.6265666   6.7832833  31.2234928  52.3060627
   6.3217986  33.9084059  56.6861302   6.9490024  33.5261136  57.2998827
   5.4645904  33.6898261  57.0516995  16.7212094  44.3147034  58.2915038
  17.2651998  44.9276992  57.7969993  16.1398939  44.8726612  58.8082051
   3.0983528  35.7160488  42.6179657   3.3936969  34.8071166  42.5646711
   2.1971564  35.6948227  42.2960660  15.0069607  47.4367752  49.4230066
  14.8820747  46.6357492  48.9141011  15.6648698  47.9313945  48.9344036
   6.6277775  33.7916484  48.6007206   5.9064361  34.4052452  48.4614679
   7.4171031  34.3274249  48.5223852  17.0704515  45.2376772  51.0509616
  16.1234851  45.1182123  50.9787942  17.4187289  44.3499270  51.1335877
   9.4304089  31.1270911  54.8747858   9.9538491  31.3733207  55.6374167
   9.2116422  31.9590946  54.4550995   4.8271370  33.3974585  42.7418982
   4.4984076  32.5171964  42.5594088   5.1810741  33.3422254  43.6295372
  14.0750949  45.0329488  47.2513968  13.9275911  44.1046195  47.4321538
  14.9004442  45.0549579  46.7671043   7.9413193  33.6847555  43.1094460
   8.2809266  34.2133476  42.3873068   8.3885314  34.0227961  43.8853027
  17.6785071  45.8558047  48.3378841  18.6031618  45.6500908  48.2003292
  17.5100374  45.6074448  49.2468182  10.6356634  32.0684606  52.5597528
  10.2953454  31.2692419  52.9618208   9.9295640  32.3686317  51.9874361
  11.2873106  29.1533918  51.0124851  12.1099175  28.6794396  50.8903741
  11.5311169  29.9324402  51.5123537   9.9281340  32.1822177  41.3087753
  10.6489703  32.5603430  40.8051470   9.3046644  32.9011054  41.4122731
  14.0712463  32.8867326  42.2446085  14.2876077  33.7691964  41.9434913
  13.5906530  32.4953539  41.5151727   8.8111684  35.8453039  48.8216830
   8.6656265  36.1593342  49.7141111   8.3336888  36.4637939  48.2687728
  10.6708067  32.8355587  48.8697719  10.6569636  31.9396680  48.5330017
  11.3880495  32.8426251  49.5036005  12.5234198  33.2692927  50.9150847
  12.2651976  34.1909998  50.9135177  11.9919238  32.8723362  51.6051311
  17.4680387  46.3743714  43.6940932  17.6417264  45.8090137  42.9414785
  17.9609278  47.1744609  43.5120422   3.2857347  38.3858383  51.7604491
   2.7410815  39.1618191  51.8924765   4.1636696  38.7329188  51.6023612
  10.0744963  31.7169967  44.1385289  10.1960874  30.7886613  44.3376177
   9.7847006  31.7308653  43.2263605  12.9436154  29.4024878  47.2752009
  12.9657850  29.4664211  46.3203989  13.3604213  28.5629386  47.4692515
  23.3219778  39.1380137  45.3131232  23.7650924  38.3887462  44.9150355
  22.4446288  39.1290274  44.9304964  18.4555559  45.6910479  40.7937830
  19.1506464  46.3117171  41.0125145  18.7978709  44.8405830  41.0690208
   4.0723368  37.5128280  54.6534648   3.3305105  37.6610915  55.2399278
   3.7516113  37.7736545  53.7901397  20.3546982  43.1410184  42.3225161
  20.8798307  43.4797457  41.5974481  20.2669335  42.2057200  42.1388296
  12.0167031  47.0544258  54.4515038  12.3254158  46.8093405  55.3237737
  12.8142513  47.2590896  53.9633908  12.0387643  49.2082167  46.6820414
  11.5992633  48.7158546  47.3753271  12.7895760  48.6655135  46.4412490
   4.5179982  45.3993708  46.6845042   5.3438002  45.0997480  46.3043686
   4.1674034  44.6301331  47.1334831   9.4861515  44.7520177  48.7542716
   8.8641525  44.0890882  48.4544944  10.1566382  44.7781308  48.0716364
   2.7188587  43.3180035  47.6433976   1.8820496  42.8902209  47.4617977
   2.6912233  43.5112478  48.5804767   9.5586043  33.2301965  58.3475222
   9.6074198  34.1064087  57.9652992  10.1008557  32.6879358  57.7746865
  20.0440888  43.7743088  57.6276359  19.2536432  43.7567227  57.0880859
  19.8074243  44.3131382  58.3825396  20.1638764  40.6235554  54.9409088
  20.2136768  40.4585562  55.8824610  20.0552687  39.7562813  54.5506968
   9.0475022  43.3024100  42.2301177   9.1963143  43.9859564  41.5767849
   9.8541466  43.2829190  42.7450632  17.4542526  36.6066482  56.2568394
  18.3552389  36.4672947  55.9652392  17.5290500  36.7720937  57.1966572
  11.7885331  33.9833337  55.1021581  10.9188641  34.2766903  54.8304169
  12.0244812  34.5673782  55.8228844  21.6656960  43.0432496  55.1851109
  21.3741769  43.4062476  56.0214570  21.0529092  42.3299504  55.0064441
  22.8652643  40.6085375  47.7053679  23.6999534  41.0475180  47.8691240
  23.0011771  40.1324029  46.8861925  19.9144149  38.1665110  53.6531167
  20.3898270  38.3592757  52.8450019  18.9909714  38.2224296  53.4074551
   6.8027655  39.3289278  43.2362245   6.5573697  38.4251608  43.4342456
   6.9723570  39.3306428  42.2941723  14.4924365  30.2012954  52.6187001
  15.0106309  30.9373981  52.2933490  14.1379498  30.5076947  53.4533760
   6.0723303  35.0617635  40.7348407   5.3792548  35.1361990  40.0788443
   5.8275055  34.2977979  41.2569924  14.7436959  26.6213236  48.1387898
  15.0238713  25.9536425  48.7648324  15.5287566  26.8142332  47.6262561
  12.5470428  45.7972230  39.7012924  11.9744395  46.4162417  39.2483396
  13.1203221  46.3471592  40.2352846  18.6145818  35.0430870  51.8859473
  19.5663240  35.1428968  51.9071697  18.4449268  34.2509139  52.3957557
  16.6360197  32.1286454  52.0718874  16.0410129  32.4091466  51.3765362
  16.3509894  32.6180355  52.8435615  15.7667688  46.0809380  40.8321506
  16.6998361  46.0154942  41.0354382  15.6790900  46.9165647  40.3736039
  18.3955704  45.3975251  37.7925454  18.3169336  45.0635114  38.6861212
  19.2165371  45.8897019  37.7916926  21.0933895  38.2636990  51.0001772
  21.0610215  37.3252991  51.1861456  21.7034519  38.3421027  50.2667597
  12.9317226  37.1333043  37.0428976  13.8776331  37.0039251  37.1117394
  12.5531471  36.3947705  37.5198405  21.2428384  35.0548034  51.0460056
  20.7267433  34.2706490  50.8589984  22.1268332  34.7266750  51.2106575
  18.9039111  28.7989049  47.0055868  18.7063932  28.4904137  47.8899200
  19.5138816  29.5250688  47.1353798  26.9110445  39.3252997  50.1407809
  27.6413834  39.0638285  50.7015513  26.3017391  38.5881719  50.1809877
  24.9925742  37.4660860  50.7382260  24.2658906  37.3316824  50.1298752
  24.5773029  37.7737688  51.5438978  12.8155919  41.1850789  58.5029633
  13.7358928  41.3629388  58.6969680  12.7805502  40.2406835  58.3509333
  11.1160143  35.0583019  36.9783862  10.2091599  34.7616132  37.0546575
  11.3936124  34.7612838  36.1118148   2.0338084  36.3789383  47.4282908
   1.7140868  35.5254691  47.1357282   1.4871512  36.5937961  48.1840875
   5.8117991  39.0951824  51.1452415   6.0304001  40.0268932  51.1640448
   6.2243765  38.7359798  51.9307218  12.7322209  29.6019909  43.1328103
  11.9222937  29.2566994  43.5083349  13.4206626  29.2927453  43.7215715
  14.6612757  28.6797956  44.7552400  15.2143796  29.0993409  45.4142423
  14.8982844  27.7533704  44.7975356  10.6845857  34.6685030  60.5355164
  10.5842584  35.6179387  60.4667255  10.4667399  34.3403269  59.6631234
   9.8858928  31.9169955  37.1195841  10.7478092  32.2424853  37.3791658
  10.0709272  31.1301451  36.6068907   1.9026344  39.9992294  49.3976030
   1.2089815  39.5846247  48.8845984   2.6499335  40.0412831  48.8009449
  18.0391564  30.7898481  44.2631064  17.4590234  31.4483285  43.8809116
  17.7727497  29.9675826  43.8518481  16.4895131  30.1903539  46.4652384
  16.9894909  30.3020073  45.6566703  17.1330739  29.8864592  47.1053193
  10.5477127  38.0982168  59.3520225  10.0644208  38.8982529  59.5584114
  10.6338066  38.1090113  58.3987669   3.8163086  39.9310548  47.2742045
   3.7933774  40.0298235  46.3223928   4.1263723  40.7775699  47.5959211
   6.4750464  41.9886703  51.3888659   7.4293718  41.9570646  51.3218591
   6.2762988  41.5277327  52.2038885   7.0649846  40.5587819  53.9559457
   7.8842735  41.0531898  53.9794294   7.3386654  39.6419787  53.9277024
  16.8216443  32.9498572  43.3187412  15.9342298  33.2348222  43.1007607
  17.2370432  32.7892335  42.4714689  20.1730979  32.9745093  47.0341751
  20.9491369  33.4641545  47.3066368  19.4479113  33.4003147  47.4913621
  22.6103537  33.6872712  48.0915692  23.2048028  33.4468448  47.3809000
  22.6830121  32.9679842  48.7189228   4.8300693  47.5306323  48.4058857
   4.6955161  46.7706724  47.8396855   4.4132755  48.2547223  47.9387646
  15.9659656  42.7143246  37.4135432  16.6695506  42.9193249  38.0293088
  15.2422305  43.2820008  37.6784516  16.7957466  38.4653107  43.5337702
  16.7392668  38.9221659  42.6945335  17.3485809  37.7043792  43.3560545
  20.6062272  34.2542839  44.3587822  20.3499206  33.8539475  45.1896029
  19.9815140  34.9686633  44.2337961  24.9174610  36.9938913  46.8659113
  24.3574168  37.0632102  47.6390675  24.3118113  36.8179897  46.1458609
   7.9869819  48.4275640  48.6177299   7.8702203  49.3721072  48.5155990
   7.1662265  48.1249201  49.0063099  17.8746353  43.1525775  39.4633892
  18.7091957  42.7206974  39.2811367  17.7130696  42.9807789  40.3910787
  17.5292246  39.6557889  40.8290231  17.4741049  39.4902160  39.8878676
  16.9038301  40.3633922  40.9852421   2.3184761  34.8925953  54.6551654
   2.9643624  34.3824907  55.1438879   2.1101912  35.6294635  55.2295079
  14.8438153  41.9606801  60.1543794  15.7129312  42.1347453  59.7930429
  14.3644904  42.7801217  60.0319524  10.8388371  29.1565998  40.4075550
  10.8267041  30.1007838  40.5643821  11.7311793  28.9736143  40.1135011
   9.0124333  49.0803902  51.8333228   9.9151580  49.1127512  52.1499723
   8.7861703  48.1504353  51.8479564  10.7677935  47.8334888  48.4943307
   9.8173566  47.8336750  48.3807679  11.0710421  47.0867623  47.9779341
  14.6540490  25.7508774  44.6621487  13.8872886  25.1967261  44.8078169
  15.0651195  25.8230643  45.5235638   6.6582252  32.0393570  58.7526668
   7.5213713  31.6830375  58.9629992   6.0847662  31.7007465  59.4402072
  26.5030628  53.6695427  49.5589069  27.1409038  53.5502174  48.8552409
  26.3851471  54.6176270  49.6177021  23.3120335  53.6222855  49.4950594
  22.9738846  53.5063919  48.6071128  24.1810103  53.2214020  49.4751600
  19.1707150  55.4758331  45.4847485  18.6072016  55.3848268  44.7163772
  19.0559546  54.6558235  45.9649977  23.7940118  54.7757706  55.4536799
  23.7828759  54.3810505  54.5817303  23.9560757  54.0423779  56.0470571
  16.7171582  56.9709523  48.3231705  17.5092874  56.6300347  47.9078004
  16.9568233  57.0804498  49.2433858  24.7506709  59.1429299  40.7961949
  24.0994689  59.7283379  40.4095963  25.5451072  59.6735494  40.8556987
  18.6762336  56.2318436  41.1949084  19.4493212  55.6847423  41.0561960
  19.0287735  57.0962685  41.4063545  20.5147379  57.5594818  54.4015983
  20.2237245  58.4640449  54.2862649  21.1504363  57.6011346  55.1160053
  21.4403586  54.9371667  50.9917343  22.0367158  54.7127689  50.2774306
  21.4978557  54.1956412  51.5942791  21.0128614  52.3911102  38.8267534
  21.2654135  51.8692623  38.0650997  20.0753173  52.2277247  38.9294217
  26.0571897  51.3946880  46.6342277  26.8434986  50.9766304  46.2832694
  26.3210601  52.2992973  46.8023925  26.2281974  56.8319731  41.3330934
  25.5927807  56.9054357  42.0451838  25.8979381  57.4213330  40.6550013
  31.4580324  51.3322114  47.5375255  32.1905496  50.7621330  47.7713085
  30.7019680  50.9443714  47.9781761  20.7324903  54.2939208  41.0291909
  20.6161161  53.6184111  41.6972993  20.8427163  53.8071582  40.2124062
  23.0756444  53.7549355  44.7338598  22.7114651  53.2279976  45.4451519
  23.9323560  53.3647824  44.5605083  28.9805744  45.0443688  51.9969864
  28.6489069  45.9139099  51.7731079  28.3851358  44.7279972  52.6763894
  22.7161931  48.7839255  39.7299946  22.8836333  49.6519491  40.0970417
  22.5259100  48.9466536  38.8061236  25.4737264  57.2456234  51.3965777
  25.1737987  58.1481272  51.2881584  25.1288323  56.9788417  52.2486930
  18.9249745  53.6970031  47.4302481  18.0000242  53.5646245  47.6380173
  19.1734159  54.4764250  47.9272424  28.8734408  49.7638774  49.0763214
  27.9651285  49.6954182  48.7821975  28.8222004  50.2410719  49.9045040
  22.6951152  51.2396912  40.7146613  22.5750777  51.6853963  41.5532094
  22.0003740  51.5882230  40.1560151  16.2858556  53.3403304  48.2646270
  16.4150938  53.5937783  49.1785682  15.6056008  53.9331012  47.9450925
  20.4558044  64.0100554  44.3636744  20.3782073  64.9608379  44.4425225
  19.8519687  63.6646427  45.0211671  22.9475274  51.1828419  57.0198111
  22.1708608  51.7422340  57.0100976  23.5865837  51.6685202  57.5412982
  30.7396054  47.9655212  50.8541088  30.0970434  48.2587745  50.2080883
  30.2350983  47.8508133  51.6594285  28.3936218  51.7118385  41.5426947
  29.3054074  51.9445772  41.3674645  27.8845865  52.2955430  40.9802026
  21.2021646  53.9913873  56.5816078  21.9436330  54.5298917  56.3050902
  20.4958631  54.6180162  56.7387630  26.6776985  56.1343013  55.1788240
  27.0860342  55.6925424  54.4342872  25.9554247  55.5595641  55.4322433
  23.0308056  51.0715620  52.5521797  23.8769251  51.4955034  52.6956446
  22.9706693  50.4149244  53.2460360  27.0005800  56.6944204  48.9340529
  26.3714663  56.8589918  48.2316597  26.6131462  57.1085813  49.7051493
  30.8795032  57.6298642  46.2884893  30.1946070  58.0097543  45.7381926
  30.9638881  58.2393968  47.0216840  26.1807501  48.7319988  54.2102970
  25.9368433  49.4862049  53.6737246  26.4567431  49.1105336  55.0450218
  28.1345964  55.2758601  52.8880236  28.3462859  55.9190361  52.2114617
  28.0875712  54.4420917  52.4202166  25.7372193  47.8876421  49.7916808
  24.8756672  48.1857675  50.0833546  25.7634627  48.1046820  48.8597841
  22.5533762  56.4318612  46.1990614  23.0172108  56.7106315  45.4095236
  22.2890560  55.5302057  46.0163705  19.4457843  55.9790094  49.1370377
  20.0159200  56.4077362  48.4987862  20.0365955  55.6972678  49.8354563
  21.4902648  52.5541764  43.0080179  22.1926691  53.0062808  43.4754105
  21.1583277  51.9125583  43.6360072  19.9383010  51.1453521  57.3831388
  19.3081670  51.8269802  57.6166785  19.8319097  51.0336603  56.4384527
  15.2327982  50.8125317  48.3097313  14.4427036  51.0682846  47.8337423
  15.7239229  51.6273655  48.4149353  29.2491792  58.1530556  51.0602593
  30.0709235  57.7510743  50.7785275  29.2454194  58.0498790  52.0118709
  17.1842727  51.1769896  45.2680789  16.3873891  51.2888591  45.7864285
  16.9568320  51.5156548  44.4021680  23.0148395  57.7014599  53.2163304
  23.0792828  58.1635007  54.0521476  22.3059319  57.0711964  53.3445614
  13.5165685  51.0655807  50.7412303  13.7673723  51.9502817  51.0069879
  14.0525233  50.8860409  49.9687395  37.3397785  54.4969305  47.4087565
  36.5861493  53.9276703  47.2531569  37.4745326  54.4631969  48.3558200
  22.7296413  59.3682707  43.0842284  22.5942087  60.2134243  43.5127132
  23.2706225  59.5701985  42.3208218  19.2163752  45.4474287  59.7456639
  18.8230698  44.8940485  60.4204284  20.0329893  45.7584865  60.1363157
  16.1825810  56.8858145  43.6570209  16.6950331  57.6801395  43.8075774
  16.8348523  56.1884435  43.5903811  17.9920695  60.0023901  45.7392962
  18.1687323  60.9241866  45.5513946  18.7877528  59.6882320  46.1687342
  22.1331713  46.8632166  57.3376896  22.8741427  47.4639319  57.2581358
  22.3649636  46.1209804  56.7794939  17.2773051  52.0488533  55.6155126
  17.1626566  51.1473790  55.9162225  16.4217569  52.2952230  55.2639942
  24.3564889  59.9906273  57.2142626  23.9128743  59.2042652  56.8963531
  25.0182103  60.1785424  56.5486517  19.1152010  61.5202075  51.7403305
  19.6659435  61.3919138  50.9680299  18.2763486  61.8196964  51.3898198
  26.4546127  60.2709073  55.2424028  26.4364602  61.0917954  54.7504297
  27.3766047  60.1463149  55.4674169  22.9119181  57.7853203  56.0847536
  23.4447518  57.0241491  55.8546844  22.3833262  57.4926855  56.8271690
  26.0788876  42.8913269  51.6141178  25.7353146  43.7814911  51.5380288
  26.4467839  42.7014926  50.7510763  14.1474727  55.2146799  44.4329780
  14.9849949  55.6243808  44.2163488  14.3252995  54.2746241  44.4029974
  26.0439159  52.8821880  40.1213613  25.5285782  53.6526485  40.3602000
  25.7716467  52.2087016  40.7446674  23.6286270  47.7271581  45.1798851
  22.7727866  47.3378431  45.0004490  24.0413222  47.8063542  44.3198637
  25.1585417  45.2617924  49.5790411  24.6550212  45.2248059  48.7658216
  25.4516024  46.1710667  49.6387068  21.4028303  45.3456654  48.5856593
  22.2681299  45.1499462  48.2262482  21.4705811  45.1167006  49.5125949
  31.0173433  55.6354235  42.0566786  30.2402876  55.2965394  41.6121948
  31.6964914  55.6406858  41.3821751  25.8325462  50.7548972  41.9473394
  25.5275598  51.0695121  42.7983537  26.7855904  50.8330392  41.9900727
  24.2771894  56.9139195  43.5966348  23.7493256  56.1791955  43.2839585
  23.7759397  57.6913872  43.3506316  29.2564740  55.1088216  48.7133394
  28.5988414  55.7987477  48.8013523  30.0605139  55.4984648  49.0567381
  19.0090622  47.5758862  45.9572959  19.5834374  47.3534043  45.2246152
  19.5961604  47.6447556  46.7101561  28.0670199  53.4632589  46.7637336
  28.5802081  54.0962580  47.2659046  28.7171423  52.8633784  46.3980696
  19.3360209  49.6063323  39.9768845  18.4997521  49.9438009  40.2978119
  19.1964978  49.4712302  39.0395982  21.3113289  44.4500111  44.6848029
  20.6577702  44.1349128  44.0604644  21.2693763  43.8275851  45.4107852
  22.4224494  54.7319406  36.6001321  21.5151556  54.5008659  36.7992470
  22.9195526  53.9357025  36.7875303  25.3292573  63.4416913  39.5198007
  24.6554272  63.7448610  40.1282965  25.7158395  64.2445993  39.1703464
  24.5451030  50.9382044  49.0095677  23.6273591  51.1596991  48.8517365
  24.9611173  51.0128355  48.1507384  25.3286077  52.3373460  44.1398357
  26.0757896  52.8494857  43.8305479  25.5977667  52.0157513  45.0002750
  23.6012728  54.8332001  41.1225311  22.6923947  54.5491033  41.2197781
  23.6307811  55.2531079  40.2628618  28.8331995  58.4438590  44.8916479
  28.3794322  57.6029500  44.9481669  28.2025962  59.0799988  45.2291259
  27.7764915  49.3730576  46.1217146  27.0387671  48.8607962  46.4527389
  28.0291688  48.9330958  45.3100423  27.2764934  60.2815087  45.8266297
  27.5687909  60.8420144  45.1078662  27.7863555  60.5743648  46.5819456
  27.8776542  42.1506828  46.7158915  28.1835419  41.2904191  46.4284830
  28.6029147  42.7424448  46.5157909  14.1700898  52.5537515  45.1040513
  13.9725298  51.9606875  44.3791580  13.6147562  52.2489725  45.8216452
  22.1497622  52.4460621  47.2235106  22.2046231  51.4934458  47.1477583
  21.3388824  52.6020060  47.7076405  23.2988815  56.3740744  38.4613390
  22.8608245  55.6576603  38.0019027  24.0399256  56.6016859  37.8998481
  20.0889982  51.0637681  44.9825485  19.2757847  51.3631851  45.3890677
  20.5848976  50.6693370  45.6999968  22.2398559  61.0595438  46.9159750
  22.1974738  61.2856284  45.9868282  23.1561258  60.8258812  47.0645551
  25.6864193  51.5279505  53.8140379  26.0413581  51.7550978  54.6734845
  26.3336324  51.8597882  53.1917634  31.4161930  54.6497941  44.5189708
  31.2779829  54.8399537  43.5910897  31.0598149  55.4117324  44.9757759
  19.5804056  48.6356036  50.5986720  20.2203436  48.4944795  49.9009684
  18.7481587  48.3490550  50.2225322  31.4431310  56.7174468  49.5300980
  31.8767816  56.6249757  50.3784034  32.1562891  56.6931969  48.8920996
  20.3564360  57.9358467  46.7121713  21.1504959  57.4408787  46.5104288
  19.6456053  57.4076330  46.3489418  25.1759205  60.3176562  51.0634080
  25.2296227  60.8867499  51.8311796  24.3073986  60.4878447  50.6988117
  16.6647124  52.0801549  42.7881465  15.7344712  52.0186004  43.0051428
  16.7604596  51.5577501  41.9918107  16.5832673  48.6056361  45.3759707
  16.8439490  49.5201695  45.2668868  17.4049845  48.1380804  45.5256320
  18.0557598  50.0194119  52.5458532  18.7280652  49.8111481  51.8971181
  17.2287385  49.8216205  52.1063764  32.3046859  56.7598169  52.0633865
  32.4982749  57.6643979  52.3093140  32.2047478  56.3005588  52.8972450
  23.9583170  46.6456059  54.5624192  23.3111085  47.3446009  54.4688669
  24.7284186  47.0792203  54.9300441  27.3661968  56.9104912  57.6374746
  27.2147474  56.6815463  56.7204829  27.3566648  57.8675513  57.6506091
  24.1347304  54.4836824  52.6221012  25.0639364  54.6347984  52.4489980
  23.7138334  54.5720845  51.7669659  22.9335636  58.5087489  50.3919550
  22.7946722  58.1406273  51.2645488  22.1450232  59.0235128  50.2203508
  23.5283788  63.6096585  41.7345086  23.7035544  63.1384628  42.5490709
  22.8416576  64.2362351  41.9626347  24.4840851  57.8869091  47.7808388
  24.1490684  57.8469861  48.6766037  23.9844797  57.2213807  47.3078798
  18.4585095  53.2936722  53.3060969  18.3204893  52.5616960  53.9072508
  19.3690019  53.2045622  53.0245157  27.4200043  55.2325126  38.0545447
  26.8029214  54.5071954  37.9578500  26.9516531  55.9934486  37.7112522
  21.0867396  53.0056681  52.7944648  21.7967015  52.3649873  52.7531267
  21.0436704  53.2569576  53.7170829  29.0754175  59.9424034  55.7151228
  29.0166721  59.2583254  55.0481811  29.4773693  60.6843024  55.2631854
  19.7996330  49.9921899  54.6140288  19.2633687  49.5412637  55.2661884
  19.2113038  50.1267808  53.8710752  18.0944873  66.7585948  48.5084947
  18.3341472  67.3904472  49.1863965  17.2514070  66.4073988  48.7950306
  19.2098589  49.4510550  37.1766752  18.3328055  49.3299351  36.8128998
  19.6856342  48.6596628  36.9245640  29.0771582  57.9063618  53.9465207
  28.1898361  57.5689540  54.0691606  29.6470133  57.1746649  54.1833973
  10.7300729  54.2387710  47.2708259  11.4171769  53.9249440  46.6829274
  10.5748858  55.1429074  46.9975510  15.5335451  49.1277906  51.6993282
  15.4493640  48.5203576  50.9643692  14.7118158  49.6186925  51.7002779
  22.6072735  62.5665070  50.9126450  22.5342907  63.3720042  51.4245755
  22.1650128  62.7657036  50.0874472  22.3962515  61.8036840  44.4229272
  21.6130037  62.3458521  44.5167497  23.0955260  62.3210820  44.8223513
  25.7059165  47.6131470  47.0663477  26.2027865  46.8601432  46.7464548
  24.9346147  47.6495787  46.5006687  33.5588923  53.3171835  48.7081769
  33.5478799  54.1996551  48.3375702  32.6906302  52.9643386  48.5136306
  25.0671419  62.4651904  53.0684609  25.7799391  63.0999369  52.9960511
  24.5761448  62.5615770  52.2524611  26.7888946  56.3703157  44.6401901
  25.8545225  56.4904620  44.4706605  26.9665614  55.4675624  44.3761911
  22.2894134  49.7548853  46.7935162  21.9191921  49.2019893  47.4816068
  22.7853226  49.1506986  46.2410162  30.1761497  52.2120476  45.1751935
  30.6421949  53.0448468  45.1012238  30.6268998  51.7465458  45.8797193
  20.1183332  60.2146348  53.8890180  20.8192792  60.8482831  54.0419574
  19.6478447  60.5561079  53.1285819  28.2437728  58.5564298  42.1738087
  28.5197572  58.4420892  43.0831961  27.3742227  58.1581783  42.1350260
  28.1478160  44.5801063  49.2142836  27.2341240  44.8105290  49.3825043
  28.5771261  44.6639508  50.0656869  27.9184618  52.7690955  51.7142730
  27.2656069  53.0166863  51.0595183  28.2964998  51.9555094  51.3805208
  24.8791792  62.8050649  45.8170901  25.0614187  61.9872305  46.2798653
  25.7024778  63.0218341  45.3795791  25.2133958  61.7318834  43.0785949
  25.7421724  61.2211288  42.4656111  25.4762177  61.4161364  43.9431482
  23.9672191  53.5110766  58.2008767  23.2912828  53.4104896  58.8711143
  24.7899825  53.3549980  58.6644765  15.7151050  59.7482703  50.8221283
  16.3004487  59.0026391  50.9549187  15.5175889  60.0586660  51.7057947
  18.5689706  62.7833950  45.8383725  17.9000081  63.2680078  45.3547765
  18.4302575  63.0303171  46.7527104  10.3068705  52.3188303  49.5425726
  10.3452805  51.7851894  50.3362844   9.8008998  51.7923509  48.9236703
  22.7094974  64.8177694  52.4366383  23.2613282  64.9809315  53.2015469
  23.0501168  65.4082132  51.7646408  17.6859468  47.1652844  53.0388268
  17.7500794  48.0267675  52.6265666  17.6226588  46.5526845  52.3060627
  17.1611740  49.2375976  56.6861302  17.7883779  48.8553054  57.2998827
  16.3039659  49.0190178  57.0516995  27.5605849  59.6438951  58.2915038
  28.1045753  60.2568910  57.7969993  26.9792693  60.2018530  58.8082051
  13.9377283  51.0452405  42.6179657  14.2330724  50.1363084  42.5646711
  13.0365319  51.0240145  42.2960660  25.8463362  62.7659669  49.4230066
  25.7214501  61.9649409  48.9141011  26.5042453  63.2605863  48.9344036
  17.4671530  49.1208402  48.6007206  16.7458116  49.7344370  48.4614679
  18.2564786  49.6566167  48.5223852  27.9098270  60.5668690  51.0509616
  26.9628605  60.4474041  50.9787942  28.2581043  59.6791188  51.1335877
  20.2697843  46.4562828  54.8747858  20.7932245  46.7025125  55.6374167
  20.0510177  47.2882863  54.4550995  15.6665124  48.7266503  42.7418982
  15.3377831  47.8463882  42.5594088  16.0204495  48.6714172  43.6295372
  24.9144703  60.3621406  47.2513968  24.7669666  59.4338113  47.4321538
  25.7398197  60.3841496  46.7671043  18.7806948  49.0139473  43.1094460
  19.1203020  49.5425394  42.3873068  19.2279068  49.3519879  43.8853027
  28.5178825  61.1849964  48.3378841  29.4425373  60.9792826  48.2003292
  28.3494128  60.9366366  49.2468182  21.4750388  47.3976524  52.5597528
  21.1347209  46.5984337  52.9618208  20.7689395  47.6978234  51.9874361
  22.1266860  44.4825836  51.0124851  22.9492929  44.0086314  50.8903741
  22.3704924  45.2616320  51.5123537  20.7675095  47.5114094  41.3087753
  21.4883457  47.8895347  40.8051470  20.1440399  48.2302971  41.4122731
  24.9106218  48.2159243  42.2446085  25.1269832  49.0983881  41.9434913
  24.4300285  47.8245457  41.5151727  19.6505439  51.1744957  48.8216830
  19.5050020  51.4885260  49.7141111  19.1730643  51.7929857  48.2687728
  21.5101822  48.1647505  48.8697719  21.4963391  47.2688598  48.5330017
  22.2274250  48.1718168  49.5036005  23.3627953  48.5984845  50.9150847
  23.1045730  49.5201915  50.9135177  22.8312993  48.2015279  51.6051311
  28.3074141  61.7035632  43.6940932  28.4811019  61.1382054  42.9414785
  28.8003033  62.5036527  43.5120422  14.1251101  53.7150301  51.7604491
  13.5804569  54.4910109  51.8924765  15.0030451  54.0621105  51.6023612
  20.9138718  47.0461885  44.1385289  21.0354629  46.1178531  44.3376177
  20.6240760  47.0600571  43.2263605  23.7829908  44.7316795  47.2752009
  23.8051605  44.7956128  46.3203989  24.1997967  43.8921304  47.4692515
  34.1613532  54.4672055  45.3131232  34.6044678  53.7179380  44.9150355
  33.2840043  54.4582191  44.9304964  29.2949314  61.0202396  40.7937830
  29.9900218  61.6409089  41.0125145  29.6372464  60.1697748  41.0690208
  14.9117123  52.8420197  54.6534648  14.1698859  52.9902833  55.2399278
  14.5909867  53.1028463  53.7901397  31.1940737  58.4702102  42.3225161
  31.7192061  58.8089375  41.5974481  31.1063089  57.5349117  42.1388296
  22.8560786  62.3836176  54.4515038  23.1647912  62.1385322  55.3237737
  23.6536268  62.5882814  53.9633908  22.8781398  64.5374085  46.6820414
  22.4386388  64.0450464  47.3753271  23.6289515  63.9947053  46.4412490
  15.3573737  60.7285626  46.6845042  16.1831757  60.4289398  46.3043686
  15.0067789  59.9593248  47.1334831  20.3255270  60.0812094  48.7542716
  19.7035279  59.4182799  48.4544944  20.9960137  60.1073226  48.0716364
  13.5582342  58.6471952  47.6433976  12.7214250  58.2194127  47.4617977
  13.5305987  58.8404396  48.5804767  20.3979797  48.5593882  58.3475222
  20.4467953  49.4356005  57.9652992  20.9402311  48.0171275  57.7746865
  30.8834643  59.1035005  57.6276359  30.0930187  59.0859144  57.0880859
  30.6467998  59.6423299  58.3825396  31.0032518  55.9527472  54.9409088
  31.0530523  55.7877479  55.8824610  30.8946441  55.0854731  54.5506968
  19.8868777  58.6316018  42.2301177  20.0356897  59.3151482  41.5767849
  20.6935220  58.6121108  42.7450632  28.2936280  51.9358400  56.2568394
  29.1946143  51.7964865  55.9652392  28.3684255  52.1012855  57.1966572
  22.6279086  49.3125255  55.1021581  21.7582395  49.6058821  54.8304169
  22.8638566  49.8965700  55.8228844  32.5050715  58.3724413  55.1851109
  32.2135523  58.7354394  56.0214570  31.8922846  57.6591422  55.0064441
  33.7046397  55.9377293  47.7053679  34.5393289  56.3767097  47.8691240
  33.8405526  55.4615946  46.8861925  30.7537903  53.4957028  53.6531167
  31.2292025  53.6884674  52.8450019  29.8303468  53.5516214  53.4074551
  17.6421410  54.6581195  43.2362245  17.3967452  53.7543525  43.4342456
  17.8117324  54.6598346  42.2941723  25.3318120  45.5304872  52.6187001
  25.8500063  46.2665898  52.2933490  24.9773252  45.8368865  53.4533760
  16.9117057  50.3909553  40.7348407  16.2186302  50.4653908  40.0788443
  16.6668809  49.6269896  41.2569924  25.5830714  41.9505154  48.1387898
  25.8632468  41.2828343  48.7648324  26.3681321  42.1434250  47.6262561
  23.3864182  61.1264148  39.7012924  22.8138149  61.7454335  39.2483396
  23.9596976  61.6763510  40.2352846  29.4539572  50.3722788  51.8859473
  30.4056995  50.4720886  51.9071697  29.2843023  49.5801057  52.3957557
  27.4753952  47.4578371  52.0718874  26.8803884  47.7383384  51.3765362
  27.1903648  47.9472272  52.8435615  26.6061442  61.4101298  40.8321506
  27.5392115  61.3446860  41.0354382  26.5184655  62.2457565  40.3736039
  29.2349459  60.7267168  37.7925454  29.1563090  60.3927032  38.6861212
  30.0559125  61.2188936  37.7916926  31.9327650  53.5928908  51.0001772
  31.9003970  52.6544909  51.1861456  32.5428274  53.6712945  50.2667597
  23.7710981  52.4624961  37.0428976  24.7170085  52.3331169  37.1117394
  23.3925226  51.7239623  37.5198405  32.0822138  50.3839951  51.0460056
  31.5661187  49.5998408  50.8589984  32.9662087  50.0558668  51.2106575
  29.7432865  44.1280967  47.0055868  29.5457686  43.8196055  47.8899200
  30.3532571  44.8542606  47.1353798  37.7504200  54.6544915  50.1407809
  38.4807588  54.3930203  50.7015513  37.1411145  53.9173637  50.1809877
  35.8319497  52.7952777  50.7382260  35.1052660  52.6608742  50.1298752
  35.4166784  53.1029606  51.5438978  23.6549673  56.5142707  58.5029633
  24.5752683  56.6921306  58.6969680  23.6199256  55.5698752  58.3509333
  21.9553898  50.3874937  36.9783862  21.0485353  50.0908050  37.0546575
  22.2329879  50.0904755  36.1118148  12.8731838  51.7081301  47.4282908
  12.5534623  50.8546609  47.1357282  12.3265266  51.9229879  48.1840875
  16.6511746  54.4243742  51.1452415  16.8697756  55.3560849  51.1640448
  17.0637520  54.0651716  51.9307218  23.5715964  44.9311827  43.1328103
  22.7616692  44.5858912  43.5083349  24.2600381  44.6219371  43.7215715
  25.5006512  44.0089874  44.7552400  26.0537551  44.4285327  45.4142423
  25.7376598  43.0825622  44.7975356  21.5239611  49.9976947  60.5355164
  21.4236338  50.9471304  60.4667255  21.3061153  49.6695186  59.6631234
  20.7252683  47.2461872  37.1195841  21.5871847  47.5716771  37.3791658
  20.9103027  46.4593368  36.6068907  12.7420098  55.3284212  49.3976030
  12.0483570  54.9138165  48.8845984  13.4893089  55.3704749  48.8009449
  28.8785319  46.1190399  44.2631064  28.2983988  46.7775203  43.8809116
  28.6121252  45.2967743  43.8518481  27.3288885  45.5195457  46.4652384
  27.8288664  45.6311991  45.6566703  27.9724493  45.2156509  47.1053193
  21.3870881  53.4274086  59.3520225  20.9037963  54.2274446  59.5584114
  21.4731820  53.4382031  58.3987669  14.6556841  55.2602466  47.2742045
  14.6327529  55.3590153  46.3223928  14.9657477  56.1067617  47.5959211
  17.3144219  57.3178621  51.3888659  18.2687472  57.2862563  51.3218591
  17.1156742  56.8569245  52.2038885  17.9043601  55.8879737  53.9559457
  18.7236490  56.3823816  53.9794294  18.1780409  54.9711705  53.9277024
  27.6610197  48.2790489  43.3187412  26.7736052  48.5640140  43.1007607
  28.0764186  48.1184253  42.4714689  31.0124733  48.3037010  47.0341751
  31.7885123  48.7933463  47.3066368  30.2872867  48.7295064  47.4913621
  33.4497292  49.0164629  48.0915692  34.0441783  48.7760365  47.3809000
  33.5223875  48.2971760  48.7189228  15.6694447  62.8598240  48.4058857
  15.5348915  62.0998641  47.8396855  15.2526510  63.5839140  47.9387646
  26.8053410  58.0435164  37.4135432  27.5089261  58.2485166  38.0293088
  26.0816059  58.6111926  37.6784516  27.6351221  53.7945025  43.5337702
  27.5786422  54.2513577  42.6945335  28.1879563  53.0335710  43.3560545
  31.4456027  49.5834757  44.3587822  31.1892961  49.1831393  45.1896029
  30.8208895  50.2978551  44.2337961  35.7568365  52.3230830  46.8659113
  35.1967922  52.3924020  47.6390675  35.1511868  52.1471815  46.1458609
  18.8263573  63.7567557  48.6177299  18.7095957  64.7012990  48.5155990
  18.0056020  63.4541119  49.0063099  28.7140108  58.4817693  39.4633892
  29.5485712  58.0498892  39.2811367  28.5524451  58.3099707  40.3910787
  28.3686000  54.9849806  40.8290231  28.3134804  54.8194078  39.8878676
  27.7432055  55.6925839  40.9852421  13.1578515  50.2217871  54.6551654
  13.8037379  49.7116825  55.1438879  12.9495666  50.9586552  55.2295079
  25.6831907  57.2898718  60.1543794  26.5523067  57.4639371  59.7930429
  25.2038659  58.1093135  60.0319524  21.6782126  44.4857915  40.4075550
  21.6660795  45.4299755  40.5643821  22.5705547  44.3028061  40.1135011
  19.8518087  64.4095819  51.8333228  20.7545334  64.4419430  52.1499723
  19.6255458  63.4796270  51.8479564  21.6071689  63.1626806  48.4943307
  20.6567320  63.1628667  48.3807679  21.9104176  62.4159540  47.9779341
  25.4934245  41.0800692  44.6621487  24.7266641  40.5259179  44.8078169
  25.9044950  41.1522561  45.5235638  17.4976006  47.3685488  58.7526668
  18.3607468  47.0122293  58.9629992  16.9241417  47.0299383  59.4402072
  37.3424383  68.9987344  49.5589069  37.9802793  68.8794092  48.8552409
  37.2245226  69.9468188  49.6177021  34.1514089  68.9514772  49.4950594
  33.8132601  68.8355837  48.6071128  35.0203857  68.5505937  49.4751600
  30.0100905  70.8050249  45.4847485  29.4465770  70.7140186  44.7163772
  29.8953300  69.9850153  45.9649977  34.6333872  70.1049624  55.4536799
  34.6222513  69.7102422  54.5817303  34.7954512  69.3715697  56.0470571
  27.5565337  72.3001440  48.3231705  28.3486629  71.9592265  47.9078004
  27.7961987  72.4096415  49.2433858  35.5900464  74.4721216  40.7961949
  34.9388443  75.0575297  40.4095963  36.3844826  75.0027411  40.8556987
  29.5156091  71.5610354  41.1949084  30.2886967  71.0139341  41.0561960
  29.8681490  72.4254603  41.4063545  31.3541133  72.8886736  54.4015983
  31.0630999  73.7932367  54.2862649  31.9898118  72.9303263  55.1160053
  32.2797340  70.2663584  50.9917343  32.8760912  70.0419607  50.2774306
  32.3372312  69.5248330  51.5942791  31.8522369  67.7203020  38.8267534
  32.1047889  67.1984541  38.0650997  30.9146928  67.5569165  38.9294217
  36.8965651  66.7238798  46.6342277  37.6828741  66.3058221  46.2832694
  37.1604356  67.6284890  46.8023925  37.0675729  72.1611648  41.3330934
  36.4321562  72.2346275  42.0451838  36.7373135  72.7505247  40.6550013
  42.2974079  66.6614031  47.5375255  43.0299251  66.0913248  47.7713085
  41.5413434  66.2735632  47.9781761  31.5718657  69.6231126  41.0291909
  31.4554915  68.9476029  41.6972993  31.6820917  69.1363500  40.2124062
  33.9150198  69.0841273  44.7338598  33.5508406  68.5571894  45.4451519
  34.7717314  68.6939742  44.5605083  39.8199499  60.3735605  51.9969864
  39.4882824  61.2431016  51.7731079  39.2245112  60.0571889  52.6763894
  33.5555685  64.1131172  39.7299946  33.7230088  64.9811409  40.0970417
  33.3652854  64.2758454  38.8061236  36.3131018  72.5748151  51.3965777
  36.0131742  73.4773190  51.2881584  35.9682078  72.3080335  52.2486930
  29.7643500  69.0261948  47.4302481  28.8393996  68.8938162  47.6380173
  30.0127913  69.8056167  47.9272424  39.7128162  65.0930692  49.0763214
  38.8045040  65.0246100  48.7821975  39.6615758  65.5702636  49.9045040
  33.5344906  66.5688830  40.7146613  33.4144531  67.0145881  41.5532094
  32.8397495  66.9174148  40.1560151  27.1252311  68.6695222  48.2646270
  27.2544692  68.9229701  49.1785682  26.4449762  69.2622930  47.9450925
  31.2951798  79.3392472  44.3636744  31.2175828  80.2900297  44.4425225
  30.6913442  78.9938344  45.0211671  33.7869028  66.5120337  57.0198111
  33.0102362  67.0714257  57.0100976  34.4259591  66.9977120  57.5412982
  41.5789809  63.2947130  50.8541088  40.9364189  63.5879663  50.2080883
  41.0744737  63.1800050  51.6594285  39.2329972  67.0410303  41.5426947
  40.1447828  67.2737690  41.3674645  38.7239619  67.6247347  40.9802026
  32.0415400  69.3205790  56.5816078  32.7830085  69.8590834  56.3050902
  31.3352386  69.9472079  56.7387630  37.5170740  71.4634931  55.1788240
  37.9254096  71.0217341  54.4342872  36.7948001  70.8887558  55.4322433
  33.8701810  66.4007538  52.5521797  34.7163005  66.8246951  52.6956446
  33.8100448  65.7441162  53.2460360  37.8399555  72.0236122  48.9340529
  37.2108417  72.1881836  48.2316597  37.4525217  72.4377731  49.7051493
  41.7188787  72.9590559  46.2884893  41.0339825  73.3389461  45.7381926
  41.8032636  73.5685886  47.0216840  37.0201255  64.0611906  54.2102970
  36.7762187  64.8153967  53.6737246  37.2961186  64.4397254  55.0450218
  38.9739718  70.6050518  52.8880236  39.1856613  71.2482278  52.2114617
  38.9269466  69.7712835  52.4202166  36.5765947  63.2168339  49.7916808
  35.7150426  63.5149593  50.0833546  36.6028382  63.4338738  48.8597841
  33.3927517  71.7610530  46.1990614  33.8565862  72.0398233  45.4095236
  33.1284315  70.8593974  46.0163705  30.2851598  71.3082011  49.1370377
  30.8552955  71.7369280  48.4987862  30.8759709  71.0264596  49.8354563
  32.3296403  67.8833682  43.0080179  33.0320446  68.3354726  43.4754105
  31.9977031  67.2417501  43.6360072  30.7776764  66.4745439  57.3831388
  30.1475425  67.1561720  57.6166785  30.6712852  66.3628520  56.4384527
  26.0721737  66.1417235  48.3097313  25.2820791  66.3974763  47.8337423
  26.5632984  66.9565573  48.4149353  40.0885546  73.4822474  51.0602593
  40.9102990  73.0802661  50.7785275  40.0847949  73.3790708  52.0118709
  28.0236482  66.5061814  45.2680789  27.2267645  66.6180508  45.7864285
  27.7962074  66.8448466  44.4021680  33.8542150  73.0306517  53.2163304
  33.9186582  73.4926924  54.0521476  33.1453073  72.4003882  53.3445614
  24.3559440  66.3947725  50.7412303  24.6067478  67.2794735  51.0069879
  24.8918988  66.2152327  49.9687395  48.1791539  69.8261222  47.4087565
  47.4255248  69.2568620  47.2531569  48.3139080  69.7923887  48.3558200
  33.5690167  74.6974625  43.0842284  33.4335842  75.5426160  43.5127132
  34.1099980  74.8993902  42.3208218  30.0557507  60.7766205  59.7456639
  29.6624452  60.2232403  60.4204284  30.8723647  61.0876783  60.1363157
  27.0219565  72.2150063  43.6570209  27.5344085  73.0093313  43.8075774
  27.6742277  71.5176353  43.5903811  28.8314449  75.3315819  45.7392962
  29.0081078  76.2533784  45.5513946  29.6271283  75.0174238  46.1687342
  32.9725468  62.1924084  57.3376896  33.7135181  62.7931237  57.2581358
  33.2043391  61.4501721  56.7794939  28.1166806  67.3780451  55.6155126
  28.0020321  66.4765708  55.9162225  27.2611324  67.6244148  55.2639942
  29.9545765  76.8493993  51.7403305  30.5053190  76.7211056  50.9680299
  29.1157241  77.1488882  51.3898198  37.2939882  75.6000991  55.2424028
  37.2758357  76.4209872  54.7504297  38.2159802  75.4755066  55.4674169
  33.7512936  73.1145121  56.0847536  34.2841273  72.3533409  55.8546844
  33.2227017  72.8218772  56.8271690  36.9182631  58.2205187  51.6141178
  36.5746900  59.1106828  51.5380288  37.2861593  58.0306844  50.7510763
  24.9868481  70.5438717  44.4329780  25.8243703  70.9535725  44.2163488
  25.1646749  69.6038159  44.4029974  36.8832913  68.2113798  40.1213613
  36.3679537  68.9818402  40.3602000  36.6110222  67.5378934  40.7446674
  34.4680025  63.0563498  45.1798851  33.6121621  62.6670349  45.0004490
  34.8806976  63.1355459  44.3198637  35.9979171  60.5909842  49.5790411
  35.4943967  60.5539977  48.7658216  36.2909778  61.5002584  49.6387068
  32.2422057  60.6748571  48.5856593  33.1075054  60.4791380  48.2262482
  32.3099566  60.4458923  49.5125949  41.8567188  70.9646152  42.0566786
  41.0796630  70.6257312  41.6121948  42.5358669  70.9698775  41.3821751
  36.6719217  66.0840890  41.9473394  36.3669352  66.3987039  42.7983537
  37.6249659  66.1622310  41.9900727  35.1165648  72.2431113  43.5966348
  34.5887010  71.5083873  43.2839585  34.6153151  73.0205789  43.3506316
  40.0958495  70.4380134  48.7133394  39.4382169  71.1279395  48.8013523
  40.8998894  70.8276565  49.0567381  29.8484376  62.9050779  45.9572959
  30.4228128  62.6825961  45.2246152  30.4355359  62.9739474  46.7101561
  38.9063953  68.7924506  46.7637336  39.4195835  69.4254498  47.2659046
  39.5565177  68.1925702  46.3980696  30.1753963  64.9355240  39.9768845
  29.3391275  65.2729927  40.2978119  30.0358733  64.8004220  39.0395982
  32.1507044  59.7792028  44.6848029  31.4971456  59.4641045  44.0604644
  32.1087518  59.1567769  45.4107852  33.2618249  70.0611323  36.6001321
  32.3545310  69.8300577  36.7992470  33.7589281  69.2648943  36.7875303
  36.1686328  78.7708831  39.5198007  35.4948026  79.0740527  40.1282965
  36.5552150  79.5737911  39.1703464  35.3844784  66.2673962  49.0095677
  34.4667346  66.4888909  48.8517365  35.8004928  66.3420272  48.1507384
  36.1679832  67.6665377  44.1398357  36.9151651  68.1786775  43.8305479
  36.4371421  67.3449430  45.0002750  34.4406482  70.1623918  41.1225311
  33.5317701  69.8782951  41.2197781  34.4701566  70.5822997  40.2628618
  39.6725750  73.7730508  44.8916479  39.2188077  72.9321418  44.9481669
  39.0419716  74.4091906  45.2291259  38.6158669  64.7022494  46.1217146
  37.8781426  64.1899880  46.4527389  38.8685443  64.2622875  45.3100423
  38.1158689  75.6107004  45.8266297  38.4081663  76.1712061  45.1078662
  38.6257309  75.9035565  46.5819456  38.7170296  57.4798746  46.7158915
  39.0229173  56.6196109  46.4284830  39.4422901  58.0716366  46.5157909
  25.0094652  67.8829432  45.1040513  24.8119052  67.2898793  44.3791580
  24.4541316  67.5781642  45.8216452  32.9891376  67.7752539  47.2235106
  33.0439986  66.8226375  47.1477583  32.1782578  67.9311978  47.7076405
  34.1382570  71.7032662  38.4613390  33.7002000  70.9868521  38.0019027
  34.8793011  71.9308777  37.8998481  30.9283736  66.3929599  44.9825485
  30.1151602  66.6923769  45.3890677  31.4242730  65.9985287  45.6999968
  33.0792314  76.3887355  46.9159750  33.0368493  76.6148202  45.9868282
  33.9955013  76.1550730  47.0645551  36.5257948  66.8571423  53.8140379
  36.8807335  67.0842896  54.6734845  37.1730079  67.1889800  53.1917634
  42.2555685  69.9789859  44.5189708  42.1173583  70.1691455  43.5910897
  41.8991904  70.7409242  44.9757759  30.4197811  63.9647954  50.5986720
  31.0597190  63.8236713  49.9009684  29.5875341  63.6782467  50.2225322
  42.2825064  72.0466386  49.5300980  42.7161571  71.9541675  50.3784034
  42.9956645  72.0223886  48.8920996  31.1958115  73.2650384  46.7121713
  31.9898713  72.7700705  46.5104288  30.4849807  72.7368248  46.3489418
  36.0152959  75.6468480  51.0634080  36.0689981  76.2159416  51.8311796
  35.1467741  75.8170365  50.6988117  27.5040878  67.4093466  42.7881465
  26.5738466  67.3477922  43.0051428  27.5998350  66.8869419  41.9918107
  27.4226427  63.9348279  45.3759707  27.6833245  64.8493612  45.2668868
  28.2443600  63.4672722  45.5256320  28.8951353  65.3486036  52.5458532
  29.5674406  65.1403398  51.8971181  28.0681139  65.1508122  52.1063764
  43.1440614  72.0890087  52.0633865  43.3376504  72.9935897  52.3093140
  43.0441232  71.6297506  52.8972450  34.7976925  61.9747977  54.5624192
  34.1504840  62.6737927  54.4688669  35.5677940  62.4084121  54.9300441
  38.2055723  72.2396829  57.6374746  38.0541229  72.0107381  56.7204829
  38.1960402  73.1967431  57.6506091  34.9741059  69.8128742  52.6221012
  35.9033119  69.9639902  52.4489980  34.5532089  69.9012763  51.7669659
  33.7729391  73.8379406  50.3919550  33.6340476  73.4698191  51.2645488
  32.9843987  74.3527046  50.2203508  34.3677543  78.9388503  41.7345086
  34.5429298  78.4676546  42.5490709  33.6810331  79.5654269  41.9626347
  35.3234606  73.2161009  47.7808388  34.9884438  73.1761779  48.6766037
  34.8238552  72.5505725  47.3078798  29.2978850  68.6228639  53.3060969
  29.1598648  67.8908878  53.9072508  30.2083773  68.5337539  53.0245157
  38.2593798  70.5617043  38.0545447  37.6422968  69.8363872  37.9578500
  37.7910286  71.3226404  37.7112522  31.9261151  68.3348599  52.7944648
  32.6360769  67.6941791  52.7531267  31.8830459  68.5861493  53.7170829
  39.9147929  75.2715952  55.7151228  39.8560475  74.5875172  55.0481811
  40.3167448  76.0134942  55.2631854  30.6390084  65.3213816  54.6140288
  30.1027442  64.8704555  55.2661884  30.0506793  65.4559725  53.8710752
  28.9338628  82.0877866  48.5084947  29.1735226  82.7196390  49.1863965
  28.0907824  81.7365906  48.7950306  30.0492343  64.7802468  37.1766752
  29.1721810  64.6591269  36.8128998  30.5250097  63.9888546  36.9245640
  39.9165336  73.2355536  53.9465207  39.0292115  72.8981458  54.0691606
  40.4863888  72.5038567  54.1833973  21.5694484  69.5679628  47.2708259
  22.2565523  69.2541358  46.6829274  21.4142612  70.4720992  46.9975510
  26.3729206  64.4569824  51.6993282  26.2887394  63.8495494  50.9643692
  25.5511912  64.9478842  51.7002779  33.4466490  77.8956988  50.9126450
  33.3736661  78.7011960  51.4245755  33.0043883  78.0948954  50.0874472
  33.2356269  77.1328758  44.4229272  32.4523791  77.6750438  44.5167497
  33.9349015  77.6502738  44.8223513  36.5452920  62.9423388  47.0663477
  37.0421619  62.1893350  46.7464548  35.7739901  62.9787704  46.5006687
  44.3982677  68.6463753  48.7081769  44.3872553  69.5288469  48.3375702
  43.5300056  68.2935304  48.5136306  35.9065173  77.7943822  53.0684609
  36.6193146  78.4291287  52.9960511  35.4155202  77.8907688  52.2524611
  37.6282700  71.6995075  44.6401901  36.6938979  71.8196537  44.4706605
  37.8059369  70.7967542  44.3761911  33.1287888  65.0840771  46.7935162
  32.7585676  64.5311811  47.4816068  33.6246981  64.4798904  46.2410162
  41.0155252  67.5412394  45.1751935  41.4815704  68.3740386  45.1012238
  41.4662752  67.0757376  45.8797193  30.9577087  75.5438266  53.8890180
  31.6586546  76.1774749  54.0419574  30.4872202  75.8852997  53.1285819
  39.0831483  73.8856215  42.1738087  39.3591327  73.7712810  43.0831961
  38.2135981  73.4873700  42.1350260  38.9871914  59.9092981  49.2142836
  38.0734994  60.1397208  49.3825043  39.4165016  59.9931425  50.0656869
  38.7578373  68.0982873  51.7142730  38.1049823  68.3458781  51.0595183
  39.1358753  67.2847011  51.3805208  35.7185547  78.1342566  45.8170901
  35.9007941  77.3164222  46.2798653  36.5418533  78.3510259  45.3795791
  36.0527712  77.0610751  43.0785949  36.5815479  76.5503206  42.4656111
  36.3155932  76.7453282  43.9431482  34.8065946  68.8402684  58.2008767
  34.1306583  68.7396813  58.8711143  35.6293580  68.6841898  58.6644765
  26.5544805  75.0774621  50.8221283  27.1398242  74.3318309  50.9549187
  26.3569643  75.3878577  51.7057947  29.4083460  78.1125868  45.8383725
  28.7393835  78.5971996  45.3547765  29.2696330  78.3595089  46.7527104
  21.1462460  67.6480221  49.5425726  21.1846559  67.1143812  50.3362844
  20.6402753  67.1215426  48.9236703  33.5488729  80.1469612  52.4366383
  34.1007037  80.3101233  53.2015469  33.8894922  80.7374049  51.7646408
  28.5253222  62.4944761  53.0388268  28.5894548  63.3559592  52.6265666
  28.4620342  61.8818763  52.3060627  28.0005495  64.5667894  56.6861302
  28.6277533  64.1844971  57.2998827  27.1433413  64.3482096  57.0516995
  24.7771037  66.3744323  42.6179657  25.0724478  65.4655001  42.5646711
  23.8759073  66.3532062  42.2960660  36.6857116  78.0951587  49.4230066
  36.5608256  77.2941327  48.9141011  37.3436207  78.5897780  48.9344036
  28.3065284  64.4500320  48.6007206  27.5851870  65.0636287  48.4614679
  29.0958540  64.9858084  48.5223852  38.7492024  75.8960607  51.0509616
  37.8022360  75.7765958  50.9787942  39.0974798  75.0083105  51.1335877
  31.1091598  61.7854746  54.8747858  31.6326000  62.0317043  55.6374167
  30.8903931  62.6174781  54.4550995  26.5058879  64.0558421  42.7418982
  26.1771585  63.1755800  42.5594088  26.8598250  64.0006089  43.6295372
  35.7538458  75.6913323  47.2513968  35.6063420  74.7630031  47.4321538
  36.5791951  75.7133414  46.7671043  29.6200702  64.3431390  43.1094460
  29.9596775  64.8717312  42.3873068  30.0672822  64.6811797  43.8853027
  39.3572580  76.5141882  48.3378841  40.2819127  76.3084743  48.2003292
  39.1887883  76.2658283  49.2468182  32.3144143  62.7268441  52.5597528
  31.9740963  61.9276254  52.9618208  31.6083149  63.0270152  51.9874361
  32.9660615  59.8117754  51.0124851  33.7886684  59.3378232  50.8903741
  33.2098678  60.5908237  51.5123537  31.6068849  62.8406012  41.3087753
  32.3277212  63.2187265  40.8051470  30.9834153  63.5594889  41.4122731
  35.7499972  63.5451161  42.2446085  35.9663586  64.4275799  41.9434913
  35.2694039  63.1537374  41.5151727  30.4899193  66.5036874  48.8216830
  30.3443774  66.8177177  49.7141111  30.0124397  67.1221775  48.2687728
  32.3495576  63.4939422  48.8697719  32.3357145  62.5980516  48.5330017
  33.0668004  63.5010086  49.5036005  34.2021707  63.9276762  50.9150847
  33.9439485  64.8493833  50.9135177  33.6706747  63.5307197  51.6051311
  39.1467896  77.0327550  43.6940932  39.3204773  76.4673972  42.9414785
  39.6396787  77.8328444  43.5120422  24.9644856  69.0442219  51.7604491
  24.4198324  69.8202027  51.8924765  25.8424205  69.3913023  51.6023612
  31.7532472  62.3753803  44.1385289  31.8748383  61.4470449  44.3376177
  31.4634515  62.3892489  43.2263605  34.6223663  60.0608713  47.2752009
  34.6445359  60.1248046  46.3203989  35.0391722  59.2213222  47.4692515
  45.0007287  69.7963973  45.3131232  45.4438433  69.0471298  44.9150355
  44.1233797  69.7874109  44.9304964  40.1343068  76.3494314  40.7937830
  40.8293973  76.9701007  41.0125145  40.4766218  75.4989665  41.0690208
  25.7510877  68.1712115  54.6534648  25.0092613  68.3194750  55.2399278
  25.4303622  68.4320381  53.7901397  42.0334491  73.7994020  42.3225161
  42.5585815  74.1381292  41.5974481  41.9456844  72.8641035  42.1388296
  33.6954540  77.7128093  54.4515038  34.0041667  77.4677240  55.3237737
  34.4930022  77.9174732  53.9633908  33.7175152  79.8666003  46.6820414
  33.2780142  79.3742382  47.3753271  34.4683269  79.3238970  46.4412490
  26.1967491  76.0577544  46.6845042  27.0225511  75.7581316  46.3043686
  25.8461543  75.2885166  47.1334831  31.1649024  75.4104012  48.7542716
  30.5429034  74.7474717  48.4544944  31.8353891  75.4365144  48.0716364
  24.3976096  73.9763870  47.6433976  23.5608004  73.5486044  47.4617977
  24.3699742  74.1696313  48.5804767  31.2373552  63.8885800  58.3475222
  31.2861707  64.7647923  57.9652992  31.7796066  63.3463193  57.7746865
  41.7228397  74.4326923  57.6276359  40.9323941  74.4151062  57.0880859
  41.4861752  74.9715217  58.3825396  41.8426273  71.2819390  54.9409088
  41.8924277  71.1169397  55.8824610  41.7340196  70.4146649  54.5506968
  30.7262531  73.9607935  42.2301177  30.8750652  74.6443400  41.5767849
  31.5328975  73.9413025  42.7450632  39.1330035  67.2650318  56.2568394
  40.0339898  67.1256782  55.9652392  39.2078009  67.4304772  57.1966572
  33.4672840  64.6417172  55.1021581  32.5976150  64.9350738  54.8304169
  33.7032321  65.2257617  55.8228844  43.3444469  73.7016331  55.1851109
  43.0529278  74.0646312  56.0214570  42.7316601  72.9883339  55.0064441
  44.5440152  71.2669211  47.7053679  45.3787043  71.7059015  47.8691240
  44.6799280  70.7907864  46.8861925  41.5931658  68.8248946  53.6531167
  42.0685779  69.0176592  52.8450019  40.6697223  68.8808132  53.4074551
  28.4815164  69.9873113  43.2362245  28.2361206  69.0835443  43.4342456
  28.6511079  69.9890263  42.2941723  36.1711874  60.8596789  52.6187001
  36.6893818  61.5957816  52.2933490  35.8167007  61.1660783  53.4533760
  27.7510812  65.7201470  40.7348407  27.0580057  65.7945825  40.0788443
  27.5062564  64.9561814  41.2569924  36.4224468  57.2797072  48.1387898
  36.7026222  56.6120261  48.7648324  37.2075075  57.4726167  47.6262561
  34.2257937  76.4556066  39.7012924  33.6531904  77.0746253  39.2483396
  34.7990730  77.0055427  40.2352846  40.2933327  65.7014706  51.8859473
  41.2450749  65.8012803  51.9071697  40.1236777  64.9092974  52.3957557
  38.3147706  62.7870289  52.0718874  37.7197638  63.0675302  51.3765362
  38.0297403  63.2764190  52.8435615  37.4455197  76.7393216  40.8321506
  38.3785870  76.6738777  41.0354382  37.3578409  77.5749483  40.3736039
  40.0743213  76.0559086  37.7925454  39.9956845  75.7218950  38.6861212
  40.8952880  76.5480854  37.7916926  42.7721404  68.9220825  51.0001772
  42.7397724  67.9836826  51.1861456  43.3822028  69.0004862  50.2667597
  34.6104735  67.7916878  37.0428976  35.5563840  67.6623087  37.1117394
  34.2318980  67.0531540  37.5198405  42.9215893  65.7131869  51.0460056
  42.4054941  64.9290326  50.8589984  43.8055841  65.3850586  51.2106575
  40.5826620  59.4572884  47.0055868  40.3851441  59.1487973  47.8899200
  41.1926325  60.1834523  47.1353798  48.5897954  69.9836832  50.1407809
  49.3201343  69.7222120  50.7015513  47.9804900  69.2465554  50.1809877
  46.6713251  68.1244695  50.7382260  45.9446415  67.9900660  50.1298752
  46.2560538  68.4321524  51.5438978  34.4943428  71.8434625  58.5029633
  35.4146437  72.0213224  58.6969680  34.4593011  70.8990670  58.3509333
  32.7947652  65.7166855  36.9783862  31.8879108  65.4199968  37.0546575
  33.0723633  65.4196673  36.1118148  23.7125593  67.0373218  47.4282908
  23.3928377  66.1838526  47.1357282  23.1659021  67.2521796  48.1840875
  27.4905500  69.7535659  51.1452415  27.7091510  70.6852767  51.1640448
  27.9031274  69.3943634  51.9307218  34.4109718  60.2603745  43.1328103
  33.6010446  59.9150830  43.5083349  35.0994135  59.9511288  43.7215715
  36.3400266  59.3381791  44.7552400  36.8931305  59.7577245  45.4142423
  36.5770353  58.4117539  44.7975356  32.3633366  65.3268865  60.5355164
  32.2630093  66.2763222  60.4667255  32.1454908  64.9987104  59.6631234
  31.5646437  62.5753790  37.1195841  32.4265601  62.9008688  37.3791658
  31.7496781  61.7885286  36.6068907  23.5813853  70.6576130  49.3976030
  22.8877324  70.2430083  48.8845984  24.3286844  70.6996666  48.8009449
  39.7179073  61.4482317  44.2631064  39.1377743  62.1067121  43.8809116
  39.4515006  60.6259661  43.8518481  38.1682640  60.8487374  46.4652384
  38.6682418  60.9603909  45.6566703  38.8118248  60.5448427  47.1053193
  32.2264636  68.7566004  59.3520225  31.7431717  69.5566364  59.5584114
  32.3125575  68.7673949  58.3987669  25.4950595  70.5894384  47.2742045
  25.4721283  70.6882071  46.3223928  25.8051232  71.4359534  47.5959211
  28.1537973  72.6470539  51.3888659  29.1081227  72.6154481  51.3218591
  27.9550497  72.1861162  52.2038885  28.7437355  71.2171655  53.9559457
  29.5630244  71.7115733  53.9794294  29.0174163  70.3003623  53.9277024
  38.5003951  63.6082407  43.3187412  37.6129807  63.8932058  43.1007607
  38.9157941  63.4476170  42.4714689  41.8518488  63.6328928  47.0341751
  42.6278878  64.1225380  47.3066368  41.1266622  64.0586982  47.4913621
  44.2891046  64.3456547  48.0915692  44.8835537  64.1052283  47.3809000
  44.3617630  63.6263678  48.7189228  26.5088202  78.1890158  48.4058857
  26.3742670  77.4290559  47.8396855  26.0920264  78.9131058  47.9387646
  37.6447165  73.3727082  37.4135432  38.3483015  73.5777084  38.0293088
  36.9209814  73.9403843  37.6784516  38.4744975  69.1236943  43.5337702
  38.4180177  69.5805494  42.6945335  39.0273318  68.3627627  43.3560545
  42.2849781  64.9126675  44.3587822  42.0286715  64.5123310  45.1896029
  41.6602649  65.6270469  44.2337961  46.5962119  67.6522748  46.8659113
  46.0361677  67.7215937  47.6390675  45.9905622  67.4763733  46.1458609
  29.6657328  79.0859475  48.6177299  29.5489712  80.0304908  48.5155990
  28.8449774  78.7833037  49.0063099  39.5533862  73.8109611  39.4633892
  40.3879466  73.3790809  39.2811367  39.3918205  73.6391624  40.3910787
  39.2079755  70.3141724  40.8290231  39.1528558  70.1485995  39.8878676
  38.5825810  71.0217757  40.9852421  23.9972270  65.5509788  54.6551654
  24.6431133  65.0408742  55.1438879  23.7889421  66.2878470  55.2295079
  32.5175880  59.8149833  40.4075550  32.5054550  60.7591673  40.5643821
  33.4099302  59.6319978  40.1135011  30.6911842  79.7387737  51.8333228
  31.5939089  79.7711347  52.1499723  30.4649212  78.8088188  51.8479564
  32.4465444  78.4918723  48.4943307  31.4961075  78.4920585  48.3807679
  32.7497930  77.7451458  47.9779341  36.3327999  56.4092610  44.6621487
  35.5660395  55.8551096  44.8078169  36.7438704  56.4814478  45.5235638
  28.3369761  62.6977406  58.7526668  29.2001222  62.3414210  58.9629992
  27.7635171  62.3591300  59.4402072  48.1818137  84.3279262  49.5589069
  48.8196547  84.2086009  48.8552409  48.0638980  85.2760106  49.6177021
  44.9907844  84.2806690  49.4950594  44.6526355  84.1647755  48.6071128
  45.8597612  83.8797855  49.4751600  40.8494659  86.1342166  45.4847485
  40.2859525  86.0432103  44.7163772  40.7347054  85.3142071  45.9649977
  45.4727627  85.4341542  55.4536799  45.4616268  85.0394340  54.5817303
  45.6348266  84.7007614  56.0470571  38.3959091  87.6293358  48.3231705
  39.1880383  87.2884183  47.9078004  38.6355742  87.7388333  49.2433858
  46.4294218  89.8013134  40.7961949  45.7782198  90.3867215  40.4095963
  47.2238581  90.3319329  40.8556987  40.3549845  86.8902271  41.1949084
  41.1280721  86.3431258  41.0561960  40.7075244  87.7546521  41.4063545
  42.1934888  88.2178654  54.4015983  41.9024754  89.1224284  54.2862649
  42.8291872  88.2595181  55.1160053  43.1191095  85.5955502  50.9917343
  43.7154667  85.3711524  50.2774306  43.1766066  84.8540248  51.5942791
  42.6916123  83.0494937  38.8267534  42.9441644  82.5276459  38.0650997
  41.7540682  82.8861083  38.9294217  47.7359406  82.0530716  46.6342277
  48.5222495  81.6350139  46.2832694  47.9998110  82.9576808  46.8023925
  47.9069483  87.4903566  41.3330934  47.2715316  87.5638193  42.0451838
  47.5766890  88.0797165  40.6550013  53.1367833  81.9905949  47.5375255
  53.8693005  81.4205166  47.7713085  52.3807189  81.6027549  47.9781761
  42.4112412  84.9523043  41.0291909  42.2948670  84.2767947  41.6972993
  42.5214672  84.4655417  40.2124062  44.7543953  84.4133190  44.7338598
  44.3902160  83.8863811  45.4451519  45.6111069  84.0231659  44.5605083
  50.6593253  75.7027523  51.9969864  50.3276578  76.5722934  51.7731079
  50.0638867  75.3863807  52.6763894  44.3949440  79.4423090  39.7299946
  44.5623842  80.3103327  40.0970417  44.2046609  79.6050372  38.8061236
  47.1524773  87.9040069  51.3965777  46.8525496  88.8065108  51.2881584
  46.8075832  87.6372252  52.2486930  40.6037254  84.3553866  47.4302481
  39.6787751  84.2230080  47.6380173  40.8521668  85.1348085  47.9272424
  50.5521917  80.4222609  49.0763214  49.6438794  80.3538018  48.7821975
  50.5009513  80.8994554  49.9045040  44.3738661  81.8980748  40.7146613
  44.2538286  82.3437798  41.5532094  43.6791249  82.2466065  40.1560151
  37.9646065  83.9987139  48.2646270  38.0938447  84.2521618  49.1785682
  37.2843517  84.5914847  47.9450925  42.1345553  94.6684389  44.3636744
  42.0569582  95.6192214  44.4425225  41.5307196  94.3230262  45.0211671
  44.6262783  81.8412255  57.0198111  43.8496117  82.4006175  57.0100976
  45.2653346  82.3269038  57.5412982  52.4183563  78.6239048  50.8541088
  51.7757943  78.9171581  50.2080883  51.9138492  78.5091968  51.6594285
  50.0723727  82.3702221  41.5426947  50.9841583  82.6029608  41.3674645
  49.5633374  82.9539265  40.9802026  42.8809155  84.6497708  56.5816078
  43.6223839  85.1882752  56.3050902  42.1746140  85.2763997  56.7387630
  48.3564494  86.7926849  55.1788240  48.7647851  86.3509259  54.4342872
  47.6341756  86.2179476  55.4322433  44.7095565  81.7299455  52.5521797
  45.5556760  82.1538869  52.6956446  44.6494202  81.0733080  53.2460360
  48.6793309  87.3528039  48.9340529  48.0502172  87.5173753  48.2316597
  48.2918971  87.7669649  49.7051493  52.5582541  88.2882477  46.2884893
  51.8733579  88.6681378  45.7381926  52.6426390  88.8977804  47.0216840
  47.8595010  79.3903824  54.2102970  47.6155942  80.1445884  53.6737246
  48.1354940  79.7689171  55.0450218  49.8133473  85.9342436  52.8880236
  50.0250368  86.5774196  52.2114617  49.7663221  85.1004753  52.4202166
  47.4159702  78.5460257  49.7916808  46.5544181  78.8441510  50.0833546
  47.4422136  78.7630656  48.8597841  44.2321271  87.0902447  46.1990614
  44.6959617  87.3690150  45.4095236  43.9678069  86.1885892  46.0163705
  41.1245352  86.6373929  49.1370377  41.6946709  87.0661197  48.4987862
  41.7153464  86.3556514  49.8354563  43.1690157  83.2125600  43.0080179
  43.8714200  83.6646643  43.4754105  42.8370786  82.5709419  43.6360072
  41.6170519  81.8037356  57.3831388  40.9869179  82.4853637  57.6166785
  41.5106606  81.6920438  56.4384527  36.9115491  81.4709152  48.3097313
  36.1214545  81.7266681  47.8337423  37.4026738  82.2857490  48.4149353
  50.9279301  88.8114392  51.0602593  51.7496744  88.4094579  50.7785275
  50.9241703  88.7082626  52.0118709  38.8630236  81.8353732  45.2680789
  38.0661400  81.9472426  45.7864285  38.6355829  82.1740384  44.4021680
  44.6935904  88.3598435  53.2163304  44.7580337  88.8218842  54.0521476
  43.9846828  87.7295800  53.3445614  35.1953194  81.7239643  50.7412303
  35.4461232  82.6086653  51.0069879  35.7312742  81.5444244  49.9687395
  59.0185294  85.1553140  47.4087565  58.2649002  84.5860538  47.2531569
  59.1532835  85.1215805  48.3558200  44.4083922  90.0266542  43.0842284
  44.2729596  90.8718078  43.5127132  44.9493734  90.2285820  42.3208218
  37.8613319  87.5441980  43.6570209  38.3737840  88.3385231  43.8075774
  38.5136032  86.8468271  43.5903811  39.6708204  90.6607737  45.7392962
  39.8474832  91.5825701  45.5513946  40.4665037  90.3466156  46.1687342
  43.8119222  77.5216001  57.3376896  44.5528936  78.1223154  57.2581358
  44.0437145  76.7793639  56.7794939  38.9560560  82.7072369  55.6155126
  38.8414075  81.8057626  55.9162225  38.1005078  82.9536065  55.2639942
  46.0352398  90.6490109  57.2142626  45.5916252  89.8626487  56.8963531
  46.6969612  90.8369259  56.5486517  40.7939519  92.1785910  51.7403305
  41.3446944  92.0502974  50.9680299  39.9550995  92.4780799  51.3898198
  48.1333636  90.9292909  55.2424028  48.1152111  91.7501790  54.7504297
  49.0553556  90.8046984  55.4674169  44.5906690  88.4437038  56.0847536
  45.1235027  87.6825326  55.8546844  44.0620771  88.1510690  56.8271690
  47.7576385  73.5497104  51.6141178  47.4140655  74.4398746  51.5380288
  48.1255348  73.3598762  50.7510763  35.8262236  85.8730635  44.4329780
  36.6637458  86.2827643  44.2163488  36.0040504  84.9330077  44.4029974
  47.7226668  83.5405715  40.1213613  47.2073291  84.3110320  40.3602000
  47.4503976  82.8670851  40.7446674  45.3073779  78.3855416  45.1798851
  44.4515375  77.9962266  45.0004490  45.7200731  78.4647377  44.3198637
  46.8372926  75.9201759  49.5790411  46.3337721  75.8831895  48.7658216
  47.1303532  76.8294502  49.6387068  43.0815812  76.0040489  48.5856593
  43.9468808  75.8083298  48.2262482  43.1493320  75.7750841  49.5125949
  52.6960942  86.2938070  42.0566786  51.9190385  85.9549229  41.6121948
  53.3752423  86.2990693  41.3821751  47.5112971  81.4132807  41.9473394
  47.2063107  81.7278957  42.7983537  48.4643413  81.4914227  41.9900727
  45.9559403  87.5723031  43.5966348  45.4280765  86.8375790  43.2839585
  45.4546906  88.3497707  43.3506316  50.9352249  85.7672051  48.7133394
  50.2775923  86.4571313  48.8013523  51.7392648  86.1568483  49.0567381
  40.6878131  78.2342697  45.9572959  41.2621882  78.0117879  45.2246152
  41.2749113  78.3031392  46.7101561  49.7457708  84.1216424  46.7637336
  50.2589590  84.7546416  47.2659046  50.3958932  83.5217619  46.3980696
  41.0147718  80.2647158  39.9768845  40.1785030  80.6021845  40.2978119
  40.8752487  80.1296138  39.0395982  42.9900798  75.1083946  44.6848029
  42.3365211  74.7932963  44.0604644  42.9481272  74.4859686  45.4107852
  44.1012003  85.3903241  36.6001321  43.1939065  85.1592494  36.7992470
  44.5983035  84.5940860  36.7875303  47.0080082  94.1000748  39.5198007
  46.3341781  94.4032445  40.1282965  47.3945904  94.9029829  39.1703464
  46.2238539  81.5965879  49.0095677  45.3061100  81.8180826  48.8517365
  46.6398682  81.6712190  48.1507384  47.0073586  82.9957295  44.1398357
  47.7545405  83.5078692  43.8305479  47.2765176  82.6741348  45.0002750
  45.2800237  85.4915836  41.1225311  44.3711456  85.2074869  41.2197781
  45.3095320  85.9114914  40.2628618  50.5119504  89.1022425  44.8916479
  50.0581831  88.2613335  44.9481669  49.8813471  89.7383824  45.2291259
  49.4552424  80.0314411  46.1217146  48.7175180  79.5191798  46.4527389
  49.7079197  79.5914793  45.3100423  48.9552443  90.9398922  45.8266297
  49.2475418  91.5003979  45.1078662  49.4651064  91.2327483  46.5819456
  49.5564051  72.8090663  46.7158915  49.8622928  71.9488027  46.4284830
  50.2816656  73.4008284  46.5157909  35.8488407  83.2121350  45.1040513
  35.6512807  82.6190711  44.3791580  35.2935071  82.9073560  45.8216452
  43.8285131  83.1044456  47.2235106  43.8833740  82.1518293  47.1477583
  43.0176333  83.2603896  47.7076405  44.9776324  87.0324580  38.4613390
  44.5395754  86.3160438  38.0019027  45.7186765  87.2600694  37.8998481
  41.7677491  81.7221516  44.9825485  40.9545356  82.0215687  45.3890677
  42.2636485  81.3277205  45.6999968  43.9186068  91.7179273  46.9159750
  43.8762247  91.9440119  45.9868282  44.8348767  91.4842648  47.0645551
  47.3651702  82.1863341  53.8140379  47.7201090  82.4134814  54.6734845
  48.0123833  82.5181717  53.1917634  53.0949439  85.3081777  44.5189708
  52.9567338  85.4983373  43.5910897  52.7385658  86.0701159  44.9757759
  41.2591565  79.2939872  50.5986720  41.8990945  79.1528631  49.9009684
  40.4269096  79.0074385  50.2225322  53.1218819  87.3758304  49.5300980
  53.5555325  87.2833593  50.3784034  53.8350399  87.3515804  48.8920996
  42.0351869  88.5942302  46.7121713  42.8292468  88.0992622  46.5104288
  41.3243562  88.0660165  46.3489418  46.8546714  90.9760398  51.0634080
  46.9083736  91.5451334  51.8311796  45.9861495  91.1462283  50.6988117
  38.3434633  82.7385384  42.7881465  37.4132221  82.6769839  43.0051428
  38.4392105  82.2161337  41.9918107  38.2620182  79.2640197  45.3759707
  38.5226999  80.1785530  45.2668868  39.0837354  78.7964639  45.5256320
  39.7345107  80.6777954  52.5458532  40.4068160  80.4695316  51.8971181
  38.9074894  80.4800040  52.1063764  53.9834368  87.4182004  52.0633865
  54.1770258  88.3227815  52.3093140  53.8834987  86.9589423  52.8972450
  45.6370679  77.3039895  54.5624192  44.9898594  78.0029844  54.4688669
  46.4071694  77.7376039  54.9300441  49.0449477  87.5688747  57.6374746
  48.8934983  87.3399299  56.7204829  49.0354156  88.5259348  57.6506091
  45.8134813  85.1420660  52.6221012  46.7426873  85.2931819  52.4489980
  45.3925843  85.2304681  51.7669659  44.6123145  89.1671324  50.3919550
  44.4734231  88.7990109  51.2645488  43.8237741  89.6818964  50.2203508
  45.2071297  94.2680421  41.7345086  45.3823053  93.7968464  42.5490709
  44.5204085  94.8946187  41.9626347  46.1628360  88.5452927  47.7808388
  45.8278193  88.5053697  48.6766037  45.6632306  87.8797643  47.3078798
  40.1372604  83.9520557  53.3060969  39.9992402  83.2200796  53.9072508
  41.0477528  83.8629457  53.0245157  49.0987552  85.8908961  38.0545447
  48.4816723  85.1655789  37.9578500  48.6304040  86.6518321  37.7112522
  42.7654905  83.6640516  52.7944648  43.4754524  83.0233708  52.7531267
  42.7224213  83.9153411  53.7170829  50.7541684  90.6007870  55.7151228
  50.6954230  89.9167090  55.0481811  51.1561202  91.3426860  55.2631854
  41.4783839  80.6505734  54.6140288  40.9421196  80.1996473  55.2661884
  40.8900547  80.7851643  53.8710752  39.7732382  97.4169783  48.5084947
  40.0128981  98.0488308  49.1863965  38.9301579  97.0657823  48.7950306
  40.8886098  80.1094385  37.1766752  40.0115564  79.9883186  36.8128998
  41.3643851  79.3180464  36.9245640  50.7559091  88.5647453  53.9465207
  49.8685870  88.2273375  54.0691606  51.3257642  87.8330485  54.1833973
  32.4088238  84.8971545  47.2708259  33.0959278  84.5833275  46.6829274
  32.2536367  85.8012910  46.9975510  37.2122960  79.7861742  51.6993282
  37.1281149  79.1787411  50.9643692  36.3905667  80.2770760  51.7002779
  44.2860244  93.2248906  50.9126450  44.2130416  94.0303877  51.4245755
  43.8437637  93.4240872  50.0874472  44.0750024  92.4620676  44.4229272
  43.2917546  93.0042356  44.5167497  44.7742769  92.9794655  44.8223513
  47.3846674  78.2715305  47.0663477  47.8815374  77.5185268  46.7464548
  46.6133656  78.3079622  46.5006687  55.2376431  83.9755671  48.7081769
  55.2266308  84.8580386  48.3375702  54.3693811  83.6227222  48.5136306
  46.7458928  93.1235740  53.0684609  47.4586900  93.7583205  52.9960511
  46.2548957  93.2199606  52.2524611  48.4676455  87.0286993  44.6401901
  47.5332734  87.1488455  44.4706605  48.6453123  86.1259459  44.3761911
  43.9681643  80.4132688  46.7935162  43.5979430  79.8603729  47.4816068
  44.4640735  79.8090822  46.2410162  51.8549006  82.8704312  45.1751935
  52.3209458  83.7032303  45.1012238  52.3056507  82.4049293  45.8797193
  41.7970841  90.8730183  53.8890180  42.4980301  91.5066666  54.0419574
  41.3265956  91.2144915  53.1285819  49.9225237  89.2148133  42.1738087
  50.1985081  89.1004728  43.0831961  49.0529736  88.8165618  42.1350260
  49.8265669  75.2384899  49.2142836  48.9128749  75.4689126  49.3825043
  50.2558770  75.3223343  50.0656869  49.5972127  83.4274791  51.7142730
  48.9443578  83.6750698  51.0595183  49.9752507  82.6138929  51.3805208
  46.5579301  93.4634484  45.8170901  46.7401696  92.6456140  46.2798653
  47.3812287  93.6802176  45.3795791  46.8921467  92.3902669  43.0785949
  47.4209233  91.8795124  42.4656111  47.1549686  92.0745199  43.9431482
  45.6459700  84.1694602  58.2008767  44.9700337  84.0688731  58.8711143
  46.4687334  84.0133816  58.6644765  37.3938559  90.4066538  50.8221283
  37.9791996  89.6610226  50.9549187  37.1963398  90.7170495  51.7057947
  40.2477215  93.4417786  45.8383725  39.5787590  93.9263913  45.3547765
  40.1090084  93.6887006  46.7527104  31.9856214  82.9772139  49.5425726
  32.0240314  82.4435729  50.3362844  31.4796507  82.4507344  48.9236703
  44.3882483  95.4761529  52.4366383  44.9400791  95.6393151  53.2015469
  44.7288677  96.0665967  51.7646408  39.3646976  77.8236679  53.0388268
  39.4288303  78.6851510  52.6265666  39.3014097  77.2110681  52.3060627
  38.8399249  79.8959812  56.6861302  39.4671288  79.5136889  57.2998827
  37.9827168  79.6774014  57.0516995  49.2393358  90.3022787  58.2915038
  49.7833262  90.9152745  57.7969993  48.6580202  90.8602365  58.8082051
  35.6164792  81.7036241  42.6179657  35.9118233  80.7946919  42.5646711
  34.7152828  81.6823980  42.2960660  47.5250871  93.4243505  49.4230066
  47.4002010  92.6233245  48.9141011  48.1829962  93.9189698  48.9344036
  39.1459039  79.7792237  48.6007206  38.4245625  80.3928205  48.4614679
  39.9352295  80.3150002  48.5223852  49.5885779  91.2252525  51.0509616
  48.6416114  91.1057876  50.9787942  49.9368552  90.3375023  51.1335877
  41.9485352  77.1146664  54.8747858  42.4719754  77.3608960  55.6374167
  41.7297686  77.9466699  54.4550995  37.3452633  79.3850338  42.7418982
  37.0165340  78.5047717  42.5594088  37.6992004  79.3298007  43.6295372
  46.5932212  91.0205241  47.2513968  46.4457175  90.0921949  47.4321538
  47.4185706  91.0425332  46.7671043  40.4594457  79.6723308  43.1094460
  40.7990529  80.2009229  42.3873068  40.9066577  80.0103714  43.8853027
  50.1966334  91.8433800  48.3378841  51.1212882  91.6376661  48.2003292
  50.0281637  91.5950201  49.2468182  43.1537897  78.0560359  52.5597528
  42.8134718  77.2568172  52.9618208  42.4476904  78.3562070  51.9874361
  43.8054369  75.1409671  51.0124851  44.6280438  74.6670150  50.8903741
  44.0492433  75.9200155  51.5123537  42.4462604  78.1697930  41.3087753
  43.1670966  78.5479183  40.8051470  41.8227908  78.8886807  41.4122731
  46.5893727  78.8743079  42.2446085  46.8057341  79.7567717  41.9434913
  46.1087794  78.4829292  41.5151727  41.3292948  81.8328792  48.8216830
  41.1837529  82.1469095  49.7141111  40.8518152  82.4513692  48.2687728
  43.1889331  78.8231340  48.8697719  43.1750900  77.9272433  48.5330017
  43.9061759  78.8302004  49.5036005  45.0415462  79.2568680  50.9150847
  44.7833239  80.1785751  50.9135177  44.5100502  78.8599115  51.6051311
  49.9861650  92.3619467  43.6940932  50.1598528  91.7965890  42.9414785
  50.4790542  93.1620362  43.5120422  35.8038610  84.3734136  51.7604491
  35.2592078  85.1493944  51.8924765  36.6817960  84.7204941  51.6023612
  42.5926227  77.7045720  44.1385289  42.7142138  76.7762366  44.3376177
  42.3028269  77.7184406  43.2263605  45.4617417  75.3900631  47.2752009
  45.4839114  75.4539964  46.3203989  45.8785476  74.5505139  47.4692515
  55.8401041  85.1255890  45.3131232  56.2832187  84.3763215  44.9150355
  54.9627552  85.1166027  44.9304964  50.9736823  91.6786232  40.7937830
  51.6687727  92.2992924  41.0125145  51.3159973  90.8281583  41.0690208
  36.5904632  83.5004033  54.6534648  35.8486368  83.6486668  55.2399278
  36.2697376  83.7612298  53.7901397  52.8728246  89.1285937  42.3225161
  53.3979570  89.4673210  41.5974481  52.7850598  88.1932953  42.1388296
  44.5348295  93.0420011  54.4515038  44.8435421  92.7969158  55.3237737
  45.3323777  93.2466649  53.9633908  44.5568907  95.1957920  46.6820414
  44.1173897  94.7034299  47.3753271  45.3077024  94.6530888  46.4412490
  37.0361246  91.3869461  46.6845042  37.8619266  91.0873233  46.3043686
  36.6855298  90.6177084  47.1334831  42.0042779  90.7395930  48.7542716
  41.3822788  90.0766635  48.4544944  42.6747646  90.7657061  48.0716364
  35.2369851  89.3055788  47.6433976  34.4001759  88.8777962  47.4617977
  35.2093496  89.4988231  48.5804767  42.0767306  79.2177718  58.3475222
  42.1255462  80.0939840  57.9652992  42.6189820  78.6755111  57.7746865
  52.5622152  89.7618841  57.6276359  51.7717696  89.7442980  57.0880859
  52.3255507  90.3007135  58.3825396  52.6820027  86.6111307  54.9409088
  52.7318032  86.4461315  55.8824610  52.5733950  85.7438566  54.5506968
  41.5656286  89.2899853  42.2301177  41.7144406  89.9735317  41.5767849
  42.3722729  89.2704943  42.7450632  49.9723789  82.5942235  56.2568394
  50.8733652  82.4548700  55.9652392  50.0471764  82.7596690  57.1966572
  44.3066595  79.9709090  55.1021581  43.4369904  80.2642656  54.8304169
  44.5426075  80.5549535  55.8228844  54.1838224  89.0308249  55.1851109
  53.8923032  89.3938229  56.0214570  53.5710355  88.3175257  55.0064441
  55.3833906  86.5961129  47.7053679  56.2180798  87.0350933  47.8691240
  55.5193035  86.1199782  46.8861925  52.4325412  84.1540863  53.6531167
  52.9079534  84.3468510  52.8450019  51.5090977  84.2100049  53.4074551
  39.3208919  85.3165031  43.2362245  39.0754961  84.4127361  43.4342456
  39.4904833  85.3182181  42.2941723  47.0105629  76.1888707  52.6187001
  47.5287572  76.9249734  52.2933490  46.6560761  76.4952700  53.4533760
  38.5904566  81.0493388  40.7348407  37.8973811  81.1237743  40.0788443
  38.3456318  80.2853732  41.2569924  47.2618223  72.6088989  48.1387898
  47.5419976  71.9412179  48.7648324  48.0468830  72.8018085  47.6262561
  45.0651691  91.7847983  39.7012924  44.4925658  92.4038170  39.2483396
  45.6384485  92.3347345  40.2352846  51.1327081  81.0306623  51.8859473
  52.0844504  81.1304721  51.9071697  50.9630531  80.2384892  52.3957557
  49.1541461  78.1162207  52.0718874  48.5591393  78.3967219  51.3765362
  48.8691157  78.6056108  52.8435615  48.2848951  92.0685133  40.8321506
  49.2179624  92.0030695  41.0354382  48.1972164  92.9041400  40.3736039
  50.9136968  91.3851004  37.7925454  50.8350599  91.0510867  38.6861212
  51.7346634  91.8772772  37.7916926  53.6115159  84.2512743  51.0001772
  53.5791479  83.3128744  51.1861456  54.2215783  84.3296780  50.2667597
  45.4498490  83.1208796  37.0428976  46.3957594  82.9915004  37.1117394
  45.0712735  82.3823458  37.5198405  53.7609647  81.0423787  51.0460056
  53.2448696  80.2582243  50.8589984  54.6449596  80.7142503  51.2106575
  51.4220374  74.7864802  47.0055868  51.2245195  74.4779890  47.8899200
  52.0320080  75.5126441  47.1353798  59.4291709  85.3128750  50.1407809
  60.1595097  85.0514038  50.7015513  58.8198654  84.5757472  50.1809877
  57.5107006  83.4536613  50.7382260  56.7840169  83.3192578  50.1298752
  57.0954293  83.7613441  51.5438978  45.3337182  87.1726542  58.5029633
  46.2540192  87.3505141  58.6969680  45.2986765  86.2282588  58.3509333
  43.6341407  81.0458773  36.9783862  42.7272862  80.7491885  37.0546575
  43.9117388  80.7488591  36.1118148  34.5519347  82.3665136  47.4282908
  34.2322132  81.5130444  47.1357282  34.0052775  82.5813714  48.1840875
  38.3299255  85.0827577  51.1452415  38.5485265  86.0144685  51.1640448
  38.7425029  84.7235551  51.9307218  45.2503473  75.5895662  43.1328103
  44.4404201  75.2442747  43.5083349  45.9387890  75.2803206  43.7215715
  47.1794021  74.6673709  44.7552400  47.7325059  75.0869162  45.4142423
  47.4164107  73.7409457  44.7975356  43.2027120  80.6560783  60.5355164
  43.1023847  81.6055140  60.4667255  42.9848662  80.3279022  59.6631234
  42.4040191  77.9045708  37.1195841  43.2659355  78.2300606  37.3791658
  42.5890536  77.1177204  36.6068907  34.4207607  85.9868047  49.3976030
  33.7271079  85.5722000  48.8845984  35.1680598  86.0288584  48.8009449
  50.5572828  76.7774234  44.2631064  49.9771497  77.4359038  43.8809116
  50.2908761  75.9551579  43.8518481  49.0076394  76.1779292  46.4652384
  49.5076173  76.2895826  45.6566703  49.6512002  75.8740345  47.1053193
  43.0658390  84.0857922  59.3520225  42.5825472  84.8858282  59.5584114
  43.1519329  84.0965866  58.3987669  36.3344350  85.9186301  47.2742045
  36.3115038  86.0173988  46.3223928  36.6444986  86.7651452  47.5959211
  38.9931728  87.9762456  51.3888659  39.9474981  87.9446399  51.3218591
  38.7944251  87.5153080  52.2038885  39.5831110  86.5463572  53.9559457
  40.4023999  87.0407651  53.9794294  39.8567917  85.6295540  53.9277024
  49.3397706  78.9374325  43.3187412  48.4523561  79.2223975  43.1007607
  49.7551695  78.7768088  42.4714689  52.6912242  78.9620846  47.0341751
  53.4672632  79.4517298  47.3066368  51.9660376  79.3878900  47.4913621
  55.1284801  79.6748465  48.0915692  55.7229292  79.4344201  47.3809000
  55.2011384  78.9555595  48.7189228  37.3481956  93.5182076  48.4058857
  37.2136424  92.7582477  47.8396855  36.9314019  94.2422976  47.9387646
  48.4840919  88.7018999  37.4135432  49.1876770  88.9069002  38.0293088
  47.7603568  89.2695761  37.6784516  49.3138730  84.4528860  43.5337702
  49.2573931  84.9097412  42.6945335  49.8667072  83.6919545  43.3560545
  53.1243536  80.2418592  44.3587822  52.8680470  79.8415228  45.1896029
  52.4996404  80.9562386  44.2337961  57.4355874  82.9814666  46.8659113
  56.8755431  83.0507855  47.6390675  56.8299377  82.8055650  46.1458609
  40.5051082  94.4151393  48.6177299  40.3883466  95.3596825  48.5155990
  39.6843529  94.1124954  49.0063099  50.3927617  89.1401528  39.4633892
  51.2273221  88.7082727  39.2811367  50.2311960  88.9683542  40.3910787
  50.0473509  85.6433642  40.8290231  49.9922313  85.4777913  39.8878676
  49.4219564  86.3509675  40.9852421  34.8366024  80.8801706  54.6551654
  35.4824888  80.3700660  55.1438879  34.6283175  81.6170388  55.2295079
  47.3619416  87.9482554  60.1543794  48.2310576  88.1223206  59.7930429
  46.8826168  88.7676970  60.0319524  43.3569635  75.1441751  40.4075550
  43.3448304  76.0883591  40.5643821  44.2493056  74.9611896  40.1135011
  41.5305596  95.0679655  51.8333228  42.4332843  95.1003265  52.1499723
  41.3042967  94.1380106  51.8479564  43.2859198  93.8210641  48.4943307
  42.3354829  93.8212503  48.3807679  43.5891685  93.0743376  47.9779341
  47.1721754  71.7384527  44.6621487  46.4054150  71.1843014  44.8078169
  47.5832459  71.8106396  45.5235638  59.0211892  99.6571180  49.5589069
  59.6590302  99.5377927  48.8552409  58.9032735 100.6052024  49.6177021
  55.8301598  99.6098608  49.4950594  55.4920110  99.4939672  48.6071128
  56.6991366  99.2089773  49.4751600  51.6888414 101.4634084  45.4847485
  51.1253279 101.3724021  44.7163772  51.5740809 100.6433989  45.9649977
  56.3121381 100.7633459  55.4536799  56.3010022 100.3686258  54.5817303
  56.4742021 100.0299532  56.0470571  49.2352846 102.9585276  48.3231705
  50.0274138 102.6176100  47.9078004  49.4749496 103.0680251  49.2433858
  57.2687973 105.1305052  40.7961949  56.6175952 105.7159132  40.4095963
  58.0632335 105.6611247  40.8556987  51.1943600 102.2194189  41.1949084
  51.9674476 101.6723176  41.0561960  51.5468999 103.0838438  41.4063545
  53.0328642 103.5470571  54.4015983  52.7418508 104.4516202  54.2862649
  53.6685627 103.5887099  55.1160053  53.9584849 100.9247420  50.9917343
  54.5548421 100.7003442  50.2774306  54.0159821 100.1832165  51.5942791
  53.5309878  98.3786855  38.8267534  53.7835398  97.8568376  38.0650997
  52.5934437  98.2153000  38.9294217  58.5753160  97.3822633  46.6342277
  59.3616250  96.9642057  46.2832694  58.8391865  98.2868726  46.8023925
  58.7463238 102.8195484  41.3330934  58.1109071 102.8930110  42.0451838
  58.4160644 103.4089083  40.6550013  63.9761588  97.3197867  47.5375255
  64.7086760  96.7497083  47.7713085  63.2200943  96.9319467  47.9781761
  53.2506166 100.2814961  41.0291909  53.1342424  99.6059864  41.6972993
  53.3608426  99.7947335  40.2124062  55.5937707  99.7425108  44.7338598
  55.2295915  99.2155729  45.4451519  56.4504823  99.3523577  44.5605083
  61.4987008  91.0319441  51.9969864  61.1670333  91.9014852  51.7731079
  60.9032621  90.7155725  52.6763894  55.2343194  94.7715008  39.7299946
  55.4017597  95.6395244  40.0970417  55.0440363  94.9342289  38.8061236
  57.9918527 103.2331987  51.3965777  57.6919251 104.1357026  51.2881584
  57.6469587 102.9664170  52.2486930  51.4431009  99.6845784  47.4302481
  50.5181505  99.5521998  47.6380173  51.6915422 100.4640003  47.9272424
  61.3915671  95.7514527  49.0763214  60.4832549  95.6829935  48.7821975
  61.3403267  96.2286472  49.9045040  55.2132415  97.2272665  40.7146613
  55.0932040  97.6729716  41.5532094  54.5185004  97.5757983  40.1560151
  48.8039820  99.3279057  48.2646270  48.9332201  99.5813536  49.1785682
  48.1237271  99.9206765  47.9450925  52.9739307 109.9976307  44.3636744
  52.8963337 110.9484132  44.4425225  52.3700951 109.6522180  45.0211671
  55.4656537  97.1704172  57.0198111  54.6889871  97.7298093  57.0100976
  56.1047100  97.6560955  57.5412982  63.2577318  93.9530965  50.8541088
  62.6151698  94.2463498  50.2080883  62.7532246  93.8383886  51.6594285
  60.9117481  97.6994138  41.5426947  61.8235337  97.9321525  41.3674645
  60.4027128  98.2831183  40.9802026  53.7202909  99.9789626  56.5816078
  54.4617594 100.5174670  56.3050902  53.0139895 100.6055915  56.7387630
  59.1958249 102.1218766  55.1788240  59.6041605 101.6801177  54.4342872
  58.4735510 101.5471394  55.4322433  55.5489319  97.0591373  52.5521797
  56.3950514  97.4830787  52.6956446  55.4887957  96.4024997  53.2460360
  59.5187064 102.6819957  48.9340529  58.8895926 102.8465671  48.2316597
  59.1312726 103.0961566  49.7051493  63.3976296 103.6174395  46.2884893
  62.7127334 103.9973296  45.7381926  63.4820145 104.2269721  47.0216840
  58.6988764  94.7195741  54.2102970  58.4549696  95.4737802  53.6737246
  58.9748695  95.0981089  55.0450218  60.6527227 101.2634354  52.8880236
  60.8644122 101.9066114  52.2114617  60.6056975 100.4296670  52.4202166
  58.2553456  93.8752174  49.7916808  57.3937935  94.1733428  50.0833546
  58.2815891  94.0922573  48.8597841  55.0715025 102.4194365  46.1990614
  55.5353371 102.6982068  45.4095236  54.8071824 101.5177810  46.0163705
  51.9639107 101.9665847  49.1370377  52.5340464 102.3953115  48.4987862
  52.5547218 101.6848431  49.8354563  54.0083912  98.5417517  43.0080179
  54.7107955  98.9938561  43.4754105  53.6764540  97.9001336  43.6360072
  52.4564273  97.1329274  57.3831388  51.8262934  97.8145555  57.6166785
  52.3500361  97.0212356  56.4384527  47.7509246  96.8001070  48.3097313
  46.9608299  97.0558599  47.8337423  48.2420493  97.6149408  48.4149353
  61.7673055 104.1406309  51.0602593  62.5890499 103.7386496  50.7785275
  61.7635458 104.0374543  52.0118709  49.7023991  97.1645649  45.2680789
  48.9055154  97.2764344  45.7864285  49.4749583  97.5032302  44.4021680
  55.5329659 103.6890353  53.2163304  55.5974091 104.1510760  54.0521476
  54.8240582 103.0587717  53.3445614  46.0346948  97.0531560  50.7412303
  46.2854987  97.9378570  51.0069879  46.5706497  96.8736162  49.9687395
  69.8579048 100.4845058  47.4087565  69.1042757  99.9152456  47.2531569
  69.9926589 100.4507722  48.3558200  55.2477676 105.3558460  43.0842284
  55.1123351 106.2009996  43.5127132  55.7887489 105.5577738  42.3208218
  51.7345016  91.4350040  59.7456639  51.3411961  90.8816238  60.4204284
  52.5511156  91.7460618  60.1363157  48.7007074 102.8733898  43.6570209
  49.2131594 103.6677148  43.8075774  49.3529786 102.1760188  43.5903811
  50.5101958 105.9899654  45.7392962  50.6868587 106.9117619  45.5513946
  51.3058792 105.6758074  46.1687342  54.6512977  92.8507919  57.3376896
  55.3922690  93.4515072  57.2581358  54.8830900  92.1085557  56.7794939
  49.7954315  98.0364286  55.6155126  49.6807830  97.1349543  55.9162225
  48.9398833  98.2827983  55.2639942  56.8746153 105.9782027  57.2142626
  56.4310007 105.1918405  56.8963531  57.5363366 106.1661177  56.5486517
  51.6333274 107.5077828  51.7403305  52.1840699 107.3794891  50.9680299
  50.7944750 107.8072717  51.3898198  58.9727391 106.2584826  55.2424028
  58.9545866 107.0793707  54.7504297  59.8947311 106.1338902  55.4674169
  55.4300445 103.7728956  56.0847536  55.9628782 103.0117244  55.8546844
  54.9014526 103.4802608  56.8271690  58.5970140  88.8789022  51.6141178
  58.2534409  89.7690664  51.5380288  58.9649102  88.6890680  50.7510763
  46.6655990 101.2022552  44.4329780  47.5031212 101.6119561  44.2163488
  46.8434258 100.2621994  44.4029974  58.5620422  98.8697633  40.1213613
  58.0467046  99.6402238  40.3602000  58.2897731  98.1962769  40.7446674
  56.1467533  93.7147334  45.1798851  55.2909130  93.3254184  45.0004490
  56.5594485  93.7939295  44.3198637  57.6766680  91.2493677  49.5790411
  57.1731476  91.2123812  48.7658216  57.9697287  92.1586420  49.6387068
  53.9209566  91.3332407  48.5856593  54.7862563  91.1375215  48.2262482
  53.9887075  91.1042759  49.5125949  63.5354697 101.6229988  42.0566786
  62.7584139 101.2841147  41.6121948  64.2146178 101.6282611  41.3821751
  58.3506726  96.7424725  41.9473394  58.0456861  97.0570874  42.7983537
  59.3037168  96.8206145  41.9900727  56.7953157 102.9014948  43.5966348
  56.2674519 102.1667708  43.2839585  56.2940660 103.6789625  43.3506316
  61.7746003 101.0963969  48.7133394  61.1169678 101.7863230  48.8013523
  62.5786403 101.4860401  49.0567381  51.5271885  93.5634615  45.9572959
  52.1015637  93.3409796  45.2246152  52.1142868  93.6323309  46.7101561
  60.5851462  99.4508342  46.7637336  61.0983344 100.0838333  47.2659046
  61.2352686  98.8509537  46.3980696  51.8541472  95.5939076  39.9768845
  51.0178784  95.9313762  40.2978119  51.7146242  95.4588056  39.0395982
  53.8294553  90.4375864  44.6848029  53.1758965  90.1224881  44.0604644
  53.7875027  89.8151604  45.4107852  54.9405758 100.7195159  36.6001321
  54.0332819 100.4884412  36.7992470  55.4376790  99.9232778  36.7875303
  57.8473837 109.4292666  39.5198007  57.1735535 109.7324363  40.1282965
  58.2339659 110.2321746  39.1703464  57.0632293  96.9257797  49.0095677
  56.1454855  97.1472744  48.8517365  57.4792437  97.0004108  48.1507384
  57.8467341  98.3249213  44.1398357  58.5939160  98.8370610  43.8305479
  58.1158930  98.0033266  45.0002750  56.1193991 100.8207754  41.1225311
  55.2105210 100.5366786  41.2197781  56.1489075 101.2406832  40.2628618
  61.3513259 104.4314343  44.8916479  60.8975586 103.5905253  44.9481669
  60.7207225 105.0675741  45.2291259  60.2946178  95.3606329  46.1217146
  59.5568935  94.8483715  46.4527389  60.5472952  94.9206711  45.3100423
  59.7946198 106.2690840  45.8266297  60.0869172 106.8295897  45.1078662
  60.3044818 106.5619401  46.5819456  60.3957805  88.1382581  46.7158915
  60.7016682  87.2779944  46.4284830  61.1210410  88.7300201  46.5157909
  46.6882161  98.5413268  45.1040513  46.4906561  97.9482628  44.3791580
  46.1328825  98.2365478  45.8216452  54.6678885  98.4336374  47.2235106
  54.7227495  97.4810211  47.1477583  53.8570087  98.5895813  47.7076405
  55.8170079 102.3616497  38.4613390  55.3789509 101.6452356  38.0019027
  56.5580520 102.5892612  37.8998481  52.6071245  97.0513434  44.9825485
  51.7939111  97.3507604  45.3890677  53.1030239  96.6569123  45.6999968
  54.7579823 107.0471191  46.9159750  54.7156002 107.2732037  45.9868282
  55.6742522 106.8134565  47.0645551  58.2045457  97.5155258  53.8140379
  58.5594844  97.7426731  54.6734845  58.8517588  97.8473635  53.1917634
  63.9343194 100.6373694  44.5189708  63.7961092 100.8275290  43.5910897
  63.5779412 101.3993077  44.9757759  52.0985320  94.6231789  50.5986720
  52.7384699  94.4820548  49.9009684  51.2662850  94.3366303  50.2225322
  63.9612573 102.7050221  49.5300980  64.3949080 102.6125510  50.3784034
  64.6744154 102.6807722  48.8920996  52.8745624 103.9234220  46.7121713
  53.6686222 103.4284540  46.5104288  52.1637316 103.3952083  46.3489418
  57.6940468 106.3052315  51.0634080  57.7477490 106.8743252  51.8311796
  56.8255250 106.4754200  50.6988117  49.1828387  98.0677302  42.7881465
  48.2525975  98.0061757  43.0051428  49.2785859  97.5453254  41.9918107
  49.1013936  94.5932114  45.3759707  49.3620754  95.5077448  45.2668868
  49.9231109  94.1256557  45.5256320  50.5738862  96.0069872  52.5458532
  51.2461915  95.7987234  51.8971181  49.7468648  95.8091958  52.1063764
  64.8228123 102.7473922  52.0633865  65.0164013 103.6519732  52.3093140
  64.7228741 102.2881341  52.8972450  56.4764434  92.6331812  54.5624192
  55.8292349  93.3321762  54.4688669  57.2465449  93.0667956  54.9300441
  59.8843232 102.8980665  57.6374746  59.7328738 102.6691216  56.7204829
  59.8747911 103.8551266  57.6506091  56.6528568 100.4712577  52.6221012
  57.5820628 100.6223737  52.4489980  56.2319598 100.5596598  51.7669659
  55.4516900 104.4963242  50.3919550  55.3127985 104.1282026  51.2645488
  54.6631496 105.0110881  50.2203508  56.0465052 109.5972338  41.7345086
  56.2216807 109.1260381  42.5490709  55.3597840 110.2238104  41.9626347
  57.0022115 103.8744844  47.7808388  56.6671947 103.8345614  48.6766037
  56.5026061 103.2089560  47.3078798  50.9766359  99.2812475  53.3060969
  50.8386157  98.5492713  53.9072508  51.8871282  99.1921375  53.0245157
  59.9381307 101.2200879  38.0545447  59.3210477 100.4947707  37.9578500
  59.4697795 101.9810239  37.7112522  53.6048659  98.9932434  52.7944648
  54.3148278  98.3525626  52.7531267  53.5617968  99.2445329  53.7170829
  61.5935438 105.9299787  55.7151228  61.5347984 105.2459007  55.0481811
  61.9954957 106.6718777  55.2631854  52.3177593  95.9797652  54.6140288
  51.7814950  95.5288390  55.2661884  51.7294302  96.1143561  53.8710752
  50.6126137 112.7461701  48.5084947  50.8522735 113.3780225  49.1863965
  49.7695333 112.3949741  48.7950306  51.7279852  95.4386303  37.1766752
  50.8509319  95.3175104  36.8128998  52.2037605  94.6472381  36.9245640
  61.5952845 103.8939371  53.9465207  60.7079624 103.5565293  54.0691606
  62.1651396 103.1622402  54.1833973  43.2481993 100.2263463  47.2708259
  43.9353032  99.9125193  46.6829274  43.0930121 101.1304828  46.9975510
  48.0516715  95.1153659  51.6993282  47.9674903  94.5079329  50.9643692
  47.2299421  95.6062678  51.7002779  55.1253999 108.5540823  50.9126450
  55.0524170 109.3595795  51.4245755  54.6831392 108.7532789  50.0874472
  54.9143778 107.7912594  44.4229272  54.1311300 108.3334274  44.5167497
  55.6136524 108.3086573  44.8223513  58.2240429  93.6007223  47.0663477
  58.7209128  92.8477185  46.7464548  57.4527410  93.6371540  46.5006687
  66.0770186  99.3047588  48.7081769  66.0660062 100.1872304  48.3375702
  65.2087565  98.9519139  48.5136306  57.5852682 108.4527658  53.0684609
  58.2980655 109.0875122  52.9960511  57.0942711 108.5491524  52.2524611
  59.3070209 102.3578910  44.6401901  58.3726488 102.4780373  44.4706605
  59.4846878 101.4551377  44.3761911  54.8075397  95.7424606  46.7935162
  54.4373185  95.1895646  47.4816068  55.3034490  95.1382739  46.2410162
  62.6942761  98.1996229  45.1751935  63.1603213  99.0324221  45.1012238
  63.1450261  97.7341211  45.8797193  52.6364596 106.2022101  53.8890180
  53.3374055 106.8358584  54.0419574  52.1659711 106.5436833  53.1285819
  60.7618992 104.5440051  42.1738087  61.0378836 104.4296645  43.0831961
  59.8923490 104.1457536  42.1350260  60.6659423  90.5676816  49.2142836
  59.7522503  90.7981043  49.3825043  61.0952525  90.6515261  50.0656869
  60.4365882  98.7566708  51.7142730  59.7837332  99.0042616  51.0595183
  60.8146262  97.9430847  51.3805208  57.3973056 108.7926402  45.8170901
  57.5795450 107.9748058  46.2798653  58.2206042 109.0094094  45.3795791
  57.7315221 107.7194587  43.0785949  58.2602988 107.2087041  42.4656111
  57.9943441 107.4037117  43.9431482  56.4853455  99.4986519  58.2008767
  55.8094092  99.3980649  58.8711143  57.3081089  99.3425733  58.6644765
  48.2332314 105.7358456  50.8221283  48.8185751 104.9902144  50.9549187
  48.0357152 106.0462413  51.7057947  51.0870969 108.7709703  45.8383725
  50.4181344 109.2555831  45.3547765  50.9483839 109.0178924  46.7527104
  42.8249969  98.3064056  49.5425726  42.8634068  97.7727647  50.3362844
  42.3190262  97.7799262  48.9236703  55.2276238 110.8053447  52.4366383
  55.7794546 110.9685068  53.2015469  55.5682431 111.3957885  51.7646408
  50.2040731  93.1528597  53.0388268  50.2682057  94.0143428  52.6265666
  50.1407851  92.5402598  52.3060627  49.6793004  95.2251729  56.6861302
  50.3065042  94.8428807  57.2998827  48.8220922  95.0065931  57.0516995
  60.0787112 105.6314704  58.2915038  60.6227016 106.2444663  57.7969993
  59.4973957 106.1894283  58.8082051  46.4558546  97.0328158  42.6179657
  46.7511987  96.1238837  42.5646711  45.5546582  97.0115898  42.2960660
  58.3644625 108.7535422  49.4230066  58.2395764 107.9525162  48.9141011
  59.0223716 109.2481616  48.9344036  49.9852793  95.1084155  48.6007206
  49.2639379  95.7220123  48.4614679  50.7746049  95.6441920  48.5223852
  60.4279533 106.5544443  51.0509616  59.4809869 106.4349794  50.9787942
  60.7762307 105.6666941  51.1335877  52.7879107  92.4438581  54.8747858
  53.3113509  92.6900878  55.6374167  52.5691440  93.2758616  54.4550995
  48.1846388  94.7142256  42.7418982  47.8559094  93.8339635  42.5594088
  48.5385759  94.6589925  43.6295372  57.4325967 106.3497159  47.2513968
  57.2850929 105.4213866  47.4321538  58.2579460 106.3717249  46.7671043
  51.2988211  95.0015226  43.1094460  51.6384284  95.5301147  42.3873068
  51.7460331  95.3395632  43.8853027  61.0360089 107.1725717  48.3378841
  61.9606636 106.9668579  48.2003292  60.8675392 106.9242119  49.2468182
  53.9931652  93.3852277  52.5597528  53.6528472  92.5860090  52.9618208
  53.2870658  93.6853987  51.9874361  54.6448124  90.4701589  51.0124851
  55.4674193  89.9962067  50.8903741  54.8886187  91.2492073  51.5123537
  53.2856358  93.4989847  41.3087753  54.0064721  93.8771100  40.8051470
  52.6621662  94.2178724  41.4122731  57.4287481  94.2034996  42.2446085
  57.6451095  95.0859634  41.9434913  56.9481548  93.8121210  41.5151727
  52.1686702  97.1620710  48.8216830  52.0231283  97.4761013  49.7141111
  51.6911906  97.7805610  48.2687728  54.0283085  94.1523258  48.8697719
  54.0144654  93.2564351  48.5330017  54.7455513  94.1593921  49.5036005
  55.8809216  94.5860598  50.9150847  55.6226994  95.5077668  50.9135177
  55.3494256  94.1891032  51.6051311  60.8255405 107.6911385  43.6940932
  60.9992282 107.1257807  42.9414785  61.3184296 108.4912280  43.5120422
  46.6432365  99.7026054  51.7604491  46.0985833 100.4785862  51.8924765
  47.5211714 100.0496859  51.6023612  53.4319981  93.0337638  44.1385289
  53.5535892  92.1054284  44.3376177  53.1422024  93.0476324  43.2263605
  56.3011172  90.7192548  47.2752009  56.3232868  90.7831881  46.3203989
  56.7179231  89.8797057  47.4692515  66.6794796 100.4547808  45.3131232
  67.1225942  99.7055133  44.9150355  65.8021306 100.4457944  44.9304964
  61.8130577 107.0078149  40.7937830  62.5081482 107.6284842  41.0125145
  62.1553727 106.1573501  41.0690208  47.4298386  98.8295950  54.6534648
  46.6880122  98.9778586  55.2399278  47.1091131  99.0904216  53.7901397
  63.7122000 104.4577855  42.3225161  64.2373324 104.7965128  41.5974481
  63.6244353 103.5224870  42.1388296  55.3742049 108.3711929  54.4515038
  55.6829176 108.1261075  55.3237737  56.1717531 108.5758567  53.9633908
  55.3962661 110.5249838  46.6820414  54.9567651 110.0326217  47.3753271
  56.1470778 109.9822806  46.4412490  47.8755000 106.7161379  46.6845042
  48.7013020 106.4165151  46.3043686  47.5249052 105.9469001  47.1334831
  52.8436533 106.0687847  48.7542716  52.2216543 105.4058552  48.4544944
  53.5141400 106.0948979  48.0716364  46.0763605 104.6347705  47.6433976
  45.2395513 104.2069880  47.4617977  46.0487251 104.8280149  48.5804767
  52.9161061  94.5469635  58.3475222  52.9649216  95.4231758  57.9652992
  53.4583575  94.0047028  57.7746865  63.4015906 105.0910759  57.6276359
  62.6111450 105.0734897  57.0880859  63.1649261 105.6299052  58.3825396
  63.5213781 101.9403225  54.9409088  63.5711786 101.7753232  55.8824610
  63.4127705 101.0730484  54.5506968  52.4050040 104.6191771  42.2301177
  52.5538161 105.3027235  41.5767849  53.2116484 104.5996861  42.7450632
  60.8117544  97.9234153  56.2568394  61.7127407  97.7840618  55.9652392
  60.8865518  98.0888608  57.1966572  55.1460349  95.3001008  55.1021581
  54.2763659  95.5934574  54.8304169  55.3819830  95.8841453  55.8228844
  65.0231978 104.3600166  55.1851109  64.7316787 104.7230147  56.0214570
  64.4104110 103.6467175  55.0064441  66.2227661 101.9253046  47.7053679
  67.0574552 102.3642850  47.8691240  66.3586789 101.4491699  46.8861925
  63.2719167  99.4832781  53.6531167  63.7473288  99.6760427  52.8450019
  62.3484732  99.5391967  53.4074551  50.1602673 100.6456948  43.2362245
  49.9148715  99.7419278  43.4342456  50.3298588 100.6474099  42.2941723
  57.8499383  91.5180625  52.6187001  58.3681327  92.2541652  52.2933490
  57.4954516  91.8244618  53.4533760  49.4298321  96.3785306  40.7348407
  48.7367566  96.4529661  40.0788443  49.1850073  95.6145649  41.2569924
  58.1011977  87.9380907  48.1387898  58.3813731  87.2704096  48.7648324
  58.8862584  88.1310003  47.6262561  55.9045446 107.1139901  39.7012924
  55.3319413 107.7330088  39.2483396  56.4778239 107.6639263  40.2352846
  61.9720836  96.3598541  51.8859473  62.9238258  96.4596639  51.9071697
  61.8024286  95.5676810  52.3957557  59.9935215  93.4454124  52.0718874
  59.3985147  93.7259137  51.3765362  59.7084912  93.9348025  52.8435615
  59.1242705 107.3977051  40.8321506  60.0573379 107.3322613  41.0354382
  59.0365918 108.2333318  40.3736039  61.7530722 106.7142922  37.7925454
  61.6744354 106.3802785  38.6861212  62.5740389 107.2064689  37.7916926
  64.4508913  99.5804661  51.0001772  64.4185233  98.6420662  51.1861456
  65.0609537  99.6588698  50.2667597  56.2892244  98.4500714  37.0428976
  57.2351349  98.3206922  37.1117394  55.9106489  97.7115376  37.5198405
  64.6003402  96.3715704  51.0460056  64.0842450  95.5874161  50.8589984
  65.4843350  96.0434421  51.2106575  62.2614129  90.1156720  47.0055868
  62.0638950  89.8071808  47.8899200  62.8713834  90.8418359  47.1353798
  70.2685463 100.6420668  50.1407809  70.9988852 100.3805956  50.7015513
  69.6592409  99.9049390  50.1809877  68.3500760  98.7828530  50.7382260
  67.6233924  98.6484495  50.1298752  67.9348047  99.0905359  51.5438978
  56.1730937 102.5018460  58.5029633  57.0933946 102.6797059  58.6969680
  56.1380520 101.5574505  58.3509333  54.4735161  96.3750690  36.9783862
  53.5666617  96.0783803  37.0546575  54.7511142  96.0780508  36.1118148
  45.3913102  97.6957054  47.4282908  45.0715886  96.8422362  47.1357282
  44.8446530  97.9105632  48.1840875  49.1693009 100.4119495  51.1452415
  49.3879019 101.3436602  51.1640448  49.5818783 100.0527469  51.9307218
  56.0897227  90.9187580  43.1328103  55.2797955  90.5734665  43.5083349
  56.7781644  90.6095124  43.7215715  58.0187775  89.9965627  44.7552400
  58.5718814  90.4161080  45.4142423  58.2557862  89.0701375  44.7975356
  54.0420875  95.9852700  60.5355164  53.9417602  96.9347057  60.4667255
  53.8242417  95.6570939  59.6631234  53.2433946  93.2337625  37.1195841
  54.1053110  93.5592524  37.3791658  53.4284290  92.4469121  36.6068907
  45.2601362 101.3159965  49.3976030  44.5664833 100.9013918  48.8845984
  46.0074353 101.3580502  48.8009449  61.3966582  92.1066152  44.2631064
  60.8165252  92.7650956  43.8809116  61.1302515  91.2843496  43.8518481
  59.8470149  91.5071210  46.4652384  60.3469927  91.6187744  45.6566703
  60.4905757  91.2032262  47.1053193  53.9052145  99.4149839  59.3520225
  53.4219226 100.2150199  59.5584114  53.9913084  99.4257784  58.3987669
  47.1738104 101.2478219  47.2742045  47.1508792 101.3465906  46.3223928
  47.4838741 102.0943370  47.5959211  49.8325482 103.3054374  51.3888659
  50.7868736 103.2738316  51.3218591  49.6338006 102.8444998  52.2038885
  50.4224864 101.8755490  53.9559457  51.2417753 102.3699569  53.9794294
  50.6961672 100.9587458  53.9277024  60.1791460  94.2666242  43.3187412
  59.2917316  94.5515893  43.1007607  60.5945450  94.1060006  42.4714689
  63.5305997  94.2912763  47.0341751  64.3066387  94.7809216  47.3066368
  62.8054131  94.7170817  47.4913621  65.9678555  95.0040382  48.0915692
  66.5623046  94.7636118  47.3809000  66.0405139  94.2847513  48.7189228
  48.1875711 108.8473993  48.4058857  48.0530179 108.0874394  47.8396855
  47.7707773 109.5714893  47.9387646  59.3234674 104.0310917  37.4135432
  60.0270524 104.2360919  38.0293088  58.5997323 104.5987679  37.6784516
  60.1532484  99.7820778  43.5337702  60.0967686 100.2389330  42.6945335
  60.7060827  99.0211463  43.3560545  63.9637290  95.5710510  44.3587822
  63.7074224  95.1707146  45.1896029  63.3390158  96.2854304  44.2337961
  68.2749628  98.3106583  46.8659113  67.7149186  98.3799773  47.6390675
  67.6693131  98.1347568  46.1458609  51.3444837 109.7443310  48.6177299
  51.2277221 110.6888743  48.5155990  50.5237283 109.4416872  49.0063099
  61.2321371 104.4693446  39.4633892  62.0666975 104.0374645  39.2811367
  61.0705714 104.2975460  40.3910787  60.8867264 100.9725559  40.8290231
  60.8316067 100.8069831  39.8878676  60.2613319 101.6801592  40.9852421
  45.6759779  96.2093624  54.6551654  46.3218642  95.6992578  55.1438879
  45.4676930  96.9462305  55.2295079  58.2013171 103.2774471  60.1543794
  59.0704330 103.4515124  59.7930429  57.7219922 104.0968888  60.0319524
  54.1963389  90.4733668  40.4075550  54.1842059  91.4175508  40.5643821
  55.0886811  90.2903814  40.1135011  52.3699351 110.3971572  51.8333228
  53.2726598 110.4295183  52.1499723  52.1436721 109.4672023  51.8479564
  54.1252953 109.1502559  48.4943307  53.1748584 109.1504420  48.3807679
  54.4285439 108.4035293  47.9779341  58.0115508  87.0676445  44.6621487
  57.2447904  86.5134932  44.8078169  58.4226213  87.1398314  45.5235638
  50.0157270  93.3561241  58.7526668  50.8788731  92.9998046  58.9629992
  49.4422680  93.0175136  59.4402072  69.8605646 114.9863097  49.5589069
  70.4984056 114.8669845  48.8552409  69.7426489 115.9343941  49.6177021
  66.6695353 114.9390525  49.4950594  66.3313864 114.8231590  48.6071128
  67.5385121 114.5381690  49.4751600  62.5282168 116.7926002  45.4847485
  61.9647034 116.7015939  44.7163772  62.4134563 115.9725906  45.9649977
  67.1515136 116.0925377  55.4536799  67.1403776 115.6978175  54.5817303
  67.3135775 115.3591450  56.0470571  60.0746600 118.2877193  48.3231705
  60.8667892 117.9468018  47.9078004  60.3143251 118.3972168  49.2433858
  68.1081727 120.4596969  40.7961949  67.4569707 121.0451050  40.4095963
  68.9026090 120.9903164  40.8556987  62.0337354 117.5486107  41.1949084
  62.8068230 117.0015094  41.0561960  62.3862753 118.4130356  41.4063545
  63.8722397 118.8762489  54.4015983  63.5812263 119.7808120  54.2862649
  64.5079381 118.9179016  55.1160053  64.7978604 116.2539337  50.9917343
  65.3942176 116.0295360  50.2774306  64.8553575 115.5124083  51.5942791
  64.3703632 113.7078773  38.8267534  64.6229153 113.1860294  38.0650997
  63.4328191 113.5444918  38.9294217  69.4146915 112.7114551  46.6342277
  70.2010004 112.2933974  46.2832694  69.6785619 113.6160643  46.8023925
  69.5856992 118.1487401  41.3330934  68.9502825 118.2222028  42.0451838
  69.2554399 118.7381000  40.6550013  74.8155342 112.6489784  47.5375255
  75.5480514 112.0789001  47.7713085  74.0594698 112.2611385  47.9781761
  64.0899921 115.6106879  41.0291909  63.9736179 114.9351782  41.6972993
  64.2002181 115.1239253  40.2124062  66.4331462 115.0717026  44.7338598
  66.0689669 114.5447647  45.4451519  67.2898578 114.6815495  44.5605083
  72.3380762 106.3611358  51.9969864  72.0064087 107.2306769  51.7731079
  71.7426376 106.0447642  52.6763894  66.0736949 110.1006925  39.7299946
  66.2411351 110.9687162  40.0970417  65.8834118 110.2634207  38.8061236
  68.8312282 118.5623904  51.3965777  68.5313005 119.4648943  51.2881584
  68.4863341 118.2956088  52.2486930  62.2824763 115.0137701  47.4302481
  61.3575260 114.8813915  47.6380173  62.5309177 115.7931920  47.9272424
  72.2309426 111.0806445  49.0763214  71.3226303 111.0121853  48.7821975
  72.1797022 111.5578389  49.9045040  66.0526170 112.5564583  40.7146613
  65.9325795 113.0021634  41.5532094  65.3578758 112.9049901  40.1560151
  59.6433574 114.6570975  48.2646270  59.7725956 114.9105454  49.1785682
  58.9631026 115.2498683  47.9450925  63.8133062 125.3268225  44.3636744
  63.7357091 126.2776050  44.4425225  63.2094705 124.9814097  45.0211671
  66.3050292 112.4996090  57.0198111  65.5283626 113.0590010  57.0100976
  66.9440855 112.9852873  57.5412982  74.0971072 109.2822883  50.8541088
  73.4545452 109.5755416  50.2080883  73.5926001 109.1675803  51.6594285
  71.7511236 113.0286056  41.5426947  72.6629092 113.2613443  41.3674645
  71.2420883 113.6123100  40.9802026  64.5596664 115.3081544  56.5816078
  65.3011348 115.8466587  56.3050902  63.8533649 115.9347832  56.7387630
  70.0352003 117.4510684  55.1788240  70.4435359 117.0093094  54.4342872
  69.3129265 116.8763311  55.4322433  66.3883074 112.3883291  52.5521797
  67.2344269 112.8122704  52.6956446  66.3281711 111.7316915  53.2460360
  70.3580818 118.0111875  48.9340529  69.7289681 118.1757589  48.2316597
  69.9706480 118.4253484  49.7051493  74.2370050 118.9466312  46.2884893
  73.5521088 119.3265214  45.7381926  74.3213899 119.5561639  47.0216840
  69.5382519 110.0487659  54.2102970  69.2943451 110.8029720  53.6737246
  69.8142449 110.4273007  55.0450218  71.4920982 116.5926271  52.8880236
  71.7037877 117.2358031  52.2114617  71.4450730 115.7588588  52.4202166
  69.0947211 109.2044092  49.7916808  68.2331690 109.5025346  50.0833546
  69.1209645 109.4214491  48.8597841  65.9108780 117.7486283  46.1990614
  66.3747126 118.0273986  45.4095236  65.6465578 116.8469727  46.0163705
  62.8032861 117.2957764  49.1370377  63.3734218 117.7245033  48.4987862
  63.3940973 117.0140349  49.8354563  64.8477666 113.8709435  43.0080179
  65.5501709 114.3230479  43.4754105  64.5158295 113.2293254  43.6360072
  63.2958028 112.4621192  57.3831388  62.6656688 113.1437473  57.6166785
  63.1894115 112.3504273  56.4384527  58.5903000 112.1292988  48.3097313
  57.8002054 112.3850516  47.8337423  59.0814247 112.9441326  48.4149353
  72.6066810 119.4698227  51.0602593  73.4284253 119.0678414  50.7785275
  72.6029212 119.3666461  52.0118709  60.5417745 112.4937567  45.2680789
  59.7448909 112.6056261  45.7864285  60.3143338 112.8324219  44.4021680
  66.3723413 119.0182270  53.2163304  66.4367846 119.4802677  54.0521476
  65.6634337 118.3879635  53.3445614  56.8740703 112.3823478  50.7412303
  57.1248741 113.2670488  51.0069879  57.4100251 112.2028080  49.9687395
  80.6972803 115.8136975  47.4087565  79.9436511 115.2444373  47.2531569
  80.8320344 115.7799640  48.3558200  66.0871431 120.6850378  43.0842284
  65.9517105 121.5301913  43.5127132  66.6281243 120.8869655  42.3208218
  62.5738770 106.7641958  59.7456639  62.1805716 106.2108156  60.4204284
  63.3904911 107.0752536  60.1363157  59.5400828 118.2025816  43.6570209
  60.0525349 118.9969066  43.8075774  60.1923541 117.5052106  43.5903811
  61.3495713 121.3191572  45.7392962  61.5262341 122.2409537  45.5513946
  62.1452546 121.0049991  46.1687342  65.4906731 108.1799837  57.3376896
  66.2316445 108.7806990  57.2581358  65.7224654 107.4377474  56.7794939
  60.6348069 113.3656204  55.6155126  60.5201584 112.4641461  55.9162225
  59.7792587 113.6119901  55.2639942  67.7139907 121.3073944  57.2142626
  67.2703761 120.5210323  56.8963531  68.3757121 121.4953095  56.5486517
  62.4727028 122.8369746  51.7403305  63.0234453 122.7086809  50.9680299
  61.6338504 123.1364635  51.3898198  69.8121145 121.5876744  55.2424028
  69.7939620 122.4085625  54.7504297  70.7341065 121.4630819  55.4674169
  66.2694199 119.1020874  56.0847536  66.8022536 118.3409162  55.8546844
  65.7408280 118.8094525  56.8271690  69.4363894 104.2080940  51.6141178
  69.0928164 105.0982581  51.5380288  69.8042857 104.0182597  50.7510763
  57.5049745 116.5314470  44.4329780  58.3424967 116.9411478  44.2163488
  57.6828013 115.5913912  44.4029974  69.4014177 114.1989551  40.1213613
  68.8860800 114.9694155  40.3602000  69.1291485 113.5254687  40.7446674
  66.9861288 109.0439251  45.1798851  66.1302884 108.6546102  45.0004490
  67.3988240 109.1231212  44.3198637  68.5160435 106.5785595  49.5790411
  68.0125230 106.5415730  48.7658216  68.8091041 107.4878337  49.6387068
  64.7603320 106.6624324  48.5856593  65.6256317 106.4667133  48.2262482
  64.8280829 106.4334676  49.5125949  74.3748451 116.9521905  42.0566786
  73.5977894 116.6133065  41.6121948  75.0539932 116.9574528  41.3821751
  69.1900480 112.0716643  41.9473394  68.8850616 112.3862792  42.7983537
  70.1430922 112.1498063  41.9900727  67.6346912 118.2306866  43.5966348
  67.1068274 117.4959626  43.2839585  67.1334415 119.0081542  43.3506316
  72.6139758 116.4255887  48.7133394  71.9563432 117.1155148  48.8013523
  73.4180157 116.8152319  49.0567381  62.3665640 108.8926532  45.9572959
  62.9409391 108.6701714  45.2246152  62.9536622 108.9615227  46.7101561
  71.4245217 114.7800259  46.7637336  71.9377099 115.4130251  47.2659046
  72.0746441 114.1801455  46.3980696  62.6935227 110.9230993  39.9768845
  61.8572539 111.2605680  40.2978119  62.5539996 110.7879973  39.0395982
  64.6688307 105.7667781  44.6848029  64.0152720 105.4516798  44.0604644
  64.6268781 105.1443522  45.4107852  65.7799512 116.0487076  36.6001321
  64.8726574 115.8176330  36.7992470  66.2770544 115.2524696  36.7875303
  68.6867591 124.7584584  39.5198007  68.0129290 125.0616280  40.1282965
  69.0733413 125.5613664  39.1703464  67.9026048 112.2549715  49.0095677
  66.9848609 112.4764662  48.8517365  68.3186191 112.3296025  48.1507384
  68.6861095 113.6541130  44.1398357  69.4332914 114.1662528  43.8305479
  68.9552685 113.3325183  45.0002750  66.9587746 116.1499671  41.1225311
  66.0498965 115.8658704  41.2197781  66.9882829 116.5698750  40.2628618
  72.1907013 119.7606261  44.8916479  71.7369340 118.9197171  44.9481669
  71.5600980 120.3967659  45.2291259  71.1339933 110.6898247  46.1217146
  70.3962689 110.1775633  46.4527389  71.3866706 110.2498628  45.3100423
  70.6339952 121.5982757  45.8266297  70.9262927 122.1587815  45.1078662
  71.1438573 121.8911318  46.5819456  71.2351560 103.4674499  46.7158915
  71.5410437 102.6071862  46.4284830  71.9604165 104.0592119  46.5157909
  57.5275916 113.8705185  45.1040513  57.3300316 113.2774546  44.3791580
  56.9722580 113.5657396  45.8216452  65.5072640 113.7628292  47.2235106
  65.5621249 112.8102128  47.1477583  64.6963842 113.9187731  47.7076405
  66.6563833 117.6908415  38.4613390  66.2183263 116.9744274  38.0019027
  67.3974274 117.9184530  37.8998481  63.4465000 112.3805352  44.9825485
  62.6332865 112.6799522  45.3890677  63.9423994 111.9861040  45.6999968
  65.5973577 122.3763108  46.9159750  65.5549756 122.6023955  45.9868282
  66.5136276 122.1426483  47.0645551  69.0439211 112.8447176  53.8140379
  69.3988599 113.0718649  54.6734845  69.6911342 113.1765553  53.1917634
  74.7736948 115.9665612  44.5189708  74.6354847 116.1567208  43.5910897
  74.4173167 116.7284995  44.9757759  62.9379074 109.9523707  50.5986720
  63.5778454 109.8112466  49.9009684  62.1056605 109.6658220  50.2225322
  74.8006328 118.0342139  49.5300980  75.2342834 117.9417428  50.3784034
  75.5137908 118.0099639  48.8920996  63.7139378 119.2526137  46.7121713
  64.5079977 118.7576458  46.5104288  63.0031071 118.7244001  46.3489418
  68.5334223 121.6344233  51.0634080  68.5871245 122.2035169  51.8311796
  67.6649004 121.8046118  50.6988117  60.0222142 113.3969219  42.7881465
  59.0919730 113.3353675  43.0051428  60.1179614 112.8745172  41.9918107
  59.9407691 109.9224032  45.3759707  60.2014508 110.8369365  45.2668868
  60.7624863 109.4548475  45.5256320  61.4132616 111.3361789  52.5458532
  62.0855669 111.1279151  51.8971181  60.5862403 111.1383875  52.1063764
  75.6621877 118.0765840  52.0633865  75.8557767 118.9811650  52.3093140
  75.5622495 117.6173259  52.8972450  67.3158188 107.9623730  54.5624192
  66.6686103 108.6613680  54.4688669  68.0859203 108.3959874  54.9300441
  70.7236986 118.2272582  57.6374746  70.5722492 117.9983134  56.7204829
  70.7141665 119.1843184  57.6506091  67.4922322 115.8004495  52.6221012
  68.4214382 115.9515655  52.4489980  67.0713352 115.8888516  51.7669659
  66.2910654 119.8255159  50.3919550  66.1521740 119.4573944  51.2645488
  65.5025250 120.3402799  50.2203508  66.8858806 124.9264256  41.7345086
  67.0610562 124.4552299  42.5490709  66.1991594 125.5530022  41.9626347
  67.8415869 119.2036762  47.7808388  67.5065702 119.1637532  48.6766037
  67.3419815 118.5381478  47.3078798  61.8160113 114.6104392  53.3060969
  61.6779911 113.8784631  53.9072508  62.7265037 114.5213292  53.0245157
  70.7775061 116.5492797  38.0545447  70.1604232 115.8239625  37.9578500
  70.3091549 117.3102157  37.7112522  64.4442414 114.3224352  52.7944648
  65.1542033 113.6817544  52.7531267  64.4011722 114.5737246  53.7170829
  72.4329193 121.2591705  55.7151228  72.3741739 120.5750925  55.0481811
  72.8348711 122.0010695  55.2631854  63.1571348 111.3089569  54.6140288
  62.6208705 110.8580308  55.2661884  62.5688056 111.4435478  53.8710752
  62.5673607 110.7678221  37.1766752  61.6903073 110.6467022  36.8128998
  63.0431360 109.9764299  36.9245640  72.4346600 119.2231289  53.9465207
  71.5473379 118.8857211  54.0691606  73.0045151 118.4914320  54.1833973
  54.0875747 115.5555381  47.2708259  54.7746787 115.2417111  46.6829274
  53.9323876 116.4596745  46.9975510  58.8910469 110.4445577  51.6993282
  58.8068658 109.8371247  50.9643692  58.0693176 110.9354595  51.7002779
  65.9647753 123.8832741  50.9126450  65.8917925 124.6887713  51.4245755
  65.5225146 124.0824707  50.0874472  65.7537533 123.1204511  44.4229272
  64.9705055 123.6626191  44.5167497  66.4530278 123.6378491  44.8223513
  69.0634183 108.9299141  47.0663477  69.5602883 108.1769103  46.7464548
  68.2921165 108.9663457  46.5006687  76.9163940 114.6339506  48.7081769
  76.9053817 115.5164222  48.3375702  76.0481320 114.2811057  48.5136306
  68.4246437 123.7819575  53.0684609  69.1374409 124.4167040  52.9960511
  67.9336465 123.8783441  52.2524611  70.1463964 117.6870828  44.6401901
  69.2120242 117.8072290  44.4706605  70.3240632 116.7843295  44.3761911
  65.6469152 111.0716524  46.7935162  65.2766939 110.5187564  47.4816068
  66.1428244 110.4674657  46.2410162  73.5336515 113.5288147  45.1751935
  73.9996967 114.3616139  45.1012238  73.9844016 113.0633129  45.8797193
  63.4758350 121.5314019  53.8890180  64.1767810 122.1650502  54.0419574
  63.0053465 121.8728750  53.1285819  71.6012746 119.8731968  42.1738087
  71.8772590 119.7588563  43.0831961  70.7317245 119.4749453  42.1350260
  71.5053178 105.8968734  49.2142836  70.5916258 106.1272961  49.3825043
  71.9346279 105.9807178  50.0656869  71.2759636 114.0858626  51.7142730
  70.6231087 114.3334534  51.0595183  71.6540016 113.2722764  51.3805208
  68.2366810 124.1218319  45.8170901  68.4189205 123.3039975  46.2798653
  69.0599796 124.3386012  45.3795791  68.5708976 123.0486504  43.0785949
  69.0996742 122.5378959  42.4656111  68.8337195 122.7329035  43.9431482
  67.3247209 114.8278437  58.2008767  66.6487846 114.7272566  58.8711143
  68.1474843 114.6717651  58.6644765  59.0726068 121.0650374  50.8221283
  59.6579505 120.3194062  50.9549187  58.8750907 121.3754330  51.7057947
  61.9264724 124.1001621  45.8383725  61.2575099 124.5847749  45.3547765
  61.7877593 124.3470842  46.7527104  53.6643723 113.6355974  49.5425726
  53.7027823 113.1019565  50.3362844  53.1584016 113.1091179  48.9236703
  66.0669992 126.1345365  52.4366383  66.6188300 126.2976986  53.2015469
  66.4076186 126.7249802  51.7646408  61.0434485 108.4820514  53.0388268
  61.1075812 109.3435345  52.6265666  60.9801606 107.8694516  52.3060627
  60.5186758 110.5543647  56.6861302  61.1458797 110.1720724  57.2998827
  59.6614677 110.3357849  57.0516995  70.9180867 120.9606622  58.2915038
  71.4620771 121.5736580  57.7969993  70.3367711 121.5186201  58.8082051
  57.2952301 112.3620076  42.6179657  57.5905742 111.4530754  42.5646711
  56.3940337 112.3407816  42.2960660  69.2038380 124.0827340  49.4230066
  69.0789519 123.2817080  48.9141011  69.8617471 124.5773534  48.9344036
  60.8246548 110.4376073  48.6007206  60.1033134 111.0512040  48.4614679
  61.6139804 110.9733837  48.5223852  71.2673288 121.8836360  51.0509616
  70.3203623 121.7641711  50.9787942  71.6156061 120.9958858  51.1335877
  63.6272861 107.7730499  54.8747858  64.1507263 108.0192796  55.6374167
  63.4085195 108.6050534  54.4550995  59.0240142 110.0434174  42.7418982
  58.6952848 109.1631553  42.5594088  59.3779513 109.9881842  43.6295372
  68.2719721 121.6789076  47.2513968  68.1244684 120.7505784  47.4321538
  69.0973215 121.7009167  46.7671043  62.1381965 110.3307144  43.1094460
  62.4778038 110.8593065  42.3873068  62.5854086 110.6687550  43.8853027
  71.8753843 122.5017635  48.3378841  72.8000391 122.2960497  48.2003292
  71.7069146 122.2534036  49.2468182  64.8325406 108.7144194  52.5597528
  64.4922227 107.9152007  52.9618208  64.1264413 109.0145905  51.9874361
  65.4841878 105.7993507  51.0124851  66.3067947 105.3253985  50.8903741
  65.7279942 106.5783990  51.5123537  64.1250113 108.8281765  41.3087753
  64.8458475 109.2063018  40.8051470  63.5015417 109.5470642  41.4122731
  68.2681236 109.5326914  42.2446085  68.4844850 110.4151552  41.9434913
  67.7875303 109.1413127  41.5151727  63.0080457 112.4912627  48.8216830
  62.8625038 112.8052930  49.7141111  62.5305661 113.1097528  48.2687728
  64.8676840 109.4815175  48.8697719  64.8538409 108.5856269  48.5330017
  65.5849268 109.4885839  49.5036005  66.7202970 109.9152516  50.9150847
  66.4620748 110.8369586  50.9135177  66.1888011 109.5182950  51.6051311
  71.6649159 123.0203303  43.6940932  71.8386037 122.4549725  42.9414785
  72.1578050 123.8204198  43.5120422  57.4826119 115.0317972  51.7604491
  56.9379587 115.8077780  51.8924765  58.3605469 115.3788776  51.6023612
  64.2713736 108.3629556  44.1385289  64.3929647 107.4346202  44.3376177
  63.9815778 108.3768242  43.2263605  67.1404926 106.0484466  47.2752009
  67.1626623 106.1123799  46.3203989  67.5572985 105.2088975  47.4692515
  77.5188550 115.7839726  45.3131232  77.9619696 115.0347051  44.9150355
  76.6415061 115.7749862  44.9304964  72.6524332 122.3370067  40.7937830
  73.3475236 122.9576760  41.0125145  72.9947482 121.4865418  41.0690208
  58.2692141 114.1587868  54.6534648  57.5273877 114.3070503  55.2399278
  57.9484885 114.4196134  53.7901397  74.5515755 119.7869773  42.3225161
  75.0767079 120.1257045  41.5974481  74.4638107 118.8516788  42.1388296
  66.2135804 123.7003846  54.4515038  66.5222930 123.4552993  55.3237737
  67.0111286 123.9050485  53.9633908  66.2356416 125.8541756  46.6820414
  65.7961406 125.3618135  47.3753271  66.9864533 125.3114724  46.4412490
  58.7148755 122.0453297  46.6845042  59.5406775 121.7457069  46.3043686
  58.3642807 121.2760919  47.1334831  63.6830288 121.3979765  48.7542716
  63.0610297 120.7350470  48.4544944  64.3535155 121.4240897  48.0716364
  56.9157360 119.9639623  47.6433976  56.0789268 119.5361798  47.4617977
  56.8881005 120.1572066  48.5804767  63.7554815 109.8761553  58.3475222
  63.8042971 110.7523676  57.9652992  64.2977329 109.3338946  57.7746865
  74.2409661 120.4202676  57.6276359  73.4505205 120.4026815  57.0880859
  74.0043016 120.9590970  58.3825396  74.3607536 117.2695143  54.9409088
  74.4105541 117.1045150  55.8824610  74.2521459 116.4022402  54.5506968
  63.2443795 119.9483688  42.2301177  63.3931915 120.6319153  41.5767849
  64.0510238 119.9288778  42.7450632  71.6511298 113.2526071  56.2568394
  72.5521161 113.1132535  55.9652392  71.7259273 113.4180525  57.1966572
  65.9854104 110.6292925  55.1021581  65.1157413 110.9226491  54.8304169
  66.2213584 111.2133370  55.8228844  75.8625733 119.6892084  55.1851109
  75.5710541 120.0522065  56.0214570  75.2497864 118.9759092  55.0064441
  77.0621415 117.2544964  47.7053679  77.8968307 117.6934768  47.8691240
  77.1980544 116.7783617  46.8861925  74.1112921 114.8124699  53.6531167
  74.5867043 115.0052345  52.8450019  73.1878486 114.8683885  53.4074551
  60.9996428 115.9748866  43.2362245  60.7542470 115.0711196  43.4342456
  61.1692342 115.9766016  42.2941723  68.6893138 106.8472542  52.6187001
  69.2075081 107.5833569  52.2933490  68.3348270 107.1536536  53.4533760
  60.2692075 111.7077223  40.7348407  59.5761320 111.7821578  40.0788443
  60.0243827 110.9437567  41.2569924  68.9405732 103.2672825  48.1387898
  69.2207485 102.5996014  48.7648324  69.7256339 103.4601920  47.6262561
  66.7439200 122.4431819  39.7012924  66.1713167 123.0622006  39.2483396
  67.3171994 122.9931180  40.2352846  72.8114590 111.6890459  51.8859473
  73.7632013 111.7888556  51.9071697  72.6418040 110.8968727  52.3957557
  70.8328970 108.7746042  52.0718874  70.2378902 109.0551055  51.3765362
  70.5478666 109.2639943  52.8435615  69.9636460 122.7268969  40.8321506
  70.8967133 122.6614531  41.0354382  69.8759673 123.5625236  40.3736039
  72.5924477 122.0434839  37.7925454  72.5138108 121.7094703  38.6861212
  73.4134143 122.5356607  37.7916926  75.2902668 114.9096578  51.0001772
  75.2578988 113.9712579  51.1861456  75.9003291 114.9880615  50.2667597
  67.1285999 113.7792631  37.0428976  68.0745103 113.6498840  37.1117394
  66.7500244 113.0407293  37.5198405  75.4397156 111.7007622  51.0460056
  74.9236205 110.9166079  50.8589984  76.3237105 111.3726339  51.2106575
  73.1007883 105.4448637  47.0055868  72.9032704 105.1363726  47.8899200
  73.7107589 106.1710276  47.1353798  81.1079218 115.9712585  50.1407809
  81.8382606 115.7097873  50.7015513  80.4986163 115.2341307  50.1809877
  79.1894515 114.1120448  50.7382260  78.4627678 113.9776413  50.1298752
  78.7741802 114.4197277  51.5438978  67.0124691 117.8310378  58.5029633
  67.9327701 118.0088977  58.6969680  66.9774274 116.8866423  58.3509333
  65.3128916 111.7042608  36.9783862  64.4060371 111.4075721  37.0546575
  65.5904897 111.4072426  36.1118148  56.2306856 113.0248971  47.4282908
  55.9109641 112.1714279  47.1357282  55.6840284 113.2397549  48.1840875
  60.0086764 115.7411412  51.1452415  60.2272774 116.6728520  51.1640448
  60.4212538 115.3819387  51.9307218  66.9290982 106.2479498  43.1328103
  66.1191710 105.9026583  43.5083349  67.6175399 105.9387041  43.7215715
  68.8581530 105.3257544  44.7552400  69.4112568 105.7452998  45.4142423
  69.0951616 104.3993292  44.7975356  64.8814629 111.3144618  60.5355164
  64.7811356 112.2638975  60.4667255  64.6636171 110.9862857  59.6631234
  64.0827700 108.5629543  37.1195841  64.9446864 108.8884441  37.3791658
  64.2678045 107.7761039  36.6068907  56.0995116 116.6451883  49.3976030
  55.4058588 116.2305836  48.8845984  56.8468107 116.6872419  48.8009449
  72.2360337 107.4358070  44.2631064  71.6559006 108.0942874  43.8809116
  71.9696270 106.6135414  43.8518481  70.6863903 106.8363127  46.4652384
  71.1863682 106.9479662  45.6566703  71.3299511 106.5324180  47.1053193
  64.7445899 114.7441757  59.3520225  64.2612981 115.5442117  59.5584114
  64.8306838 114.7549702  58.3987669  58.0131859 116.5770137  47.2742045
  57.9902547 116.6757824  46.3223928  58.3232495 117.4235287  47.5959211
  60.6719237 118.6346292  51.3888659  61.6262490 118.6030234  51.3218591
  60.4731760 118.1736915  52.2038885  61.2618619 117.2047408  53.9559457
  62.0811508 117.6991486  53.9794294  61.5355426 116.2879376  53.9277024
  71.0185215 109.5958160  43.3187412  70.1311070 109.8807811  43.1007607
  71.4339204 109.4351923  42.4714689  74.3699751 109.6204681  47.0341751
  75.1460141 110.1101133  47.3066368  73.6447885 110.0462735  47.4913621
  76.8072310 110.3332300  48.0915692  77.4016801 110.0928036  47.3809000
  76.8798893 109.6139431  48.7189228  59.0269465 124.1765911  48.4058857
  58.8923933 123.4166312  47.8396855  58.6101528 124.9006811  47.9387646
  70.1628428 119.3602835  37.4135432  70.8664279 119.5652837  38.0293088
  69.4391077 119.9279596  37.6784516  70.9926239 115.1112696  43.5337702
  70.9361440 115.5681247  42.6945335  71.5454581 114.3503380  43.3560545
  74.8031045 110.9002428  44.3587822  74.5467979 110.4999063  45.1896029
  74.1783913 111.6146222  44.2337961  79.1143382 113.6398501  46.8659113
  78.5542940 113.7091690  47.6390675  78.5086886 113.4639486  46.1458609
  62.1838591 125.0735228  48.6177299  62.0670975 126.0180661  48.5155990
  61.3631038 124.7708790  49.0063099  72.0715126 119.7985364  39.4633892
  72.9060730 119.3666562  39.2811367  71.9099469 119.6267377  40.3910787
  71.7261018 116.3017477  40.8290231  71.6709822 116.1361749  39.8878676
  71.1007073 117.0093510  40.9852421  56.5153533 111.5385541  54.6551654
  57.1612397 111.0284495  55.1438879  56.3070684 112.2754223  55.2295079
  69.0406925 118.6066389  60.1543794  69.9098085 118.7807041  59.7930429
  68.5613677 119.4260806  60.0319524  65.0357143 105.8025586  40.4075550
  65.0235813 106.7467426  40.5643821  65.9280565 105.6195732  40.1135011
  63.2093105 125.7263490  51.8333228  64.1120352 125.7587100  52.1499723
  62.9830475 124.7963941  51.8479564  64.9646707 124.4794477  48.4943307
  64.0142338 124.4796338  48.3807679  65.2679194 123.7327211  47.9779341
  68.8509263 102.3968363  44.6621487  68.0841659 101.8426849  44.8078169
  69.2619968 102.4690232  45.5235638  60.8551024 108.6853159  58.7526668
  61.7182486 108.3289963  58.9629992  60.2816435 108.3467053  59.4402072
  80.6999401 130.3155015  49.5589069  81.3377811 130.1961762  48.8552409
  80.5820244 131.2635859  49.6177021  77.5089107 130.2682443  49.4950594
  77.1707619 130.1523508  48.6071128  78.3778875 129.8673608  49.4751600
  77.9908890 131.4217295  55.4536799  77.9797531 131.0270093  54.5817303
  78.1529530 130.6883367  56.0470571  75.2097387 129.0370690  38.8267534
  75.4622907 128.5152212  38.0650997  74.2721946 128.8736836  38.9294217
  80.2540669 128.0406469  46.6342277  81.0403759 127.6225892  46.2832694
  80.5179374 128.9452561  46.8023925  85.6549097 127.9781702  47.5375255
  86.3874268 127.4080919  47.7713085  84.8988452 127.5903302  47.9781761
  77.2725216 130.4008943  44.7338598  76.9083424 129.8739564  45.4451519
  78.1292332 130.0107413  44.5605083  83.1774517 121.6903276  51.9969864
  82.8457842 122.5598687  51.7731079  82.5820130 121.3739560  52.6763894
  76.9130703 125.4298843  39.7299946  77.0805106 126.2979080  40.0970417
  76.7227872 125.5926125  38.8061236  83.0703180 126.4098362  49.0763214
  82.1620058 126.3413771  48.7821975  83.0190776 126.8870307  49.9045040
  76.8919924 127.8856501  40.7146613  76.7719549 128.3313551  41.5532094
  76.1972513 128.2341818  40.1560151  77.1444046 127.8288008  57.0198111
  76.3677380 128.3881928  57.0100976  77.7834609 128.3144791  57.5412982
  84.9364827 124.6114801  50.8541088  84.2939207 124.9047334  50.2080883
  84.4319755 124.4967721  51.6594285  82.5904990 128.3577974  41.5426947
  83.5022846 128.5905361  41.3674645  82.0814637 128.9415018  40.9802026
  80.8745758 132.7802602  55.1788240  81.2829114 132.3385012  54.4342872
  80.1523019 132.2055229  55.4322433  77.2276828 127.7175208  52.5521797
  78.0738023 128.1414622  52.6956446  77.1675466 127.0608833  53.2460360
  80.3776273 125.3779577  54.2102970  80.1337205 126.1321637  53.6737246
  80.6536204 125.7564924  55.0450218  82.3314736 131.9218189  52.8880236
  82.5431631 132.5649949  52.2114617  82.2844484 131.0880506  52.4202166
  79.9340965 124.5336010  49.7916808  79.0725444 124.8317263  50.0833546
  79.9603400 124.7506409  48.8597841  75.6871421 129.2001353  43.0080179
  76.3895464 129.6522396  43.4754105  75.3552049 128.5585172  43.6360072
  74.1351782 127.7913109  57.3831388  73.5050443 128.4729390  57.6166785
  74.0287870 127.6796191  56.4384527  69.4296754 127.4584905  48.3097313
  68.6395808 127.7142434  47.8337423  69.9208002 128.2733243  48.4149353
  71.3811500 127.8229485  45.2680789  70.5842663 127.9348179  45.7864285
  71.1537092 128.1616137  44.4021680  73.4132525 122.0933875  59.7456639
  73.0199470 121.5400074  60.4204284  74.2298665 122.4044454  60.1363157
  76.3300486 123.5091754  57.3376896  77.0710199 124.1098907  57.2581358
  76.5618409 122.7669392  56.7794939  71.4741824 128.6948122  55.6155126
  71.3595339 127.7933379  55.9162225  70.6186342 128.9411818  55.2639942
  80.2757649 119.5372857  51.6141178  79.9321918 120.4274499  51.5380288
  80.6436611 119.3474515  50.7510763  80.2407931 129.5281468  40.1213613
  79.7254555 130.2986073  40.3602000  79.9685240 128.8546604  40.7446674
  77.8255042 124.3731169  45.1798851  76.9696639 123.9838020  45.0004490
  78.2381994 124.4523130  44.3198637  79.3554189 121.9077512  49.5790411
  78.8518985 121.8707648  48.7658216  79.6484796 122.8170255  49.6387068
  75.5997075 121.9916242  48.5856593  76.4650072 121.7959051  48.2262482
  75.6674584 121.7626594  49.5125949  80.0294235 127.4008560  41.9473394
  79.7244370 127.7154710  42.7983537  80.9824677 127.4789980  41.9900727
  73.2059394 124.2218450  45.9572959  73.7803146 123.9993632  45.2246152
  73.7930377 124.2907145  46.7101561  82.2638971 130.1092177  46.7637336
  82.7770853 130.7422169  47.2659046  82.9140195 129.5093372  46.3980696
  73.5328981 126.2522911  39.9768845  72.6966293 126.5897598  40.2978119
  73.3933751 126.1171891  39.0395982  75.5082062 121.0959699  44.6848029
  74.8546474 120.7808716  44.0604644  75.4662536 120.4735439  45.4107852
  76.6193267 131.3778994  36.6001321  75.7120328 131.1468247  36.7992470
  77.1164299 130.5816613  36.7875303  78.7419802 127.5841632  49.0095677
  77.8242364 127.8056579  48.8517365  79.1579946 127.6587943  48.1507384
  79.5254850 128.9833048  44.1398357  80.2726669 129.4954445  43.8305479
  79.7946439 128.6617101  45.0002750  77.7981500 131.4791589  41.1225311
  76.8892719 131.1950622  41.2197781  77.8276584 131.8990667  40.2628618
  81.9733687 126.0190164  46.1217146  81.2356444 125.5067551  46.4527389
  82.2260461 125.5790546  45.3100423  82.0745314 118.7966416  46.7158915
  82.3804191 117.9363780  46.4284830  82.7997919 119.3884037  46.5157909
  76.3466394 129.0920209  47.2235106  76.4015004 128.1394046  47.1477583
  75.5357596 129.2479649  47.7076405  74.2858754 127.7097269  44.9825485
  73.4726620 128.0091440  45.3890677  74.7817748 127.3152958  45.6999968
  79.8832966 128.1739094  53.8140379  80.2382353 128.4010567  54.6734845
  80.5305097 128.5057470  53.1917634  73.7772829 125.2815625  50.5986720
  74.4172208 125.1404384  49.9009684  72.9450359 124.9950138  50.2225322
  70.8615896 128.7261137  42.7881465  69.9313484 128.6645592  43.0051428
  70.9573368 128.2037090  41.9918107  70.7801445 125.2515950  45.3759707
  71.0408263 126.1661283  45.2668868  71.6018618 124.7840392  45.5256320
  72.2526371 126.6653707  52.5458532  72.9249424 126.4571069  51.8971181
  71.4256157 126.4675793  52.1063764  78.1551943 123.2915648  54.5624192
  77.5079858 123.9905597  54.4688669  78.9252958 123.7251792  54.9300441
  78.3316077 131.1296413  52.6221012  79.2608137 131.2807572  52.4489980
  77.9107107 131.2180434  51.7669659  72.6553868 129.9396310  53.3060969
  72.5173666 129.2076549  53.9072508  73.5658791 129.8505210  53.0245157
  81.6168815 131.8784714  38.0545447  80.9997986 131.1531542  37.9578500
  81.1485304 132.6394074  37.7112522  75.2836168 129.6516269  52.7944648
  75.9935787 129.0109461  52.7531267  75.2405477 129.9029164  53.7170829
  73.9965102 126.6381487  54.6140288  73.4602459 126.1872226  55.2661884
  73.4081811 126.7727396  53.8710752  73.4067361 126.0970139  37.1766752
  72.5296828 125.9758939  36.8128998  73.8825114 125.3056217  36.9245640
  69.7304224 125.7737495  51.6993282  69.6462412 125.1663164  50.9643692
  68.9086930 126.2646513  51.7002779  79.9027938 124.2591058  47.0663477
  80.3996637 123.5061021  46.7464548  79.1314919 124.2955375  46.5006687
  76.4862906 126.4008441  46.7935162  76.1160694 125.8479482  47.4816068
  76.9821999 125.7966575  46.2410162  84.3730270 128.8580065  45.1751935
  84.8390722 129.6908056  45.1012238  84.8237770 128.3925046  45.8797193
  82.3446932 121.2260652  49.2142836  81.4310012 121.4564879  49.3825043
  82.7740034 121.3099096  50.0656869  82.1153391 129.4150544  51.7142730
  81.4624841 129.6626451  51.0595183  82.4933771 128.6014682  51.3805208
  78.1640964 130.1570355  58.2008767  77.4881601 130.0564484  58.8711143
  78.9868598 130.0009569  58.6644765  71.8828240 123.8112432  53.0388268
  71.9469566 124.6727263  52.6265666  71.8195360 123.1986434  52.3060627
  71.3580512 125.8835565  56.6861302  71.9852551 125.5012642  57.2998827
  70.5008431 125.6649767  57.0516995  68.1346055 127.6911994  42.6179657
  68.4299496 126.7822672  42.5646711  67.2334091 127.6699733  42.2960660
  71.6640302 125.7667990  48.6007206  70.9426888 126.3803958  48.4614679
  72.4533558 126.3025755  48.5223852  74.4666616 123.1022417  54.8747858
  74.9901018 123.3484713  55.6374167  74.2478949 123.9342452  54.4550995
  69.8633897 125.3726091  42.7418982  69.5346603 124.4923470  42.5594088
  70.2173268 125.3173760  43.6295372  72.9775720 125.6599061  43.1094460
  73.3171792 126.1884982  42.3873068  73.4247840 125.9979467  43.8853027
  75.6719161 124.0436112  52.5597528  75.3315981 123.2443925  52.9618208
  74.9658167 124.3437823  51.9874361  76.3235633 121.1285424  51.0124851
  77.1461702 120.6545903  50.8903741  76.5673696 121.9075908  51.5123537
  74.9643867 124.1573683  41.3087753  75.6852230 124.5354936  40.8051470
  74.3409171 124.8762560  41.4122731  79.1074990 124.8618832  42.2446085
  79.3238604 125.7443470  41.9434913  78.6269057 124.4705045  41.5151727
  73.8474211 127.8204545  48.8216830  73.7018792 128.1344848  49.7141111
  73.3699415 128.4389445  48.2687728  75.7070594 124.8107093  48.8697719
  75.6932163 123.9148186  48.5330017  76.4243022 124.8177757  49.5036005
  77.5596725 125.2444433  50.9150847  77.3014503 126.1661504  50.9135177
  77.0281765 124.8474868  51.6051311  75.1107490 123.6921473  44.1385289
  75.2323401 122.7638119  44.3376177  74.8209533 123.7060159  43.2263605
  77.9798681 121.3776384  47.2752009  78.0020377 121.4415717  46.3203989
  78.3966740 120.5380892  47.4692515  74.5948570 125.2053471  58.3475222
  74.6436725 126.0815593  57.9652992  75.1371084 124.6630864  57.7746865
  82.4905053 128.5817988  56.2568394  83.3914916 128.4424453  55.9652392
  82.5653027 128.7472443  57.1966572  76.8247858 125.9584843  55.1021581
  75.9551168 126.2518409  54.8304169  77.0607339 126.5425288  55.8228844
  84.9506676 130.1416616  53.6531167  85.4260797 130.3344263  52.8450019
  84.0272241 130.1975802  53.4074551  79.5286892 122.1764460  52.6187001
  80.0468836 122.9125487  52.2933490  79.1742025 122.4828453  53.4533760
  71.1085830 127.0369141  40.7348407  70.4155075 127.1113496  40.0788443
  70.8637582 126.2729485  41.2569924  79.7799486 118.5964742  48.1387898
  80.0601240 117.9287932  48.7648324  80.5650093 118.7893838  47.6262561
  83.6508345 127.0182376  51.8859473  84.6025767 127.1180474  51.9071697
  83.4811795 126.2260645  52.3957557  81.6722724 124.1037960  52.0718874
  81.0772656 124.3842972  51.3765362  81.3872421 124.5931861  52.8435615
  77.9679753 129.1084549  37.0428976  78.9138858 128.9790757  37.1117394
  77.5893998 128.3699211  37.5198405  86.2790911 127.0299540  51.0460056
  85.7629959 126.2457996  50.8589984  87.1630859 126.7018256  51.2106575
  83.9401638 120.7740555  47.0055868  83.7426459 120.4655643  47.8899200
  84.5501343 121.5002194  47.1353798  76.1522670 127.0334526  36.9783862
  75.2454126 126.7367638  37.0546575  76.4298651 126.7364344  36.1118148
  77.7684736 121.5771415  43.1328103  76.9585464 121.2318500  43.5083349
  78.4569153 121.2678959  43.7215715  79.6975284 120.6549462  44.7552400
  80.2506323 121.0744915  45.4142423  79.9345371 119.7285210  44.7975356
  75.7208384 126.6436536  60.5355164  75.6205110 127.5930893  60.4667255
  75.5029926 126.3154775  59.6631234  74.9221455 123.8921461  37.1195841
  75.7840619 124.2176359  37.3791658  75.1071799 123.1052957  36.6068907
  83.0754091 122.7649987  44.2631064  82.4952760 123.4234791  43.8809116
  82.8090024 121.9427332  43.8518481  81.5257658 122.1655045  46.4652384
  82.0257436 122.2771579  45.6566703  82.1693266 121.8616098  47.1053193
  75.5839654 130.0733675  59.3520225  75.1006735 130.8734035  59.5584114
  75.6700593 130.0841619  58.3987669  81.8578969 124.9250078  43.3187412
  80.9704824 125.2099728  43.1007607  82.2732959 124.7643841  42.4714689
  85.2093506 124.9496599  47.0341751  85.9853896 125.4393051  47.3066368
  84.4841640 125.3754653  47.4913621  87.6466064 125.6624218  48.0915692
  88.2410555 125.4219954  47.3809000  87.7192648 124.9431348  48.7189228
  81.8319993 130.4404614  43.5337702  81.7755195 130.8973165  42.6945335
  82.3848336 129.6795298  43.3560545  85.6424799 126.2294345  44.3587822
  85.3861733 125.8290981  45.1896029  85.0177667 126.9438139  44.2337961
  82.5654773 131.6309395  40.8290231  82.5103576 131.4653666  39.8878676
  81.9400828 132.3385428  40.9852421  67.3547288 126.8677459  54.6551654
  68.0006151 126.3576413  55.1438879  67.1464439 127.6046141  55.2295079
  75.8750898 121.1317504  40.4075550  75.8629568 122.0759344  40.5643821
  76.7674320 120.9487649  40.1135011  79.6903017 117.7260280  44.6621487
  78.9235413 117.1718767  44.8078169  80.1013722 117.7982149  45.5235638
  71.6944778 124.0145076  58.7526668  72.5576240 123.6581881  58.9629992
  71.1210189 123.6758971  59.4402072  15.6636875  15.3465631  36.2834376
  16.3015285  15.2272379  35.5797716  15.5457718  16.2946475  36.3422328
  12.4726582  15.2993060  36.2195900  12.1345093  15.1834124  35.3316435
  13.3416350  14.8984225  36.1996906  12.9546365  16.4527911  42.1782106
  12.9435005  16.0580710  41.3062609  13.1167004  15.7193984  42.7715877
   5.8777829  18.6479728  35.0477012   6.6699121  18.3070552  34.6323311
   6.1174479  18.7574703  35.9679165   9.6753626  19.2365023  41.1261290
   9.3843492  20.1410654  41.0107956  10.3110610  19.2781551  41.8405359
  10.6009833  16.6141872  37.7162649  11.1973405  16.3897894  37.0019612
  10.6584804  15.8726617  38.3188097  20.6186571  13.0092318  34.2620562
  21.3511743  12.4391535  34.4958392  19.8625927  12.6213919  34.7027068
  18.1411991   6.7213893  38.7215171  17.8095316   7.5909304  38.4976386
  17.5457605   6.4050177  39.4009201  14.6343511  18.9226439  38.1211083
  14.3344234  19.8251477  38.0126891  14.2894570  18.6558622  38.9732236
  18.0340655  11.4408979  35.8008521  17.1257532  11.3724387  35.5067282
  17.9828250  11.9180924  36.6290346   9.6164291  25.6870759  31.0882051
   9.5388320  26.6378584  31.1670532   9.0125934  25.3416631  31.7456977
  12.1081520  12.8598624  43.7443418  11.3314854  13.4192544  43.7346283
  12.7472083  13.3455407  44.2658288  19.9002301   9.6425417  37.5786395
  19.2576681   9.9357950  36.9326189  19.3957229   9.5278338  38.3839591
  10.3627893  15.6684078  43.3061385  11.1042577  16.2069122  43.0296209
   9.6564878  16.2950366  43.4632937  15.8383232  17.8113218  41.9033547
  16.2466588  17.3695629  41.1588179  15.1160494  17.2365846  42.1567739
  12.1914302  12.7485825  39.2767103  13.0375498  13.1725239  39.4201752
  12.1312940  12.0919449  39.9705667  16.1612047  18.3714409  35.6585835
  15.5320909  18.5360123  34.9561903  15.7737709  18.7856018  36.4296799
  20.0401279  19.3068847  33.0130199  19.3552317  19.6867748  32.4627232
  20.1245128  19.9164173  33.7462147  15.3413748  10.4090193  40.9348277
  15.0974680  11.1632254  40.3982553  15.6173678  10.7875541  41.7695524
  17.2952210  16.9528806  39.6125543  17.5069106  17.5960566  38.9359924
  17.2481959  16.1191122  39.1447473  11.7140009  18.1088817  32.9235921
  12.1778354  18.3876520  32.1340543  11.4496807  17.2072261  32.7409011
   8.6064090  17.6560298  35.8615684   9.1765447  18.0847567  35.2233168
   9.1972202  17.3742883  36.5599869   9.0989256  12.8223726  44.1076695
   8.4687917  13.5040007  44.3412092   8.9925344  12.7106808  43.1629833
  18.4098038  19.8300761  37.7847900  19.2315482  19.4280948  37.5030582
  18.4060441  19.7268995  38.7364016  12.1754642  19.3784804  39.9408611
  12.2399074  19.8405212  40.7766782  11.4665566  18.7482169  40.0690920
  26.5004031  16.1739510  34.1332872  25.7467740  15.6046908  33.9776876
  26.6351573  16.1402174  35.0803506   7.1526942  21.6794106  32.4638269
   7.3293570  22.6012071  32.2759253   7.9483775  21.3652525  32.8932649
  13.5171136  21.6676478  43.9387933  13.0734990  20.8812857  43.6208837
  14.1788349  21.8555629  43.2731824   8.2758257  23.1972280  38.4648611
   8.8265682  23.0689343  37.6925605   7.4369733  23.4967169  38.1143504
  15.6152374  21.9479278  41.9669334  15.5970849  22.7688159  41.4749603
  16.5372294  21.8233354  42.1919475  12.0725428  19.4623408  42.8092843
  12.6053765  18.7011696  42.5792151  11.5439509  19.1697060  43.5516997
  18.4170987  16.7858421  35.4378701  17.7594661  17.4757682  35.5258830
  19.2211386  17.1754853  35.7812687  17.2276446  15.1402793  33.4882643
  17.7408327  15.7732785  33.9904352  17.8777669  14.5403989  33.1226003
  13.7057276  12.6152249  35.7340983  12.7879838  12.8367196  35.5762671
  14.1217420  12.6898559  34.8752691  17.9938242  20.1208795  31.6161785
  17.5400569  19.2799705  31.6726976  17.3632209  20.7570193  31.9536565
  16.4371181  21.9585292  32.5511603  16.7294155  22.5190349  31.8323969
  16.9469802  22.2513853  33.3064763  11.4004806  22.7365643  33.6405057
  11.3580985  22.9626489  32.7113589  12.3167505  22.5029017  33.7890858
  14.8470440  13.2049710  40.5385686  15.2019828  13.4321183  41.3980152
  15.4942571  13.5368087  39.9162941  20.5768177  16.3268146  31.2435015
  20.4386076  16.5169742  30.3156204  20.2204396  17.0887529  31.7003066
  20.6037557  18.3944673  36.2546286  21.0374063  18.3019962  37.1029340
  21.3169137  18.3702174  35.6166302   9.5170607  19.6128672  33.4367019
  10.3111206  19.1178992  33.2349594   8.8062299  19.0846535  33.0734725
  14.3365451  21.9946767  37.7879387  14.3902474  22.5637704  38.5557103
  13.4680233  22.1648652  37.4233424  21.4653106  18.4368374  38.7879172
  21.6588996  19.3414184  39.0338447  21.3653724  17.9775793  39.6217757
  16.5268215  18.5875117  44.3620052  16.3753721  18.3585668  43.4450136
  16.5172894  19.5445718  44.3751397  13.2953551  16.1607029  39.3466319
  14.2245611  16.3118189  39.1735286  12.8744581  16.2491050  38.4914965
  12.0941883  20.1857694  37.1164856  11.9552969  19.8176478  37.9890795
  11.3056479  20.7005333  36.9448814  12.6890035  25.2866790  28.4590393
  12.8641791  24.8154833  29.2736016  12.0022823  25.9132556  28.6871654
  13.6447098  19.5639296  34.5053694  13.3096931  19.5240066  35.4011344
  13.1451044  18.8984012  34.0324104   7.6191342  14.9706926  40.0306275
   7.4811140  14.2387165  40.6317814   8.5296266  14.8815827  39.7490463
  10.2473643  14.6826886  39.5189955  10.9573261  14.0420078  39.4776573
  10.2042951  14.9339781  40.4416136  18.2360421  21.6194239  42.4396534
  18.1772968  20.9353459  41.7727117  18.6379940  22.3613229  41.9877160
   7.2551120  28.4356153  35.2330253   7.4947718  29.0674677  35.9109272
   6.4120317  28.0844193  35.5195612  18.2377829  19.5833823  40.6710514
  17.3504607  19.2459745  40.7936913  18.8076380  18.8516854  40.9079279
  11.7678982  24.2435275  37.6371757  11.6949154  25.0490247  38.1491062
  11.3256375  24.4427241  36.8119779  11.5568762  23.4807045  31.1474579
  10.7736284  24.0228726  31.2412803  12.2561507  23.9981025  31.5468820
  22.7195169  14.9942040  35.4327076  22.7085046  15.8766756  35.0621009
  21.8512549  14.6413591  35.2381613  14.2277666  24.1422109  39.7929916
  14.9405638  24.7769574  39.7205817  13.7367694  24.2385975  38.9769918
  15.9495193  18.0473362  31.3647207  15.0151471  18.1674825  31.1951912
  16.1271861  17.1445829  31.1007217  19.3367744  13.8890681  31.8997242
  19.8028196  14.7218673  31.8257544  19.7875244  13.4235663  32.6042500
   9.2789579  21.8916553  40.6135487   9.9799039  22.5253036  40.7664881
   8.8084694  22.2331284  39.8531126  17.0790865  14.4461160  38.4388037
  16.4262315  14.6937068  37.7840490  17.4571245  13.6325299  38.1050514
  14.0398039  24.4820854  32.5416207  14.2220434  23.6642509  33.0043960
  14.8631025  24.6988546  32.1041097  14.3740205  23.4089039  29.8031256
  14.9027971  22.8981493  29.1901418  14.6368424  23.0931569  30.6676789
  13.1278438  15.1880971  44.9254074  12.4519075  15.0875101  45.5956449
  13.9506072  15.0320185  45.3890071   4.8757297  21.4252908  37.5466589
   5.4610734  20.6796596  37.6794493   4.6782136  21.7356865  38.4303253
   7.7295952  24.4604155  32.5629032   7.0606328  24.9450283  32.0793072
   7.5908822  24.7073376  33.4772410  11.8701221  26.4947899  39.1611690
  12.4219529  26.6579520  39.9260775  12.2107415  27.0852337  38.4891715
  16.7212095  21.3209156  45.0160344  17.2651999  21.9339115  44.5215299
  16.1398940  21.8788735  45.5327357  15.0069608  24.4429874  36.1475372
  14.8820748  23.6419614  35.6386318  15.6648699  24.9376068  35.6589342
  17.0704517  22.2438894  37.7754922  16.1234852  22.1244246  37.7033249
  17.4187290  21.3561392  37.8581184  14.0750950  22.0391611  33.9759275
  13.9275912  21.1108318  34.1566845  14.9004444  22.0611701  33.4916350
  17.6785072  22.8620169  35.0624147  18.6031619  22.6563031  34.9248598
  17.5100375  22.6136571  35.9713489  17.4680388  23.3805837  30.4186239
  17.6417266  22.8152259  29.6660091  17.9609279  24.1806732  30.2365729
  23.3219779  16.1442260  32.0376538  23.7650925  15.3949585  31.6395662
  22.4446290  16.1352396  31.6550270  18.4555561  22.6972601  27.5183137
  19.1506465  23.3179294  27.7370452  18.7978711  21.8467952  27.7935515
  20.3546984  20.1472307  29.0470468  20.8798308  20.4859580  28.3219788
  20.2669336  19.2119322  28.8633602  12.0167032  24.0606380  41.1760344
  12.3254159  23.8155527  42.0483044  12.8142514  24.2653019  40.6879215
  12.0387644  26.2144290  33.4065721  11.5992635  25.7220669  34.0998578
  12.7895761  25.6717258  33.1657796   4.5179983  22.4055831  33.4090349
   5.3438003  22.1059603  33.0288993   4.1674035  21.6363453  33.8580138
   9.4861517  21.7582299  35.4788023   8.8641526  21.0953004  35.1790250
  10.1566383  21.7843431  34.7961670  20.0440890  20.7805210  44.3521666
  19.2536433  20.7629349  43.8126165  19.8074244  21.3193504  45.1070702
  20.1638765  17.6297677  41.6654394  20.2136770  17.4647684  42.6069917
  20.0552688  16.7624936  41.2752275  17.4542527  13.6128605  42.9813701
  18.3552390  13.4735070  42.6897699  17.5290502  13.7783060  43.9211878
  11.7885332  10.9895460  41.8266887  10.9188642  11.2829026  41.5549476
  12.0244813  11.5735905  42.5474151  21.6656962  20.0494618  41.9096416
  21.3741770  20.4124599  42.7459877  21.0529093  19.3361627  41.7309748
  22.8652644  17.6147498  34.4298986  23.6999535  18.0537302  34.5936546
  23.0011773  17.1386151  33.6107232  19.9144150  15.1727233  40.3776474
  20.3898271  15.3654879  39.5695325  18.9909715  15.2286419  40.1319857
  18.6145819  12.0492993  38.6104779  19.5663242  12.1491091  38.6317003
  18.4449269  11.2571262  39.1202864  16.6360198   9.1348576  38.7964180
  16.0410130   9.4153589  38.1010669  16.3509895   9.6242477  39.5680921
  21.0933897  15.2699113  37.7247079  21.0610217  14.3315113  37.9106763
  21.7034520  15.3483149  36.9912904  21.2428385  12.0610156  37.7705362
  20.7267434  11.2768613  37.5835291  22.1268334  11.7328873  37.9351882
  26.9110446  16.3315120  36.8653116  27.6413835  16.0700408  37.4260819
  26.3017392  15.5943841  36.9055184  24.9925744  14.4722982  37.4627567
  24.2658907  14.3378947  36.8544059  24.5773030  14.7799811  38.2684285
  12.8155920  18.1912912  45.2274940  13.7358929  18.3691511  45.4214987
  12.7805503  17.2468957  45.0754639   5.8117993  16.1013946  37.8697721
   6.0304002  17.0331054  37.8885755   6.2243766  15.7421921  38.6552525
  10.6845858  11.6747152  47.2600470  10.5842585  12.6241509  47.1912561
  10.4667400  11.3465391  46.3876540  10.5477128  15.1044291  46.0765532
  10.0644210  15.9044651  46.2829421  10.6338067  15.1152236  45.1232976
   6.4750465  18.9948826  38.1133966   7.4293719  18.9632768  38.0463897
   6.2762989  18.5339450  38.9284192   7.0649848  17.5649942  40.6804763
   7.8842737  18.0594020  40.7039601   7.3386655  16.6481910  40.6522331
  20.1730980   9.9807215  33.7587058  20.9491370  10.4703668  34.0311675
  19.4479114  10.4065269  34.2158928  22.6103539  10.6934834  34.8160999
  23.2048029  10.4530570  34.1054307  22.6830122   9.9741965  35.4434535
   4.8300694  24.5368445  35.1304163   4.6955162  23.7768846  34.5642162
   4.4132756  25.2609345  34.6632952  24.9174611  14.0001035  33.5904420
  24.3574169  14.0694224  34.3635982  24.3118115  13.8242020  32.8703916
   7.9869820  25.4337762  35.3422606   7.8702204  26.3783195  35.2401296
   7.1662266  25.1311324  35.7308405  14.8438154  18.9668923  46.8789101
  15.7129314  19.1409575  46.5175736  14.3644905  19.7863340  46.7564830
   9.0124334  26.0866024  38.5578535   9.9151581  26.1189634  38.8745029
   8.7861704  25.1566475  38.5724870  10.7677936  24.8397011  35.2188613
   9.8173567  24.8398872  35.1052985  11.0710422  24.0929745  34.7024648
  26.5030630  30.6757549  36.2834376  27.1409040  30.5564296  35.5797716
  26.3851473  31.6238393  36.3422328  23.3120336  30.6284977  36.2195900
  22.9738848  30.5126042  35.3316435  24.1810104  30.2276142  36.1996906
  19.1707152  32.4820454  32.2092791  18.6072017  32.3910391  31.4409079
  19.0559547  31.6620358  32.6895284  23.7940119  31.7819829  42.1782106
  23.7828760  31.3872627  41.3062609  23.9560758  31.0485902  42.7715877
  16.7171584  33.9771645  35.0477012  17.5092876  33.6362470  34.6323311
  16.9568234  34.0866620  35.9679165  24.7506710  36.1491421  27.5207256
  24.0994690  36.7345502  27.1341270  25.5451073  36.6797616  27.5802294
  18.6762338  33.2380558  27.9194390  19.4493214  32.6909546  27.7807266
  19.0287736  34.1024808  28.1308852  20.5147380  34.5656941  41.1261290
  20.2237246  35.4702572  41.0107956  21.1504365  34.6073468  41.8405359
  21.4403587  31.9433789  37.7162649  22.0367159  31.7189812  37.0019612
  21.4978559  31.2018535  38.3188097  21.0128615  29.3973225  25.5512840
  21.2654136  28.8754746  24.7896303  20.0753174  29.2339370  25.6539524
  26.0571898  28.4009003  33.3587584  26.8434987  27.9828426  33.0078001
  26.3210603  29.3055095  33.5269232  26.2281976  33.8381853  28.0576240
  25.5927809  33.9116480  28.7697145  25.8979382  34.4275452  27.3795320
  31.4580325  28.3384236  34.2620562  32.1905497  27.7683453  34.4958392
  30.7019681  27.9505837  34.7027068  20.7324904  31.3001331  27.7537215
  20.6161162  30.6246234  28.4218300  20.8427164  30.8133704  26.9369368
  23.0756445  30.7611478  31.4583905  22.7114652  30.2342099  32.1696826
  23.9323561  30.3709947  31.2850390  28.9805746  22.0505810  38.7215171
  28.6489070  22.9201221  38.4976386  28.3851359  21.7342094  39.4009201
  22.7161932  25.7901377  26.4545253  22.8836334  26.6581614  26.8215724
  22.5259101  25.9528659  25.5306542  25.4737265  34.2518356  38.1211083
  25.1737988  35.1543395  38.0126891  25.1288325  33.9850539  38.9732236
  18.9249747  30.7032153  34.1547788  18.0000243  30.5708367  34.3625480
  19.1734160  31.4826372  34.6517730  28.8734409  26.7700896  35.8008521
  27.9651286  26.7016305  35.5067282  28.8222005  27.2472841  36.6290346
  22.6951153  28.2459035  27.4391920  22.5750778  28.6916086  28.2777400
  22.0003741  28.5944353  26.8805458  16.2858558  30.3465427  34.9891577
  16.4150939  30.5999906  35.9030989  15.6056009  30.9393135  34.6696232
  20.4558045  41.0162677  31.0882051  20.3782075  41.9670502  31.1670532
  19.8519689  40.6708549  31.7456977  22.9475275  28.1890542  43.7443418
  22.1708609  28.7484462  43.7346283  23.5865838  28.6747325  44.2658288
  30.7396055  24.9717335  37.5786395  30.0970436  25.2649868  36.9326189
  30.2350984  24.8570255  38.3839591  28.3936219  28.7180508  28.2672254
  29.3054075  28.9507895  28.0919951  27.8845866  29.3017552  27.7047333
  21.2021647  30.9975995  43.3061385  21.9436331  31.5361039  43.0296209
  20.4958633  31.6242284  43.4632937  26.6776987  33.1405136  41.9033547
  27.0860343  32.6987546  41.1588179  25.9554248  32.5657763  42.1567739
  23.0308057  28.0777743  39.2767103  23.8769252  28.5017156  39.4201752
  22.9706694  27.4211367  39.9705667  27.0005801  33.7006326  35.6585835
  26.3714664  33.8652041  34.9561903  26.6131463  34.1147936  36.4296799
  30.8795033  34.6360764  33.0130199  30.1946071  35.0159666  32.4627232
  30.9638883  35.2456091  33.7462147  26.1807502  25.7382111  40.9348277
  25.9368434  26.4924172  40.3982553  26.4567433  26.1167459  41.7695524
  28.1345965  32.2820723  39.6125543  28.3462860  32.9252483  38.9359924
  28.0875713  31.4483040  39.1447473  25.7372194  24.8938544  36.5162115
  24.8756673  25.1919798  36.8078852  25.7634629  25.1108943  35.5843147
  22.5533763  33.4380735  32.9235921  23.0172109  33.7168438  32.1340543
  22.2890561  32.5364179  32.7409011  19.4457844  32.9852216  35.8615684
  20.0159201  33.4139484  35.2233168  20.0365956  32.7034801  36.5599869
  21.4902649  29.5603887  29.7325486  22.1926693  30.0124931  30.1999412
  21.1583278  28.9187706  30.3605379  19.9383011  28.1515644  44.1076695
  19.3081671  28.8331924  44.3412092  19.8319099  28.0398725  43.1629833
  15.2327983  27.8187440  35.0342619  14.4427037  28.0744968  34.5582730
  15.7239231  28.6335777  35.1394660  29.2491793  35.1592679  37.7847900
  30.0709237  34.7572866  37.5030582  29.2454196  35.0560913  38.7364016
  17.1842729  28.1832019  31.9926096  16.3873892  28.2950713  32.5109592
  16.9568321  28.5218671  31.1266986  23.0148396  34.7076722  39.9408611
  23.0792829  35.1697129  40.7766782  22.3059320  34.0774087  40.0690920
  13.5165686  28.0717930  37.4657610  13.7673725  28.9564940  37.7315186
  14.0525235  27.8922532  36.6932702  37.3397786  31.5031427  34.1332872
  36.5861494  30.9338825  33.9776876  37.4745327  31.4694092  35.0803506
  22.7296414  36.3744830  29.8087591  22.5942089  37.2196365  30.2372439
  23.2706226  36.5764107  29.0453525  19.2163754  22.4536409  46.4701946
  18.8230699  21.9002608  47.1449590  20.0329894  22.7646988  46.8608464
  16.1825811  33.8920268  30.3815516  16.6950332  34.6863518  30.5321081
  16.8348524  33.1946558  30.3149117  17.9920696  37.0086024  32.4638269
  18.1687324  37.9303989  32.2759253  18.7877530  36.6944443  32.8932649
  22.1331715  23.8694289  44.0622203  22.8741428  24.4701442  43.9826665
  22.3649637  23.1271926  43.5040245  17.2773053  29.0550656  42.3400432
  17.1626568  28.1535913  42.6407531  16.4217570  29.3014353  41.9885249
  24.3564890  36.9968396  43.9387933  23.9128745  36.2104775  43.6208837
  25.0182104  37.1847547  43.2731824  19.1152012  38.5264198  38.4648611
  19.6659437  38.3981261  37.6925605  18.2763487  38.8259087  38.1143504
  26.4546128  37.2771196  41.9669334  26.4364604  38.0980077  41.4749603
  27.3766048  37.1525271  42.1919475  22.9119183  34.7915325  42.8092843
  23.4447519  34.0303614  42.5792151  22.3833264  34.4988977  43.5516997
  26.0788878  19.8975391  38.3386484  25.7353147  20.7877033  38.2625595
  26.4467840  19.7077049  37.4756069  14.1474728  32.2208922  31.1575086
  14.9849950  32.6305930  30.9408794  14.3252996  31.2808364  31.1275280
  26.0439160  29.8884003  26.8458919  25.5285784  30.6588607  27.0847307
  25.7716469  29.2149139  27.4691981  23.6286271  24.7333703  31.9044158
  22.7727868  24.3440554  31.7249797  24.0413223  24.8125664  31.0443943
  25.1585418  22.2680047  36.3035718  24.6550213  22.2310182  35.4903523
  25.4516025  23.1772789  36.3632374  21.4028304  22.3518776  35.3101899
  22.2681301  22.1561585  34.9507789  21.4705813  22.1229128  36.2371256
  31.0173434  32.6416357  28.7812093  30.2402877  32.3027517  28.3367255
  31.6964915  32.6468980  28.1067058  25.8325463  27.7611095  28.6718701
  25.5275599  28.0757244  29.5228844  26.7855906  27.8392515  28.7146034
  24.2771895  33.9201318  30.3211655  23.7493257  33.1854078  30.0084892
  23.7759398  34.6975994  30.0751623  29.2564741  32.1150338  35.4378701
  28.5988416  32.8049600  35.5258830  30.0605140  32.5046770  35.7812687
  19.0090623  24.5820984  32.6818266  19.5834375  24.3596166  31.9491459
  19.5961605  24.6509679  33.4346867  28.0670200  30.4694711  33.4882643
  28.5802082  31.1024703  33.9904352  28.7171424  29.8695907  33.1226003
  19.3360210  26.6125445  26.7014151  18.4997522  26.9500132  27.0223426
  19.1964980  26.4774425  25.7641288  21.3113291  21.4562233  31.4093336
  20.6577703  21.1411250  30.7849950  21.2693765  20.8337974  32.1353158
  22.4224495  31.7381528  23.3246628  21.5151557  31.5070782  23.5237777
  22.9195527  30.9419147  23.5120609  25.3292574  40.4479035  26.2443314
  24.6554273  40.7510732  26.8528272  25.7158396  41.2508116  25.8948771
  24.5451031  27.9444167  35.7340983  23.6273592  28.1659114  35.5762671
  24.9611175  28.0190477  34.8752691  25.3286079  29.3435582  30.8643663
  26.0757898  29.8556980  30.5550785  25.5977668  29.0219635  31.7248057
  23.6012729  31.8394123  27.8470618  22.6923948  31.5553156  27.9443087
  23.6307813  32.2593202  26.9873925  28.8331996  35.4500713  31.6161785
  28.3794323  34.6091622  31.6726976  28.2025963  36.0862111  31.9536565
  27.7764916  26.3792699  32.8462453  27.0387673  25.8670085  33.1772695
  28.0291689  25.9393080  32.0345730  27.2764936  37.2877209  32.5511603
  27.5687910  37.8482266  31.8323969  27.7863556  37.5805770  33.3064763
  27.8776543  19.1568951  33.4404222  28.1835420  18.2966314  33.1530137
  28.6029148  19.7486571  33.2403216  14.1700899  29.5599637  31.8285820
  13.9725299  28.9668998  31.1036886  13.6147563  29.2551847  32.5461759
  22.1497623  29.4522744  33.9480413  22.2046233  28.4996580  33.8722890
  21.3388825  29.6082183  34.4321711  23.2988817  33.3802867  25.1858696
  22.8608247  32.6638726  24.7264334  24.0399258  33.6078982  24.6243788
  20.0889983  28.0699803  31.7070792  19.2757848  28.3693974  32.1135984
  20.5848977  27.6755492  32.4245274  22.2398561  38.0657560  33.6405057
  22.1974740  38.2918407  32.7113589  23.1561260  37.8320935  33.7890858
  25.6864195  28.5341628  40.5385686  26.0413582  28.7613101  41.3980152
  26.3336326  28.8660005  39.9162941  31.4161931  31.6560064  31.2435015
  31.2779830  31.8461660  30.3156204  31.0598150  32.4179447  31.7003066
  19.5804058  25.6418159  37.3232027  20.2203437  25.5006918  36.6254990
  18.7481588  25.3552672  36.9470629  31.4431311  33.7236591  36.2546286
  31.8767818  33.6311880  37.1029340  32.1562892  33.6994091  35.6166302
  20.3564362  34.9420589  33.4367019  21.1504960  34.4470910  33.2349594
  19.6456054  34.4138453  33.0734725  25.1759206  37.3238685  37.7879387
  25.2296228  37.8929621  38.5557103  24.3073987  37.4940570  37.4233424
  16.6647125  29.0863671  29.5126772  15.7344713  29.0248127  29.7296734
  16.7604597  28.5639624  28.7163413  16.5832674  25.6118484  32.1005014
  16.8439491  26.5263817  31.9914174  17.4049846  25.1442927  32.2501627
  18.0557599  27.0256241  39.2703838  18.7280653  26.8173603  38.6216487
  17.2287386  26.8278327  38.8309071  32.3046861  33.7660291  38.7879172
  32.4982751  34.6706102  39.0338447  32.2047479  33.3067711  39.6217757
  23.9583171  23.6518182  41.2869499  23.3111086  24.3508132  41.1933976
  24.7284187  24.0854326  41.6545747  27.3661969  33.9167034  44.3620052
  27.2147476  33.6877586  43.4450136  27.3566649  34.8737636  44.3751397
  24.1347306  31.4898947  39.3466319  25.0639366  31.6410107  39.1735286
  23.7138336  31.5782968  38.4914965  22.9335637  35.5149611  37.1164856
  22.7946723  35.1468396  37.9890795  22.1450234  36.0297251  36.9448814
  23.5283789  40.6158708  28.4590393  23.7035545  40.1446751  29.2736016
  22.8416577  41.2424474  28.6871654  24.4840853  34.8931214  34.5053694
  24.1490685  34.8531984  35.4011344  23.9844798  34.2275930  34.0324104
  18.4585097  30.2998844  40.0306275  18.3204895  29.5679083  40.6317814
  19.3690020  30.2107744  39.7490463  27.4200044  32.2387248  24.7790754
  26.8029215  31.5134077  24.6823807  26.9516533  32.9996609  24.4357828
  21.0867397  30.0118803  39.5189955  21.7967016  29.3711996  39.4776573
  21.0436705  30.2631698  40.4416136  29.0754176  36.9486157  42.4396534
  29.0166722  36.2645377  41.7727117  29.4773694  37.6905147  41.9877160
  19.7996331  26.9984021  41.3385595  19.2633688  26.5474760  41.9907191
  19.2113040  27.1329930  40.5956059  18.0944875  43.7648071  35.2330253
  18.3341473  44.3966595  35.9109272  17.2514071  43.4136111  35.5195612
  29.0771583  34.9125741  40.6710514  28.1898362  34.5751662  40.7936913
  29.6470134  34.1808772  40.9079279  10.7300730  31.2449832  33.9953565
  11.4171770  30.9311562  33.4074581  10.5748859  32.1491197  33.7220817
  15.5335452  26.1340029  38.4238589  15.4493641  25.5265699  37.6888999
  14.7118159  26.6249047  38.4248085  22.6072737  39.5727193  37.6371757
  22.5342908  40.3782165  38.1491062  22.1650130  39.7719159  36.8119779
  22.3962516  38.8098963  31.1474579  21.6130038  39.3520643  31.2412803
  23.0955261  39.3272943  31.5468820  25.7059166  24.6193593  33.7908784
  26.2027866  23.8663555  33.4709854  24.9346148  24.6557909  33.2251993
  33.5588924  30.3233958  35.4327076  33.5478800  31.2058673  35.0621009
  32.6906303  29.9705509  35.2381613  25.0671420  39.4714027  39.7929916
  25.7799392  40.1061492  39.7205817  24.5761449  39.5677893  38.9769918
  26.7888947  33.3765280  31.3647207  25.8545226  33.4966742  31.1951912
  26.9665616  32.4737747  31.1007217  22.2894135  26.7610976  33.5180469
  21.9191923  26.2082016  34.2061374  22.7853228  26.1569109  32.9655469
  30.1761498  29.2182599  31.8997242  30.6421951  30.0510591  31.8257544
  30.6268999  28.7527581  32.6042500  20.1183334  37.2208471  40.6135487
  20.8192793  37.8544954  40.7664881  19.6478449  37.5623202  39.8531126
  28.2437730  35.5626420  28.8983394  28.5197573  35.4483015  29.8077268
  27.3742228  35.1643905  28.8595567  28.1478161  21.5863186  35.9388143
  27.2341241  21.8167413  36.1070350  28.5771263  21.6701630  36.7902175
  27.9184620  29.7753078  38.4388037  27.2656070  30.0228985  37.7840490
  28.2965000  28.9617216  38.1050514  24.8791794  39.8112771  32.5416207
  25.0614188  38.9934427  33.0043960  25.7024780  40.0280463  32.1041097
  25.2133959  38.7380956  29.8031256  25.7421725  38.2273411  29.1901418
  25.4762179  38.4223487  30.6676789  23.9672193  30.5172889  44.9254074
  23.2912830  30.4167018  45.5956449  24.7899827  30.3612103  45.3890071
  15.7151052  36.7544826  37.5466589  16.3004489  36.0088514  37.6794493
  15.5175890  37.0648782  38.4303253  18.5689707  39.7896073  32.5629032
  17.9000082  40.2742201  32.0793072  18.4302577  40.0365293  33.4772410
  10.3068706  29.3250426  36.2671032  10.3452806  28.7914016  37.0608151
   9.8008999  28.7985631  35.6482010  22.7094976  41.8239817  39.1611690
  23.2613284  41.9871438  39.9260775  23.0501169  42.4144254  38.4891715
  17.6859469  24.1714966  39.7633575  17.7500795  25.0329797  39.3510972
  17.6226589  23.5588968  39.0305933  17.1611741  26.2438099  43.4106609
  17.7883780  25.8615176  44.0244133  16.3039660  26.0252301  43.7762301
  27.5605850  36.6501074  45.0160344  28.1045754  37.2631032  44.5215299
  26.9792695  37.2080652  45.5327357  13.9377284  28.0514528  29.3424964
  14.2330725  27.1425206  29.2892018  13.0365320  28.0302267  29.0205966
  25.8463363  39.7721792  36.1475372  25.7214502  38.9711532  35.6386318
  26.5042454  40.2667985  35.6589342  17.4671531  26.1270525  35.3252512
  16.7458117  26.7406492  35.1859986  18.2564787  26.6628289  35.2469158
  27.9098271  37.5730812  37.7754922  26.9628607  37.4536163  37.7033249
  28.2581044  36.6853310  37.8581184  20.2697845  23.4624951  41.5993164
  20.7932246  23.7087248  42.3619473  20.0510178  24.2944986  41.1796302
  15.6665126  25.7328626  29.4664289  15.3377832  24.8526005  29.2839395
  16.0204496  25.6776294  30.3540678  24.9144705  37.3683528  33.9759275
  24.7669667  36.4400236  34.1566845  25.7398198  37.3903619  33.4916350
  18.7806949  26.0201595  29.8339767  19.1203021  26.5487517  29.1118375
  19.2279069  26.3582002  30.6098333  28.5178826  38.1912087  35.0624147
  29.4425374  37.9854948  34.9248598  28.3494130  37.9428488  35.9713489
  21.4750390  24.4038646  39.2842835  21.1347210  23.6046459  39.6863515
  20.7689396  24.7040357  38.7119668  22.1266861  21.4887959  37.7370158
  22.9492931  21.0148437  37.6149048  22.3704925  22.2678442  38.2368844
  20.7675096  24.5176217  28.0333059  21.4883458  24.8957470  27.5296776
  20.1440400  25.2365094  28.1368037  24.9106219  25.2221366  28.9691392
  25.1269833  26.1046004  28.6680220  24.4300286  24.8307579  28.2397034
  19.6505440  28.1807079  35.5462136  19.5050021  28.4947382  36.4386418
  19.1730644  28.7991980  34.9933035  21.5101823  25.1709627  35.5943026
  21.4963392  24.2750720  35.2575324  22.2274251  25.1780291  36.2281312
  23.3627954  25.6046967  37.6396153  23.1045732  26.5264038  37.6380484
  22.8312994  25.2077402  38.3296617  28.3074143  38.7097755  30.4186239
  28.4811020  38.1444177  29.6660091  28.8003034  39.5098649  30.2365729
  14.1251102  30.7212424  38.4849798  13.5804570  31.4972232  38.6170072
  15.0030452  31.0683228  38.3268919  20.9138719  24.0524007  30.8630596
  21.0354630  23.1240654  31.0621484  20.6240761  24.0662693  29.9508911
  23.7829909  21.7378918  33.9997316  23.8051606  21.8018251  33.0449295
  24.1997968  20.8983427  34.1937822  34.1613534  31.4734177  32.0376538
  34.6044680  30.7241503  31.6395662  33.2840044  31.4644314  31.6550270
  29.2949315  38.0264519  27.5183137  29.9900220  38.6471212  27.7370452
  29.6372465  37.1759870  27.7935515  14.9117124  29.8482320  41.3779954
  14.1698860  29.9964955  41.9644585  14.5909869  30.1090585  40.5146704
  31.1940738  35.4764224  29.0470468  31.7192062  35.8151497  28.3219788
  31.1063091  34.5411240  28.8633602  22.8560787  39.3898298  41.1760344
  23.1647913  39.1447445  42.0483044  23.6536269  39.5944937  40.6879215
  22.8781399  41.5436208  33.4065721  22.4386389  41.0512586  34.0998578
  23.6289516  41.0009175  33.1657796  15.3573738  37.7347749  33.4090349
  16.1831758  37.4351520  33.0288993  15.0067790  36.9655371  33.8580138
  20.3255271  37.0874217  35.4788023  19.7035280  36.4244922  35.1790250
  20.9960138  37.1135349  34.7961670  13.5582343  35.6534075  34.3679283
  12.7214251  35.2256249  34.1863284  13.5305988  35.8466518  35.3050074
  20.3979799  25.5656005  45.0720529  20.4467954  26.4418128  44.6898298
  20.9402313  25.0233398  44.4992172  30.8834644  36.1097128  44.3521666
  30.0930188  36.0921267  43.8126165  30.6467999  36.6485422  45.1070702
  31.0032519  32.9589594  41.6654394  31.0530524  32.7939602  42.6069917
  30.8946443  32.0916853  41.2752275  19.8868778  35.6378140  28.9546483
  20.0356898  36.3213605  28.3013156  20.6935221  35.6183230  29.4695939
  28.2936282  28.9420522  42.9813701  29.1946144  28.8026987  42.6897699
  28.3684256  29.1074977  43.9211878  22.6279087  26.3187377  41.8266887
  21.7582396  26.6120943  41.5549476  22.8638567  26.9027822  42.5474151
  32.5050716  35.3786536  41.9096416  32.2135524  35.7416517  42.7459877
  31.8922847  34.6653544  41.7309748  33.7046398  32.9439416  34.4298986
  34.5393290  33.3829220  34.5936546  33.8405527  32.4678069  33.6107232
  30.7537904  30.5019151  40.3776474  31.2292026  30.6946797  39.5695325
  29.8303470  30.5578336  40.1319857  17.6421411  31.6643318  29.9607552
  17.3967453  30.7605648  30.1587762  17.8117325  31.6660468  29.0187030
  25.3318121  22.5366994  39.3432308  25.8500065  23.2728021  39.0178796
  24.9773254  22.8430987  40.1779067  16.9117058  27.3971675  27.4593714
  16.2186303  27.4716030  26.8033750  16.6668810  26.6332019  27.9815230
  25.5830715  18.9567277  34.8633204  25.8632469  18.2890466  35.4893631
  26.3681322  19.1496372  34.3507868  23.3864183  38.1326271  26.4258231
  22.8138151  38.7516458  25.9728702  23.9596977  38.6825632  26.9598153
  29.4539573  27.3784911  38.6104779  30.4056996  27.4783008  38.6317003
  29.2843024  26.5863179  39.1202864  27.4753953  24.4640494  38.7964180
  26.8803885  24.7445507  38.1010669  27.1903650  24.9534395  39.5680921
  26.6061443  38.4163421  27.5566813  27.5392116  38.3508982  27.7599688
  26.5184656  39.2519688  27.0981346  29.2349460  37.7329291  24.5170760
  29.1563091  37.3989155  25.4106518  30.0559127  38.2251059  24.5162233
  31.9327651  30.5991030  37.7247079  31.9003971  29.6607031  37.9106763
  32.5428275  30.6775067  36.9912904  23.7710982  29.4687083  23.7674283
  24.7170087  29.3393291  23.8362701  23.3925227  28.7301745  24.2443711
  32.0822140  27.3902074  37.7705362  31.5661188  26.6060530  37.5835291
  32.9662088  27.0620790  37.9351882  29.7432867  21.1343089  33.7301175
  29.5457688  20.8258178  34.6144507  30.3532572  21.8604728  33.8599105
  37.7504201  31.6607037  36.8653116  38.4807589  31.3992325  37.4260819
  37.1411146  30.9235759  36.9055184  35.8319498  29.8014900  37.4627567
  35.1052662  29.6670865  36.8544059  35.4166785  30.1091728  38.2684285
  23.6549675  33.5204829  45.2274940  24.5752684  33.6983428  45.4214987
  23.6199258  32.5760875  45.0754639  21.9553899  27.3937060  23.7029168
  21.0485355  27.0970172  23.7791882  22.2329880  27.0966878  22.8363455
  12.8731840  28.7143423  34.1528215  12.5534624  27.8608731  33.8602589
  12.3265268  28.9292001  34.9086182  16.6511747  31.4305864  37.8697721
  16.8697757  32.3622972  37.8885755  17.0637521  31.0713839  38.6552525
  23.5715965  21.9373949  29.8573410  22.7616693  21.5921034  30.2328656
  24.2600382  21.6281493  30.4461021  25.5006513  21.0151996  31.4797706
  26.0537552  21.4347450  32.1387729  25.7376600  20.0887744  31.5220662
  21.5239612  27.0039070  47.2600470  21.4236339  27.9533427  47.1912561
  21.3061154  26.6757309  46.3876540  12.7420100  32.3346335  36.1221336
  12.0483571  31.9200287  35.6091291  13.4893091  32.3766871  35.5254755
  28.8785320  23.1252521  30.9876371  28.2983989  23.7837325  30.6054423
  28.6121253  22.3029866  30.5763788  27.3288887  22.5257579  33.1897691
  27.8288665  22.6374114  32.3812010  27.9724495  22.2218632  33.8298499
  21.3870882  30.4336209  46.0765532  20.9037964  31.2336569  46.2829421
  21.4731821  30.4444154  45.1232976  14.6556842  32.2664588  33.9987351
  14.6327530  32.3652276  33.0469234  14.9657479  33.1129739  34.3204517
  17.3144220  34.3240743  38.1133966  18.2687473  34.2924686  38.0463897
  17.1156744  33.8631367  38.9284192  17.9043602  32.8941859  40.6804763
  18.7236491  33.3885938  40.7039601  18.1780410  31.9773828  40.6522331
  27.6610198  25.2852612  30.0432719  26.7736053  25.5702262  29.8252914
  28.0764187  25.1246375  29.1959996  31.0124734  25.3099133  33.7587058
  31.7885125  25.7995585  34.0311675  30.2872869  25.7357187  34.2158928
  33.4497293  26.0226752  34.8160999  34.0441784  25.7822488  34.1054307
  33.5223877  25.3033883  35.4434535  15.6694449  39.8660363  35.1304163
  15.5348917  39.1060764  34.5642162  15.2526511  40.5901263  34.6632952
  26.8053412  35.0497286  24.1380739  27.5089262  35.2547289  24.7538394
  26.0816060  35.6174048  24.4029822  27.6351222  30.8007148  30.2583009
  27.5786423  31.2575699  29.4190641  28.1879564  30.0397832  30.0805852
  31.4456028  26.5896880  31.0833128  31.1892962  26.1893515  31.9141336
  30.8208896  27.3040674  30.9583268  35.7568366  29.3292953  33.5904420
  35.1967924  29.3986142  34.3635982  35.1511869  29.1533937  32.8703916
  18.8263575  40.7629680  35.3422606  18.7095959  41.7075112  35.2401296
  18.0056021  40.4603242  35.7308405  28.7140109  35.4879816  26.1879199
  29.5485713  35.0561014  26.0056674  28.5524452  35.3161829  27.1156093
  28.3686001  31.9911929  27.5535538  28.3134805  31.8256200  26.6123982
  27.7432057  32.6987962  27.7097728  13.1578516  27.2279993  41.3796960
  13.8037380  26.7178947  41.8684185  12.9495667  27.9648675  41.9540386
  25.6831909  34.2960841  46.8789101  26.5523068  34.4701493  46.5175736
  25.2038660  35.1155258  46.7564830  21.6782127  21.4920038  27.1320857
  21.6660797  22.4361878  27.2889127  22.5705549  21.3090183  26.8380318
  19.8518089  41.4157942  38.5578535  20.7545335  41.4481552  38.8745029
  19.6255459  40.4858393  38.5724870  21.6071691  40.1688928  35.2188613
  20.6567322  40.1690790  35.1052985  21.9104177  39.4221663  34.7024648
  25.4934246  18.0862815  31.3866793  24.7266642  17.5321301  31.5323476
  25.9044951  18.1584683  32.2480945  17.4976007  24.3747610  45.4771975
  18.3607469  24.0184415  45.6875299  16.9241418  24.0361505  46.1647379
  37.3424384  46.0049467  36.2834376  37.9802794  45.8856214  35.5797716
  37.2245227  46.9530311  36.3422328  34.1514091  45.9576895  36.2195900
  33.8132602  45.8417960  35.3316435  35.0203859  45.5568060  36.1996906
  30.0100906  47.8112371  32.2092791  29.4465771  47.7202308  31.4409079
  29.8953301  46.9912276  32.6895284  34.6333874  47.1111747  42.1782106
  34.6222514  46.7164545  41.3062609  34.7954513  46.3777819  42.7715877
  27.5565338  49.3063563  35.0477012  28.3486630  48.9654388  34.6323311
  27.7961988  49.4158538  35.9679165  35.5900465  51.4783339  27.5207256
  34.9388445  52.0637419  27.1341270  36.3844828  52.0089534  27.5802294
  29.5156092  48.5672476  27.9194390  30.2886968  48.0201463  27.7807266
  29.8681491  49.4316725  28.1308852  31.3541135  49.8948858  41.1261290
  31.0631001  50.7994489  41.0107956  31.9898119  49.9365386  41.8405359
  32.2797342  47.2725707  37.7162649  32.8760914  47.0481729  37.0019612
  32.3372313  46.5310452  38.3188097  31.8522370  44.7265142  25.5512840
  32.1047891  44.2046664  24.7896303  30.9146929  44.5631288  25.6539524
  36.8965653  43.7300921  33.3587584  37.6828742  43.3120344  33.0078001
  37.1604357  44.6347013  33.5269232  37.0675730  49.1673771  28.0576240
  36.4321563  49.2408397  28.7697145  36.7373136  49.7567370  27.3795320
  42.2974080  43.6676154  34.2620562  43.0299252  43.0975371  34.4958392
  41.5413436  43.2797754  34.7027068  31.5718659  46.6293248  27.7537215
  31.4554917  45.9538152  28.4218300  31.6820919  46.1425622  26.9369368
  33.9150200  46.0903395  31.4583905  33.5508407  45.5634016  32.1696826
  34.7717315  45.7001864  31.2850390  39.8199500  37.3797728  38.7215171
  39.4882825  38.2493139  38.4976386  39.2245114  37.0634012  39.4009201
  33.5555687  41.1193295  26.4545253  33.7230089  41.9873531  26.8215724
  33.3652856  41.2820577  25.5306542  36.3131020  49.5810274  38.1211083
  36.0131743  50.4835313  38.0126891  35.9682079  49.3142457  38.9732236
  29.7643501  46.0324071  34.1547788  28.8393998  45.9000285  34.3625480
  30.0127914  46.8118290  34.6517730  39.7128164  42.0992814  35.8008521
  38.8045041  42.0308223  35.5067282  39.6615759  42.5764759  36.6290346
  33.5344907  43.5750953  27.4391920  33.4144533  44.0208003  28.2777400
  32.8397496  43.9236270  26.8805458  27.1252312  45.6757344  34.9891577
  27.2544693  45.9291823  35.9030989  26.4449764  46.2685052  34.6696232
  31.2951800  56.3454594  31.0882051  31.2175829  57.2962419  31.1670532
  30.6913443  56.0000467  31.7456977  33.7869029  43.5182460  43.7443418
  33.0102363  44.0776380  43.7346283  34.4259592  44.0039243  44.2658288
  41.5789810  40.3009253  37.5786395  40.9364190  40.5941786  36.9326189
  41.0744738  40.1862173  38.3839591  39.2329974  44.0472426  28.2672254
  40.1447830  44.2799812  28.0919951  38.7239621  44.6309470  27.7047333
  32.0415402  46.3267913  43.3061385  32.7830086  46.8652957  43.0296209
  31.3352387  46.9534202  43.4632937  37.5170741  48.4697054  41.9033547
  37.9254097  48.0279464  41.1588179  36.7948003  47.8949681  42.1567739
  33.8701811  43.4069660  39.2767103  34.7163006  43.8309074  39.4201752
  33.8100449  42.7503285  39.9705667  37.8399556  49.0298244  35.6585835
  37.2108418  49.1943958  34.9561903  37.4525218  49.4439854  36.4296799
  41.7188788  49.9652682  33.0130199  41.0339826  50.3451583  32.4627232
  41.8032637  50.5748009  33.7462147  37.0201257  41.0674029  40.9348277
  36.7762189  41.8216089  40.3982553  37.2961187  41.4459376  41.7695524
  38.9739719  47.6112641  39.6125543  39.1856615  48.2544401  38.9359924
  38.9269468  46.7774958  39.1447473  36.5765948  40.2230462  36.5162115
  35.7150427  40.5211715  36.8078852  36.6028383  40.4400861  35.5843147
  33.3927518  48.7672652  32.9235921  33.8565863  49.0460355  32.1340543
  33.1284316  47.8656097  32.7409011  30.2851599  48.3144134  35.8615684
  30.8552956  48.7431402  35.2233168  30.8759711  48.0326718  36.5599869
  32.3296404  44.8895805  29.7325486  33.0320447  45.3416848  30.1999412
  31.9977032  44.2479623  30.3605379  30.7776765  43.4807561  44.1076695
  30.1475426  44.1623842  44.3412092  30.6712853  43.3690643  43.1629833
  26.0721738  43.1479357  35.0342619  25.2820792  43.4036886  34.5582730
  26.5632985  43.9627695  35.1394660  40.0885547  50.4884596  37.7847900
  40.9102991  50.0864784  37.5030582  40.0847950  50.3852831  38.7364016
  28.0236483  43.5123937  31.9926096  27.2267646  43.6242631  32.5109592
  27.7962075  43.8510589  31.1266986  33.8542151  50.0368640  39.9408611
  33.9186583  50.4989047  40.7766782  33.1453075  49.4066005  40.0690920
  24.3559441  43.4009848  37.4657610  24.6067479  44.2856858  37.7315186
  24.8918989  43.2214449  36.6932702  48.1791540  46.8323345  34.1332872
  47.4255249  46.2630743  33.9776876  48.3139082  46.7986009  35.0803506
  33.5690168  51.7036747  29.8087591  33.4335843  52.5488283  30.2372439
  34.1099981  51.9056025  29.0453525  30.0557508  37.7828327  46.4701946
  29.6624454  37.2294526  47.1449590  30.8723648  38.0938906  46.8608464
  27.0219566  49.2212185  30.3815516  27.5344086  50.0155436  30.5321081
  27.6742279  48.5238476  30.3149117  28.8314451  52.3377942  32.4638269
  29.0081079  53.2595906  32.2759253  29.6271284  52.0236361  32.8932649
  32.9725469  39.1986206  44.0622203  33.7135182  39.7993359  43.9826665
  33.2043392  38.4563844  43.5040245  28.1166807  44.3842573  42.3400432
  28.0020322  43.4827831  42.6407531  27.2611325  44.6306270  41.9885249
  35.1958645  52.3260314  43.9387933  34.7522499  51.5396692  43.6208837
  35.8575858  52.5139464  43.2731824  29.9545766  53.8556115  38.4648611
  30.5053191  53.7273179  37.6925605  29.1157242  54.1551004  38.1143504
  37.2939883  52.6063114  41.9669334  37.2758358  53.4271995  41.4749603
  38.2159803  52.4817189  42.1919475  33.7512937  50.1207243  42.8092843
  34.2841274  49.3595531  42.5792151  33.2227018  49.8280895  43.5516997
  36.9182632  35.2267309  38.3386484  36.5746901  36.1168951  38.2625595
  37.2861595  35.0368967  37.4756069  24.9868483  47.5500840  31.1575086
  25.8243705  47.9597848  30.9408794  25.1646750  46.6100282  31.1275280
  36.8832915  45.2175920  26.8458919  36.3679538  45.9880525  27.0847307
  36.6110223  44.5441056  27.4691981  34.4680026  40.0625621  31.9044158
  33.6121622  39.6732471  31.7249797  34.8806978  40.1417582  31.0443943
  35.9979172  37.5971964  36.3035718  35.4943968  37.5602099  35.4903523
  36.2909779  38.5064707  36.3632374  32.2422058  37.6810694  35.3101899
  33.1075055  37.4853503  34.9507789  32.3099567  37.4521046  36.2371256
  41.8567189  47.9708275  28.7812093  41.0796632  47.6319434  28.3367255
  42.5358670  47.9760898  28.1067058  36.6719218  43.0903012  28.6718701
  36.3669353  43.4049162  29.5228844  37.6249660  43.1684432  28.7146034
  35.1165650  49.2493236  30.3211655  34.5887011  48.5145995  30.0084892
  34.6153152  50.0267912  30.0751623  40.0958496  47.4442256  35.4378701
  39.4382170  48.1341518  35.5258830  40.8998895  47.8338688  35.7812687
  29.8484377  39.9112902  32.6818266  30.4228129  39.6888083  31.9491459
  30.4355360  39.9801596  33.4346867  38.9063955  45.7986629  33.4882643
  39.4195836  46.4316621  33.9904352  39.5565178  45.1987824  33.1226003
  30.1753964  41.9417363  26.7014151  29.3391277  42.2792049  27.0223426
  30.0358734  41.8066343  25.7641288  32.1507045  36.7854151  31.4093336
  31.4971457  36.4703168  30.7849950  32.1087519  36.1629891  32.1353158
  33.2618250  47.0673446  23.3246628  32.3545312  46.8362699  23.5237777
  33.7589282  46.2711065  23.5120609  36.1686329  55.7770953  26.2443314
  35.4948028  56.0802650  26.8528272  36.5552151  56.5800033  25.8948771
  35.3844785  43.2736084  35.7340983  34.4667347  43.4951031  35.5762671
  35.8004929  43.3482395  34.8752691  36.1679833  44.6727500  30.8643663
  36.9151652  45.1848897  30.5550785  36.4371423  44.3511553  31.7248057
  34.4406483  47.1686041  27.8470618  33.5317703  46.8845074  27.9443087
  34.4701567  47.5885119  26.9873925  39.6725751  50.7792630  31.6161785
  39.2188078  49.9383540  31.6726976  39.0419717  51.4154029  31.9536565
  38.6158670  41.7084616  32.8462453  37.8781427  41.1962003  33.1772695
  38.8685444  41.2684998  32.0345730  38.1158690  52.6169127  32.5511603
  38.4081664  53.1774184  31.8323969  38.6257311  52.9097688  33.3064763
  38.7170298  34.4860868  33.4404222  39.0229174  33.6258232  33.1530137
  39.4422902  35.0778489  33.2403216  25.0094654  44.8891555  31.8285820
  24.8119054  44.2960916  31.1036886  24.4541318  44.5843765  32.5461759
  32.9891377  44.7814661  33.9480413  33.0439987  43.8288498  33.8722890
  32.1782579  44.9374100  34.4321711  34.1382571  48.7094784  25.1858696
  33.7002001  47.9930643  24.7264334  34.8793012  48.9370899  24.6243788
  30.9283737  43.3991721  31.7070792  30.1151603  43.6985892  32.1135984
  31.4242732  43.0047410  32.4245274  33.0792315  53.3949478  33.6405057
  33.0368494  53.6210324  32.7113589  33.9955014  53.1612853  33.7890858
  36.5257949  43.8633546  40.5385686  36.8807337  44.0905019  41.3980152
  37.1730080  44.1951922  39.9162941  42.2555686  46.9851981  31.2435015
  42.1173585  47.1753577  30.3156204  41.8991905  47.7471364  31.7003066
  30.4197812  40.9710077  37.3232027  31.0597191  40.8298836  36.6254990
  29.5875343  40.6844590  36.9470629  42.2825066  49.0528508  36.2546286
  42.7161572  48.9603798  37.1029340  42.9956646  49.0286009  35.6166302
  31.1958116  50.2712507  33.4367019  31.9898714  49.7762827  33.2349594
  30.4849808  49.7430370  33.0734725  36.0152960  52.6530603  37.7879387
  36.0689983  53.2221539  38.5557103  35.1467742  52.8232488  37.4233424
  27.5040879  44.4155589  29.5126772  26.5738468  44.3540044  29.7296734
  27.5998351  43.8931542  28.7163413  27.4226429  40.9410402  32.1005014
  27.6833246  41.8555735  31.9914174  28.2443601  40.4734844  32.2501627
  28.8951354  42.3548159  39.2703838  29.5674407  42.1465521  38.6216487
  28.0681140  42.1570245  38.8309071  43.1440615  49.0952209  38.7879172
  43.3376505  49.9998020  39.0338447  43.0441233  48.6359628  39.6217757
  34.7976926  38.9810100  41.2869499  34.1504841  39.6800049  41.1933976
  35.5677941  39.4146244  41.6545747  38.2055724  49.2458952  44.3620052
  38.0541230  49.0169504  43.4450136  38.1960403  50.2029553  44.3751397
  34.9741060  46.8190865  39.3466319  35.9033120  46.9702024  39.1735286
  34.5532090  46.9074885  38.4914965  33.7729392  50.8441529  37.1164856
  33.6340478  50.4760313  37.9890795  32.9843988  51.3589168  36.9448814
  34.3677544  55.9450626  28.4590393  34.5429300  55.4738669  29.2736016
  33.6810332  56.5716392  28.6871654  35.3234607  50.2223132  34.5053694
  34.9884440  50.1823902  35.4011344  34.8238553  49.5567848  34.0324104
  29.2978851  45.6290762  40.0306275  29.1598649  44.8971001  40.6317814
  30.2083775  45.5399662  39.7490463  38.2593799  47.5679166  24.7790754
  37.6422969  46.8425994  24.6823807  37.7910287  48.3288526  24.4357828
  31.9261152  45.3410721  39.5189955  32.6360770  44.7003913  39.4776573
  31.8830460  45.5923616  40.4416136  39.9147930  52.2778074  42.4396534
  39.8560477  51.5937295  41.7727117  40.3167449  53.0197064  41.9877160
  30.6390086  42.3275939  41.3385595  30.1027443  41.8766677  41.9907191
  30.0506794  42.4621848  40.5956059  28.9338629  59.0939988  35.2330253
  29.1735227  59.7258512  35.9109272  28.0907826  58.7428028  35.5195612
  30.0492345  41.7864590  23.9012058  29.1721811  41.6653391  23.5374305
  30.5250098  40.9950669  23.6490947  39.9165338  50.2417658  40.6710514
  39.0292116  49.9043580  40.7936913  40.4863889  49.5100690  40.9079279
  21.5694485  46.5741750  33.9953565  22.2565525  46.2603480  33.4074581
  21.4142614  47.4783115  33.7220817  26.3729207  41.4631947  38.4238589
  26.2887396  40.8557616  37.6888999  25.5511913  41.9540965  38.4248085
  33.4466491  54.9019111  37.6371757  33.3736663  55.7074082  38.1491062
  33.0043884  55.1011077  36.8119779  33.2356271  54.1390881  31.1474579
  32.4523793  54.6812561  31.2412803  33.9349016  54.6564860  31.5468820
  36.5452921  39.9485510  33.7908784  37.0421620  39.1955473  33.4709854
  35.7739902  39.9849827  33.2251993  44.3982678  45.6525876  35.4327076
  44.3872554  46.5350591  35.0621009  43.5300058  45.2997427  35.2381613
  35.9065175  54.8005945  39.7929916  36.6193147  55.4353410  39.7205817
  35.4155203  54.8969811  38.9769918  37.6282702  48.7057197  31.3647207
  36.6938980  48.8258660  31.1951912  37.8059370  47.8029664  31.1007217
  33.1287890  42.0902893  33.5180469  32.7585677  41.5373934  34.2061374
  33.6246982  41.4861027  32.9655469  41.0155253  44.5474517  31.8997242
  41.4815705  45.3802508  31.8257544  41.4662753  44.0819498  32.6042500
  30.9577088  52.5500388  40.6135487  31.6586548  53.1836871  40.7664881
  30.4872203  52.8915120  39.8531126  39.0831484  50.8918338  28.8983394
  39.3591328  50.7774933  29.8077268  38.2135983  50.4935823  28.8595567
  38.9871916  36.9155104  35.9388143  38.0734995  37.1459331  36.1070350
  39.4165017  36.9993548  36.7902175  38.7578374  45.1044996  38.4388037
  38.1049824  45.3520903  37.7840490  39.1358754  44.2909134  38.1050514
  35.7185548  55.1404689  32.5416207  35.9007943  54.3226345  33.0043960
  36.5418534  55.3572381  32.1041097  36.0527714  54.0672874  29.8031256
  36.5815480  53.5565329  29.1901418  36.3155933  53.7515404  30.6676789
  34.8065947  45.8464807  44.9254074  34.1306584  45.7458936  45.5956449
  35.6293581  45.6904020  45.3890071  26.5544806  52.0836743  37.5466589
  27.1398243  51.3380431  37.6794493  26.3569645  52.3940700  38.4303253
  29.4083461  55.1187991  32.5629032  28.7393837  55.6034118  32.0793072
  29.2696331  55.3657211  33.4772410  21.1462461  44.6542343  36.2671032
  21.1846560  44.1205934  37.0608151  20.6402754  44.1277549  35.6482010
  33.5488730  57.1531734  39.1611690  34.1007038  57.3163356  39.9260775
  33.8894923  57.7436172  38.4891715  28.5253223  39.5006884  39.7633575
  28.5894550  40.3621715  39.3510972  28.4620344  38.8880886  39.0305933
  28.0005496  41.5730017  43.4106609  28.6277535  41.1907094  44.0244133
  27.1433415  41.3544218  43.7762301  38.3999604  51.9792992  45.0160344
  38.9439508  52.5922950  44.5215299  37.8186449  52.5372570  45.5327357
  24.7771039  43.3806446  29.3424964  25.0724480  42.4717124  29.2892018
  23.8759074  43.3594185  29.0205966  36.6857117  55.1013710  36.1475372
  36.5608257  54.3003450  35.6386318  37.3436208  55.5959903  35.6589342
  28.3065286  41.4562442  35.3252512  27.5851871  42.0698410  35.1859986
  29.0958541  41.9920207  35.2469158  38.7492026  52.9022730  37.7754922
  37.8022361  52.7828081  37.7033249  39.0974799  52.0145228  37.8581184
  31.1091599  38.7916869  41.5993164  31.6326001  39.0379165  42.3619473
  30.8903932  39.6236904  41.1796302  26.5058880  41.0620543  29.4664289
  26.1771586  40.1817922  29.2839395  26.8598251  41.0068212  30.3540678
  35.7538459  52.6975446  33.9759275  35.6063421  51.7692153  34.1566845
  36.5791952  52.7195537  33.4916350  29.6200703  41.3493513  29.8339767
  29.9596776  41.8779434  29.1118375  30.0672824  41.6873919  30.6098333
  39.3572581  53.5204005  35.0624147  40.2819128  53.3146866  34.9248598
  39.1887884  53.2720406  35.9713489  32.3144144  39.7330564  39.2842835
  31.9740964  38.9338377  39.6863515  31.6083150  40.0332275  38.7119668
  32.9660616  36.8179876  37.7370158  33.7886685  36.3440354  37.6149048
  33.2098679  37.5970360  38.2368844  31.6068850  39.8468135  28.0333059
  32.3277213  40.2249387  27.5296776  30.9834155  40.5657011  28.1368037
  35.7499973  40.5513284  28.9691392  35.9663588  41.4337922  28.6680220
  35.2694040  40.1599497  28.2397034  30.4899195  43.5098997  35.5462136
  30.3443775  43.8239300  36.4386418  30.0124398  44.1283897  34.9933035
  32.3495578  40.5001545  35.5943026  32.3357146  39.6042638  35.2575324
  33.0668006  40.5072209  36.2281312  34.2021708  40.9338885  37.6396153
  33.9439486  41.8555956  37.6380484  33.6706749  40.5369320  38.3296617
  39.1467897  54.0389672  30.4186239  39.3204775  53.4736095  29.6660091
  39.6396788  54.8390567  30.2365729  24.9644857  46.0504341  38.4849798
  24.4198325  46.8264149  38.6170072  25.8424207  46.3975146  38.3268919
  31.7532474  39.3815925  30.8630596  31.8748385  38.4532571  31.0621484
  31.4634516  39.3954611  29.9508911  34.6223664  37.0670836  33.9997316
  34.6445361  37.1310169  33.0449295  35.0391723  36.2275344  34.1937822
  45.0007288  46.8026095  32.0376538  45.4438434  46.0533420  31.6395662
  44.1233799  46.7936231  31.6550270  40.1343070  53.3556437  27.5183137
  40.8293974  53.9763129  27.7370452  40.4766220  52.5051788  27.7935515
  25.7510879  45.1774238  41.3779954  25.0092615  45.3256873  41.9644585
  25.4303623  45.4382503  40.5146704  42.0334493  50.8056142  29.0470468
  42.5585817  51.1443415  28.3219788  41.9456845  49.8703157  28.8633602
  33.6954541  54.7190216  41.1760344  34.0041668  54.4739363  42.0483044
  34.4930023  54.9236854  40.6879215  33.7175153  56.8728125  33.4065721
  33.2780144  56.3804504  34.0998578  34.4683270  56.3301093  33.1657796
  26.1967492  53.0639666  33.4090349  27.0225512  52.7643438  33.0288993
  25.8461544  52.2947289  33.8580138  31.1649026  52.4166134  35.4788023
  30.5429035  51.7536840  35.1790250  31.8353892  52.4427266  34.7961670
  24.3976097  50.9825993  34.3679283  23.5608006  50.5548167  34.1863284
  24.3699743  51.1758436  35.3050074  31.2373553  40.8947923  45.0720529
  31.2861709  41.7710045  44.6898298  31.7796067  40.3525316  44.4992172
  41.7228399  51.4389046  44.3521666  40.9323942  51.4213185  43.8126165
  41.4861753  51.9777339  45.1070702  41.8426274  48.2881512  41.6654394
  41.8924279  48.1231520  42.6069917  41.7340197  47.4208771  41.2752275
  30.7262532  50.9670058  28.9546483  30.8750653  51.6505522  28.3013156
  31.5328976  50.9475148  29.4695939  39.1330036  44.2712440  42.9813701
  40.0339899  44.1318905  42.6897699  39.2078011  44.4366895  43.9211878
  33.4672841  41.6479295  41.8266887  32.5976151  41.9412861  41.5549476
  33.7032322  42.2319740  42.5474151  43.3444471  50.7078454  41.9096416
  43.0529279  51.0708434  42.7459877  42.7316602  49.9945462  41.7309748
  44.5440153  48.2731333  34.4298986  45.3787044  48.7121138  34.5936546
  44.6799282  47.7969987  33.6107232  41.5931659  45.8311068  40.3776474
  42.0685780  46.0238715  39.5695325  40.6697224  45.8870254  40.1319857
  28.4815165  46.9935235  29.9607552  28.2361207  46.0897565  30.1587762
  28.6511080  46.9952386  29.0187030  36.1711875  37.8658912  39.3432308
  36.6893819  38.6019939  39.0178796  35.8167008  38.1722905  40.1779067
  27.7510813  42.7263593  27.4593714  27.0580058  42.8007948  26.8033750
  27.5062565  41.9623937  27.9815230  36.4224469  34.2859194  34.8633204
  36.7026223  33.6182383  35.4893631  37.2075076  34.4788290  34.3507868
  34.2257938  53.4618188  26.4258231  33.6531905  54.0808375  25.9728702
  34.7990732  54.0117550  26.9598153  40.2933328  42.7076828  38.6104779
  41.2450751  42.8074926  38.6317003  40.1236778  41.9155097  39.1202864
  38.3147707  39.7932412  38.7964180  37.7197639  40.0737424  38.1010669
  38.0297404  40.2826313  39.5680921  37.4455198  53.7455338  27.5566813
  38.3785871  53.6800900  27.7599688  37.3578411  54.5811605  27.0981346
  40.0743214  53.0621209  24.5170760  39.9956846  52.7281072  25.4106518
  40.8952881  53.5542977  24.5162233  42.7721406  45.9282948  37.7247079
  42.7397726  44.9898949  37.9106763  43.3822029  46.0066985  36.9912904
  34.6104736  44.7979001  23.7674283  35.5563841  44.6685209  23.8362701
  34.2318981  44.0593663  24.2443711  42.9215894  42.7193991  37.7705362
  42.4054943  41.9352448  37.5835291  43.8055843  42.3912708  37.9351882
  40.5826621  36.4635007  33.7301175  40.3851442  36.1550095  34.6144507
  41.1926327  37.1896646  33.8599105  48.5897955  46.9898955  36.8653116
  49.3201344  46.7284243  37.4260819  47.9804901  46.2527677  36.9055184
  46.6713253  45.1306817  37.4627567  45.9446416  44.9962782  36.8544059
  46.2560539  45.4383646  38.2684285  34.4943429  48.8496747  45.2274940
  35.4146438  49.0275346  45.4214987  34.4593012  47.9052793  45.0754639
  32.7947654  42.7228977  23.7029168  31.8879109  42.4262090  23.7791882
  33.0723635  42.4258796  22.8363455  23.7125594  44.0435341  34.1528215
  23.3928378  43.1900649  33.8602589  23.1659022  44.2583919  34.9086182
  27.4905502  46.7597782  37.8697721  27.7091511  47.6914890  37.8885755
  27.9031275  46.4005756  38.6552525  34.4109719  37.2665867  29.8573410
  33.6010448  36.9212952  30.2328656  35.0994136  36.9573411  30.4461021
  36.3400268  36.3443914  31.4797706  36.8931306  36.7639367  32.1387729
  36.5770354  35.4179662  31.5220662  32.3633367  42.3330988  47.2600470
  32.2630094  43.2825345  47.1912561  32.1454909  42.0049226  46.3876540
  31.5646438  39.5815913  23.8441148  32.4265602  39.9070811  24.1036965
  31.7496782  38.7947409  23.3314213  23.5813854  47.6638252  36.1221336
  22.8877325  47.2492205  35.6091291  24.3286845  47.7058789  35.5254755
  39.7179075  38.4544439  30.9876371  39.1377744  39.1129243  30.6054423
  39.4515007  37.6321784  30.5763788  38.1682641  37.8549497  33.1897691
  38.6682419  37.9666031  32.3812010  38.8118249  37.5510550  33.8298499
  32.2264637  45.7628126  46.0765532  31.7431719  46.5628487  46.2829421
  32.3125576  45.7736071  45.1232976  25.4950597  47.5956506  33.9987351
  25.4721285  47.6944193  33.0469234  25.8051233  48.4421657  34.3204517
  28.1537974  49.6532661  38.1133966  29.1081228  49.6216603  38.0463897
  27.9550498  49.1923285  38.9284192  28.7437357  48.2233777  40.6804763
  29.5630246  48.7177856  40.7039601  29.0174164  47.3065745  40.6522331
  38.5003953  40.6144529  30.0432719  37.6129808  40.8994180  29.8252914
  38.9157942  40.4538293  29.1959996  41.8518489  40.6391050  33.7587058
  42.6278879  41.1287503  34.0311675  41.1266623  41.0649105  34.2158928
  44.2891048  41.3518670  34.8160999  44.8835538  41.1114406  34.1054307
  44.3617631  40.6325800  35.4434535  26.5088203  55.1952281  35.1304163
  26.3742671  54.4352682  34.5642162  26.0920265  55.9193180  34.6632952
  37.6447166  50.3789204  24.1380739  38.3483016  50.5839207  24.7538394
  36.9209815  50.9465966  24.4029822  38.4744977  46.1299065  30.2583009
  38.4180178  46.5867617  29.4190641  39.0273319  45.3689750  30.0805852
  42.2849782  41.9188797  31.0833128  42.0286717  41.5185433  31.9141336
  41.6602650  42.6332591  30.9583268  46.5962120  44.6584871  33.5904420
  46.0361678  44.7278060  34.3635982  45.9905624  44.4825855  32.8703916
  29.6657329  56.0921598  35.3422606  29.5489713  57.0367030  35.2401296
  28.8449775  55.7895159  35.7308405  39.5533864  50.8171733  26.1879199
  40.3879468  50.3852932  26.0056674  39.3918207  50.6453747  27.1156093
  39.2079756  47.3203847  27.5535538  39.1528560  47.1548118  26.6123982
  38.5825811  48.0279880  27.7097728  23.9972271  42.5571911  41.3796960
  24.6431134  42.0470865  41.8684185  23.7889422  43.2940593  41.9540386
  36.5225663  49.6252759  46.8789101  37.3916823  49.7993411  46.5175736
  36.0432414  50.4447175  46.7564830  32.5175881  36.8211956  27.1320857
  32.5054551  37.7653796  27.2889127  33.4099303  36.6382101  26.8380318
  30.6911843  56.7449860  38.5578535  31.5939090  56.7773470  38.8745029
  30.4649213  55.8150310  38.5724870  32.4465445  55.4980846  35.2188613
  31.4961076  55.4982708  35.1052985  32.7497931  54.7513581  34.7024648
  36.3328001  33.4154732  31.3866793  35.5660397  32.8613219  31.5323476
  36.7438706  33.4876601  32.2480945  28.3369762  39.7039528  45.4771975
  29.2001223  39.3476333  45.6875299  27.7635172  39.3653423  46.1647379
  48.1818139  61.3341384  36.2834376  48.8196549  61.2148132  35.5797716
  48.0638982  62.2822228  36.3422328  44.9907845  61.2868813  36.2195900
  44.6526357  61.1709877  35.3316435  45.8597613  60.8859978  36.1996906
  40.8494661  63.1404289  32.2092791  40.2859526  63.0494226  31.4409079
  40.7347056  62.3204193  32.6895284  45.4727628  62.4403664  42.1782106
  45.4616269  62.0456463  41.3062609  45.6348267  61.7069737  42.7715877
  38.3959093  64.6355481  35.0477012  39.1880385  64.2946305  34.6323311
  38.6355743  64.7450456  35.9679165  46.4294219  66.8075257  27.5207256
  45.7782199  67.3929337  27.1341270  47.2238582  67.3381452  27.5802294
  40.3549847  63.8964394  27.9194390  41.1280723  63.3493381  27.7807266
  40.7075245  64.7608643  28.1308852  42.1934889  65.2240776  41.1261290
  41.9024755  66.1286407  41.0107956  42.8291873  65.2657304  41.8405359
  43.1191096  62.6017625  37.7162649  43.7154668  62.3773647  37.0019612
  43.1766068  61.8602370  38.3188097  42.6916124  60.0557060  25.5512840
  42.9441645  59.5338581  24.7896303  41.7540683  59.8923205  25.6539524
  47.7359407  59.0592838  33.3587584  48.5222496  58.6412261  33.0078001
  47.9998112  59.9638930  33.5269232  47.9069485  64.4965689  28.0576240
  47.2715318  64.5700315  28.7697145  47.5766891  65.0859287  27.3795320
  53.1367834  58.9968072  34.2620562  53.8693006  58.4267288  34.4958392
  52.3807190  58.6089672  34.7027068  42.4112413  61.9585166  27.7537215
  42.2948671  61.2830069  28.4218300  42.5214673  61.4717540  26.9369368
  44.7543954  61.4195313  31.4583905  44.3902161  60.8925934  32.1696826
  45.6111070  61.0293782  31.2850390  50.6593255  52.7089646  38.7215171
  50.3276579  53.5785057  38.4976386  50.0638868  52.3925930  39.4009201
  44.3949441  56.4485213  26.4545253  44.5623843  57.3165449  26.8215724
  44.2046610  56.6112494  25.5306542  47.1524774  64.9102192  38.1211083
  46.8525497  65.8127230  38.0126891  46.8075834  64.6434375  38.9732236
  40.6037256  61.3615988  34.1547788  39.6787752  61.2292203  34.3625480
  40.8521669  62.1410208  34.6517730  50.5521918  57.4284732  35.8008521
  49.6438795  57.3600140  35.5067282  50.5009514  57.9056677  36.6290346
  44.3738662  58.9042870  27.4391920  44.2538287  59.3499921  28.2777400
  43.6791250  59.2528188  26.8805458  37.9646067  61.0049262  34.9891577
  38.0938448  61.2583741  35.9030989  37.2843518  61.5976970  34.6696232
  42.1345554  71.6746512  31.0882051  42.0569584  72.6254337  31.1670532
  41.5307198  71.3292384  31.7456977  44.6262784  58.8474377  43.7443418
  43.8496118  59.4068298  43.7346283  45.2653347  59.3331160  44.2658288
  52.4183564  55.6301170  37.5786395  51.7757945  55.9233703  36.9326189
  51.9138493  55.5154091  38.3839591  50.0723728  59.3764343  28.2672254
  50.9841584  59.6091730  28.0919951  49.5633375  59.9601388  27.7047333
  42.8809156  61.6559831  43.3061385  43.6223840  62.1944875  43.0296209
  42.1746142  62.2826120  43.4632937  48.3564496  63.7988971  41.9033547
  48.7647852  63.3571382  41.1588179  47.6341757  63.2241599  42.1567739
  44.7095566  58.7361578  39.2767103  45.5556761  59.1600992  39.4201752
  44.6494203  58.0795202  39.9705667  48.6793310  64.3590162  35.6585835
  48.0502173  64.5235876  34.9561903  48.2918972  64.7731771  36.4296799
  52.5582542  65.2944600  33.0130199  51.8733580  65.6743501  32.4627232
  52.6426392  65.9039926  33.7462147  47.8595011  56.3965946  40.9348277
  47.6155943  57.1508007  40.3982553  48.1354942  56.7751294  41.7695524
  49.8133474  62.9404559  39.6125543  50.0250369  63.5836319  38.9359924
  49.7663222  62.1066875  39.1447473  47.4159703  55.5522379  36.5162115
  46.5544182  55.8503633  36.8078852  47.4422137  55.7692778  35.5843147
  44.2321272  64.0964570  32.9235921  44.6959618  64.3752273  32.1340543
  43.9678070  63.1948015  32.7409011  41.1245353  63.6436051  35.8615684
  41.6946710  64.0723320  35.2233168  41.7153465  63.3618636  36.5599869
  43.1690158  60.2187722  29.7325486  43.8714202  60.6708766  30.1999412
  42.8370787  59.5771541  30.3605379  41.6170520  58.8099479  44.1076695
  40.9869180  59.4915760  44.3412092  41.5106608  58.6982561  43.1629833
  36.9115492  58.4771275  35.0342619  36.1214546  58.7328803  34.5582730
  37.4026740  59.2919613  35.1394660  50.9279302  65.8176514  37.7847900
  51.7496746  65.4156701  37.5030582  50.9241705  65.7144748  38.7364016
  38.8630238  58.8415854  31.9926096  38.0661401  58.9534548  32.5109592
  38.6355830  59.1802506  31.1266986  44.6935905  65.3660557  39.9408611
  44.7580338  65.8280965  40.7766782  43.9846829  64.7357922  40.0690920
  35.1953195  58.7301765  37.4657610  35.4461234  59.6148775  37.7315186
  35.7312744  58.5506367  36.6932702  59.0185295  62.1615263  34.1332872
  58.2649003  61.5922661  33.9776876  59.1532836  62.1277927  35.0803506
  44.4083923  67.0328665  29.8087591  44.2729598  67.8780201  30.2372439
  44.9493735  67.2347943  29.0453525  40.8951263  53.1120245  46.4701946
  40.5018208  52.5586443  47.1449590  41.7117403  53.4230823  46.8608464
  37.8613320  64.5504103  30.3815516  38.3737841  65.3447353  30.5321081
  38.5136033  63.8530393  30.3149117  39.6708205  67.6669859  32.4638269
  39.8474833  68.5887824  32.2759253  40.4665039  67.3528278  32.8932649
  43.8119224  54.5278124  44.0622203  44.5528937  55.1285277  43.9826665
  44.0437146  53.7855762  43.5040245  38.9560562  59.7134491  42.3400432
  38.8414077  58.8119748  42.6407531  38.1005079  59.9598188  41.9885249
  46.0352399  67.6552231  43.9387933  45.5916254  66.8688610  43.6208837
  46.6969613  67.8431382  43.2731824  40.7939520  69.1848033  38.4648611
  41.3446946  69.0565096  37.6925605  39.9550996  69.4842922  38.1143504
  48.1333637  67.9355031  41.9669334  48.1152113  68.7563912  41.4749603
  49.0553557  67.8109107  42.1919475  44.5906692  65.4499161  42.8092843
  45.1235028  64.6887449  42.5792151  44.0620773  65.1572813  43.5516997
  47.7576387  50.5559227  38.3386484  47.4140656  51.4460868  38.2625595
  48.1255349  50.3660884  37.4756069  35.8262237  62.8792757  31.1575086
  36.6637459  63.2889766  30.9408794  36.0040505  61.9392199  31.1275280
  47.7226669  60.5467838  26.8458919  47.2073293  61.3172443  27.0847307
  47.4503978  59.8732974  27.4691981  45.3073780  55.3917539  31.9044158
  44.4515377  55.0024389  31.7249797  45.7200732  55.4709499  31.0443943
  46.8372927  52.9263882  36.3035718  46.3337722  52.8894017  35.4903523
  47.1303534  53.8356625  36.3632374  43.0815813  53.0102612  35.3101899
  43.9468810  52.8145420  34.9507789  43.1493322  52.7812963  36.2371256
  52.6960943  63.3000193  28.7812093  51.9190386  62.9611352  28.3367255
  53.3752424  63.3052816  28.1067058  47.5112972  58.4194930  28.6718701
  47.2063108  58.7341079  29.5228844  48.4643415  58.4976350  28.7146034
  45.9559404  64.5785153  30.3211655  45.4280766  63.8437913  30.0084892
  45.4546907  65.3559830  30.0751623  50.9352250  62.7734174  35.4378701
  50.2775925  63.4633435  35.5258830  51.7392649  63.1630606  35.7812687
  40.6878132  55.2404820  32.6818266  41.2621884  55.0180001  31.9491459
  41.2749114  55.3093514  33.4346867  49.7457709  61.1278546  33.4882643
  50.2589591  61.7608538  33.9904352  50.3958933  60.5279742  33.1226003
  41.0147719  57.2709281  26.7014151  40.1785031  57.6083967  27.0223426
  40.8752489  57.1358260  25.7641288  42.9900800  52.1146069  31.4093336
  42.3365212  51.7995086  30.7849950  42.9481274  51.4921809  32.1353158
  44.1012004  62.3965364  23.3246628  43.1939066  62.1654617  23.5237777
  44.5983036  61.6002983  23.5120609  47.0080083  71.1062871  26.2443314
  46.3341782  71.4094568  26.8528272  47.3945905  71.9091951  25.8948771
  46.2238540  58.6028002  35.7340983  45.3061101  58.8242949  35.5762671
  46.6398684  58.6774313  34.8752691  47.0073588  60.0019418  30.8643663
  47.7545407  60.5140815  30.5550785  47.2765177  59.6803470  31.7248057
  45.2800238  62.4977958  27.8470618  44.3711457  62.2136991  27.9443087
  45.3095322  62.9177037  26.9873925  50.5119505  66.1084548  31.6161785
  50.0581832  65.2675458  31.6726976  49.8813472  66.7445946  31.9536565
  49.4552425  57.0376534  32.8462453  48.7175182  56.5253920  33.1772695
  49.7079198  56.5976916  32.0345730  48.9552445  67.9461045  32.5511603
  49.2475419  68.5066102  31.8323969  49.4651065  68.2389606  33.3064763
  49.5564052  49.8152786  33.4404222  49.8622929  48.9550149  33.1530137
  50.2816657  50.4070406  33.2403216  35.8488408  60.2183473  31.8285820
  35.6512808  59.6252833  31.1036886  35.2935072  59.9135683  32.5461759
  43.8285132  60.1106579  33.9480413  43.8833742  59.1580415  33.8722890
  43.0176334  60.2666018  34.4321711  44.9776326  64.0386702  25.1858696
  44.5395756  63.3222561  24.7264334  45.7186767  64.2662817  24.6243788
  41.7677492  58.7283639  31.7070792  40.9545357  59.0277809  32.1135984
  42.2636486  58.3339328  32.4245274  43.9186070  68.7241396  33.6405057
  43.8762249  68.9502242  32.7113589  44.8348769  68.4904770  33.7890858
  47.3651704  59.1925463  40.5385686  47.7201091  59.4196936  41.3980152
  48.0123835  59.5243840  39.9162941  53.0949440  62.3143899  31.2435015
  52.9567339  62.5045495  30.3156204  52.7385659  63.0763282  31.7003066
  41.2591567  56.3001994  37.3232027  41.8990946  56.1590753  36.6254990
  40.4269097  56.0136508  36.9470629  53.1218820  64.3820426  36.2546286
  53.5555327  64.2895715  37.1029340  53.8350401  64.3577927  35.6166302
  42.0351870  65.6004425  33.4367019  42.8292469  65.1054745  33.2349594
  41.3243563  65.0722288  33.0734725  46.8546715  67.9822520  37.7879387
  46.9083737  68.5513457  38.5557103  45.9861496  68.1524405  37.4233424
  38.3434634  59.7447506  29.5126772  37.4132222  59.6831962  29.7296734
  38.4392106  59.2223459  28.7163413  38.2620183  56.2702319  32.1005014
  38.5227000  57.1847653  31.9914174  39.0837355  55.8026762  32.2501627
  39.7345108  57.6840076  39.2703838  40.4068162  57.4757439  38.6216487
  38.9074895  57.4862162  38.8309071  53.9834370  64.4244127  38.7879172
  54.1770260  65.3289937  39.0338447  53.8834988  63.9651546  39.6217757
  45.6370680  54.3102017  41.2869499  44.9898595  55.0091967  41.1933976
  46.4071696  54.7438161  41.6545747  49.0449478  64.5750870  44.3620052
  48.8934985  64.3461421  43.4450136  49.0354158  65.5321471  44.3751397
  45.8134815  62.1482782  39.3466319  46.7426875  62.2993942  39.1735286
  45.3925845  62.2366803  38.4914965  44.6123146  66.1733447  37.1164856
  44.4734232  65.8052231  37.9890795  43.8237743  66.6881086  36.9448814
  45.2071298  71.2742543  28.4590393  45.3823054  70.8030586  29.2736016
  44.5204086  71.9008309  28.6871654  46.1628362  65.5515049  34.5053694
  45.8278194  65.5115819  35.4011344  45.6632307  64.8859765  34.0324104
  40.1372606  60.9582679  40.0306275  39.9992404  60.2262918  40.6317814
  41.0477529  60.8691580  39.7490463  49.0987553  62.8971084  24.7790754
  48.4816724  62.1717912  24.6823807  48.6304042  63.6580444  24.4357828
  42.7654906  60.6702639  39.5189955  43.4754525  60.0295831  39.4776573
  42.7224214  60.9215534  40.4416136  50.7541685  67.6069992  42.4396534
  50.6954231  66.9229212  41.7727117  51.1561203  68.3488982  41.9877160
  41.4783840  57.6567857  41.3385595  40.9421197  57.2058595  41.9907191
  40.8900549  57.7913765  40.5956059  39.7732384  74.4231906  35.2330253
  40.0128982  75.0550430  35.9109272  38.9301580  74.0719946  35.5195612
  40.8886099  57.1156508  23.9012058  40.0115566  56.9945309  23.5374305
  41.3643852  56.3242586  23.6490947  50.7559092  65.5709576  40.6710514
  49.8685871  65.2335498  40.7936913  51.3257643  64.8392607  40.9079279
  32.4088239  61.9033668  33.9953565  33.0959279  61.5895398  33.4074581
  32.2536368  62.8075032  33.7220817  37.2122961  56.7923864  38.4238589
  37.1281150  56.1849534  37.6888999  36.3905668  57.2832883  38.4248085
  44.2860246  70.2311028  37.6371757  44.2130417  71.0366000  38.1491062
  43.8437639  70.4302994  36.8119779  44.0750025  69.4682798  31.1474579
  43.2917547  70.0104479  31.2412803  44.7742770  69.9856778  31.5468820
  47.3846675  55.2777428  33.7908784  47.8815375  54.5247390  33.4709854
  46.6133657  55.3141745  33.2251993  55.2376433  60.9817793  35.4327076
  55.2266309  61.8642509  35.0621009  54.3693812  60.6289344  35.2381613
  46.7458929  70.1297862  39.7929916  47.4586901  70.7645327  39.7205817
  46.2548958  70.2261728  38.9769918  48.4676456  64.0349115  31.3647207
  47.5332735  64.1550578  31.1951912  48.6453124  63.1321582  31.1007217
  43.9681644  57.4194811  33.5180469  43.5979432  56.8665851  34.2061374
  44.4640737  56.8152944  32.9655469  51.8549007  59.8766434  31.8997242
  52.3209460  60.7094426  31.8257544  52.3056508  59.4111416  32.6042500
  41.7970843  67.8792306  40.6135487  42.4980302  68.5128789  40.7664881
  41.3265958  68.2207037  39.8531126  49.9225238  66.2210256  28.8983394
  50.1985082  66.1066850  29.8077268  49.0529737  65.8227741  28.8595567
  49.8265670  52.2447021  35.9388143  48.9128750  52.4751248  36.1070350
  50.2558772  52.3285465  36.7902175  49.5972129  60.4336913  38.4388037
  48.9443579  60.6812821  37.7840490  49.9752509  59.6201052  38.1050514
  46.5579302  70.4696607  32.5416207  46.7401697  69.6518262  33.0043960
  47.3812289  70.6864299  32.1041097  46.8921468  69.3964792  29.8031256
  47.4209234  68.8857246  29.1901418  47.1549688  69.0807322  30.6676789
  45.6459702  61.1756724  44.9254074  44.9700339  61.0750854  45.5956449
  46.4687336  61.0195938  45.3890071  37.3938561  67.4128661  37.5466589
  37.9791998  66.6672349  37.6794493  37.1963399  67.7232618  38.4303253
  40.2477216  70.4479908  32.5629032  39.5787591  70.9326036  32.0793072
  40.1090086  70.6949129  33.4772410  31.9856215  59.9834261  36.2671032
  32.0240315  59.4497852  37.0608151  31.4796508  59.4569467  35.6482010
  44.3882485  72.4823652  39.1611690  44.9400793  72.6455273  39.9260775
  44.7288678  73.0728090  38.4891715  39.3646978  54.8298802  39.7633575
  39.4288304  55.6913633  39.3510972  39.3014098  54.2172803  39.0305933
  38.8399250  56.9021934  43.4106609  39.4671289  56.5199012  44.0244133
  37.9827169  56.6836136  43.7762301  49.2393359  67.3084909  45.0160344
  49.7833263  67.9214868  44.5215299  48.6580204  67.8664488  45.5327357
  35.6164793  58.7098363  29.3424964  35.9118234  57.8009042  29.2892018
  34.7152829  58.6886103  29.0205966  47.5250872  70.4305627  36.1475372
  47.4002011  69.6295367  35.6386318  48.1829963  70.9251821  35.6589342
  39.1459040  56.7854360  35.3252512  38.4245626  57.3990328  35.1859986
  39.9352296  57.3212125  35.2469158  49.5885780  68.2314647  37.7754922
  48.6416116  68.1119999  37.7033249  49.9368553  67.3437146  37.8581184
  41.9485354  54.1208786  41.5993164  42.4719755  54.3671083  42.3619473
  41.7297687  54.9528821  41.1796302  37.3452635  56.3912461  29.4664289
  37.0165341  55.5109840  29.2839395  37.6992005  56.3360130  30.3540678
  46.5932213  68.0267364  33.9759275  46.4457176  67.0984071  34.1566845
  47.4185707  68.0487454  33.4916350  40.4594458  56.6785431  29.8339767
  40.7990530  57.2071352  29.1118375  40.9066578  57.0165837  30.6098333
  50.1966335  68.8495922  35.0624147  51.1212883  68.6438784  34.9248598
  50.0281639  68.6012324  35.9713489  43.1537899  55.0622481  39.2842835
  42.8134719  54.2630295  39.6863515  42.4476905  55.3624192  38.7119668
  43.8054370  52.1471794  37.7370158  44.6280440  51.6732272  37.6149048
  44.0492434  52.9262278  38.2368844  42.4462605  55.1760052  28.0333059
  43.1670967  55.5541305  27.5296776  41.8227909  55.8948929  28.1368037
  46.5893728  55.8805201  28.9691392  46.8057342  56.7629839  28.6680220
  46.1087795  55.4891415  28.2397034  41.3292949  58.8390915  35.5462136
  41.1837530  59.1531218  36.4386418  40.8518153  59.4575815  34.9933035
  43.1889332  55.8293463  35.5943026  43.1750901  54.9334556  35.2575324
  43.9061760  55.8364126  36.2281312  45.0415463  56.2630803  37.6396153
  44.7833241  57.1847873  37.6380484  44.5100503  55.8661237  38.3296617
  49.9861652  69.3681590  30.4186239  50.1598529  68.8028012  29.6660091
  50.4790543  70.1682485  30.2365729  35.8038611  61.3796259  38.4849798
  35.2592079  62.1556067  38.6170072  36.6817961  61.7267063  38.3268919
  42.5926228  54.7107843  30.8630596  42.7142139  53.7824489  31.0621484
  42.3028270  54.7246529  29.9508911  45.4617418  52.3962753  33.9997316
  45.4839115  52.4602086  33.0449295  45.8785477  51.5567262  34.1937822
  55.8401043  62.1318013  32.0376538  56.2832189  61.3825338  31.6395662
  54.9627553  62.1228149  31.6550270  50.9736824  68.6848354  27.5183137
  51.6687729  69.3055047  27.7370452  51.3159974  67.8343705  27.7935515
  36.5904633  60.5066155  41.3779954  35.8486369  60.6548791  41.9644585
  36.2697377  60.7674421  40.5146704  52.8728247  66.1348060  29.0470468
  53.3979571  66.4735333  28.3219788  52.7850600  65.1995075  28.8633602
  44.5348296  70.0482133  41.1760344  44.8435422  69.8031280  42.0483044
  45.3323778  70.2528772  40.6879215  44.5568908  72.2020043  33.4065721
  44.1173898  71.7096422  34.0998578  45.3077025  71.6593011  33.1657796
  37.0361247  68.3931584  33.4090349  37.8619267  68.0935356  33.0288993
  36.6855299  67.6239206  33.8580138  42.0042780  67.7458052  35.4788023
  41.3822789  67.0828757  35.1790250  42.6747647  67.7719184  34.7961670
  35.2369852  66.3117910  34.3679283  34.4001760  65.8840085  34.1863284
  35.2093497  66.5050354  35.3050074  42.0767308  56.2239840  45.0720529
  42.1255463  57.1001963  44.6898298  42.6189822  55.6817233  44.4992172
  52.5622153  66.7680963  44.3521666  51.7717697  66.7505102  43.8126165
  52.3255508  67.3069257  45.1070702  52.6820028  63.6173430  41.6654394
  52.7318033  63.4523437  42.6069917  52.5733952  62.7500689  41.2752275
  41.5656287  66.2961976  28.9546483  41.7144407  66.9797440  28.3013156
  42.3722730  66.2767066  29.4695939  49.9723791  59.6004358  42.9813701
  50.8733653  59.4610823  42.6897699  50.0471765  59.7658813  43.9211878
  44.3066596  56.9771213  41.8266887  43.4369905  57.2704779  41.5549476
  44.5426076  57.5611658  42.5474151  54.1838225  66.0370371  41.9096416
  53.8923033  66.4000352  42.7459877  53.5710356  65.3237380  41.7309748
  55.3833907  63.6023251  34.4298986  56.2180799  64.0413055  34.5936546
  55.5193036  63.1261904  33.6107232  52.4325413  61.1602986  40.3776474
  52.9079535  61.3530632  39.5695325  51.5090979  61.2162172  40.1319857
  39.3208920  62.3227153  29.9607552  39.0754962  61.4189483  30.1587762
  39.4904834  62.3244304  29.0187030  47.0105630  53.1950830  39.3432308
  47.5287574  53.9311856  39.0178796  46.6560763  53.5014823  40.1779067
  38.5904567  58.0555511  27.4593714  37.8973812  58.1299866  26.8033750
  38.3456319  57.2915854  27.9815230  47.2618224  49.6151112  34.8633204
  47.5419978  48.9474301  35.4893631  48.0468831  49.8080208  34.3507868
  45.0651692  68.7910106  26.4258231  44.4925660  69.4100293  25.9728702
  45.6384486  69.3409468  26.9598153  51.1327082  58.0368746  38.6104779
  52.0844505  58.1366844  38.6317003  50.9630533  57.2447015  39.1202864
  49.1541462  55.1224329  38.7964180  48.5591394  55.4029342  38.1010669
  48.8691158  55.6118230  39.5680921  48.2848952  69.0747256  27.5566813
  49.2179625  69.0092818  27.7599688  48.1972165  69.9103523  27.0981346
  50.9136969  68.3913126  24.5170760  50.8350600  68.0572990  25.4106518
  51.7346636  68.8834894  24.5162233  53.6115160  61.2574866  37.7247079
  53.5791480  60.3190866  37.9106763  54.2215784  61.3358902  36.9912904
  45.4498491  60.1270919  23.7674283  46.3957596  59.9977127  23.8362701
  45.0712736  59.3885581  24.2443711  53.7609649  58.0485909  37.7705362
  53.2448697  57.2644366  37.5835291  54.6449597  57.7204626  37.9351882
  51.4220376  51.7926925  33.7301175  51.2245197  51.4842013  34.6144507
  52.0320081  52.5188564  33.8599105  59.4291710  62.3190873  36.8653116
  60.1595098  62.0576161  37.4260819  58.8198655  61.5819595  36.9055184
  57.5107007  60.4598735  37.4627567  56.7840171  60.3254700  36.8544059
  57.0954294  60.7675564  38.2684285  45.3337184  64.1788665  45.2274940
  46.2540193  64.3567264  45.4214987  45.2986767  63.2344710  45.0754639
  43.6341408  58.0520895  23.7029168  42.7272864  57.7554008  23.7791882
  43.9117389  57.7550713  22.8363455  34.5519349  59.3727259  34.1528215
  34.2322133  58.5192567  33.8602589  34.0052777  59.5875837  34.9086182
  38.3299256  62.0889700  37.8697721  38.5485266  63.0206807  37.8885755
  38.7425030  61.7297674  38.6552525  45.2503474  52.5957785  29.8573410
  44.4404202  52.2504870  30.2328656  45.9387891  52.2865329  30.4461021
  47.1794022  51.6735832  31.4797706  47.7325061  52.0931285  32.1387729
  47.4164109  50.7471580  31.5220662  43.2027121  57.6622905  47.2600470
  43.1023848  58.6117262  47.1912561  42.9848663  57.3341144  46.3876540
  42.4040193  54.9107830  23.8441148  43.2659357  55.2362729  24.1036965
  42.5890537  54.1239326  23.3314213  34.4207609  62.9930170  36.1221336
  33.7271080  62.5784123  35.6091291  35.1680600  63.0350707  35.5254755
  50.5572829  53.7836357  30.9876371  49.9771498  54.4421161  30.6054423
  50.2908762  52.9613701  30.5763788  49.0076396  53.1841414  33.1897691
  49.5076174  53.2957949  32.3812010  49.6512004  52.8802467  33.8298499
  43.0658391  61.0920044  46.0765532  42.5825473  61.8920404  46.2829421
  43.1519330  61.1027989  45.1232976  36.3344351  62.9248424  33.9987351
  36.3115039  63.0236111  33.0469234  36.6444988  63.7713575  34.3204517
  38.9931729  64.9824579  38.1133966  39.9474982  64.9508521  38.0463897
  38.7944252  64.5215203  38.9284192  39.5831111  63.5525695  40.6804763
  40.4024000  64.0469774  40.7039601  39.8567919  62.6357663  40.6522331
  49.3397707  55.9436447  30.0432719  48.4523562  56.2286098  29.8252914
  49.7551696  55.7830211  29.1959996  52.6912243  55.9682968  33.7587058
  53.4672633  56.4579421  34.0311675  51.9660378  56.3941022  34.2158928
  55.1284802  56.6810587  34.8160999  55.7229293  56.4406323  34.1054307
  55.2011386  55.9617718  35.4434535  37.3481958  70.5244198  35.1304163
  37.2136426  69.7644599  34.5642162  36.9314020  71.2485098  34.6632952
  48.4840921  65.7081122  24.1380739  49.1876771  65.9131124  24.7538394
  47.7603569  66.2757884  24.4029822  49.3138731  61.4590983  30.2583009
  49.2573932  61.9159535  29.4190641  49.8667073  60.6981668  30.0805852
  53.1243537  57.2480715  31.0833128  52.8680471  56.8477351  31.9141336
  52.4996405  57.9624509  30.9583268  57.4355875  59.9876788  33.5904420
  56.8755433  60.0569978  34.3635982  56.8299378  59.8117773  32.8703916
  40.5051084  71.4213515  35.3422606  40.3883468  72.3658948  35.2401296
  39.6843530  71.1187077  35.7308405  50.3927618  66.1463651  26.1879199
  51.2273222  65.7144850  26.0056674  50.2311961  65.9745665  27.1156093
  50.0473510  62.6495764  27.5535538  49.9922314  62.4840036  26.6123982
  49.4219566  63.3571797  27.7097728  34.8366025  57.8863829  41.3796960
  35.4824889  57.3762783  41.8684185  34.6283176  58.6232510  41.9540386
  47.3619417  64.9544676  46.8789101  48.2310577  65.1285328  46.5175736
  46.8826169  65.7739093  46.7564830  43.3569636  52.1503873  27.1320857
  43.3448306  53.0945713  27.2889127  44.2493058  51.9674019  26.8380318
  41.5305598  72.0741777  38.5578535  42.4332844  72.1065387  38.8745029
  41.3042968  71.1442228  38.5724870  43.2859200  70.8272764  35.2188613
  42.3354831  70.8274625  35.1052985  43.5891686  70.0805498  34.7024648
  47.1721755  48.7446650  31.3866793  46.4054151  48.1905137  31.5323476
  47.5832460  48.8168519  32.2480945  39.1763516  55.0331446  45.4771975
  40.0394978  54.6768251  45.6875299  38.6028927  54.6945341  46.1647379
  59.0211893  76.6633302  36.2834376  59.6590303  76.5440050  35.5797716
  58.9032736  77.6114146  36.3422328  55.8301599  76.6160730  36.2195900
  55.4920111  76.5001795  35.3316435  56.6991368  76.2151895  36.1996906
  51.6888415  78.4696207  32.2092791  51.1253280  78.3786144  31.4409079
  51.5740810  77.6496111  32.6895284  56.3121382  77.7695582  42.1782106
  56.3010023  77.3748380  41.3062609  56.4742022  77.0361655  42.7715877
  49.2352847  79.9647398  35.0477012  50.0274139  79.6238223  34.6323311
  49.4749497  80.0742373  35.9679165  57.2687974  82.1367174  27.5207256
  56.6175954  82.7221255  27.1341270  58.0632337  82.6673369  27.5802294
  51.1943601  79.2256312  27.9194390  51.9674477  78.6785299  27.7807266
  51.5469000  80.0900561  28.1308852  53.0328644  80.5532694  41.1261290
  52.7418510  81.4578325  41.0107956  53.6685628  80.5949221  41.8405359
  53.9584850  77.9309542  37.7162649  54.5548423  77.7065565  37.0019612
  54.0159822  77.1894288  38.3188097  53.5309879  75.3848978  25.5512840
  53.7835400  74.8630499  24.7896303  52.5934438  75.2215123  25.6539524
  58.5753162  74.3884756  33.3587584  59.3616251  73.9704179  33.0078001
  58.8391866  75.2930848  33.5269232  58.7463239  79.8257606  28.0576240
  58.1109072  79.8992233  28.7697145  58.4160645  80.4151205  27.3795320
  63.9761589  74.3259989  34.2620562  64.7086761  73.7559206  34.4958392
  63.2200945  73.9381590  34.7027068  53.2506168  77.2877084  27.7537215
  53.1342426  76.6121987  28.4218300  53.3608428  76.8009458  26.9369368
  55.5937709  76.7487231  31.4583905  55.2295916  76.2217852  32.1696826
  56.4504824  76.3585700  31.2850390  61.4987009  68.0381563  38.7215171
  61.1670334  68.9076974  38.4976386  60.9032623  67.7217847  39.4009201
  55.2343196  71.7777130  26.4545253  55.4017598  72.6457367  26.8215724
  55.0440365  71.9404412  25.5306542  57.9918529  80.2394109  38.1211083
  57.6919252  81.1419148  38.0126891  57.6469588  79.9726293  38.9732236
  51.4431010  76.6907906  34.1547788  50.5181507  76.5584120  34.3625480
  51.6915423  77.4702125  34.6517730  61.3915673  72.7576649  35.8008521
  60.4832550  72.6892058  35.5067282  61.3403268  73.2348594  36.6290346
  55.2132416  74.2334788  27.4391920  55.0932042  74.6791839  28.2777400
  54.5185005  74.5820106  26.8805458  48.8039821  76.3341180  34.9891577
  48.9332202  76.5875659  35.9030989  48.1237273  76.9268888  34.6696232
  52.9739309  87.0038430  31.0882051  52.8963338  87.9546255  31.1670532
  52.3700952  86.6584302  31.7456977  55.4656538  74.1766295  43.7443418
  54.6889872  74.7360215  43.7346283  56.1047101  74.6623078  44.2658288
  63.2577319  70.9593088  37.5786395  62.6151699  71.2525621  36.9326189
  62.7532247  70.8446008  38.3839591  60.9117483  74.7056261  28.2672254
  61.8235339  74.9383648  28.0919951  60.4027130  75.2893305  27.7047333
  53.7202911  76.9851748  43.3061385  54.4617595  77.5236792  43.0296209
  53.0139896  77.6118037  43.4632937  59.1958250  79.1280889  41.9033547
  59.6041606  78.6863299  41.1588179  58.4735512  78.5533516  42.1567739
  55.5489320  74.0653496  39.2767103  56.3950515  74.4892909  39.4201752
  55.4887958  73.4087120  39.9705667  59.5187065  79.6882080  35.6585835
  58.8895927  79.8527794  34.9561903  59.1312727  80.1023689  36.4296799
  63.3976297  80.6236517  33.0130199  62.7127335  81.0035419  32.4627232
  63.4820146  81.2331844  33.7462147  58.6988766  71.7257864  40.9348277
  58.4549697  72.4799925  40.3982553  58.9748696  72.1043212  41.7695524
  60.6527228  78.2696476  39.6125543  60.8644124  78.9128236  38.9359924
  60.6056977  77.4358793  39.1447473  58.2553457  70.8814297  36.5162115
  57.3937936  71.1795551  36.8078852  58.2815892  71.0984696  35.5843147
  55.0715027  79.4256488  32.9235921  55.5353372  79.7044191  32.1340543
  54.8071825  78.5239932  32.7409011  51.9639108  78.9727969  35.8615684
  52.5340465  79.4015238  35.2233168  52.5547220  78.6910554  36.5599869
  54.0083913  75.5479640  29.7325486  54.7107956  76.0000684  30.1999412
  53.6764541  74.9063459  30.3605379  52.4564274  74.1391397  44.1076695
  51.8262935  74.8207677  44.3412092  52.3500362  74.0274478  43.1629833
  47.7509247  73.8063193  35.0342619  46.9608301  74.0620721  34.5582730
  48.2420494  74.6211530  35.1394660  61.7673056  81.1468432  37.7847900
  62.5890500  80.7448619  37.5030582  61.7635459  81.0436666  38.7364016
  49.7023992  74.1707772  31.9926096  48.9055155  74.2826466  32.5109592
  49.4749584  74.5094424  31.1266986  55.5329660  80.6952475  39.9408611
  55.5974092  81.1572882  40.7766782  54.8240584  80.0649840  40.0690920
  46.0346950  74.0593683  37.4657610  46.2854988  74.9440693  37.7315186
  46.5706498  73.8798285  36.6932702  69.8579049  77.4907180  34.1332872
  69.1042758  76.9214578  33.9776876  69.9926591  77.4569845  35.0803506
  55.2477677  82.3620583  29.8087591  55.1123352  83.2072118  30.2372439
  55.7887490  82.5639860  29.0453525  51.7345017  68.4412162  46.4701946
  51.3411963  67.8878361  47.1449590  52.5511157  68.7522741  46.8608464
  48.7007075  79.8796021  30.3815516  49.2131595  80.6739271  30.5321081
  49.3529788  79.1822311  30.3149117  50.5101960  82.9961777  32.4638269
  50.6868588  83.9179742  32.2759253  51.3058793  82.6820196  32.8932649
  54.6512978  69.8570042  44.0622203  55.3922691  70.4577195  43.9826665
  54.8830901  69.1147679  43.5040245  49.7954316  75.0426409  42.3400432
  49.6807831  74.1411666  42.6407531  48.9398834  75.2890106  41.9885249
  56.8746154  82.9844149  43.9387933  56.4310008  82.1980528  43.6208837
  57.5363367  83.1723300  43.2731824  51.6333275  84.5139951  38.4648611
  52.1840700  84.3857014  37.6925605  50.7944751  84.8134840  38.1143504
  58.9727392  83.2646949  41.9669334  58.9545867  84.0855830  41.4749603
  59.8947312  83.1401024  42.1919475  55.4300446  80.7791079  42.8092843
  55.9628783  80.0179367  42.5792151  54.9014527  80.4864730  43.5516997
  58.5970141  65.8851144  38.3386484  58.2534410  66.7752786  38.2625595
  58.9649104  65.6952802  37.4756069  46.6655992  78.2084675  31.1575086
  47.5031214  78.6181683  30.9408794  46.8434259  77.2684117  31.1275280
  58.5620424  75.8759756  26.8458919  58.0467047  76.6464360  27.0847307
  58.2897732  75.2024892  27.4691981  56.1467535  70.7209456  31.9044158
  55.2909131  70.3316307  31.7249797  56.5594487  70.8001417  31.0443943
  57.6766681  68.2555800  36.3035718  57.1731477  68.2185935  35.4903523
  57.9697288  69.1648542  36.3632374  53.9209567  68.3394529  35.3101899
  54.7862564  68.1437338  34.9507789  53.9887076  68.1104881  36.2371256
  63.5354698  78.6292110  28.7812093  62.7584141  78.2903270  28.3367255
  64.2146179  78.6344733  28.1067058  58.3506727  73.7486848  28.6718701
  58.0456862  74.0632997  29.5228844  59.3037169  73.8268268  28.7146034
  56.7953159  79.9077071  30.3211655  56.2674520  79.1729831  30.0084892
  56.2940661  80.6851747  30.0751623  61.7746005  78.1026091  35.4378701
  61.1169679  78.7925353  35.5258830  62.5786404  78.4922523  35.7812687
  51.5271886  70.5696737  32.6818266  52.1015638  70.3471919  31.9491459
  52.1142869  70.6385432  33.4346867  60.5851464  76.4570464  33.4882643
  61.0983345  77.0900456  33.9904352  61.2352687  75.8571660  33.1226003
  51.8541473  72.6001198  26.7014151  51.0178786  72.9375885  27.0223426
  51.7146243  72.4650178  25.7641288  53.8294554  67.4437986  31.4093336
  53.1758966  67.1287003  30.7849950  53.7875028  66.8213727  32.1353158
  54.9405759  77.7257281  23.3246628  54.0332821  77.4946535  23.5237777
  55.4376791  76.9294901  23.5120609  57.8473838  86.4354788  26.2443314
  57.1735537  86.7386485  26.8528272  58.2339660  87.2383869  25.8948771
  57.0632294  73.9319920  35.7340983  56.1454856  74.1534867  35.5762671
  57.4792438  74.0066230  34.8752691  57.8467342  75.3311335  30.8643663
  58.5939161  75.8432733  30.5550785  58.1158932  75.0095388  31.7248057
  56.1193992  77.8269876  27.8470618  55.2105212  77.5428909  27.9443087
  56.1489076  78.2468955  26.9873925  61.3513260  81.4376466  31.6161785
  60.8975587  80.5967376  31.6726976  60.7207226  82.0737864  31.9536565
  60.2946179  72.3668452  32.8462453  59.5568936  71.8545838  33.1772695
  60.5472953  71.9268833  32.0345730  59.7946199  83.2752962  32.5511603
  60.0869173  83.8358019  31.8323969  60.3044820  83.5681523  33.3064763
  60.3957807  65.1444704  33.4404222  60.7016683  64.2842067  33.1530137
  61.1210411  65.7362324  33.2403216  46.6882163  75.5475390  31.8285820
  46.4906563  74.9544751  31.1036886  46.1328827  75.2427600  32.5461759
  54.6678886  75.4398497  33.9480413  54.7227496  74.4872333  33.8722890
  53.8570088  75.5957936  34.4321711  55.8170080  79.3678620  25.1858696
  55.3789510  78.6514479  24.7264334  56.5580521  79.5954735  24.6243788
  52.6071246  74.0575556  31.7070792  51.7939112  74.3569727  32.1135984
  53.1030240  73.6631245  32.4245274  54.7579824  84.0533313  33.6405057
  54.7156003  84.2794160  32.7113589  55.6742523  83.8196688  33.7890858
  58.2045458  74.5217381  40.5385686  58.5594846  74.7488854  41.3980152
  58.8517589  74.8535758  39.9162941  63.9343195  77.6435817  31.2435015
  63.7961094  77.8337413  30.3156204  63.5779414  78.4055200  31.7003066
  52.0985321  71.6293912  37.3232027  52.7384700  71.4882671  36.6254990
  51.2662852  71.3428425  36.9470629  63.9612575  79.7112344  36.2546286
  64.3949081  79.6187633  37.1029340  64.6744155  79.6869844  35.6166302
  52.8745625  80.9296342  33.4367019  53.6686223  80.4346663  33.2349594
  52.1637317  80.4014206  33.0734725  57.6940469  83.3114438  37.7879387
  57.7477492  83.8805374  38.5557103  56.8255251  83.4816323  37.4233424
  49.1828388  75.0739424  29.5126772  48.2525977  75.0123880  29.7296734
  49.2785860  74.5515377  28.7163413  49.1013937  71.5994237  32.1005014
  49.3620755  72.5139570  31.9914174  49.9231110  71.1318680  32.2501627
  50.5738863  73.0131994  39.2703838  51.2461916  72.8049356  38.6216487
  49.7468649  72.8154080  38.8309071  64.8228124  79.7536044  38.7879172
  65.0164014  80.6581855  39.0338447  64.7228742  79.2943464  39.6217757
  56.4764435  69.6393935  41.2869499  55.8292350  70.3383885  41.1933976
  57.2465450  70.0730079  41.6545747  59.8843233  79.9042787  44.3620052
  59.7328739  79.6753339  43.4450136  59.8747912  80.8613389  44.3751397
  56.6528569  77.4774700  39.3466319  57.5820629  77.6285860  39.1735286
  56.2319599  77.5658721  38.4914965  55.4516901  81.5025364  37.1164856
  55.3127987  81.1344149  37.9890795  54.6631497  82.0173004  36.9448814
  56.0465053  86.6034461  28.4590393  56.2216809  86.1322504  29.2736016
  55.3597841  87.2300227  28.6871654  57.0022116  80.8806967  34.5053694
  56.6671949  80.8407737  35.4011344  56.5026062  80.2151683  34.0324104
  50.9766360  76.2874597  40.0306275  50.8386158  75.5554836  40.6317814
  51.8871284  76.1983497  39.7490463  59.9381308  78.2263001  24.7790754
  59.3210478  77.5009830  24.6823807  59.4697796  78.9872362  24.4357828
  53.6048661  75.9994556  39.5189955  54.3148279  75.3587749  39.4776573
  53.5617969  76.2507451  40.4416136  61.5935439  82.9361910  42.4396534
  61.5347986  82.2521130  41.7727117  61.9954958  83.6780900  41.9877160
  52.3177595  72.9859774  41.3385595  51.7814952  72.5350513  41.9907191
  51.7294303  73.1205683  40.5956059  50.6126138  89.7523824  35.2330253
  50.8522736  90.3842348  35.9109272  49.7695335  89.4011864  35.5195612
  51.7279854  72.4448426  23.9012058  50.8509320  72.3237227  23.5374305
  52.2037607  71.6534504  23.6490947  61.5952847  80.9001494  40.6710514
  60.7079625  80.5627416  40.7936913  62.1651398  80.1684525  40.9079279
  43.2481994  77.2325585  33.9953565  43.9353034  76.9187316  33.4074581
  43.0930123  78.1366950  33.7220817  48.0516716  72.1215782  38.4238589
  47.9674905  71.5141452  37.6888999  47.2299422  72.6124800  38.4248085
  55.1254000  85.5602946  37.6371757  55.0524172  86.3657918  38.1491062
  54.6831393  85.7594912  36.8119779  54.9143780  84.7974716  31.1474579
  54.1311302  85.3396396  31.2412803  55.6136525  85.3148696  31.5468820
  58.2240430  70.6069346  33.7908784  58.7209129  69.8539308  33.4709854
  57.4527411  70.6433662  33.2251993  66.0770187  76.3109711  35.4327076
  66.0660063  77.1934427  35.0621009  65.2087567  75.9581262  35.2381613
  57.5852684  85.4589780  39.7929916  58.2980656  86.0937245  39.7205817
  57.0942712  85.5553646  38.9769918  59.3070211  79.3641033  31.3647207
  58.3726489  79.4842495  31.1951912  59.4846879  78.4613500  31.1007217
  54.8075399  72.7486729  33.5180469  54.4373186  72.1957769  34.2061374
  55.3034491  72.1444862  32.9655469  62.6942762  75.2058352  31.8997242
  63.1603214  76.0386344  31.8257544  63.1450262  74.7403334  32.6042500
  52.6364597  83.2084224  40.6135487  53.3374057  83.8420707  40.7664881
  52.1659712  83.5498955  39.8531126  60.7618993  81.5502173  28.8983394
  61.0378837  81.4358768  29.8077268  59.8923492  81.1519658  28.8595567
  60.6659425  67.5738939  35.9388143  59.7522504  67.8043166  36.1070350
  61.0952526  67.6577383  36.7902175  60.4365883  75.7628831  38.4388037
  59.7837333  76.0104738  37.7840490  60.8146263  74.9492969  38.1050514
  57.3973057  85.7988524  32.5416207  57.5795452  84.9810180  33.0043960
  58.2206043  86.0156216  32.1041097  57.7315222  84.7256709  29.8031256
  58.2602989  84.2149164  29.1901418  57.9943442  84.4099240  30.6676789
  56.4853456  76.5048642  44.9254074  55.8094093  76.4042771  45.5956449
  57.3081090  76.3487856  45.3890071  48.2332315  82.7420579  37.5466589
  48.8185752  81.9964267  37.6794493  48.0357154  83.0524535  38.4303253
  51.0870970  85.7771826  32.5629032  50.4181346  86.2617954  32.0793072
  50.9483840  86.0241046  33.4772410  42.8249970  75.3126179  36.2671032
  42.8634069  74.7789770  37.0608151  42.3190263  74.7861384  35.6482010
  55.2276239  87.8115570  39.1611690  55.7794547  87.9747191  39.9260775
  55.5682432  88.4020007  38.4891715  50.2040732  70.1590719  39.7633575
  50.2682059  71.0205550  39.3510972  50.1407852  69.5464721  39.0305933
  49.6793005  72.2313852  43.4106609  50.3065044  71.8490929  44.0244133
  48.8220924  72.0128054  43.7762301  60.0787113  82.6376827  45.0160344
  60.6227017  83.2506785  44.5215299  59.4973958  83.1956405  45.5327357
  46.4558548  74.0390281  29.3424964  46.7511989  73.1300959  29.2892018
  45.5546583  74.0178020  29.0205966  58.3644626  85.7597545  36.1475372
  58.2395766  84.9587285  35.6386318  59.0223717  86.2543738  35.6589342
  49.9852795  72.1146278  35.3252512  49.2639380  72.7282245  35.1859986
  50.7746050  72.6504042  35.2469158  60.4279535  83.5606565  37.7754922
  59.4809870  83.4411916  37.7033249  60.7762308  82.6729063  37.8581184
  52.7879108  69.4500704  41.5993164  53.3113510  69.6963001  42.3619473
  52.5691441  70.2820739  41.1796302  48.1846389  71.7204379  29.4664289
  47.8559095  70.8401758  29.2839395  48.5385760  71.6652047  30.3540678
  57.4325968  83.3559281  33.9759275  57.2850930  82.4275989  34.1566845
  58.2579461  83.3779372  33.4916350  51.2988212  72.0077348  29.8339767
  51.6384285  72.5363270  29.1118375  51.7460333  72.3457755  30.6098333
  61.0360090  84.1787840  35.0624147  61.9606637  83.9730701  34.9248598
  60.8675393  83.9304241  35.9713489  53.9931653  70.3914399  39.2842835
  53.6528473  69.5922212  39.6863515  53.2870659  70.6916110  38.7119668
  54.6448125  67.4763712  37.7370158  55.4674194  67.0024190  37.6149048
  54.8886188  68.2554195  38.2368844  53.2856359  70.5051970  28.0333059
  54.0064722  70.8833223  27.5296776  52.6621664  71.2240847  28.1368037
  57.4287482  71.2097119  28.9691392  57.6451097  72.0921757  28.6680220
  56.9481549  70.8183332  28.2397034  52.1686704  74.1682832  35.5462136
  52.0231284  74.4823135  36.4386418  51.6911907  74.7867733  34.9933035
  54.0283087  71.1585380  35.5943026  54.0144655  70.2626474  35.2575324
  54.7455515  71.1656044  36.2281312  55.8809217  71.5922720  37.6396153
  55.6226995  72.5139791  37.6380484  55.3494258  71.1953155  38.3296617
  60.8255406  84.6973508  30.4186239  60.9992284  84.1319930  29.6660091
  61.3184297  85.4974402  30.2365729  46.6432366  76.7088177  38.4849798
  46.0985834  77.4847985  38.6170072  47.5211716  77.0558981  38.3268919
  53.4319982  70.0399761  30.8630596  53.5535894  69.1116407  31.0621484
  53.1422025  70.0538446  29.9508911  56.3011173  67.7254671  33.9997316
  56.3232870  67.7894004  33.0449295  56.7179232  66.8859180  34.1937822
  66.6794797  77.4609930  32.0376538  67.1225943  76.7117256  31.6395662
  65.8021307  77.4520067  31.6550270  61.8130579  84.0140272  27.5183137
  62.5081483  84.6346965  27.7370452  62.1553729  83.1635623  27.7935515
  47.4298388  75.8358073  41.3779954  46.6880124  75.9840708  41.9644585
  47.1091132  76.0966339  40.5146704  63.7122002  81.4639977  29.0470468
  64.2373326  81.8027250  28.3219788  63.6244354  80.5286993  28.8633602
  55.3742050  85.3774051  41.1760344  55.6829177  85.1323198  42.0483044
  56.1717532  85.5820690  40.6879215  55.3962662  87.5311961  33.4065721
  54.9567653  87.0388339  34.0998578  56.1470779  86.9884928  33.1657796
  47.8755001  83.7223502  33.4090349  48.7013021  83.4227273  33.0288993
  47.5249053  82.9531124  33.8580138  52.8436535  83.0749970  35.4788023
  52.2216544  82.4120675  35.1790250  53.5141401  83.1011102  34.7961670
  46.0763606  81.6409828  34.3679283  45.2395515  81.2132002  34.1863284
  46.0487252  81.8342271  35.3050074  52.9161062  71.5531758  45.0720529
  52.9649217  72.4293881  44.6898298  53.4583576  71.0109151  44.4992172
  63.4015908  82.0972881  44.3521666  62.6111451  82.0797020  43.8126165
  63.1649262  82.6361175  45.1070702  63.5213783  78.9465347  41.6654394
  63.5711788  78.7815355  42.6069917  63.4127706  78.0792607  41.2752275
  52.4050041  81.6253893  28.9546483  52.5538162  82.3089358  28.3013156
  53.2116485  81.6058983  29.4695939  60.8117545  74.9296276  42.9813701
  61.7127408  74.7902740  42.6897699  60.8865520  75.0950730  43.9211878
  55.1460350  72.3063130  41.8266887  54.2763660  72.5996696  41.5549476
  55.3819831  72.8903575  42.5474151  65.0231980  81.3662289  41.9096416
  64.7316788  81.7292270  42.7459877  64.4104111  80.6529297  41.7309748
  66.2227662  78.9315169  34.4298986  67.0574553  79.3704973  34.5936546
  66.3586791  78.4553822  33.6107232  63.2719168  76.4894904  40.3776474
  63.7473289  76.6822550  39.5695325  62.3484733  76.5454089  40.1319857
  50.1602674  77.6519071  29.9607552  49.9148716  76.7481401  30.1587762
  50.3298589  77.6536221  29.0187030  57.8499384  68.5242747  39.3432308
  58.3681328  69.2603774  39.0178796  57.4954517  68.8306740  40.1779067
  49.4298322  73.3847428  27.4593714  48.7367567  73.4591783  26.8033750
  49.1850074  72.6207772  27.9815230  58.1011978  64.9443030  34.8633204
  58.3813732  64.2766219  35.4893631  58.8862585  65.1372125  34.3507868
  55.9045447  84.1202024  26.4258231  55.3319414  84.7392211  25.9728702
  56.4778241  84.6701385  26.9598153  61.9720837  73.3660664  38.6104779
  62.9238260  73.4658761  38.6317003  61.8024287  72.5738932  39.1202864
  59.9935216  70.4516247  38.7964180  59.3985148  70.7321260  38.1010669
  59.7084913  70.9410148  39.5680921  59.1242707  84.4039174  27.5566813
  60.0573380  84.3384735  27.7599688  59.0365920  85.2395441  27.0981346
  61.7530723  83.7205044  24.5170760  61.6744355  83.3864908  25.4106518
  62.5740390  84.2126812  24.5162233  64.4508915  76.5866783  37.7247079
  64.4185235  75.6482784  37.9106763  65.0609538  76.6650820  36.9912904
  56.2892245  75.4562836  23.7674283  57.2351350  75.3269044  23.8362701
  55.9106490  74.7177498  24.2443711  64.6003403  73.3777827  37.7705362
  64.0842452  72.5936283  37.5835291  65.4843352  73.0496543  37.9351882
  62.2614130  67.1218842  33.7301175  62.0638951  66.8133931  34.6144507
  62.8713836  67.8480481  33.8599105  70.2685464  77.6482790  36.8653116
  70.9988853  77.3868078  37.4260819  69.6592410  76.9111512  36.9055184
  68.3500762  75.7890653  37.4627567  67.6233925  75.6546618  36.8544059
  67.9348048  76.0967481  38.2684285  56.1730938  79.5080583  45.2274940
  57.0933947  79.6859182  45.4214987  56.1380521  78.5636628  45.0754639
  54.4735163  73.3812813  23.7029168  53.5666618  73.0845925  23.7791882
  54.7511144  73.0842631  22.8363455  45.3913103  74.7019176  34.1528215
  45.0715887  73.8484484  33.8602589  44.8446531  74.9167754  34.9086182
  49.1693011  77.4181617  37.8697721  49.3879020  78.3498725  37.8885755
  49.5818784  77.0589592  38.6552525  56.0897228  67.9249702  29.8573410
  55.2797957  67.5796787  30.2328656  56.7781645  67.6157246  30.4461021
  58.0187777  67.0027749  31.4797706  58.5718815  67.4223203  32.1387729
  58.2557863  66.0763497  31.5220662  54.0420876  72.9914823  47.2600470
  53.9417603  73.9409180  47.1912561  53.8242418  72.6633062  46.3876540
  53.2433947  70.2399748  23.8441148  54.1053111  70.5654646  24.1036965
  53.4284291  69.4531244  23.3314213  45.2601363  78.3222088  36.1221336
  44.5664834  77.9076040  35.6091291  46.0074354  78.3642624  35.5254755
  61.3966584  69.1128274  30.9876371  60.8165253  69.7713078  30.6054423
  61.1302516  68.2905619  30.5763788  59.8470150  68.5133332  33.1897691
  60.3469928  68.6249867  32.3812010  60.4905758  68.2094385  33.8298499
  53.9052146  76.4211962  46.0765532  53.4219228  77.2212322  46.2829421
  53.9913085  76.4319907  45.1232976  47.1738106  78.2540341  33.9987351
  47.1508794  78.3528029  33.0469234  47.4838742  79.1005492  34.3204517
  49.8325483  80.3116496  38.1133966  50.7868737  80.2800439  38.0463897
  49.6338007  79.8507120  38.9284192  50.4224866  78.8817613  40.6804763
  51.2417755  79.3761691  40.7039601  50.6961673  77.9649581  40.6522331
  60.1791462  71.2728365  30.0432719  59.2917317  71.5578015  29.8252914
  60.5945451  71.1122128  29.1959996  63.5305998  71.2974886  33.7587058
  64.3066388  71.7871338  34.0311675  62.8054132  71.7232940  34.2158928
  65.9678556  72.0102505  34.8160999  66.5623047  71.7698241  34.1054307
  66.0405140  71.2909636  35.4434535  48.1875712  85.8536116  35.1304163
  48.0530180  85.0936517  34.5642162  47.7707774  86.5777016  34.6632952
  59.3234675  81.0373040  24.1380739  60.0270525  81.2423042  24.7538394
  58.5997324  81.6049801  24.4029822  60.1532485  76.7882901  30.2583009
  60.0967687  77.2451452  29.4190641  60.7060828  76.0273585  30.0805852
  63.9637291  72.5772633  31.0833128  63.7074226  72.1769268  31.9141336
  63.3390159  73.2916427  30.9583268  68.2749629  75.3168706  33.5904420
  67.7149187  75.3861895  34.3635982  67.6693133  75.1409691  32.8703916
  51.3444838  86.7505433  35.3422606  51.2277222  87.6950865  35.2401296
  50.5237284  86.4478995  35.7308405  61.2321373  81.4755569  26.1879199
  62.0666977  81.0436767  26.0056674  61.0705716  81.3037582  27.1156093
  60.8867265  77.9787682  27.5535538  60.8316069  77.8131953  26.6123982
  60.2613320  78.6863715  27.7097728  45.6759780  73.2155746  41.3796960
  46.3218643  72.7054700  41.8684185  45.4676931  73.9524428  41.9540386
  58.2013172  80.2836594  46.8789101  59.0704332  80.4577246  46.5175736
  57.7219923  81.1031011  46.7564830  54.1963390  67.4795791  27.1320857
  54.1842060  68.4237631  27.2889127  55.0886812  67.2965936  26.8380318
  52.3699352  87.4033695  38.5578535  53.2726599  87.4357305  38.8745029
  52.1436722  86.4734146  38.5724870  54.1252954  86.1564681  35.2188613
  53.1748585  86.1566543  35.1052985  54.4285440  85.4097416  34.7024648
  58.0115510  64.0738568  31.3866793  57.2447906  63.5197054  31.5323476
  58.4226215  64.1460436  32.2480945  50.0157271  70.3623363  45.4771975
  50.8788732  70.0060168  45.6875299  49.4422681  70.0237258  46.1647379
  69.8605648  91.9925220  36.2834376  70.4984058  91.8731967  35.5797716
  69.7426491  92.9406064  36.3422328  66.6695354  91.9452648  36.2195900
  66.3313866  91.8293713  35.3316435  67.5385122  91.5443813  36.1996906
  62.5282170  93.7988124  32.2092791  61.9647035  93.7078061  31.4409079
  62.4134565  92.9788029  32.6895284  67.1515137  93.0987500  42.1782106
  67.1403778  92.7040298  41.3062609  67.3135776  92.3653572  42.7715877
  60.0746602  95.2939316  35.0477012  60.8667894  94.9530141  34.6323311
  60.3143252  95.4034291  35.9679165  68.1081728  97.4659092  27.5207256
  67.4569708  98.0513172  27.1341270  68.9026091  97.9965287  27.5802294
  62.0337356  94.5548229  27.9194390  62.8068232  94.0077216  27.7807266
  62.3862754  95.4192479  28.1308852  63.8722398  95.8824611  41.1261290
  63.5812264  96.7870242  41.0107956  64.5079382  95.9241139  41.8405359
  64.7978605  93.2601460  37.7162649  65.3942177  93.0357482  37.0019612
  64.8553577  92.5186205  38.3188097  64.3703633  90.7140895  25.5512840
  64.6229154  90.1922417  24.7896303  63.4328192  90.5507041  25.6539524
  69.4146916  89.7176674  33.3587584  70.2010005  89.2996097  33.0078001
  69.6785621  90.6222766  33.5269232  69.5856994  95.1549524  28.0576240
  68.9502827  95.2284150  28.7697145  69.2554400  95.7443123  27.3795320
  74.8155343  89.6551907  34.2620562  75.5480515  89.0851124  34.4958392
  74.0594699  89.2673507  34.7027068  64.0899922  92.6169001  27.7537215
  63.9736180  91.9413905  28.4218300  64.2002182  92.1301375  26.9369368
  66.4331463  92.0779148  31.4583905  66.0689670  91.5509769  32.1696826
  67.2898579  91.6877617  31.2850390  72.3380764  83.3673481  38.7215171
  72.0064088  84.2368892  38.4976386  71.7426377  83.0509765  39.4009201
  66.0736950  87.1069048  26.4545253  66.2411352  87.9749284  26.8215724
  65.8834119  87.2696330  25.5306542  68.8312283  95.5686027  38.1211083
  68.5313006  96.4711066  38.0126891  68.4863343  95.3018210  38.9732236
  62.2824765  92.0199824  34.1547788  61.3575261  91.8876038  34.3625480
  62.5309178  92.7994043  34.6517730  72.2309427  88.0868567  35.8008521
  71.3226304  88.0183976  35.5067282  72.1797023  88.5640512  36.6290346
  66.0526171  89.5626706  27.4391920  65.9325796  90.0083756  28.2777400
  65.3578759  89.9112023  26.8805458  59.6433576  91.6633097  34.9891577
  59.7725957  91.9167576  35.9030989  58.9631027  92.2560805  34.6696232
  63.8133063 102.3330347  31.0882051  63.7357093 103.2838172  31.1670532
  63.2094707 101.9876220  31.7456977  66.3050293  89.5058213  43.7443418
  65.5283627  90.0652133  43.7346283  66.9440856  89.9914996  44.2658288
  74.0971073  86.2885006  37.5786395  73.4545454  86.5817539  36.9326189
  73.5926002  86.1737926  38.3839591  71.7511237  90.0348179  28.2672254
  72.6629093  90.2675565  28.0919951  71.2420884  90.6185223  27.7047333
  64.5596665  92.3143666  43.3061385  65.3011349  92.8528710  43.0296209
  63.8533651  92.9409955  43.4632937  70.0352005  94.4572807  41.9033547
  70.4435361  94.0155217  41.1588179  69.3129266  93.8825434  42.1567739
  66.3883075  89.3945413  39.2767103  67.2344270  89.8184827  39.4201752
  66.3281712  88.7379038  39.9705667  70.3580819  95.0173997  35.6585835
  69.7289682  95.1819711  34.9561903  69.9706481  95.4315607  36.4296799
  74.2370051  95.9528435  33.0130199  73.5521089  96.3327336  32.4627232
  74.3213901  96.5623762  33.7462147  69.5382520  87.0549782  40.9348277
  69.2943452  87.8091842  40.3982553  69.8142451  87.4335129  41.7695524
  71.4920983  93.5988394  39.6125543  71.7037878  94.2420154  38.9359924
  71.4450731  92.7650711  39.1447473  69.0947212  86.2106215  36.5162115
  68.2331691  86.5087468  36.8078852  69.1209646  86.4276614  35.5843147
  65.9108781  94.7548405  32.9235921  66.3747127  95.0336108  32.1340543
  65.6465579  93.8531850  32.7409011  62.8032862  94.3019887  35.8615684
  63.3734219  94.7307155  35.2233168  63.3940974  94.0202472  36.5599869
  64.8477667  90.8771558  29.7325486  65.5501711  91.3292601  30.1999412
  64.5158296  90.2355377  30.3605379  63.2958029  89.4683314  44.1076695
  62.6656689  90.1499595  44.3412092  63.1894117  89.3566396  43.1629833
  58.5903001  89.1355110  35.0342619  57.8002055  89.3912639  34.5582730
  59.0814249  89.9503448  35.1394660  72.6066811  96.4760349  37.7847900
  73.4284255  96.0740537  37.5030582  72.6029214  96.3728584  38.7364016
  60.5417747  89.4999690  31.9926096  59.7448910  89.6118384  32.5109592
  60.3143339  89.8386342  31.1266986  66.3723414  96.0244393  39.9408611
  66.4367847  96.4864800  40.7766782  65.6634338  95.3941758  40.0690920
  56.8740704  89.3885601  37.4657610  57.1248743  90.2732611  37.7315186
  57.4100253  89.2090202  36.6932702  80.6972804  92.8199098  34.1332872
  79.9436512  92.2506496  33.9776876  80.8320345  92.7861762  35.0803506
  66.0871432  97.6912500  29.8087591  65.9517107  98.5364036  30.2372439
  66.6281244  97.8931778  29.0453525  62.5738772  83.7704080  46.4701946
  62.1805717  83.2170279  47.1449590  63.3904912  84.0814659  46.8608464
  59.5400829  95.2087938  30.3815516  60.0525350  96.0031189  30.5321081
  60.1923542  94.5114229  30.3149117  61.3495714  98.3253695  32.4638269
  61.5262342  99.2471659  32.2759253  62.1452548  98.0112114  32.8932649
  65.4906733  85.1861959  44.0622203  66.2316446  85.7869112  43.9826665
  65.7224655  84.4439597  43.5040245  60.6348071  90.3718326  42.3400432
  60.5201586  89.4703584  42.6407531  59.7792588  90.6182023  41.9885249
  67.7139908  98.3136067  43.9387933  67.2703762  97.5272445  43.6208837
  68.3757122  98.5015217  43.2731824  62.4727029  99.8431868  38.4648611
  63.0234455  99.7148932  37.6925605  61.6338505 100.1426757  38.1143504
  69.8121146  98.5938867  41.9669334  69.7939622  99.4147748  41.4749603
  70.7341066  98.4692942  42.1919475  66.2694201  96.1082996  42.8092843
  66.8022537  95.3471284  42.5792151  65.7408282  95.8156648  43.5516997
  69.4363895  81.2143062  38.3386484  69.0928165  82.1044704  38.2625595
  69.8042858  81.0244720  37.4756069  57.5049746  93.5376593  31.1575086
  58.3424968  93.9473601  30.9408794  57.6828014  92.5976035  31.1275280
  69.4014178  91.2051673  26.8458919  68.8860802  91.9756278  27.0847307
  69.1291487  90.5316809  27.4691981  66.9861289  86.0501374  31.9044158
  66.1302886  85.6608224  31.7249797  67.3988241  86.1293335  31.0443943
  68.5160436  83.5847717  36.3035718  68.0125231  83.5477852  35.4903523
  68.8091043  84.4940460  36.3632374  64.7603322  83.6686447  35.3101899
  65.6256319  83.4729256  34.9507789  64.8280831  83.4396799  36.2371256
  74.3748452  93.9584028  28.7812093  73.5977895  93.6195187  28.3367255
  75.0539933  93.9636651  28.1067058  69.1900481  89.0778765  28.6718701
  68.8850617  89.3924915  29.5228844  70.1430924  89.1560185  28.7146034
  67.6346913  95.2368989  30.3211655  67.1068275  94.5021748  30.0084892
  67.1334416  96.0143665  30.0751623  72.6139759  93.4318009  35.4378701
  71.9563434  94.1217271  35.5258830  73.4180158  93.8214441  35.7812687
  62.3665641  85.8988655  32.6818266  62.9409393  85.6763836  31.9491459
  62.9536623  85.9677349  33.4346867  71.4245218  91.7862382  33.4882643
  71.9377100  92.4192374  33.9904352  72.0746442  91.1863577  33.1226003
  62.6935228  87.9293116  26.7014151  61.8572540  88.2667803  27.0223426
  62.5539998  87.7942096  25.7641288  64.6688309  82.7729904  31.4093336
  64.0152721  82.4578921  30.7849950  64.6268783  82.1505644  32.1353158
  65.7799513  93.0549199  23.3246628  64.8726575  92.8238452  23.5237777
  66.2770545  92.2586818  23.5120609  68.6867592 101.7646706  26.2443314
  68.0129291 102.0678403  26.8528272  69.0733414 102.5675786  25.8948771
  67.9026049  89.2611837  35.7340983  66.9848610  89.4826784  35.5762671
  68.3186193  89.3358148  34.8752691  68.6861097  90.6603253  30.8643663
  69.4332916  91.1724650  30.5550785  68.9552686  90.3387306  31.7248057
  66.9587747  93.1561794  27.8470618  66.0498966  92.8720827  27.9443087
  66.9882831  93.5760872  26.9873925  72.1907014  96.7668383  31.6161785
  71.7369341  95.9259293  31.6726976  71.5600981  97.4029782  31.9536565
  71.1339934  87.6960369  32.8462453  70.3962691  87.1837756  33.1772695
  71.3866707  87.2560751  32.0345730  70.6339954  98.6044880  32.5511603
  70.9262928  99.1649937  31.8323969  71.1438574  98.8973441  33.3064763
  71.2351561  80.4736621  33.4404222  71.5410438  79.6133985  33.1530137
  71.9604166  81.0654242  33.2403216  57.5275917  90.8767308  31.8285820
  57.3300317  90.2836669  31.1036886  56.9722581  90.5719518  32.5461759
  65.5072641  90.7690414  33.9480413  65.5621251  89.8164251  33.8722890
  64.6963843  90.9249854  34.4321711  66.6563835  94.6970537  25.1858696
  66.2183265  93.9806396  24.7264334  67.3974276  94.9246652  24.6243788
  63.4465001  89.3867474  31.7070792  62.6332866  89.6861645  32.1135984
  63.9423995  88.9923163  32.4245274  65.5973579  99.3825231  33.6405057
  65.5549757  99.6086077  32.7113589  66.5136278  99.1488606  33.7890858
  69.0439212  89.8509299  40.5385686  69.3988600  90.0780772  41.3980152
  69.6911344  90.1827675  39.9162941  74.7736949  92.9727735  31.2435015
  74.6354848  93.1629330  30.3156204  74.4173168  93.7347117  31.7003066
  62.9379076  86.9585830  37.3232027  63.5778455  86.8174589  36.6254990
  62.1056606  86.6720343  36.9470629  74.8006329  95.0404262  36.2546286
  75.2342836  94.9479551  37.1029340  75.5137910  95.0161762  35.6166302
  63.7139379  96.2588260  33.4367019  64.5079978  95.7638580  33.2349594
  63.0031072  95.7306123  33.0734725  68.5334224  98.6406356  37.7879387
  68.5871246  99.2097292  38.5557103  67.6649005  98.8108241  37.4233424
  60.0222143  90.4031342  29.5126772  59.0919731  90.3415797  29.7296734
  60.1179615  89.8807295  28.7163413  59.9407692  86.9286155  32.1005014
  60.2014509  87.8431488  31.9914174  60.7624864  86.4610597  32.2501627
  61.4132617  88.3423912  39.2703838  62.0855671  88.1341274  38.6216487
  60.5862404  88.1445998  38.8309071  75.6621879  95.0827962  38.7879172
  75.8557769  95.9873773  39.0338447  75.5622497  94.6235381  39.6217757
  67.3158189  84.9685853  41.2869499  66.6686104  85.6675802  41.1933976
  68.0859205  85.4021997  41.6545747  70.7236987  95.2334705  44.3620052
  70.5722494  95.0045257  43.4450136  70.7141667  96.1905306  44.3751397
  67.4922324  92.8066618  39.3466319  68.4214384  92.9577777  39.1735286
  67.0713354  92.8950638  38.4914965  66.2910655  96.8317282  37.1164856
  66.1521741  96.4636066  37.9890795  65.5025252  97.3464922  36.9448814
  66.8858807 101.9326379  28.4590393  67.0610563 101.4614422  29.2736016
  66.1991595 102.5592145  28.6871654  67.8415871  96.2098885  34.5053694
  67.5065703  96.1699655  35.4011344  67.3419816  95.5443601  34.0324104
  61.8160115  91.6166515  40.0306275  61.6779913  90.8846754  40.6317814
  62.7265038  91.5275415  39.7490463  70.7775062  93.5554919  24.7790754
  70.1604233  92.8301747  24.6823807  70.3091551  94.3164279  24.4357828
  64.4442415  91.3286474  39.5189955  65.1542034  90.6879666  39.4776573
  64.4011723  91.5799369  40.4416136  72.4329194  98.2653827  42.4396534
  72.3741740  97.5813048  41.7727117  72.8348712  99.0072817  41.9877160
  63.1571349  88.3151692  41.3385595  62.6208706  87.8642430  41.9907191
  62.5688058  88.4497601  40.5956059  61.4519893 105.0815741  35.2330253
  61.6916491 105.7134265  35.9109272  60.6089089 104.7303781  35.5195612
  62.5673608  87.7740343  23.9012058  61.6903074  87.6529144  23.5374305
  63.0431361  86.9826422  23.6490947  72.4346601  96.2293411  40.6710514
  71.5473380  95.8919333  40.7936913  73.0045152  95.4976443  40.9079279
  54.0875748  92.5617503  33.9953565  54.7746788  92.2479233  33.4074581
  53.9323877  93.4658868  33.7220817  58.8910470  87.4507700  38.4238589
  58.8068659  86.8433369  37.6888999  58.0693177  87.9416718  38.4248085
  65.9647755 100.8894864  37.6371757  65.8917926 101.6949835  38.1491062
  65.5225148 101.0886830  36.8119779  65.7537534 100.1266634  31.1474579
  64.9705056 100.6688314  31.2412803  66.4530279 100.6440613  31.5468820
  69.0634184  85.9361263  33.7908784  69.5602884  85.1831226  33.4709854
  68.2921166  85.9725580  33.2251993  76.9163942  91.6401629  35.4327076
  76.9053818  92.5226344  35.0621009  76.0481321  91.2873180  35.2381613
  68.4246438 100.7881698  39.7929916  69.1374410 101.4229163  39.7205817
  67.9336467 100.8845564  38.9769918  70.1463965  94.6932950  31.3647207
  69.2120244  94.8134413  31.1951912  70.3240633  93.7905417  31.1007217
  65.6469153  88.0778646  33.5180469  65.2766941  87.5249687  34.2061374
  66.1428246  87.4736780  32.9655469  73.5336516  90.5350270  31.8997242
  73.9996969  91.3678261  31.8257544  73.9844017  90.0695251  32.6042500
  63.4758352  98.5376141  40.6135487  64.1767811  99.1712624  40.7664881
  63.0053467  98.8790873  39.8531126  71.6012747  96.8794091  28.8983394
  71.8772591  96.7650686  29.8077268  70.7317246  96.4811576  28.8595567
  71.5053179  82.9030857  35.9388143  70.5916259  83.1335084  36.1070350
  71.9346281  82.9869301  36.7902175  71.2759638  91.0920749  38.4388037
  70.6231088  91.3396656  37.7840490  71.6540018  90.2784887  38.1050514
  68.2366811 101.1280442  32.5416207  68.4189206 100.3102098  33.0043960
  69.0599797 101.3448134  32.1041097  68.5708977 100.0548627  29.8031256
  69.0996743  99.5441082  29.1901418  68.8337197  99.7391157  30.6676789
  67.3247211  91.8340560  44.9254074  66.6487848  91.7334689  45.5956449
  68.1474845  91.6779773  45.3890071  59.0726070  98.0712496  37.5466589
  59.6579507  97.3256184  37.6794493  58.8750908  98.3816453  38.4303253
  61.9264725 101.1063744  32.5629032  61.2575100 101.5909871  32.0793072
  61.7877595 101.3532964  33.4772410  53.6643724  90.6418097  36.2671032
  53.7027824  90.1081687  37.0608151  53.1584017  90.1153302  35.6482010
  66.0669994 103.1407487  39.1611690  66.6188302 103.3039109  39.9260775
  66.4076187 103.7311925  38.4891715  61.0434487  85.4882637  39.7633575
  61.1075813  86.3497468  39.3510972  60.9801607  84.8756639  39.0305933
  60.5186759  87.5605770  43.4106609  61.1458798  87.1782847  44.0244133
  59.6614678  87.3419971  43.7762301  70.9180868  97.9668745  45.0160344
  71.4620772  98.5798703  44.5215299  70.3367713  98.5248323  45.5327357
  57.2952302  89.3682199  29.3424964  57.5905743  88.4592877  29.2892018
  56.3940338  89.3469938  29.0205966  69.2038381 101.0889463  36.1475372
  69.0789520 100.2879203  35.6386318  69.8617472 101.5835656  35.6589342
  60.8246549  87.4438195  35.3252512  60.1033135  88.0574163  35.1859986
  61.6139805  87.9795960  35.2469158  71.2673289  98.8898483  37.7754922
  70.3203625  98.7703834  37.7033249  71.6156062  98.0020981  37.8581184
  63.6272863  84.7792622  41.5993164  64.1507264  85.0254918  42.3619473
  63.4085196  85.6112657  41.1796302  59.0240144  87.0496296  29.4664289
  58.6952850  86.1693675  29.2839395  59.3779514  86.9943965  30.3540678
  68.2719722  98.6851199  33.9759275  68.1244685  97.7567906  34.1566845
  69.0973216  98.7071290  33.4916350  62.1381967  87.3369266  29.8339767
  62.4778039  87.8655187  29.1118375  62.5854087  87.6749672  30.6098333
  71.8753844  99.5079758  35.0624147  72.8000392  99.3022619  34.9248598
  71.7069148  99.2596159  35.9713489  64.8325408  85.7206317  39.2842835
  64.4922228  84.9214130  39.6863515  64.1264414  86.0208028  38.7119668
  65.4841879  82.8055629  37.7370158  66.3067949  82.3316107  37.6149048
  65.7279943  83.5846113  38.2368844  64.1250114  85.8343888  28.0333059
  64.8458476  86.2125140  27.5296776  63.5015418  86.5532765  28.1368037
  68.2681237  86.5389037  28.9691392  68.4844851  87.4213675  28.6680220
  67.7875304  86.1475250  28.2397034  63.0080458  89.4974750  35.5462136
  62.8625039  89.8115053  36.4386418  62.5305662  90.1159650  34.9933035
  64.8676841  86.4877298  35.5943026  64.8538410  85.5918391  35.2575324
  65.5849269  86.4947962  36.2281312  66.7202972  86.9214638  37.6396153
  66.4620750  87.8431709  37.6380484  66.1888012  86.5245073  38.3296617
  71.6649161 100.0265425  30.4186239  71.8386038  99.4611848  29.6660091
  72.1578052 100.8266320  30.2365729  57.4826120  92.0380094  38.4849798
  56.9379588  92.8139902  38.6170072  58.3605470  92.3850899  38.3268919
  64.2713737  85.3691678  30.8630596  64.3929648  84.4408324  31.0621484
  63.9815779  85.3830364  29.9508911  67.1404927  83.0546589  33.9997316
  67.1626624  83.1185922  33.0449295  67.5572986  82.2151097  34.1937822
  77.5188552  92.7901848  32.0376538  77.9619698  92.0409173  31.6395662
  76.6415062  92.7811985  31.6550270  72.6524333  99.3432190  27.5183137
  73.3475238  99.9638882  27.7370452  72.9947483  98.4927541  27.7935515
  58.2692142  91.1649991  41.3779954  57.5273878  91.3132626  41.9644585
  57.9484886  91.4258256  40.5146704  74.5515756  96.7931895  29.0470468
  75.0767080  97.1319168  28.3219788  74.4638109  95.8578910  28.8633602
  66.2135805 100.7065969  41.1760344  66.5222931 100.4615116  42.0483044
  67.0111287 100.9112607  40.6879215  66.2356417 102.8603878  33.4065721
  65.7961407 102.3680257  34.0998578  66.9864534 102.3176846  33.1657796
  58.7148756  99.0515419  33.4090349  59.5406776  98.7519191  33.0288993
  58.3642808  98.2823042  33.8580138  63.6830289  98.4041888  35.4788023
  63.0610298  97.7412593  35.1790250  64.3535156  98.4303019  34.7961670
  56.9157361  96.9701746  34.3679283  56.0789269  96.5423920  34.1863284
  56.8881006  97.1634189  35.3050074  63.7554817  86.8823676  45.0720529
  63.8042972  87.7585798  44.6898298  64.2977331  86.3401069  44.4992172
  74.2409662  97.4264799  44.3521666  73.4505206  97.4088938  43.8126165
  74.0043017  97.9653092  45.1070702  74.3607537  94.2757265  41.6654394
  74.4105542  94.1107273  42.6069917  74.2521461  93.4084524  41.2752275
  63.2443796  96.9545811  28.9546483  63.3931916  97.6381275  28.3013156
  64.0510239  96.9350901  29.4695939  71.6511300  90.2588193  42.9813701
  72.5521162  90.1194658  42.6897699  71.7259274  90.4242648  43.9211878
  65.9854105  87.6355048  41.8266887  65.1157414  87.9288614  41.5549476
  66.2213585  88.2195493  42.5474151  75.8625734  96.6954207  41.9096416
  75.5710542  97.0584187  42.7459877  75.2497865  95.9821215  41.7309748
  77.0621416  94.2607086  34.4298986  77.8968308  94.6996891  34.5936546
  77.1980545  93.7845740  33.6107232  74.1112922  91.8186821  40.3776474
  74.5867044  92.0114468  39.5695325  73.1878488  91.8746007  40.1319857
  60.9996429  92.9810988  29.9607552  60.7542471  92.0773318  30.1587762
  61.1692343  92.9828139  29.0187030  68.6893139  83.8534665  39.3432308
  69.2075083  84.5895692  39.0178796  68.3348272  84.1598658  40.1779067
  60.2692076  88.7139346  27.4593714  59.5761321  88.7883701  26.8033750
  60.0243828  87.9499690  27.9815230  68.9405733  80.2734947  34.8633204
  69.2207487  79.6058136  35.4893631  69.7256340  80.4664043  34.3507868
  66.7439201  99.4493941  26.4258231  66.1713169 100.0684128  25.9728702
  67.3171995  99.9993303  26.9598153  72.8114591  88.6952581  38.6104779
  73.7632014  88.7950679  38.6317003  72.6418042  87.9030850  39.1202864
  70.8328971  85.7808165  38.7964180  70.2378903  86.0613177  38.1010669
  70.5478667  86.2702066  39.5680921  69.9636461  99.7331091  27.5566813
  70.8967134  99.6676653  27.7599688  69.8759674 100.5687358  27.0981346
  72.5924478  99.0496962  24.5170760  72.5138109  98.7156825  25.4106518
  73.4134145  99.5418730  24.5162233  75.2902669  91.9158701  37.7247079
  75.2578989  90.9774702  37.9106763  75.9003293  91.9942738  36.9912904
  67.1286000  90.7854754  23.7674283  68.0745105  90.6560962  23.8362701
  66.7500245  90.0469416  24.2443711  75.4397158  88.7069745  37.7705362
  74.9236206  87.9228201  37.5835291  76.3237106  88.3788461  37.9351882
  73.1007884  82.4510760  33.7301175  72.9032706  82.1425848  34.6144507
  73.7107590  83.1772399  33.8599105  81.1079219  92.9774708  36.8653116
  81.8382607  92.7159996  37.4260819  80.4986164  92.2403430  36.9055184
  79.1894516  91.1182571  37.4627567  78.4627680  90.9838535  36.8544059
  78.7741803  91.4259399  38.2684285  67.0124692  94.8372500  45.2274940
  67.9327702  95.0151099  45.4214987  66.9774276  93.8928546  45.0754639
  65.3128917  88.7104730  23.7029168  64.4060373  88.4137843  23.7791882
  65.5904898  88.4134549  22.8363455  56.2306857  90.0311094  34.1528215
  55.9109642  89.1776402  33.8602589  55.6840286  90.2459672  34.9086182
  60.0086765  92.7473535  37.8697721  60.2272775  93.6790643  37.8885755
  60.4212539  92.3881509  38.6552525  66.9290983  83.2541620  29.8573410
  66.1191711  82.9088705  30.2328656  67.6175400  82.9449164  30.4461021
  68.8581531  82.3319667  31.4797706  69.4112570  82.7515120  32.1387729
  69.0951617  81.4055415  31.5220662  64.8814630  88.3206741  47.2600470
  64.7811357  89.2701098  47.1912561  64.6636172  87.9924980  46.3876540
  64.0827702  85.5691666  23.8441148  64.9446866  85.8946564  24.1036965
  64.2678046  84.7823162  23.3314213  56.0995117  93.6514005  36.1221336
  55.4058589  93.2367958  35.6091291  56.8468108  93.6934542  35.5254755
  72.2360338  84.4420192  30.9876371  71.6559007  85.1004996  30.6054423
  71.9696271  83.6197537  30.5763788  70.6863905  83.8425250  33.1897691
  71.1863683  83.9541784  32.3812010  71.3299513  83.5386303  33.8298499
  64.7445900  91.7503879  46.0765532  64.2612982  92.5504240  46.2829421
  64.8306839  91.7611824  45.1232976  58.0131860  93.5832259  33.9987351
  57.9902548  93.6819946  33.0469234  58.3232497  94.4297410  34.3204517
  60.6719238  95.6408414  38.1133966  61.6262491  95.6092356  38.0463897
  60.4731761  95.1799038  38.9284192  61.2618620  94.2109530  40.6804763
  62.0811509  94.7053609  40.7039601  61.5355428  93.2941498  40.6522331
  71.0185216  86.6020283  30.0432719  70.1311071  86.8869933  29.8252914
  71.4339205  86.4414046  29.1959996  74.3699752  86.6266803  33.7587058
  75.1460142  87.1163256  34.0311675  73.6447887  87.0524858  34.2158928
  76.8072311  87.3394423  34.8160999  77.4016802  87.0990159  34.1054307
  76.8798895  86.6201553  35.4434535  59.0269467 101.1828034  35.1304163
  58.8923935 100.4228435  34.5642162  58.6101529 101.9068934  34.6632952
  70.1628430  96.3664957  24.1380739  70.8664280  96.5714960  24.7538394
  69.4391078  96.9341719  24.4029822  70.9926240  92.1174818  30.2583009
  70.9361441  92.5743370  29.4190641  71.5454582  91.3565503  30.0805852
  74.8031046  87.9064550  31.0833128  74.5467980  87.5061186  31.9141336
  74.1783914  88.6208344  30.9583268  79.1143384  90.6460624  33.5904420
  78.5542942  90.7153813  34.3635982  78.5086887  90.4701608  32.8703916
  62.1838593 102.0797351  35.3422606  62.0670977 103.0242783  35.2401296
  61.3631039 101.7770912  35.7308405  72.0715127  96.8047486  26.1879199
  72.9060731  96.3728685  26.0056674  71.9099470  96.6329500  27.1156093
  71.7261019  93.3079600  27.5535538  71.6709823  93.1423871  26.6123982
  71.1007075  94.0155633  27.7097728  56.5153534  88.5447664  41.3796960
  57.1612398  88.0346618  41.8684185  56.3070685  89.2816346  41.9540386
  69.0406926  95.6128512  46.8789101  69.9098086  95.7869164  46.5175736
  68.5613678  96.4322928  46.7564830  65.0357145  82.8087709  27.1320857
  65.0235815  83.7529549  27.2889127  65.9280567  82.6257854  26.8380318
  63.2093107 102.7325613  38.5578535  64.1120353 102.7649223  38.8745029
  62.9830477 101.8026064  38.5724870  64.9646709 101.4856599  35.2188613
  64.0142340 101.4858461  35.1052985  65.2679195 100.7389334  34.7024648
  68.8509264  79.4030485  31.3866793  68.0841660  78.8488972  31.5323476
  69.2619969  79.4752354  32.2480945  60.8551025  85.6915281  45.4771975
  61.7182487  85.3352086  45.6875299  60.2816436  85.3529176  46.1647379
  80.6999402 107.3217137  36.2834376  81.3377812 107.2023885  35.5797716
  80.5820245 108.2697981  36.3422328  77.5089108 107.2744566  36.2195900
  77.1707620 107.1585630  35.3316435  78.3778877 106.8735731  36.1996906
  73.3675924 109.1280042  32.2092791  72.8040789 109.0369979  31.4409079
  73.2528319 108.3079946  32.6895284  77.9908891 108.4279417  42.1782106
  77.9797532 108.0332216  41.3062609  78.1529531 107.6945490  42.7715877
  70.9140356 110.6231234  35.0477012  71.7061648 110.2822058  34.6323311
  71.1537006 110.7326209  35.9679165  78.9475483 112.7951010  27.5207256
  78.2963463 113.3805090  27.1341270  79.7419846 113.3257205  27.5802294
  72.8731110 109.8840147  27.9194390  73.6461986 109.3369134  27.7807266
  73.2256509 110.7484396  28.1308852  74.7116153 111.2116529  41.1261290
  74.4206019 112.1162160  41.0107956  75.3473137 111.2533057  41.8405359
  75.6372359 108.5893378  37.7162649  76.2335932 108.3649400  37.0019612
  75.6947331 107.8478123  38.3188097  75.2097388 106.0432813  25.5512840
  75.4622909 105.5214334  24.7896303  74.2721947 105.8798958  25.6539524
  80.2540671 105.0468591  33.3587584  81.0403760 104.6288015  33.0078001
  80.5179375 105.9514684  33.5269232  80.4250748 110.4841442  28.0576240
  79.7896581 110.5576068  28.7697145  80.0948154 111.0735040  27.3795320
  85.6549098 104.9843825  34.2620562  86.3874270 104.4143041  34.4958392
  84.8988454 104.5965425  34.7027068  74.9293677 107.9460919  27.7537215
  74.8129935 107.2705822  28.4218300  75.0395936 107.4593293  26.9369368
  77.2725218 107.4071066  31.4583905  76.9083425 106.8801687  32.1696826
  78.1292333 107.0169535  31.2850390  83.1774518  98.6965399  38.7215171
  82.8457843  99.5660810  38.4976386  82.5820132  98.3801683  39.4009201
  76.9130705 102.4360966  26.4545253  77.0805107 103.3041202  26.8215724
  76.7227874 102.5988247  25.5306542  79.6706038 110.8977945  38.1211083
  79.3706761 111.8002983  38.0126891  79.3257097 110.6310128  38.9732236
  73.1218519 107.3491741  34.1547788  72.1969016 107.2167956  34.3625480
  73.3702932 108.1285961  34.6517730  83.0703181 103.4160485  35.8008521
  82.1620059 103.3475893  35.5067282  83.0190777 103.8932430  36.6290346
  76.8919925 104.8918623  27.4391920  76.7719551 105.3375674  28.2777400
  76.1972514 105.2403941  26.8805458  70.4827330 106.9925015  34.9891577
  70.6119711 107.2459494  35.9030989  69.8024782 107.5852723  34.6696232
  74.6526817 117.6622265  31.0882051  74.5750847 118.6130090  31.1670532
  74.0488461 117.3168137  31.7456977  77.1444047 104.8350130  43.7443418
  76.3677381 105.3944051  43.7346283  77.7834610 105.3206913  44.2658288
  84.9364828 101.6176923  37.5786395  84.2939208 101.9109456  36.9326189
  84.4319756 101.5029844  38.3839591  82.5904992 105.3640096  28.2672254
  83.5022848 105.5967483  28.0919951  82.0814639 105.9477141  27.7047333
  75.3990420 107.6435584  43.3061385  76.1405104 108.1820628  43.0296209
  74.6927405 108.2701873  43.4632937  80.8745759 109.7864724  41.9033547
  81.2829115 109.3447135  41.1588179  80.1523021 109.2117352  42.1567739
  77.2276829 104.7237331  39.2767103  78.0738024 105.1476745  39.4201752
  77.1675467 104.0670955  39.9705667  81.1974574 110.3465915  35.6585835
  80.5683436 110.5111629  34.9561903  80.8100236 110.7607524  36.4296799
  85.0763806 111.2820353  33.0130199  84.3914844 111.6619254  32.4627232
  85.1607655 111.8915679  33.7462147  80.3776275 102.3841699  40.9348277
  80.1337206 103.1383760  40.3982553  80.6536205 102.7627047  41.7695524
  82.3314737 108.9280312  39.6125543  82.5431633 109.5712072  38.9359924
  82.2844486 108.0942628  39.1447473  79.9340966 101.5398132  36.5162115
  79.0725445 101.8379386  36.8078852  79.9603401 101.7568531  35.5843147
  76.7502536 110.0840323  32.9235921  77.2140881 110.3628026  32.1340543
  76.4859334 109.1823768  32.7409011  73.6426617 109.6311804  35.8615684
  74.2127974 110.0599073  35.2233168  74.2334729 109.3494389  36.5599869
  75.6871422 106.2063475  29.7325486  76.3895465 106.6584519  30.1999412
  75.3552050 105.5647294  30.3605379  74.1351783 104.7975232  44.1076695
  73.5050444 105.4791513  44.3412092  74.0287871 104.6858314  43.1629833
  69.4296756 104.4647028  35.0342619  68.6395810 104.7204557  34.5582730
  69.9208003 105.2795366  35.1394660  83.4460565 111.8052267  37.7847900
  84.2678009 111.4032454  37.5030582  83.4422968 111.7020501  38.7364016
  71.3811501 104.8291607  31.9926096  70.5842664 104.9410301  32.5109592
  71.1537093 105.1678259  31.1266986  77.2117169 111.3536310  39.9408611
  77.2761601 111.8156718  40.7766782  76.5028093 110.7233675  40.0690920
  67.7134459 104.7177518  37.4657610  67.9642497 105.6024528  37.7315186
  68.2494007 104.5382120  36.6932702  91.5366558 108.1491016  34.1332872
  90.7830267 107.5798414  33.9776876  91.6714100 108.1153680  35.0803506
  76.9265186 113.0204418  29.8087591  76.7910861 113.8655954  30.2372439
  77.4674999 113.2223696  29.0453525  73.4132526  99.0995998  46.4701946
  73.0199472  98.5462196  47.1449590  74.2298666  99.4106576  46.8608464
  70.3794584 110.5379856  30.3815516  70.8919104 111.3323106  30.5321081
  71.0317297 109.8406146  30.3149117  72.1889469 113.6545612  32.4638269
  72.3656097 114.5763577  32.2759253  72.9846302 113.3404031  32.8932649
  76.3300487 100.5153877  44.0622203  77.0710200 101.1161030  43.9826665
  76.5618410  99.7731515  43.5040245  71.4741825 105.7010244  42.3400432
  71.3595340 104.7995501  42.6407531  70.6186343 105.9473941  41.9885249
  78.5533663 113.6427984  43.9387933  78.1097517 112.8564363  43.6208837
  79.2150876 113.8307135  43.2731824  73.3120784 115.1723786  38.4648611
  73.8628209 115.0440849  37.6925605  72.4732260 115.4718675  38.1143504
  80.6514901 113.9230784  41.9669334  80.6333376 114.7439665  41.4749603
  81.5734821 113.7984860  42.1919475  77.1087955 111.4374914  42.8092843
  77.6416292 110.6763202  42.5792151  76.5802036 111.1448566  43.5516997
  80.2757650  96.5434980  38.3386484  79.9321919  97.4336622  38.2625595
  80.6436613  96.3536637  37.4756069  68.3443501 108.8668510  31.1575086
  69.1818723 109.2765519  30.9408794  68.5221768 107.9267952  31.1275280
  80.2407933 106.5343591  26.8458919  79.7254556 107.3048196  27.0847307
  79.9685241 105.8608727  27.4691981  77.8255044 101.3793292  31.9044158
  76.9696640 100.9900142  31.7249797  78.2381995 101.4585253  31.0443943
  79.3554190  98.9139635  36.3035718  78.8518986  98.8769770  35.4903523
  79.6484797  99.8232378  36.3632374  75.5997076  98.9978365  35.3101899
  76.4650073  98.8021173  34.9507789  75.6674585  98.7688716  36.2371256
  85.2142207 109.2875946  28.7812093  84.4371650 108.9487105  28.3367255
  85.8933688 109.2928569  28.1067058  80.0294236 104.4070683  28.6718701
  79.7244371 104.7216832  29.5228844  80.9824678 104.4852103  28.7146034
  78.4740668 110.5660906  30.3211655  77.9462029 109.8313666  30.0084892
  77.9728170 111.3435583  30.0751623  83.4533514 108.7609927  35.4378701
  82.7957188 109.4509188  35.5258830  84.2573913 109.1506359  35.7812687
  73.2059395 101.2280573  32.6818266  73.7803147 101.0055754  31.9491459
  73.7930378 101.2969267  33.4346867  82.2638973 107.1154300  33.4882643
  82.7770854 107.7484291  33.9904352  82.9140196 106.5155495  33.1226003
  73.5328982 103.2585034  26.7014151  72.6966295 103.5959720  27.0223426
  73.3933752 103.1234013  25.7641288  75.5082063  98.1021822  31.4093336
  74.8546475  97.7870839  30.7849950  75.4662537  97.4797562  32.1353158
  76.6193268 108.3841117  23.3246628  75.7120330 108.1530370  23.5237777
  77.1164300 107.5878736  23.5120609  78.7419803 104.5903755  35.7340983
  77.8242365 104.8118702  35.5762671  79.1579947 104.6650066  34.8752691
  79.5254851 105.9895171  30.8643663  80.2726670 106.5016568  30.5550785
  79.7946441 105.6679223  31.7248057  77.7981501 108.4853711  27.8470618
  76.8892721 108.2012744  27.9443087  77.8276585 108.9052790  26.9873925
  83.0300769 112.0960301  31.6161785  82.5763096 111.2551211  31.6726976
  82.3994735 112.7321699  31.9536565  81.9733688 103.0252287  32.8462453
  81.2356445 102.5129673  33.1772695  82.2260462 102.5852669  32.0345730
  81.4733708 113.9336798  32.5511603  81.7656682 114.4941855  31.8323969
  81.9832329 114.2265359  33.3064763  82.0745316  95.8028539  33.4404222
  82.3804192  94.9425902  33.1530137  82.7997920  96.3946159  33.2403216
  68.3669672 106.2059226  31.8285820  68.1694072 105.6128586  31.1036886
  67.8116336 105.9011436  32.5461759  76.3466395 106.0982332  33.9480413
  76.4015005 105.1456168  33.8722890  75.5357597 106.2541771  34.4321711
  77.4957589 110.0262455  25.1858696  77.0577019 109.3098314  24.7264334
  78.2368030 110.2538570  24.6243788  74.2858755 104.7159392  31.7070792
  73.4726621 105.0153562  32.1135984  74.7817749 104.3215081  32.4245274
  76.4367333 114.7117149  33.6405057  76.3943512 114.9377995  32.7113589
  77.3530032 114.4780523  33.7890858  79.8832967 105.1801216  40.5385686
  80.2382355 105.4072689  41.3980152  80.5305098 105.5119593  39.9162941
  85.6130704 108.3019652  31.2435015  85.4748603 108.4921248  30.3156204
  85.2566923 109.0639035  31.7003066  73.7772830 102.2877747  37.3232027
  74.4172209 102.1466506  36.6254990  72.9450361 102.0012261  36.9470629
  85.6400084 110.3696179  36.2546286  86.0736590 110.2771468  37.1029340
  86.3531664 110.3453680  35.6166302  74.5533134 111.5880178  33.4367019
  75.3473732 111.0930498  33.2349594  73.8424826 111.0598041  33.0734725
  79.3727978 113.9698273  37.7879387  79.4265001 114.5389210  38.5557103
  78.5042760 114.1400158  37.4233424  70.8615897 105.7323260  29.5126772
  69.9313486 105.6707715  29.7296734  70.9573369 105.2099212  28.7163413
  70.7801446 102.2578072  32.1005014  71.0408264 103.1723406  31.9914174
  71.6018619 101.7902515  32.2501627  72.2526372 103.6715830  39.2703838
  72.9249425 103.4633192  38.6216487  71.4256158 103.4737916  38.8309071
  86.5015633 110.4119880  38.7879172  86.6951523 111.3165690  39.0338447
  86.4016251 109.9527299  39.6217757  78.1551944 100.2977770  41.2869499
  77.5079859 100.9967720  41.1933976  78.9252959 100.7313914  41.6545747
  81.5630742 110.5626623  44.3620052  81.4116248 110.3337174  43.4450136
  81.5535421 111.5197224  44.3751397  78.3316078 108.1358535  39.3466319
  79.2608138 108.2869695  39.1735286  77.9107108 108.2242556  38.4914965
  77.1304410 112.1609200  37.1164856  76.9915496 111.7927984  37.9890795
  76.3419006 112.6756839  36.9448814  77.7252562 117.2618296  28.4590393
  77.9004318 116.7906339  29.2736016  77.0385350 117.8884062  28.6871654
  78.6809625 111.5390802  34.5053694  78.3459458 111.4991572  35.4011344
  78.1813571 110.8735518  34.0324104  72.6553869 106.9458432  40.0306275
  72.5173667 106.2138671  40.6317814  73.5658793 106.8567333  39.7490463
  81.6168817 108.8846837  24.7790754  80.9997987 108.1593665  24.6823807
  81.1485305 109.6456197  24.4357828  75.2836170 106.6578392  39.5189955
  75.9935788 106.0171584  39.4776573  75.2405478 106.9091287  40.4416136
  83.2722948 113.5945745  42.4396534  83.2135495 112.9104965  41.7727117
  83.6742467 114.3364735  41.9877160  73.9965104 103.6443610  41.3385595
  73.4602461 103.1934348  41.9907191  73.4081812 103.7789519  40.5956059
  72.2913647 120.4107659  35.2330253  72.5310245 121.0426183  35.9109272
  71.4482844 120.0595699  35.5195612  73.4067363 103.1032261  23.9012058
  72.5296829 102.9821062  23.5374305  73.8825116 102.3118339  23.6490947
  83.2740356 111.5585329  40.6710514  82.3867134 111.2211251  40.7936913
  83.8438907 110.8268360  40.9079279  64.9269503 107.8909421  33.9953565
  65.6140543 107.5771151  33.4074581  64.7717631 108.7950785  33.7220817
  69.7304225 102.7799617  38.4238589  69.6462414 102.1725287  37.6888999
  68.9086931 103.2708636  38.4248085  76.8041509 116.2186781  37.6371757
  76.7311681 117.0241753  38.1491062  76.3618902 116.4178747  36.8119779
  76.5931289 115.4558551  31.1474579  75.8098811 115.9980232  31.2412803
  77.2924034 115.9732531  31.5468820  79.9027939 101.2653181  33.7908784
  80.3996638 100.5123143  33.4709854  79.1314920 101.3017498  33.2251993
  87.7557696 106.9693546  35.4327076  87.7447572 107.8518262  35.0621009
  86.8875076 106.6165097  35.2381613  79.2640193 116.1173615  39.7929916
  79.9768165 116.7521080  39.7205817  78.7730221 116.2137481  38.9769918
  80.9857719 110.0224868  31.3647207  80.0513998 110.1426331  31.1951912
  81.1634388 109.1197335  31.1007217  76.4862908 103.4070564  33.5180469
  76.1160695 102.8541604  34.2061374  76.9822000 102.8028697  32.9655469
  84.3730271 105.8642187  31.8997242  84.8390723 106.6970179  31.8257544
  84.8237771 105.3987169  32.6042500  74.3152106 113.8668059  40.6135487
  75.0161566 114.5004542  40.7664881  73.8447221 114.2082790  39.8531126
  82.4406502 112.2086009  28.8983394  82.7166346 112.0942603  29.8077268
  81.5711001 111.8103494  28.8595567  82.3446934  98.2322774  35.9388143
  81.4310013  98.4627001  36.1070350  82.7740035  98.3161218  36.7902175
  82.1153392 106.4212666  38.4388037  81.4624842 106.6688574  37.7840490
  82.4933772 105.6076805  38.1050514  79.0760566 116.4572360  32.5416207
  79.2582961 115.6394015  33.0043960  79.8993552 116.6740052  32.1041097
  79.4102731 115.3840545  29.8031256  79.9390498 114.8732999  29.1901418
  79.6730951 115.0683075  30.6676789  78.1640965 107.1632477  44.9254074
  77.4881602 107.0626607  45.5956449  78.9868599 107.0071691  45.3890071
  69.9119824 113.4004414  37.5466589  70.4973261 112.6548102  37.6794493
  69.7144663 113.7108371  38.4303253  72.7658479 116.4355661  32.5629032
  72.0968855 116.9201789  32.0793072  72.6271349 116.6824882  33.4772410
  64.5037479 105.9710014  36.2671032  64.5421578 105.4373605  37.0608151
  63.9977772 105.4445220  35.6482010  76.9063748 118.4699405  39.1611690
  77.4582056 118.6331026  39.9260775  77.2469941 119.0603843  38.4891715
  71.8828241 100.8174555  39.7633575  71.9469568 101.6789386  39.3510972
  71.8195361 100.2048556  39.0305933  71.3580514 102.8897687  43.4106609
  71.9852553 102.5074765  44.0244133  70.5008433 102.6711889  43.7762301
  81.7574622 113.2960662  45.0160344  82.3014526 113.9090621  44.5215299
  81.1761467 113.8540241  45.5327357  68.1346057 104.6974116  29.3424964
  68.4299498 103.7884795  29.2892018  67.2334092 104.6761856  29.0205966
  80.0432135 116.4181380  36.1475372  79.9183275 115.6171120  35.6386318
  80.7011226 116.9127574  35.6589342  71.6640304 102.7730113  35.3252512
  70.9426889 103.3866081  35.1859986  72.4533559 103.3087878  35.2469158
  82.1067044 114.2190400  37.7754922  81.1597379 114.0995752  37.7033249
  82.4549817 113.3312899  37.8581184  74.4666617 100.1084539  41.5993164
  74.9901019 100.3546836  42.3619473  74.2478950 100.9404574  41.1796302
  69.8633898 102.3788214  29.4664289  69.5346604 101.4985593  29.2839395
  70.2173269 102.3235883  30.3540678  79.1113477 114.0143117  33.9759275
  78.9638439 113.0859824  34.1566845  79.9366970 114.0363207  33.4916350
  72.9775721 102.6661184  29.8339767  73.3171794 103.1947105  29.1118375
  73.4247842 103.0041590  30.6098333  82.7147599 114.8371675  35.0624147
  83.6394146 114.6314537  34.9248598  82.5462902 114.5888077  35.9713489
  75.6719162 101.0498235  39.2842835  75.3315982 100.2506048  39.6863515
  74.9658168 101.3499945  38.7119668  76.3235634  98.1347547  37.7370158
  77.1461703  97.6608025  37.6149048  76.5673697  98.9138031  38.2368844
  74.9643868 101.1635805  28.0333059  75.6852231 101.5417058  27.5296776
  74.3409173 101.8824682  28.1368037  79.1074991 101.8680954  28.9691392
  79.3238606 102.7505592  28.6680220  78.6269058 101.4767168  28.2397034
  73.8474213 104.8266668  35.5462136  73.7018793 105.1406971  36.4386418
  73.3699416 105.4451568  34.9933035  75.7070596 101.8169216  35.5943026
  75.6932164 100.9210309  35.2575324  76.4243024 101.8239879  36.2281312
  77.5596726 102.2506556  37.6396153  77.3014504 103.1723626  37.6380484
  77.0281767 101.8536990  38.3296617  82.5042915 115.3557343  30.4186239
  82.6779793 114.7903765  29.6660091  82.9971806 116.1558238  30.2365729
  68.3219875 107.3672012  38.4849798  67.7773343 108.1431820  38.6170072
  69.1999225 107.7142816  38.3268919  75.1107491 100.6983596  30.8630596
  75.2323403  99.7700242  31.0621484  74.8209534 100.7122282  29.9508911
  77.9798682  98.3838506  33.9997316  78.0020379  98.4477839  33.0449295
  78.3966741  97.5443015  34.1937822  88.3582306 108.1193766  32.0376538
  88.8013452 107.3701091  31.6395662  87.4808816 108.1103902  31.6550270
  83.4918087 114.6724107  27.5183137  84.1868992 115.2930800  27.7370452
  83.8341238 113.8219459  27.7935515  69.1085897 106.4941908  41.3779954
  68.3667633 106.6424544  41.9644585  68.7878641 106.7550174  40.5146704
  85.3909511 112.1223813  29.0470468  85.9160835 112.4611086  28.3219788
  85.3031863 111.1870828  28.8633602  77.0529559 116.0357886  41.1760344
  77.3616686 115.7907033  42.0483044  77.8505041 116.2404525  40.6879215
  77.0750171 118.1895796  33.4065721  76.6355162 117.6972175  34.0998578
  77.8258288 117.6468764  33.1657796  69.5542510 114.3807337  33.4090349
  70.3800530 114.0811109  33.0288993  69.2036562 113.6114959  33.8580138
  74.5224044 113.7333805  35.4788023  73.9004053 113.0704510  35.1790250
  75.1928910 113.7594937  34.7961670  67.7551115 112.2993663  34.3679283
  66.9183024 111.8715838  34.1863284  67.7274761 112.4926107  35.3050074
  74.5948571 102.2115593  45.0720529  74.6436726 103.0877716  44.6898298
  75.1371085 101.6692986  44.4992172  85.0803417 112.7556716  44.3521666
  84.2898960 112.7380855  43.8126165  84.8436771 113.2945010  45.1070702
  85.2001292 109.6049183  41.6654394  85.2499297 109.4399190  42.6069917
  85.0915215 108.7376442  41.2752275  74.0837550 112.2837729  28.9546483
  74.2325671 112.9673193  28.3013156  74.8903994 112.2642819  29.4695939
  82.4905054 105.5880111  42.9813701  83.3914917 105.4486576  42.6897699
  82.5653029 105.7534566  43.9211878  76.8247859 102.9646966  41.8266887
  75.9551169 103.2580532  41.5549476  77.0607340 103.5487411  42.5474151
  86.7019489 112.0246124  41.9096416  86.4104297 112.3876105  42.7459877
  86.0891620 111.3113133  41.7309748  87.9015171 109.5899004  34.4298986
  88.7362062 110.0288808  34.5936546  88.0374300 109.1137657  33.6107232
  84.9506677 107.1478739  40.3776474  85.4260798 107.3406385  39.5695325
  84.0272242 107.2037925  40.1319857  71.8390183 108.3102906  29.9607552
  71.5936225 107.4065236  30.1587762  72.0086098 108.3120057  29.0187030
  79.5286893  99.1826583  39.3432308  80.0468837  99.9187609  39.0178796
  79.1742026  99.4890576  40.1779067  71.1085831 104.0431264  27.4593714
  70.4155076 104.1175619  26.8033750  70.8637583 103.2791607  27.9815230
  79.7799487  95.6026865  34.8633204  80.0601241  94.9350054  35.4893631
  80.5650094  95.7955961  34.3507868  77.5832956 114.7785859  26.4258231
  77.0106923 115.3976046  25.9728702  78.1565750 115.3285221  26.9598153
  83.6508346 104.0244499  38.6104779  84.6025769 104.1242597  38.6317003
  83.4811796 103.2322768  39.1202864  81.6722725 101.1100082  38.7964180
  81.0772657 101.3905095  38.1010669  81.3872422 101.5993983  39.5680921
  80.8030216 115.0623009  27.5566813  81.7360889 114.9968571  27.7599688
  80.7153429 115.8979276  27.0981346  86.1296424 107.2450619  37.7247079
  86.0972744 106.3066619  37.9106763  86.7397047 107.3234655  36.9912904
  77.9679754 106.1146672  23.7674283  78.9138859 105.9852880  23.8362701
  77.5893999 105.3761334  24.2443711  86.2790912 104.0361662  37.7705362
  85.7629961 103.2520119  37.5835291  87.1630861 103.7080379  37.9351882
  83.9401639  97.7802678  33.7301175  83.7426460  97.4717766  34.6144507
  84.5501345  98.5064317  33.8599105  91.9472973 108.3066626  36.8653116
  92.6776362 108.0451914  37.4260819  91.3379919 107.5695348  36.9055184
  90.0288271 106.4474488  37.4627567  89.3021434 106.3130453  36.8544059
  89.6135557 106.7551317  38.2684285  77.8518447 110.1664418  45.2274940
  78.7721456 110.3443017  45.4214987  77.8168030 109.2220463  45.0754639
  76.1522672 104.0396648  23.7029168  75.2454127 103.7429761  23.7791882
  76.4298653 103.7426466  22.8363455  67.0700612 105.3603012  34.1528215
  66.7503396 104.5068320  33.8602589  66.5234040 105.5751590  34.9086182
  70.8480520 108.0765453  37.8697721  71.0666529 109.0082560  37.8885755
  71.2606293 107.7173427  38.6552525  77.7684737  98.5833538  29.8573410
  76.9585466  98.2380623  30.2328656  78.4569154  98.2741082  30.4461021
  79.6975286  97.6611585  31.4797706  80.2506324  98.0807038  32.1387729
  79.9345372  96.7347333  31.5220662  75.7208385 103.6498658  47.2600470
  75.6205112 104.5993015  47.1912561  75.5029927 103.3216897  46.3876540
  74.9221456 100.8983583  23.8441148  75.7840620 101.2238482  24.1036965
  75.1071800 100.1115079  23.3314213  66.9388872 108.9805923  36.1221336
  66.2452343 108.5659876  35.6091291  67.6861863 109.0226460  35.5254755
  83.0754093  99.7712110  30.9876371  82.4952762 100.4296914  30.6054423
  82.8090025  98.9489454  30.5763788  81.5257659  99.1717168  33.1897691
  82.0257437  99.2833702  32.3812010  82.1693267  98.8678220  33.8298499
  75.5839655 107.0795797  46.0765532  75.1006737 107.8796157  46.2829421
  75.6700594 107.0903742  45.1232976  68.8525615 108.9124177  33.9987351
  68.8296303 109.0111864  33.0469234  69.1626251 109.7589328  34.3204517
  71.5112992 110.9700332  38.1133966  72.4656246 110.9384274  38.0463897
  71.3125516 110.5090956  38.9284192  72.1012375 109.5401448  40.6804763
  72.9205264 110.0345527  40.7039601  72.3749182 108.6233416  40.6522331
  81.8578971 101.9312200  30.0432719  80.9704826 102.2161851  29.8252914
  82.2732960 101.7705964  29.1959996  85.2093507 101.9558721  33.7587058
  85.9853897 102.4455174  34.0311675  84.4841641 102.3816775  34.2158928
  87.6466065 102.6686340  34.8160999  88.2410556 102.4282076  34.1054307
  87.7192649 101.9493471  35.4434535  69.8663221 116.5119951  35.1304163
  69.7317689 115.7520352  34.5642162  69.4495283 117.2360851  34.6632952
  81.0022184 111.6956875  24.1380739  81.7058034 111.9006877  24.7538394
  80.2784833 112.2633637  24.4029822  81.8319994 107.4466736  30.2583009
  81.7755196 107.9035288  29.4190641  82.3848337 106.6857421  30.0805852
  85.6424800 103.2356468  31.0833128  85.3861735 102.8353104  31.9141336
  85.0177668 103.9500262  30.9583268  89.9537138 105.9752541  33.5904420
  89.3936696 106.0445731  34.3635982  89.3480642 105.7993526  32.8703916
  73.0232347 117.4089268  35.3422606  72.9064731 118.3534701  35.2401296
  72.2024793 117.1062830  35.7308405  82.9108882 112.1339404  26.1879199
  83.7454486 111.7020603  26.0056674  82.7493225 111.9621418  27.1156093
  82.5654774 108.6371517  27.5535538  82.5103578 108.4715789  26.6123982
  81.9400829 109.3447550  27.7097728  67.3547289 103.8739582  41.3796960
  68.0006152 103.3638536  41.8684185  67.1464440 104.6108263  41.9540386
  79.8800681 110.9420429  46.8789101  80.7491841 111.1161082  46.5175736
  79.4007432 111.7614846  46.7564830  75.8750899  98.1379626  27.1320857
  75.8629569  99.0821466  27.2889127  76.7674321  97.9549772  26.8380318
  74.0486861 118.0617530  38.5578535  74.9514108 118.0941141  38.8745029
  73.8224231 117.1317981  38.5724870  75.8040463 116.8148517  35.2188613
  74.8536094 116.8150378  35.1052985  76.1072949 116.0681251  34.7024648
  79.6903019  94.7322403  31.3866793  78.9235414  94.1780890  31.5323476
  80.1013724  94.8044272  32.2480945  71.6944780 101.0207199  45.4771975
  72.5576241 100.6644004  45.6875299  71.1210190 100.6821094  46.1647379
  91.5393157 122.6509055  36.2834376  92.1771567 122.5315803  35.5797716
  91.4214000 123.5989899  36.3422328  88.3482863 122.6036483  36.2195900
  88.0101374 122.4877548  35.3316435  89.2172631 122.2027648  36.1996906
  88.8302646 123.7571335  42.1782106  88.8191287 123.3624133  41.3062609
  88.9923285 123.0237408  42.7715877  81.7534111 125.9523151  35.0477012
  82.5455403 125.6113976  34.6323311  81.9930761 126.0618126  35.9679165
  85.5509907 126.5408447  41.1261290  85.2599773 127.4454078  41.0107956
  86.1866891 126.5824974  41.8405359  86.4766114 123.9185295  37.7162649
  87.0729686 123.6941318  37.0019612  86.5341085 123.1770041  38.3188097
  91.0934425 120.3760509  33.3587584  91.8797514 119.9579932  33.0078001
  91.3573129 121.2806601  33.5269232  94.0168273 114.0257316  38.7215171
  93.6851597 114.8952727  38.4976386  93.4213886 113.7093600  39.4009201
  90.5099792 126.2269862  38.1211083  90.2100515 127.1294901  38.0126891
  90.1650852 125.9602046  38.9732236  83.9612274 122.6783659  34.1547788
  83.0362770 122.5459873  34.3625480  84.2096687 123.4577878  34.6517730
  93.9096936 118.7452403  35.8008521  93.0013813 118.6767811  35.5067282
  93.8584532 119.2224347  36.6290346  81.3221085 122.3216933  34.9891577
  81.4513466 122.5751412  35.9030989  80.6418536 122.9144641  34.6696232
  87.9837802 120.1642048  43.7443418  87.2071136 120.7235968  43.7346283
  88.6228365 120.6498831  44.2658288  95.7758582 116.9468841  37.5786395
  95.1332963 117.2401374  36.9326189  95.2713511 116.8321761  38.3839591
  86.2384174 122.9727501  43.3061385  86.9798858 123.5112545  43.0296209
  85.5321160 123.5993790  43.4632937  91.7139514 125.1156642  41.9033547
  92.1222870 124.6739052  41.1588179  90.9916775 124.5409269  42.1567739
  88.0670584 120.0529249  39.2767103  88.9131779 120.4768662  39.4201752
  88.0069221 119.3962873  39.9705667  91.2170029 117.7133617  40.9348277
  90.9730961 118.4675678  40.3982553  91.4929960 118.0918965  41.7695524
  93.1708492 124.2572229  39.6125543  93.3825387 124.9003989  38.9359924
  93.1238240 123.4234546  39.1447473  90.7734721 116.8690050  36.5162115
  89.9119200 117.1671304  36.8078852  90.7997155 117.0860449  35.5843147
  84.4820371 124.9603722  35.8615684  85.0521728 125.3890991  35.2233168
  85.0728483 124.6786307  36.5599869  84.9745538 120.1267150  44.1076695
  84.3444198 120.8083430  44.3412092  84.8681626 120.0150231  43.1629833
  80.2690510 119.7938946  35.0342619  79.4789564 120.0496474  34.5582730
  80.7601758 120.6087284  35.1394660  82.2205256 120.1583525  31.9926096
  81.4236419 120.2702219  32.5109592  81.9930848 120.4970177  31.1266986
  88.0510923 126.6828228  39.9408611  88.1155356 127.1448635  40.7766782
  87.3421847 126.0525593  40.0690920  78.5528213 120.0469436  37.4657610
  78.8036252 120.9316446  37.7315186  79.0887762 119.8674038  36.6932702
  84.2526281 114.4287915  46.4701946  83.8593226 113.8754114  47.1449590
  85.0692421 114.7398494  46.8608464  87.1694242 115.8445795  44.0622203
  87.9103955 116.4452948  43.9826665  87.4012164 115.1023432  43.5040245
  82.3135580 121.0302162  42.3400432  82.1989095 120.1287419  42.6407531
  81.4580097 121.2765859  41.9885249  84.1514538 130.5015704  38.4648611
  84.7021964 130.3732767  37.6925605  83.3126014 130.8010593  38.1143504
  87.9481710 126.7666832  42.8092843  88.4810046 126.0055120  42.5792151
  87.4195791 126.4740483  43.5516997  91.1151404 111.8726898  38.3386484
  90.7715674 112.7628539  38.2625595  91.4830367 111.6828555  37.4756069
  79.1837255 124.1960428  31.1575086  80.0212477 124.6057436  30.9408794
  79.3615523 123.2559870  31.1275280  88.6648798 116.7085209  31.9044158
  87.8090395 116.3192060  31.7249797  89.0775750 116.7877170  31.0443943
  90.1947945 114.2431553  36.3035718  89.6912740 114.2061688  35.4903523
  90.4878552 115.1524295  36.3632374  86.4390831 114.3270282  35.3101899
  87.3043828 114.1313091  34.9507789  86.5068340 114.0980634  36.2371256
  84.0453150 116.5572490  32.6818266  84.6196902 116.3347672  31.9491459
  84.6324132 116.6261185  33.4346867  86.3475818 113.4313739  31.4093336
  85.6940230 113.1162756  30.7849950  86.3056292 112.8089480  32.1353158
  89.5813558 119.9195673  35.7340983  88.6636119 120.1410620  35.5762671
  89.9973702 119.9941983  34.8752691  92.9139070 111.1320457  33.4404222
  93.2197947 110.2717820  33.1530137  93.6391675 111.7238077  33.2403216
  79.2063426 121.5351143  31.8285820  79.0087826 120.9420504  31.1036886
  78.6510090 121.2303353  32.5461759  87.1860150 121.4274250  33.9480413
  87.2408760 120.4748086  33.8722890  86.3751352 121.5833689  34.4321711
  85.1252510 120.0451310  31.7070792  84.3120375 120.3445480  32.1135984
  85.6211504 119.6506998  32.4245274  90.7226721 120.5093134  40.5385686
  91.0776109 120.7364607  41.3980152  91.3698853 120.8411511  39.9162941
  84.6166585 117.6169665  37.3232027  85.2565964 117.4758424  36.6254990
  83.7844115 117.3304178  36.9470629  81.6195201 117.5869990  32.1005014
  81.8802018 118.5015323  31.9914174  82.4412373 117.1194433  32.2501627
  83.0920126 119.0007747  39.2703838  83.7643180 118.7925109  38.6216487
  82.2649913 118.8029833  38.8309071  88.9945698 115.6269688  41.2869499
  88.3473613 116.3259638  41.1933976  89.7646714 116.0605832  41.6545747
  89.1709833 123.4650453  39.3466319  90.1001893 123.6161613  39.1735286
  88.7500863 123.5534474  38.4914965  87.9698164 127.4901117  37.1164856
  87.8309250 127.1219902  37.9890795  87.1812761 128.0048757  36.9448814
  83.4947624 122.2750350  40.0306275  83.3567421 121.5430589  40.6317814
  84.4052547 122.1859250  39.7490463  86.1229924 121.9870309  39.5189955
  86.8329543 121.3463502  39.4776573  86.0799232 122.2383204  40.4416136
  84.8358858 118.9735527  41.3385595  84.2996215 118.5226266  41.9907191
  84.2475567 119.1081436  40.5956059  75.7663257 123.2201339  33.9953565
  76.4534297 122.9063069  33.4074581  75.6111386 124.1242703  33.7220817
  80.5697979 118.1091535  38.4238589  80.4856168 117.5017205  37.6888999
  79.7480686 118.6000553  38.4248085  90.7421693 116.5945099  33.7908784
  91.2390393 115.8415061  33.4709854  89.9708675 116.6309415  33.2251993
  87.3256662 118.7362482  33.5180469  86.9554450 118.1833522  34.2061374
  87.8215755 118.1320615  32.9655469  85.1545861 129.1959977  40.6135487
  85.8555320 129.8296460  40.7664881  84.6840976 129.5374708  39.8531126
  93.1840688 113.5614692  35.9388143  92.2703768 113.7918919  36.1070350
  93.6133790 113.6453136  36.7902175  92.9547147 121.7504584  38.4388037
  92.3018597 121.9980492  37.7840490  93.3327526 120.9368722  38.1050514
  89.0034720 122.4924395  44.9254074  88.3275357 122.3918524  45.5956449
  89.8262353 122.3363609  45.3890071  80.7513579 128.7296332  37.5466589
  81.3367015 127.9840020  37.6794493  80.5538417 129.0400288  38.4303253
  75.3431233 121.3001932  36.2671032  75.3815333 120.7665523  37.0608151
  74.8371526 120.7737137  35.6482010  82.7221996 116.1466472  39.7633575
  82.7863322 117.0081303  39.3510972  82.6589116 115.5340474  39.0305933
  82.1974268 118.2189605  43.4106609  82.8246307 117.8366682  44.0244133
  81.3402187 118.0003807  43.7762301  78.9739811 120.0266034  29.3424964
  79.2693252 119.1176712  29.2892018  78.0727847 120.0053773  29.0205966
  82.5034058 118.1022031  35.3252512  81.7820644 118.7157998  35.1859986
  83.2927314 118.6379795  35.2469158  85.3060372 115.4376457  41.5993164
  85.8294773 115.6838754  42.3619473  85.0872705 116.2696492  41.1796302
  80.7027653 117.7080132  29.4664289  80.3740359 116.8277511  29.2839395
  81.0567023 117.6527800  30.3540678  83.8169476 117.9953101  29.8339767
  84.1565548 118.5239023  29.1118375  84.2641596 118.3333508  30.6098333
  86.5112917 116.3790152  39.2842835  86.1709737 115.5797965  39.6863515
  85.8051923 116.6791863  38.7119668  87.1629388 113.4639465  37.7370158
  87.9855458 112.9899943  37.6149048  87.4067452 114.2429948  38.2368844
  84.6867967 120.1558585  35.5462136  84.5412548 120.4698888  36.4386418
  84.2093171 120.7743486  34.9933035  86.5464350 117.1461133  35.5943026
  86.5325919 116.2502227  35.2575324  87.2636778 117.1531797  36.2281312
  88.3990481 117.5798473  37.6396153  88.1408259 118.5015544  37.6380484
  87.8675521 117.1828908  38.3296617  79.1613629 122.6963930  38.4849798
  78.6167097 123.4723738  38.6170072  80.0392979 123.0434734  38.3268919
  85.9501246 116.0275514  30.8630596  86.0717157 115.0992160  31.0621484
  85.6603288 116.0414199  29.9508911  88.8192436 113.7130424  33.9997316
  88.8414133 113.7769757  33.0449295  89.2360495 112.8734933  34.1937822
  79.9479651 121.8233826  41.3779954  79.2061387 121.9716461  41.9644585
  79.6272395 122.0842092  40.5146704  78.5944870 127.6285581  34.3679283
  77.7576778 127.2007755  34.1863284  78.5668515 127.8218024  35.3050074
  85.4342326 117.5407511  45.0720529  85.4830481 118.4169634  44.6898298
  85.9764840 116.9984904  44.4992172  93.3298809 120.9172029  42.9813701
  94.2308671 120.7778493  42.6897699  93.4046783 121.0826483  43.9211878
  87.6641614 118.2938883  41.8266887  86.7944923 118.5872449  41.5549476
  87.9001094 118.8779328  42.5474151  95.7900431 122.4770657  40.3776474
  96.2654553 122.6698303  39.5695325  94.8665997 122.5329842  40.1319857
  90.3680648 114.5118500  39.3432308  90.8862592 115.2479527  39.0178796
  90.0135781 114.8182494  40.1779067  90.6193242 110.9318783  34.8633204
  90.8994996 110.2641972  35.4893631  91.4043849 111.1247878  34.3507868
  94.4902100 119.3536417  38.6104779  95.4419523 119.4534514  38.6317003
  94.3205551 118.5614685  39.1202864  92.5116480 116.4392000  38.7964180
  91.9166412 116.7197013  38.1010669  92.2266176 116.9285901  39.5680921
  97.1184667 119.3653580  37.7705362  96.6023715 118.5812037  37.5835291
  98.0024615 119.0372296  37.9351882  94.7795393 113.1094595  33.7301175
  94.5820215 112.8009684  34.6144507  95.3895099 113.8356234  33.8599105
  88.6912201 125.4956336  45.2274940  89.6115211 125.6734935  45.4214987
  88.6561785 124.5512381  45.0754639  77.9094366 120.6894929  34.1528215
  77.5897151 119.8360237  33.8602589  77.3627795 120.9043507  34.9086182
  81.6874274 123.4057370  37.8697721  81.9060284 124.3374478  37.8885755
  82.1000048 123.0465345  38.6552525  88.6078492 113.9125456  29.8573410
  87.7979220 113.5672540  30.2328656  89.2962909 113.6032999  30.4461021
  90.5369040 112.9903502  31.4797706  91.0900079 113.4098956  32.1387729
  90.7739126 112.0639250  31.5220662  86.5602139 118.9790576  47.2600470
  86.4598866 119.9284933  47.1912561  86.3423681 118.6508815  46.3876540
  77.7782626 124.3097841  36.1221336  77.0846098 123.8951793  35.6091291
  78.5255617 124.3518377  35.5254755  92.3651414 114.5009085  33.1897691
  92.8651192 114.6125620  32.3812010  93.0087021 114.1970138  33.8298499
  86.4233409 122.4087715  46.0765532  85.9400491 123.2088075  46.2829421
  86.5094348 122.4195660  45.1232976  79.6919369 124.2416094  33.9987351
  79.6690057 124.3403782  33.0469234  80.0020005 125.0881245  34.3204517
  82.3506747 126.2992250  38.1133966  83.3050000 126.2676192  38.0463897
  82.1519270 125.8382873  38.9284192  82.9406129 124.8693366  40.6804763
  83.7599018 125.3637444  40.7039601  83.2142937 123.9525334  40.6522331
  96.0487261 117.2850639  33.7587058  96.8247651 117.7747091  34.0311675
  95.3235396 117.7108693  34.2158928  78.1941043 119.2031499  41.3796960
  78.8399907 118.6930453  41.8684185  77.9858194 119.9400181  41.9540386
  90.5296773 110.0614321  31.3866793  89.7629169 109.5072807  31.5323476
  90.9407478 110.1336189  32.2480945  82.5338534 116.3499116  45.4771975
  83.3969996 115.9935921  45.6875299  81.9603945 116.0113011  46.1647379
  24.3564892  14.0030519  30.6633240  23.9128746  13.2166897  30.3454144
  25.0182105  14.1909669  29.9977130  26.4546130  14.2833319  28.6914641
  26.4364605  15.1042200  28.1994910  27.3766050  14.1587394  28.9164782
  27.3661971  10.9229157  31.0865359  27.2147477  10.6939709  30.1695443
  27.3566650  11.8799758  31.0996704  29.0754177  13.9548279  29.1641841
  29.0166723  13.2707499  28.4972424  29.4773696  14.6967269  28.7122467
  27.5605851  13.6563197  31.7405651  28.1045755  14.2693155  31.2460606
  26.9792696  14.2142775  32.2572664  30.8834645  13.1159251  31.0766972
  30.0930189  13.0983390  30.5371472  30.6468000  13.6547544  31.8316009
  32.5050717  12.3848659  28.6341722  32.2135526  12.7478639  29.4705183
  31.8922849  11.6715667  28.4555055  25.6831910  11.3022963  33.6034408
  26.5523069  11.4763616  33.2421042  25.2038661  12.1217380  33.4810137
  37.3424385  23.0111589  23.0079682  37.9802795  22.8918337  22.3043022
  37.2245228  23.9592433  23.0667634  34.1514092  22.9639017  22.9441207
  33.8132603  22.8480082  22.0561742  35.0203860  22.5630183  22.9242213
  34.6333875  24.1173869  28.9027412  34.6222516  23.7226667  28.0307916
  34.7954514  23.3839942  29.4961184  27.5565339  26.3125686  21.7722318
  28.3486631  25.9716510  21.3568618  27.7961990  26.4220661  22.6924472
  31.3541136  26.9010981  27.8506596  31.0631002  27.8056612  27.7353263
  31.9898120  26.9427509  28.5650666  32.2797343  24.2787830  24.4407956
  32.8760915  24.0543852  23.7264919  32.3372314  23.5372575  25.0433404
  42.2974081  20.6738276  20.9865869  43.0299253  20.1037493  21.2203698
  41.5413437  20.2859877  21.4272374  39.8199501  14.3859851  25.4460477
  39.4882826  15.2555262  25.2221692  39.2245115  14.0696135  26.1254508
  36.3131021  26.5872397  24.8456390  36.0131744  27.4897435  24.7372197
  35.9682081  26.3204580  25.6977543  39.7128165  19.1054937  22.5253827
  38.8045042  19.0370345  22.2312588  39.6615761  19.5826882  23.3535653
  31.2951801  33.3516717  17.8127358  31.2175830  34.3024542  17.8915838
  30.6913444  33.0062589  18.4702284  33.7869031  20.5244582  30.4688725
  33.0102365  21.0838502  30.4591589  34.4259594  21.0101365  30.9903595
  41.5789811  17.3071375  24.3031701  40.9364191  17.6003908  23.6571496
  41.0744740  17.1924295  25.1084898  32.0415403  23.3330036  30.0306692
  32.7830087  23.8715080  29.7541515  31.3352388  23.9596324  30.1878243
  37.5170742  25.4759176  28.6278853  37.9254099  25.0341587  27.8833486
  36.7948004  24.9011804  28.8813046  33.8701813  20.4131783  26.0012410
  34.7163008  20.8371196  26.1447059  33.8100450  19.7565407  26.6950973
  37.8399557  26.0360367  22.3831142  37.2108420  26.2006081  21.6807210
  37.4525219  26.4501976  23.1542106  41.7188789  26.9714805  19.7375506
  41.0339827  27.3513706  19.1872539  41.8032638  27.5810131  20.4707454
  37.0201258  18.0736151  27.6593584  36.7762190  18.8278212  27.1227859
  37.2961188  18.4521499  28.4940831  38.9739721  24.6174764  26.3370849
  39.1856616  25.2606524  25.6605230  38.9269469  23.7837080  25.8692779
  33.3927519  25.7734775  19.6481227  33.8565865  26.0522478  18.8585850
  33.1284317  24.8718219  19.4654318  30.2851600  25.3206256  22.5860990
  30.8552957  25.7493525  21.9478475  30.8759712  25.0388841  23.2845176
  30.7776767  20.4869684  30.8322002  30.1475427  21.1685965  31.0657398
  30.6712854  20.3752765  29.8875140  40.0885549  27.4946719  24.5093207
  40.9102992  27.0926906  24.2275888  40.0847951  27.3914953  25.4609322
  33.8542152  27.0430762  26.6653917  33.9186585  27.5051170  27.5012089
  33.1453076  26.4128127  26.7936227  48.1791542  23.8385468  20.8578178
  47.4255250  23.2692866  20.7022183  48.3139083  23.8048132  21.8048813
  30.0557509  14.7890450  33.1947253  29.6624455  14.2356648  33.8694897
  30.8723650  15.1001028  33.5853770  28.8314452  29.3440064  19.1883576
  29.0081080  30.2658029  19.0004560  29.6271285  29.0298483  19.6177956
  32.9725470  16.2048329  30.7867509  33.7135184  16.8055482  30.7071972
  33.2043393  15.4625967  30.2285552  28.1166808  21.3904696  29.0645739
  28.0020323  20.4889953  29.3652838  27.2611326  21.6368393  28.7130555
  35.1958646  29.3322436  30.6633240  34.7522500  28.5458815  30.3454144
  35.8575860  29.5201587  29.9977130  29.9545767  30.8618238  25.1893918
  30.5053192  30.7335301  24.4170912  29.1157243  31.1613127  24.8388811
  37.2939884  29.6125236  28.6914641  37.2758359  30.4334117  28.1994910
  38.2159804  29.4879311  28.9164782  33.7512938  27.1269366  29.5338149
  34.2841275  26.3657654  29.3037457  33.2227019  26.8343018  30.2762304
  40.0958497  24.4504379  22.1624008  39.4382171  25.1403640  22.2504136
  40.8998896  24.8400811  22.5057994  38.9063956  22.8048751  20.2127949
  39.4195838  23.4378743  20.7149659  39.5565180  22.2049947  19.8471309
  35.3844787  20.2798207  22.4586290  34.4667348  20.5013154  22.3007978
  35.8004930  20.3544517  21.5997997  39.6725752  27.7854753  18.3407092
  39.2188079  26.9445663  18.3972282  39.0419719  28.4216151  18.6781872
  38.1158691  29.6231250  19.2756910  38.4081666  30.1836307  18.5569276
  38.6257312  29.9159811  20.0310069  33.0792316  30.4011601  20.3650363
  33.0368495  30.6272447  19.4358895  33.9955015  30.1674975  20.5136164
  36.5257950  20.8695668  27.2630992  36.8807338  21.0967141  28.1225458
  37.1730081  21.2014045  26.6408248  42.2555687  23.9914104  17.9680321
  42.1173586  24.1815700  17.0401511  41.8991906  24.7533487  18.4248373
  42.2825067  26.0590631  22.9791593  42.7161573  25.9665920  23.8274647
  42.9956648  26.0348132  22.3411609  31.1958117  27.2774630  20.1612326
  31.9898716  26.7824950  19.9594901  30.4849810  26.7492493  19.7980032
  36.0152962  29.6592725  24.5124694  36.0689984  30.2283662  25.2802410
  35.1467743  29.8294610  24.1478731  28.8951355  19.3610281  25.9949145
  29.5674409  19.1527644  25.3461794  28.0681142  19.1632367  25.5554377
  43.1440616  26.1014332  25.5124478  43.3376506  27.0060142  25.7583753
  43.0441235  25.6421751  26.3463063  34.7976927  15.9872222  28.0114806
  34.1504842  16.6862172  27.9179282  35.5677943  16.4208366  28.3791054
  38.2055725  26.2521074  31.0865359  38.0541231  26.0231626  30.1695443
  38.1960405  27.2091676  31.0996704  34.9741061  23.8252987  26.0711625
  35.9033121  23.9764147  25.8980593  34.5532091  23.9137008  25.2160272
  33.7729393  27.8503652  23.8410163  33.6340479  27.4822436  24.7136101
  32.9843989  28.3651291  23.6694121  34.3677545  32.9512748  15.1835700
  34.5429301  32.4800791  15.9981322  33.6810333  33.5778514  15.4116960
  35.3234608  27.2285254  21.2299001  34.9884441  27.1886024  22.1256651
  34.8238554  26.5629970  20.7569411  29.2978852  22.6352884  26.7551582
  29.1598650  21.9033123  27.3563121  30.2083776  22.5461784  26.4735770
  31.9261153  22.3472844  26.2435262  32.6360772  21.7066036  26.2021880
  31.8830461  22.5985739  27.1661442  39.9147932  29.2840197  29.1641841
  39.8560478  28.5999417  28.4972424  40.3167450  30.0259187  28.7122467
  30.6390087  19.3338062  28.0630901  30.1027444  18.8828800  28.7152497
  30.0506795  19.4683970  27.3201365  28.9338630  36.1002111  21.9575560
  29.1735229  36.7320635  22.6354578  28.0907827  35.7490151  22.2440919
  39.9165339  27.2479781  27.3955821  39.0292118  26.9105703  27.5182219
  40.4863890  26.5162812  27.6324586  33.4466492  31.9081233  24.3617064
  33.3736664  32.7136205  24.8736368  33.0043885  32.1073199  23.5365085
  33.2356272  31.1453003  17.8719885  32.4523794  31.6874684  17.9658110
  33.9349017  31.6626983  18.2714126  44.3982680  22.6587998  22.1572382
  44.3872556  23.5412714  21.7866315  43.5300059  22.3059549  21.9626919
  35.9065176  31.8068067  26.5175222  36.6193148  32.4415532  26.4451124
  35.4155205  31.9031933  25.7015224  37.6282703  25.7119320  18.0892514
  36.6938982  25.8320782  17.9197218  37.8059371  24.8091787  17.8252524
  41.0155254  21.5536639  18.6242548  41.4815706  22.3864631  18.5502851
  41.4662755  21.0881621  19.3287807  30.9577089  29.5562511  27.3380793
  31.6586549  30.1898994  27.4910187  30.4872204  29.8977242  26.5776433
  38.7578375  22.1107118  25.1633344  38.1049826  22.3583026  24.5085796
  39.1358755  21.2971256  24.8295821  35.7185549  32.1466811  19.2661514
  35.9007944  31.3288467  19.7289266  36.5418535  32.3634504  18.8286404
  36.0527715  31.0734997  16.5276562  36.5815481  30.5627451  15.9146724
  36.3155934  30.7577527  17.3922095  34.8065948  22.8526929  31.6499381
  34.1306585  22.7521059  32.3201756  35.6293582  22.6966143  32.1135378
  26.5544807  29.0898866  24.2711896  27.1398244  28.3442554  24.4039800
  26.3569646  29.4002823  25.1548560  29.4083463  32.1250113  19.2874338
  28.7393838  32.6096241  18.8038378  29.2696332  32.3719334  20.2017717
  33.5488731  34.1593857  25.8856997  34.1007039  34.3225478  26.6506082
  33.8894925  34.7498295  25.2137022  28.0005497  18.5792139  30.1351916
  28.6277536  18.1969216  30.7489440  27.1433416  18.3606341  30.5007608
  38.3999606  28.9855114  31.7405651  38.9439510  29.5985073  31.2460606
  37.8186450  29.5434693  32.2572664  36.6857119  32.1075832  22.8720679
  36.5608258  31.3065572  22.3631624  37.3436210  32.6022026  22.3834649
  38.7492027  29.9084852  24.5000229  37.8022362  29.7890204  24.4278556
  39.0974800  29.0207350  24.5826490  31.1091600  15.7978991  28.3238471
  31.6326002  16.0441288  29.0864780  30.8903934  16.6299026  27.9041608
  35.7538460  29.7037569  20.7004581  35.6063423  28.7754276  20.8812151
  36.5791954  29.7257659  20.2161656  39.3572582  30.5266127  21.7869454
  40.2819130  30.3208989  21.6493905  39.1887885  30.2782528  22.6958795
  32.3144145  16.7392686  26.0088141  31.9740966  15.9400499  26.4108821
  31.6083152  17.0394397  25.4364975  34.2021710  17.9401008  24.3641460
  33.9439487  18.8618078  24.3625790  33.6706750  17.5431442  25.0541924
  39.1467898  31.0451795  17.1431545  39.3204776  30.4798217  16.3905398
  39.6396790  31.8452690  16.9611035  24.9644858  23.0566464  25.2095104
  24.4198326  23.8326272  25.3415378  25.8424208  23.4037268  25.0514226
  45.0007289  23.8088218  18.7621845  45.4438436  23.0595543  18.3640968
  44.1233800  23.7998354  18.3795577  40.1343071  30.3618559  14.2428444
  40.8293975  30.9825252  14.4615758  40.4766221  29.5113910  14.5180822
  25.7510880  22.1836360  28.1025261  25.0092616  22.3318995  28.6889891
  25.4303624  22.4444626  27.2392010  42.0334494  27.8118265  15.7715774
  42.5585818  28.1505537  15.0465094  41.9456846  26.8765280  15.5878909
  33.6954543  31.7252338  27.9005651  34.0041669  31.4801485  28.7728351
  34.4930025  31.9298977  27.4124521  33.7175155  33.8790248  20.1311028
  33.2780145  33.3866627  20.8243884  34.4683272  33.3363216  19.8903103
  26.1967494  30.0701789  20.1335656  27.0225514  29.7705561  19.7534299
  25.8461546  29.3009411  20.5825444  31.1649027  29.4228257  22.2033329
  30.5429036  28.7598962  21.9035557  31.8353894  29.4489389  21.5206977
  31.2373554  17.9010045  31.7965835  31.2861710  18.7772168  31.4143605
  31.7796069  17.3587438  31.2237478  41.7228400  28.4451168  31.0766972
  40.9323944  28.4275307  30.5371472  41.4861755  28.9839462  31.8316009
  41.8426275  25.2943635  28.3899701  41.8924280  25.1293642  29.3315224
  41.7340198  24.4270894  27.9997582  39.1330037  21.2774563  29.7059008
  40.0339900  21.1381028  29.4143005  39.2078012  21.4429018  30.6457185
  33.4672843  18.6541418  28.5512194  32.5976152  18.9474984  28.2794782
  33.7032323  19.2381863  29.2719458  43.3444472  27.7140576  28.6341722
  43.0529280  28.0770557  29.4705183  42.7316603  27.0007585  28.4555055
  44.5440154  25.2793456  21.1544293  45.3787046  25.7183260  21.3181853
  44.6799283  24.8032109  20.3352538  41.5931660  22.8373191  27.1021780
  42.0685782  23.0300837  26.2940632  40.6697225  22.8932377  26.8565164
  36.1711877  14.8721034  26.0677614  36.6893820  15.6082061  25.7424103
  35.8167009  15.1785028  26.9024373  40.2933329  19.7138951  25.3350086
  41.2450752  19.8137049  25.3562310  40.1236780  18.9217220  25.8448170
  38.3147709  16.7994534  25.5209487  37.7197641  17.0799547  24.8255976
  38.0297405  17.2888435  26.2926228  42.7721407  22.9345071  24.4492386
  42.7397727  21.9961071  24.6352069  43.3822031  23.0129107  23.7158211
  42.9215895  19.7256114  24.4950669  42.4054944  18.9414571  24.3080598
  43.8055844  19.3974831  24.6597188  48.5897957  23.9961077  23.5898422
  49.3201345  23.7346366  24.1506126  47.9804902  23.2589799  23.6300490
  46.6713254  22.1368940  24.1872874  45.9446417  22.0024905  23.5789365
  46.2560541  22.4445769  24.9929592  34.4943430  25.8558870  31.9520247
  35.4146440  26.0337469  32.1460293  34.4593013  24.9114915  31.7999946
  27.4905503  23.7659904  24.5943028  27.7091513  24.6977012  24.6131062
  27.9031277  23.4067879  25.3797832  32.3633368  19.3393110  33.9845777
  32.2630095  20.2887467  33.9157868  32.1454910  19.0111349  33.1121847
  32.2264638  22.7690249  32.8010838  31.7431720  23.5690609  33.0074727
  32.3125577  22.7798194  31.8478282  28.1537976  26.6594784  24.8379272
  29.1081229  26.6278726  24.7709204  27.9550499  26.1985407  25.6529498
  28.7437358  25.2295900  27.4050070  29.5630247  25.7239978  27.4284907
  29.0174166  24.3127868  27.3767637  41.8518490  17.6453173  20.4832365
  42.6278880  18.1349626  20.7556981  41.1266624  18.0711227  20.9404234
  44.2891049  18.3580792  21.5406305  44.8835540  18.1176528  20.8299614
  44.3617632  17.6387923  22.1679842  26.5088204  32.2014403  21.8549470
  26.3742672  31.4414804  21.2887468  26.0920267  32.9255303  21.3878259
  46.5962122  21.6646993  20.3149726  46.0361680  21.7340182  21.0881289
  45.9905625  21.4887978  19.5949223  29.6657330  33.0983720  22.0667913
  29.5489714  34.0429153  21.9646603  28.8449777  32.7957282  22.4553712
  23.9972272  19.5634034  28.1042267  24.6431136  19.0532988  28.5929492
  23.7889423  20.3002715  28.6785692  36.5225664  26.6314881  33.6034408
  37.3916824  26.8055533  33.2421042  36.0432416  27.4509298  33.4810137
  30.6911844  33.7511982  25.2823841  31.5939091  33.7835592  25.5990336
  30.4649215  32.8212433  25.2970177  32.4465446  32.5042969  21.9433920
  31.4961078  32.5044830  21.8298292  32.7497933  31.7575703  21.4269954
  28.3369763  16.7101651  32.2017281  29.2001225  16.3538456  32.4120606
  27.7635174  16.3715546  32.8892685  48.1818140  38.3403507  23.0079682
  48.8196550  38.2210254  22.3043022  48.0638983  39.2884351  23.0667634
  44.9907846  38.2930935  22.9441207  44.6526358  38.1772000  22.0561742
  45.8597614  37.8922100  22.9242213  40.8494662  40.1466412  18.9338098
  40.2859527  40.0556349  18.1654386  40.7347057  39.3266316  19.4140590
  45.4727629  39.4465787  28.9027412  45.4616270  39.0518585  28.0307916
  45.6348269  38.7131860  29.4961184  38.3959094  41.6417603  21.7722318
  39.1880386  41.3008428  21.3568618  38.6355744  41.7512578  22.6924472
  46.4294221  43.8137379  14.2452563  45.7782200  44.3991460  13.8586577
  47.2238583  44.3443574  14.3047600  40.3549848  40.9026516  14.6439697
  41.1280724  40.3555504  14.5052573  40.7075247  41.7670766  14.8554158
  42.1934890  42.2302899  27.8506596  41.9024756  43.1348530  27.7353263
  42.8291875  42.2719426  28.5650666  43.1191097  39.6079747  24.4407956
  43.7154669  39.3835770  23.7264919  43.1766069  38.8664493  25.0433404
  42.6916126  37.0619183  12.2758147  42.9441646  36.5400704  11.5141610
  41.7540685  36.8985328  12.3784831  47.7359408  36.0654961  20.0832890
  48.5222498  35.6474384  19.7323307  47.9998113  36.9701053  20.2514539
  47.9069486  41.5027811  14.7821547  47.2715319  41.5762438  15.4942452
  47.5766892  42.0921410  14.1040626  53.1367836  36.0030194  20.9865869
  53.8693008  35.4329411  21.2203698  52.3807191  35.6151795  21.4272374
  42.4112414  38.9647289  14.4782522  42.2948672  38.2892192  15.1463606
  42.5214674  38.4779662  13.6614675  44.7543955  38.4257436  18.1829211
  44.3902163  37.8988057  18.8942133  45.6111071  38.0355905  18.0095697
  50.6593256  29.7151768  25.4460477  50.3276581  30.5847179  25.2221692
  50.0638869  29.3988052  26.1254508  44.3949442  33.4547335  13.1790560
  44.5623845  34.3227572  13.5461031  44.2046611  33.6174617  12.2551849
  47.1524775  41.9164314  24.8456390  46.8525499  42.8189353  24.7372197
  46.8075835  41.6496497  25.6977543  40.6037257  38.3678111  20.8793094
  39.6787753  38.2354325  21.0870786  40.8521670  39.1472330  21.3763037
  50.5521919  34.4346854  22.5253827  49.6438797  34.3662263  22.2312588
  50.5009515  34.9118799  23.3535653  44.3738663  35.9104993  14.1637227
  44.2538288  36.3562044  15.0022707  43.6791252  36.2590310  13.6050765
  37.9646068  38.0111385  21.7136884  38.0938449  38.2645864  22.6276295
  37.2843519  38.6039093  21.3941539  42.1345555  48.6808635  17.8127358
  42.0569585  49.6316460  17.8915838  41.5307199  48.3354507  18.4702284
  44.6262785  35.8536500  30.4688725  43.8496119  36.4130420  30.4591589
  45.2653348  36.3393283  30.9903595  52.4183566  32.6363293  24.3031701
  51.7757946  32.9295826  23.6571496  51.9138494  32.5216213  25.1084898
  50.0723729  36.3826466  14.9917561  50.9841585  36.6153853  14.8165258
  49.5633376  36.9663510  14.4292639  42.8809157  38.6621953  30.0306692
  43.6223842  39.2006997  29.7541515  42.1746143  39.2888242  30.1878243
  48.3564497  40.8051094  28.6278853  48.7647853  40.3633504  27.8833486
  47.6341758  40.2303721  28.8813046  44.7095567  35.7423701  26.0012410
  45.5556762  36.1663114  26.1447059  44.6494205  35.0857325  26.6950973
  48.6793312  41.3652284  22.3831142  48.0502174  41.5297999  21.6807210
  48.2918974  41.7793894  23.1542106  52.5582544  42.3006722  19.7375506
  51.8733582  42.6805624  19.1872539  52.6426393  42.9102049  20.4707454
  47.8595012  33.4028069  27.6593584  47.6155944  34.1570129  27.1227859
  48.1354943  33.7813417  28.4940831  49.8133475  39.9466681  26.3370849
  50.0250370  40.5898441  25.6605230  49.7663223  39.1128998  25.8692779
  47.4159704  32.5584502  23.2407421  46.5544183  32.8565756  23.5324159
  47.4422139  32.7754901  22.3088454  44.2321274  41.1026693  19.6481227
  44.6959619  41.3814396  18.8585850  43.9678072  40.2010137  19.4654318
  41.1245355  40.6498174  22.5860990  41.6946712  41.0785442  21.9478475
  41.7153466  40.3680759  23.2845176  43.1690160  37.2249845  16.4570792
  43.8714203  37.6770889  16.9244719  42.8370788  36.5833664  17.0850685
  41.6170521  35.8161602  30.8322002  40.9869182  36.4977882  31.0657398
  41.5106609  35.7044683  29.8875140  36.9115494  35.4833398  21.7587926
  36.1214548  35.7390926  21.2828036  37.4026741  36.2981735  21.8639966
  50.9279303  42.8238637  24.5093207  51.7496747  42.4218824  24.2275888
  50.9241706  42.7206871  25.4609322  38.8630239  35.8477977  18.7171403
  38.0661402  35.9596671  19.2354898  38.6355831  36.1864629  17.8512293
  44.6935907  42.3722680  26.6653917  44.7580339  42.8343087  27.5012089
  43.9846830  41.7420045  26.7936227  35.1953197  35.7363888  24.1902917
  35.4461235  36.6210898  24.4560493  35.7312745  35.5568490  23.4178008
  59.0185296  39.1677385  20.8578178  58.2649005  38.5984783  20.7022183
  59.1532837  39.1340050  21.8048813  44.4083924  44.0390788  16.5332897
  44.2729599  44.8842323  16.9617745  44.9493737  44.2410065  15.7698831
  40.8951264  30.1182367  33.1947253  40.5018209  29.5648566  33.8694897
  41.7117404  30.4292946  33.5853770  37.8613322  41.5566226  17.1060823
  38.3737842  42.3509476  17.2566387  38.5136034  40.8592516  17.0394424
  39.6708206  44.6731982  19.1883576  39.8474835  45.5949947  19.0004560
  40.4665040  44.3590401  19.6177956  43.8119225  31.5340246  30.7867509
  44.5528938  32.1347400  30.7071972  44.0437148  30.7917884  30.2285552
  38.9560563  36.7196614  29.0645739  38.8414078  35.8181871  29.3652838
  38.1005081  36.9660310  28.7130555  46.0352401  44.6614354  30.6633240
  45.5916255  43.8750733  30.3454144  46.6969614  44.8493505  29.9977130
  40.7939522  46.1910156  25.1893918  41.3446947  46.0627219  24.4170912
  39.9550998  46.4905045  24.8388811  48.1333639  44.9417154  28.6914641
  48.1152114  45.7626035  28.1994910  49.0553559  44.8171229  28.9164782
  44.5906693  42.4561283  29.5338149  45.1235030  41.6949572  29.3037457
  44.0620774  42.1634935  30.2762304  47.7576388  27.5621349  25.0631791
  47.4140657  28.4522991  24.9870902  48.1255350  27.3723007  24.2001376
  35.8262238  39.8854880  17.8820393  36.6637460  40.2951888  17.6654101
  36.0040506  38.9454322  17.8520587  47.7226670  37.5529961  13.5704226
  47.2073294  38.3234565  13.8092613  47.4503979  36.8795097  14.1937288
  45.3073782  32.3979661  18.6289464  44.4515378  32.0086512  18.4495103
  45.7200733  32.4771622  17.7689250  46.8372928  29.9326005  23.0281024
  46.3337724  29.8956140  22.2148829  47.1303535  30.8418747  23.0877681
  43.0815814  30.0164734  22.0347206  43.9468811  29.8207543  21.6753095
  43.1493323  29.7875086  22.9616563  52.6960945  40.3062315  15.5057400
  51.9190387  39.9673475  15.0612562  53.3752426  40.3114938  14.8312365
  47.5112974  35.4257053  15.3964007  47.2063109  35.7403202  16.2474150
  48.4643416  35.5038472  15.4391340  45.9559406  41.5847276  17.0456961
  45.4280767  40.8500035  16.7330199  45.4546908  42.3621952  16.7996930
  50.9352252  39.7796296  22.1624008  50.2775926  40.4695558  22.2504136
  51.7392651  40.1692728  22.5057994  40.6878133  32.2466942  19.4063573
  41.2621885  32.0242124  18.6736766  41.2749116  32.3155637  20.1592174
  49.7457710  38.1340669  20.2127949  50.2589592  38.7670661  20.7149659
  50.3958934  37.5341865  19.8471309  41.0147720  34.2771403  13.4259458
  40.1785032  34.6146090  13.7468733  40.8752490  34.1420383  12.4886595
  42.9900801  29.1208191  18.1338642  42.3365213  28.8057208  17.5095257
  42.9481275  28.4983932  18.8598465  44.1012006  39.4027486  10.0491934
  43.1939067  39.1716740  10.2483083  44.5983038  38.6065105  10.2365916
  47.0080085  48.1124993  12.9688620  46.3341783  48.4156690  13.5773578
  47.3945907  48.9154074  12.6194077  46.2238541  35.6090125  22.4586290
  45.3061103  35.8305072  22.3007978  46.6398685  35.6836435  21.5997997
  47.0073589  37.0081540  17.5888970  47.7545408  37.5202938  17.2796092
  47.2765178  36.6865593  18.4493364  45.2800239  39.5040081  14.5715924
  44.3711458  39.2199114  14.6688394  45.3095323  39.9239160  13.7119231
  50.5119507  43.1146671  18.3407092  50.0581834  42.2737580  18.3972282
  49.8813473  43.7508069  18.6781872  49.4552426  34.0438657  19.5707759
  48.7175183  33.5316043  19.9018002  49.7079200  33.6039038  18.7591036
  48.9552446  44.9523167  19.2756910  49.2475420  45.5128224  18.5569276
  49.4651066  45.2451728  20.0310069  49.5564053  26.8214909  20.1649529
  49.8622930  25.9612272  19.8775444  50.2816658  27.4132529  19.9648523
  35.8488409  37.2245595  18.5531127  35.6512809  36.6314956  17.8282193
  35.2935073  36.9197805  19.2707065  43.8285133  37.1168702  20.6725720
  43.8833743  36.1642538  20.5968196  43.0176335  37.2728141  21.1567018
  44.9776327  41.0448825  11.9104003  44.5395757  40.3284684  11.4509640
  45.7186768  41.2724940  11.3489094  41.7677493  35.7345761  18.4316099
  40.9545359  36.0339932  18.8381291  42.2636487  35.3401450  19.1490581
  43.9186071  45.7303518  20.3650363  43.8762250  45.9564365  19.4358895
  44.8348770  45.4966893  20.5136164  47.3651705  36.1987586  27.2630992
  47.7201092  36.4259059  28.1225458  48.0123836  36.5305963  26.6408248
  53.0949442  39.3206022  17.9680321  52.9567340  39.5107618  17.0401511
  52.7385661  40.0825405  18.4248373  41.2591568  33.3064117  24.0477334
  41.8990947  33.1652876  23.3500297  40.4269098  33.0198630  23.6715936
  53.1218821  41.3882549  22.9791593  53.5555328  41.2957838  23.8274647
  53.8350402  41.3640049  22.3411609  42.0351872  42.6066547  20.1612326
  42.8292470  42.1116867  19.9594901  41.3243564  42.0784410  19.7980032
  46.8546716  44.9884643  24.5124694  46.9083738  45.5575579  25.2802410
  45.9861498  45.1586528  24.1478731  38.3434635  36.7509629  16.2372079
  37.4132223  36.6894085  16.4542041  38.4392107  36.2285582  15.4408720
  38.2620184  33.2764442  18.8250320  38.5227002  34.1909775  18.7159481
  39.0837357  32.8088884  18.9746933  39.7345110  34.6902199  25.9949145
  40.4068163  34.4819561  25.3461794  38.9074896  34.4924285  25.5554377
  53.9834371  41.4306249  25.5124478  54.1770261  42.3352060  25.7583753
  53.8834989  40.9713668  26.3463063  45.6370682  31.3164140  28.0114806
  44.9898597  32.0154090  27.9179282  46.4071697  31.7500284  28.3791054
  49.0449480  41.5812992  31.0865359  48.8934986  41.3523544  30.1695443
  49.0354159  42.5383594  31.0996704  45.8134816  39.1544905  26.0711625
  46.7426876  39.3056065  25.8980593  45.3925846  39.2428926  25.2160272
  44.6123148  43.1795569  23.8410163  44.4734233  42.8114354  24.7136101
  43.8237744  43.6943209  23.6694121  45.2071300  48.2804666  15.1835700
  45.3823055  47.8092709  15.9981322  44.5204088  48.9070432  15.4116960
  46.1628363  42.5577172  21.2299001  45.8278195  42.5177942  22.1256651
  45.6632309  41.8921888  20.7569411  40.1372607  37.9644802  26.7551582
  39.9992405  37.2325041  27.3563121  41.0477530  37.8753702  26.4735770
  49.0987555  39.9033206  11.5036061  48.4816725  39.1780035  11.4069113
  48.6304043  40.6642567  11.1603135  42.7654908  37.6764761  26.2435262
  43.4754526  37.0357954  26.2021880  42.7224216  37.9277656  27.1661442
  50.7541686  44.6132115  29.1641841  50.6954232  43.9291335  28.4972424
  51.1561205  45.3551105  28.7122467  41.4783841  34.6629979  28.0630901
  40.9421199  34.2120718  28.7152497  40.8900550  34.7975888  27.3201365
  39.7732385  51.4294029  21.9575560  40.0128983  52.0612553  22.6354578
  38.9301581  51.0782069  22.2440919  50.7559093  42.5771699  27.3955821
  49.8685872  42.2397620  27.5182219  51.3257645  41.8454730  27.6324586
  32.4088241  38.9095790  20.7198872  33.0959280  38.5957520  20.1319887
  32.2536369  39.8137155  20.4466123  37.2122963  33.7985987  25.1483896
  37.1281151  33.1911657  24.4134306  36.3905669  34.2895005  25.1493392
  44.2860247  47.2373151  24.3617064  44.2130418  48.0428123  24.8736368
  43.8437640  47.4365117  23.5365085  44.0750026  46.4744921  17.8719885
  43.2917548  47.0166601  17.9658110  44.7742772  46.9918901  18.2714126
  47.3846677  32.2839550  20.5154091  47.8815376  31.5309513  20.1955161
  46.6133658  32.3203867  19.9497300  55.2376434  37.9879916  22.1572382
  55.2266310  38.8704631  21.7866315  54.3693813  37.6351467  21.9626919
  46.7458930  47.1359985  26.5175222  47.4586903  47.7707450  26.4451124
  46.2548959  47.2323851  25.7015224  48.4676457  41.0411238  18.0892514
  47.5332736  41.1612700  17.9197218  48.6453126  40.1383704  17.8252524
  43.9681645  34.4256933  20.2425775  43.5979433  33.8727974  20.9306681
  44.4640738  33.8215067  19.6900775  51.8549009  36.8828557  18.6242548
  52.3209461  37.7156549  18.5502851  52.3056509  36.4173539  19.3287807
  41.7970844  44.8854429  27.3380793  42.4980303  45.5190911  27.4910187
  41.3265959  45.2269160  26.5776433  49.9225240  43.2272378  15.6228700
  50.1985084  43.1128973  16.5322574  49.0529738  42.8289863  15.5840873
  49.8265671  29.2509144  22.6633450  48.9128751  29.4813371  22.8315656
  50.2558773  29.3347588  23.5147482  49.5972130  37.4399036  25.1633344
  48.9443580  37.6874943  24.5085796  49.9752510  36.6263174  24.8295821
  46.5579304  47.4758729  19.2661514  46.7401698  46.6580385  19.7289266
  47.3812290  47.6926421  18.8286404  46.8921469  46.4026914  16.5276562
  47.4209236  45.8919369  15.9146724  47.1549689  46.0869444  17.3922095
  45.6459703  38.1818847  31.6499381  44.9700340  38.0812976  32.3201756
  46.4687337  38.0258061  32.1135378  37.3938562  44.4190784  24.2711896
  37.9791999  43.6734471  24.4039800  37.1963400  44.7294740  25.1548560
  40.2477217  47.4542031  19.2874338  39.5787592  47.9388159  18.8038378
  40.1090087  47.7011251  20.2017717  31.9856217  36.9896384  22.9916339
  32.0240316  36.4559974  23.7853457  31.4796510  36.4631589  22.3727316
  44.3882486  49.4885774  25.8856997  44.9400794  49.6517396  26.6506082
  44.7288679  50.0790212  25.2137022  39.3646979  31.8360924  26.4878881
  39.4288305  32.6975755  26.0756279  39.3014099  31.2234926  25.7551240
  38.8399252  33.9084057  30.1351916  39.4671290  33.5261134  30.7489440
  37.9827170  33.6898259  30.5007608  49.2393360  44.3147032  31.7405651
  49.7833264  44.9276990  31.2460606  48.6580205  44.8726610  32.2572664
  35.6164794  35.7160486  16.0670270  35.9118235  34.8071164  16.0137324
  34.7152830  35.6948225  15.7451273  47.5250873  47.4367750  22.8720679
  47.4002013  46.6357490  22.3631624  48.1829964  47.9313943  22.3834649
  39.1459041  33.7916482  22.0497819  38.4245627  34.4052450  21.9105292
  39.9352297  34.3274247  21.9714465  49.5885781  45.2376770  24.5000229
  48.6416117  45.1182121  24.4278556  49.9368555  44.3499268  24.5826490
  41.9485355  31.1270909  28.3238471  42.4719757  31.3733206  29.0864780
  41.7297688  31.9590944  27.9041608  37.3452636  33.3974584  16.1909596
  37.0165342  32.5171962  16.0084702  37.6992007  33.3422252  17.0785985
  46.5932215  45.0329486  20.7004581  46.4457177  44.1046194  20.8812151
  47.4185708  45.0549577  20.2161656  40.4594459  33.6847553  16.5585073
  40.7990532  34.2133475  15.8363682  40.9066580  34.0227959  17.3343640
  50.1966337  45.8558045  21.7869454  51.1212884  45.6500906  21.6493905
  50.0281640  45.6074446  22.6958795  43.1537900  32.0684604  26.0088141
  42.8134720  31.2692417  26.4108821  42.4476906  32.3686315  25.4364975
  43.8054372  29.1533917  24.4615464  44.6280441  28.6794395  24.3394355
  44.0492435  29.9324400  24.9614151  42.4462606  32.1822175  14.7578366
  43.1670969  32.5603428  14.2542083  41.8227910  32.9011052  14.8613344
  46.5893729  32.8867324  15.6936698  46.8057343  33.7691962  15.3925527
  46.1087796  32.4953537  14.9642340  41.3292950  35.8453037  22.2707443
  41.1837531  36.1593340  23.1631724  40.8518154  36.4637937  21.7178342
  43.1889333  32.8355585  22.3188333  43.1750902  31.9396678  21.9820630
  43.9061761  32.8426249  22.9526619  45.0415464  33.2692925  24.3641460
  44.7833242  34.1909996  24.3625790  44.5100504  32.8723360  25.0541924
  49.9861653  46.3743712  17.1431545  50.1598530  45.8090135  16.3905398
  50.4790544  47.1744607  16.9611035  35.8038613  38.3858382  25.2095104
  35.2592081  39.1618190  25.3415378  36.6817962  38.7329186  25.0514226
  42.5926229  31.7169965  17.5875903  42.7142140  30.7886612  17.7866790
  42.3028272  31.7308651  16.6754218  45.4617420  29.4024876  20.7242623
  45.4839116  29.4664209  19.7694602  45.8785479  28.5629384  20.9183129
  55.8401044  39.1380135  18.7621845  56.2832190  38.3887461  18.3640968
  54.9627554  39.1290272  18.3795577  50.9736825  45.6910477  14.2428444
  51.6687730  46.3117170  14.4615758  51.3159975  44.8405828  14.5180822
  36.5904634  37.5128278  28.1025261  35.8486370  37.6610913  28.6889891
  36.2697379  37.7736543  27.2392010  52.8728248  43.1410182  15.7715774
  53.3979572  43.4797455  15.0465094  52.7850601  42.2057198  15.5878909
  44.5348297  47.0544256  27.9005651  44.8435424  46.8093403  28.7728351
  45.3323779  47.2590895  27.4124521  44.5568909  49.2082166  20.1311028
  44.1173899  48.7158544  20.8243884  45.3077026  48.6655133  19.8903103
  37.0361248  45.3993707  20.1335656  37.8619268  45.0997478  19.7534299
  36.6855300  44.6301329  20.5825444  42.0042781  44.7520175  22.2033329
  41.3822791  44.0890880  21.9035557  42.6747648  44.7781307  21.5206977
  35.2369853  43.3180033  21.0924589  34.4001761  42.8902207  20.9108591
  35.2093499  43.5112476  22.0295380  42.0767309  33.2301963  31.7965835
  42.1255464  34.1064086  31.4143605  42.6189823  32.6879356  31.2237478
  52.5622154  43.7743086  31.0766972  51.7717698  43.7567225  30.5371472
  52.3255509  44.3131380  31.8316009  52.6820030  40.6235552  28.3899701
  52.7318034  40.4585560  29.3315224  52.5733953  39.7562811  27.9997582
  41.5656288  43.3024098  15.6791790  41.7144409  43.9859562  15.0258463
  42.3722732  43.2829188  16.1941246  49.9723792  36.6066480  29.7059008
  50.8733655  36.4672945  29.4143005  50.0471766  36.7720935  30.6457185
  44.3066597  33.9833335  28.5512194  43.4369907  34.2766901  28.2794782
  44.5426078  34.5673780  29.2719458  54.1838226  43.0432494  28.6341722
  53.8923035  43.4062474  29.4705183  53.5710358  42.3299502  28.4555055
  55.3833909  40.6085374  21.1544293  56.2180800  41.0475178  21.3181853
  55.5193037  40.1324027  20.3352538  52.4325415  38.1665109  27.1021780
  52.9079536  38.3592755  26.2940632  51.5090980  38.2224294  26.8565164
  39.3208921  39.3289276  16.6852859  39.0754963  38.4251606  16.8833069
  39.4904836  39.3306426  15.7432337  47.0105631  30.2012952  26.0677614
  47.5287575  30.9373979  25.7424103  46.6560764  30.5076945  26.9024373
  38.5904569  35.0617633  14.1839020  37.8973814  35.1361988  13.5279056
  38.3456321  34.2977977  14.7060537  47.2618225  26.6213235  21.5878511
  47.5419979  25.9536424  22.2138937  48.0468832  26.8142330  21.0753175
  45.0651694  45.7972229  13.1503537  44.4925661  46.4162416  12.6974009
  45.6384487  46.3471590  13.6843459  51.1327084  35.0430869  25.3350086
  52.0844506  35.1428966  25.3562310  50.9630534  34.2509137  25.8448170
  49.1541463  32.1286452  25.5209487  48.5591395  32.4091465  24.8255976
  48.8691160  32.6180353  26.2926228  48.2848954  46.0809379  14.2812119
  49.2179627  46.0154940  14.4844995  48.1972166  46.9165646  13.8226652
  50.9136970  45.3975249  11.2416067  50.8350602  45.0635113  12.1351825
  51.7346637  45.8897017  11.2407539  53.6115161  38.2636988  24.4492386
  53.5791481  37.3252989  24.6352069  54.2215785  38.3421025  23.7158211
  45.4498492  37.1333041  10.4919590  46.3957597  37.0039249  10.5608008
  45.0712737  36.3947703  10.9689018  53.7609650  35.0548032  24.4950669
  53.2448699  34.2706488  24.3080598  54.6449598  34.7266748  24.6597188
  51.4220377  28.7989047  20.4546482  51.2245198  28.4904136  21.3389813
  52.0320082  29.5250686  20.5844411  59.4291711  39.3252995  23.5898422
  60.1595100  39.0638283  24.1506126  58.8198657  38.5881717  23.6300490
  57.5107008  37.4660858  24.1872874  56.7840172  37.3316823  23.5789365
  57.0954295  37.7737686  24.9929592  45.3337185  41.1850787  31.9520247
  46.2540194  41.3629386  32.1460293  45.2986768  40.2406833  31.7999946
  43.6341409  35.0583018  10.4274475  42.7272865  34.7616130  10.5037189
  43.9117390  34.7612836   9.5608761  34.5519350  36.3789381  20.8773521
  34.2322134  35.5254689  20.5847895  34.0052778  36.5937959  21.6331489
  38.3299257  39.0951822  24.5943028  38.5485267  40.0268930  24.6131062
  38.7425031  38.7359797  25.3797832  45.2503475  29.6019907  16.5818716
  44.4404203  29.2566992  16.9573962  45.9387892  29.2927451  17.1706328
  47.1794023  28.6797954  18.2043013  47.7325062  29.0993408  18.8633036
  47.4164110  27.7533702  18.2465969  43.2027123  34.6685028  33.9845777
  43.1023850  35.6179385  33.9157868  42.9848665  34.3403267  33.1121847
  34.4207610  39.9992293  22.8466643  33.7271081  39.5846245  22.3336597
  35.1680601  40.0412829  22.2500062  50.5572830  30.7898479  17.7121677
  49.9771500  31.4483283  17.3299730  50.2908763  29.9675824  17.3009095
  49.0076397  30.1903537  19.9142997  49.5076175  30.3020072  19.1057316
  49.6512005  29.8864590  20.5543806  43.0658393  38.0982167  32.8010838
  42.5825474  38.8982527  33.0074727  43.1519332  38.1090112  31.8478282
  36.3344352  39.9310546  20.7232658  36.3115040  40.0298234  19.7714541
  36.6444989  40.7775697  21.0449824  38.9931730  41.9886701  24.8379272
  39.9474984  41.9570644  24.7709204  38.7944254  41.5277325  25.6529498
  39.5831112  40.5587817  27.4050070  40.4024001  41.0531896  27.4284907
  39.8567920  39.6419786  27.3767637  49.3397709  32.9498570  16.7678025
  48.4523564  33.2348220  16.5498220  49.7551698  32.7892333  15.9205302
  52.6912245  32.9745091  20.4832365  53.4672635  33.4641543  20.7556981
  51.9660379  33.4003145  20.9404234  55.1284803  33.6872710  21.5406305
  55.7229294  33.4468446  20.8299614  55.2011387  32.9679841  22.1679842
  37.3481959  47.5306321  21.8549470  37.2136427  46.7706722  21.2887468
  36.9314021  48.2547221  21.3878259  48.4840922  42.7143244  10.8626045
  49.1876772  42.9193247  11.4783701  47.7603571  43.2820006  11.1275129
  49.3138732  38.4653106  16.9828316  49.2573934  38.9221657  16.1435948
  49.8667075  37.7043790  16.8051158  53.1243538  34.2542838  17.8078435
  52.8680472  33.8539473  18.6386643  52.4996406  34.9686631  17.6828574
  57.4355876  36.9938911  20.3149726  56.8755434  37.0632100  21.0881289
  56.8299379  36.8179895  19.5949223  40.5051085  48.4275638  22.0667913
  40.3883469  49.3721070  21.9646603  39.6843531  48.1249199  22.4553712
  50.3927619  43.1525774  12.9124505  51.2273223  42.7206972  12.7301980
  50.2311962  42.9807787  13.8401400  50.0473512  39.6557887  14.2780845
  49.9922315  39.4902158  13.3369289  49.4219567  40.3633920  14.4343034
  34.8366027  34.8925951  28.1042267  35.4824890  34.3824905  28.5929492
  34.6283178  35.6294633  28.6785692  47.3619419  41.9606799  33.6034408
  48.2310578  42.1347451  33.2421042  46.8826170  42.7801216  33.4810137
  43.3569637  29.1565996  13.8566163  43.3448307  30.1007836  14.0134434
  44.2493059  28.9736141  13.5625624  41.5305599  49.0803900  25.2823841
  42.4332846  49.1127510  25.5990336  41.3042969  48.1504351  25.2970177
  43.2859201  47.8334886  21.9433920  42.3354832  47.8336748  21.8298292
  43.5891687  47.0867621  21.4269954  47.1721756  25.7508773  18.1112100
  46.4054152  25.1967259  18.2568782  47.5832461  25.8230641  18.9726252
  39.1763518  32.0393568  32.2017281  40.0394979  31.6830373  32.4120606
  38.6028928  31.7007463  32.8892685  59.0211894  53.6695425  23.0079682
  59.6590304  53.5502172  22.3043022  58.9032737  54.6176269  23.0667634
  55.8301601  53.6222853  22.9441207  55.4920112  53.5063918  22.0561742
  56.6991369  53.2214018  22.9242213  51.6888416  55.4758329  18.9338098
  51.1253282  55.3848266  18.1654386  51.5740811  54.6558234  19.4140590
  56.3121384  54.7757705  28.9027412  56.3010025  54.3810503  28.0307916
  56.4742023  54.0423777  29.4961184  49.2352848  56.9709521  21.7722318
  50.0274140  56.6300345  21.3568618  49.4749499  57.0804496  22.6924472
  57.2687975  59.1429297  14.2452563  56.6175955  59.7283377  13.8586577
  58.0632338  59.6735492  14.3047600  51.1943602  56.2318434  14.6439697
  51.9674478  55.6847421  14.5052573  51.5469001  57.0962683  14.8554158
  53.0328645  57.5594816  27.8506596  52.7418511  58.4640447  27.7353263
  53.6685629  57.6011344  28.5650666  53.9584852  54.9371665  24.4407956
  54.5548424  54.7127687  23.7264919  54.0159823  54.1956410  25.0433404
  53.5309880  52.3911100  12.2758147  53.7835401  51.8692621  11.5141610
  52.5934439  52.2277246  12.3784831  58.5753163  51.3946879  20.0832890
  59.3616252  50.9766302  19.7323307  58.8391867  52.2992971  20.2514539
  58.7463240  56.8319729  14.7821547  58.1109073  56.9054355  15.4942452
  58.4160647  57.4213328  14.1040626  63.9761590  51.3322112  20.9865869
  64.7086762  50.7621329  21.2203698  63.2200946  50.9443712  21.4272374
  53.2506169  54.2939206  14.4782522  53.1342427  53.6184110  15.1463606
  53.3608429  53.8071580  13.6614675  55.5937710  53.7549353  18.1829211
  55.2295917  53.2279974  18.8942133  56.4504826  53.3647822  18.0095697
  61.4987010  45.0443686  25.4460477  61.1670335  45.9139097  25.2221692
  60.9032624  44.7279970  26.1254508  55.2343197  48.7839253  13.1790560
  55.4017599  49.6519489  13.5461031  55.0440366  48.9466535  12.2551849
  57.9918530  57.2456232  24.8456390  57.6919253  58.1481271  24.7372197
  57.6469589  56.9788415  25.6977543  51.4431011  53.6970029  20.8793094
  50.5181508  53.5646243  21.0870786  51.6915425  54.4764248  21.3763037
  61.3915674  49.7638772  22.5253827  60.4832551  49.6954181  22.2312588
  61.3403270  50.2410717  23.3535653  55.2132418  51.2396910  14.1637227
  55.0932043  51.6853961  15.0022707  54.5185006  51.5882228  13.6050765
  48.8039822  53.3403302  21.7136884  48.9332204  53.5937781  22.6276295
  48.1237274  53.9331010  21.3941539  52.9739310  64.0100552  17.8127358
  52.8963339  64.9608377  17.8915838  52.3700953  63.6646425  18.4702284
  55.4656540  51.1828418  30.4688725  54.6889874  51.7422338  30.4591589
  56.1047103  51.6685201  30.9903595  63.2577320  47.9655210  24.3031701
  62.6151700  48.2587744  23.6571496  62.7532249  47.8508131  25.1084898
  60.9117484  51.7118384  14.9917561  61.8235340  51.9445770  14.8165258
  60.4027131  52.2955428  14.4292639  53.7202912  53.9913871  30.0306692
  54.4617596  54.5298915  29.7541515  53.0139897  54.6180160  30.1878243
  59.1958251  56.1343011  28.6278853  59.6041608  55.6925422  27.8833486
  58.4735513  55.5595639  28.8813046  55.5489322  51.0715618  26.0012410
  56.3950517  51.4955032  26.1447059  55.4887959  50.4149243  26.6950973
  59.5187066  56.6944202  22.3831142  58.8895929  56.8589916  21.6807210
  59.1312728  57.1085812  23.1542106  63.3976298  57.6298640  19.7375506
  62.7127336  58.0097541  19.1872539  63.4820147  58.2393967  20.4707454
  58.6988767  48.7319987  27.6593584  58.4549699  49.4862047  27.1227859
  58.9748697  49.1105334  28.4940831  60.6527230  55.2758599  26.3370849
  60.8644125  55.9190359  25.6605230  60.6056978  54.4420916  25.8692779
  58.2553459  47.8876420  23.2407421  57.3937938  48.1857673  23.5324159
  58.2815893  48.1046819  22.3088454  55.0715028  56.4318610  19.6481227
  55.5353374  56.7106313  18.8585850  54.8071826  55.5302055  19.4654318
  51.9639109  55.9790092  22.5860990  52.5340466  56.4077360  21.9478475
  52.5547221  55.6972676  23.2845176  54.0083914  52.5541763  16.4570792
  54.7107957  53.0062806  16.9244719  53.6764543  51.9125581  17.0850685
  52.4564276  51.1453519  30.8322002  51.8262936  51.8269800  31.0657398
  52.3500363  51.0336601  29.8875140  47.7509248  50.8125315  21.7587926
  46.9608302  51.0682844  21.2828036  48.2420495  51.6273653  21.8639966
  61.7673058  58.1530554  24.5093207  62.5890501  57.7510742  24.2275888
  61.7635460  58.0498789  25.4609322  49.7023993  51.1769894  18.7171403
  48.9055157  51.2888589  19.2354898  49.4749586  51.5156547  17.8512293
  55.5329661  57.7014598  26.6653917  55.5974094  58.1635005  27.5012089
  54.8240585  57.0711963  26.7936227  46.0346951  51.0655806  24.1902917
  46.2854989  51.9502816  24.4560493  46.5706499  50.8860407  23.4178008
  69.8579051  54.4969303  20.8578178  69.1042759  53.9276701  20.7022183
  69.9926592  54.4631967  21.8048813  55.2477679  59.3682705  16.5332897
  55.1123353  60.2134241  16.9617745  55.7887491  59.5701983  15.7698831
  51.7345018  45.4474285  33.1947253  51.3411964  44.8940484  33.8694897
  52.5511159  45.7584864  33.5853770  48.7007076  56.8858143  17.1060823
  49.2131597  57.6801393  17.2566387  49.3529789  56.1884434  17.0394424
  50.5101961  60.0023900  19.1883576  50.6868589  60.9241864  19.0004560
  51.3058794  59.6882319  19.6177956  54.6512979  46.8632164  30.7867509
  55.3922693  47.4639317  30.7071972  54.8830902  46.1209802  30.2285552
  49.7954317  52.0488531  29.0645739  49.6807832  51.1473789  29.3652838
  48.9398835  52.2952228  28.7130555  56.8746155  59.9906272  30.6633240
  56.4310009  59.2042650  30.3454144  57.5363369  60.1785422  29.9977130
  51.6333276  61.5202073  25.1893918  52.1840701  61.3919137  24.4170912
  50.7944752  61.8196962  24.8388811  58.9727393  60.2709072  28.6914641
  58.9545868  61.0917953  28.1994910  59.8947313  60.1463147  28.9164782
  55.4300447  57.7853201  29.5338149  55.9628784  57.0241489  29.3037457
  54.9014528  57.4926853  30.2762304  58.5970142  42.8913267  25.0631791
  58.2534412  43.7814909  24.9870902  58.9649105  42.7014925  24.2001376
  46.6655993  55.2146798  17.8820393  47.5031215  55.6243806  17.6654101
  46.8434261  54.2746240  17.8520587  58.5620425  52.8821878  13.5704226
  58.0467048  53.6526483  13.8092613  58.2897733  52.2087014  14.1937288
  56.1467536  47.7271579  18.6289464  55.2909132  47.3378429  18.4495103
  56.5594488  47.8063540  17.7689250  57.6766683  45.2617922  23.0281024
  57.1731478  45.2248057  22.2148829  57.9697290  46.1710665  23.0877681
  53.9209569  45.3456652  22.0347206  54.7862565  45.1499461  21.6753095
  53.9887077  45.1167004  22.9616563  63.5354699  55.6354233  15.5057400
  62.7584142  55.2965392  15.0612562  64.2146180  55.6406856  14.8312365
  58.3506728  50.7548970  15.3964007  58.0456864  51.0695119  16.2474150
  59.3037170  50.8330390  15.4391340  56.7953160  56.9139194  17.0456961
  56.2674522  56.1791953  16.7330199  56.2940663  57.6913870  16.7996930
  61.7746006  55.1088214  22.1624008  61.1169680  55.7987475  22.2504136
  62.5786405  55.4984646  22.5057994  51.5271888  47.5758860  19.4063573
  52.1015640  47.3534041  18.6736766  52.1142870  47.6447554  20.1592174
  60.5851465  53.4632587  20.2127949  61.0983347  54.0962579  20.7149659
  61.2352689  52.8633782  19.8471309  51.8541475  49.6063321  13.4259458
  51.0178787  49.9438007  13.7468733  51.7146244  49.4712301  12.4886595
  53.8294555  44.4500109  18.1338642  53.1758968  44.1349126  17.5095257
  53.7875029  43.8275849  18.8598465  54.9405760  54.7319404  10.0491934
  54.0332822  54.5008657  10.2483083  55.4376792  53.9357023  10.2365916
  57.8473839  63.4416911  12.9688620  57.1735538  63.7448608  13.5773578
  58.2339661  64.2445991  12.6194077  57.0632296  50.9382042  22.4586290
  56.1454857  51.1596989  22.3007978  57.4792439  51.0128353  21.5997997
  57.8467343  52.3373458  17.5888970  58.5939162  52.8494855  17.2796092
  58.1158933  52.0157511  18.4493364  56.1193994  54.8331999  14.5715924
  55.2105213  54.5491032  14.6688394  56.1489077  55.2531077  13.7119231
  61.3513261  58.4438588  18.3407092  60.8975588  57.6029498  18.3972282
  60.7207228  59.0799987  18.6781872  60.2946181  49.3730574  19.5707759
  59.5568937  48.8607960  19.9018002  60.5472954  48.9330956  18.7591036
  59.7946200  60.2815085  19.2756910  60.0869175  60.8420142  18.5569276
  60.3044821  60.5743646  20.0310069  60.3957808  42.1506826  20.1649529
  60.7016685  41.2904190  19.8775444  61.1210413  42.7424446  19.9648523
  46.6882164  52.5537513  18.5531127  46.4906564  51.9606874  17.8282193
  46.1328828  52.2489723  19.2707065  54.6678888  52.4460619  20.6725720
  54.7227497  51.4934456  20.5968196  53.8570090  52.6020058  21.1567018
  55.8170081  56.3740742  11.9104003  55.3789511  55.6576601  11.4509640
  56.5580522  56.6016857  11.3489094  52.6071248  51.0637679  18.4316099
  51.7939113  51.3631850  18.8381291  53.1030242  50.6693368  19.1490581
  54.7579825  61.0595436  20.3650363  54.7156004  61.2856282  19.4358895
  55.6742524  60.8258811  20.5136164  58.2045459  51.5279504  27.2630992
  58.5594847  51.7550977  28.1225458  58.8517590  51.8597880  26.6408248
  63.9343196  54.6497939  17.9680321  63.7961095  54.8399535  17.0401511
  63.5779415  55.4117322  18.4248373  52.0985322  48.6356035  24.0477334
  52.7384702  48.4944794  23.3500297  51.2662853  48.3490548  23.6715936
  63.9612576  56.7174466  22.9791593  64.3949082  56.6249756  23.8274647
  64.6744156  56.6931967  22.3411609  52.8745626  57.9358465  20.1612326
  53.6686225  57.4408785  19.9594901  52.1637319  57.4076328  19.7980032
  57.6940471  60.3176561  24.5124694  57.7477493  60.8867497  25.2802410
  56.8255252  60.4878446  24.1478731  49.1828390  52.0801547  16.2372079
  48.2525978  52.0186002  16.4542041  49.2785862  51.5577500  15.4408720
  49.1013939  48.6056360  18.8250320  49.3620756  49.5201693  18.7159481
  49.9231111  48.1380802  18.9746933  50.5738864  50.0194117  25.9949145
  51.2461918  49.8111479  25.3461794  49.7468651  49.8216203  25.5554377
  64.8228125  56.7598167  25.5124478  65.0164015  57.6643978  25.7583753
  64.7228744  56.3005586  26.3463063  56.4764436  46.6456058  28.0114806
  55.8292351  47.3446007  27.9179282  57.2465451  47.0792202  28.3791054
  59.8843234  56.9104910  31.0865359  59.7328740  56.6815462  30.1695443
  59.8747914  57.8675511  31.0996704  56.6528570  54.4836823  26.0711625
  57.5820630  54.6347982  25.8980593  56.2319600  54.5720843  25.2160272
  55.4516902  58.5087487  23.8410163  55.3127988  58.1406271  24.7136101
  54.6631498  59.0235126  23.6694121  56.0465054  63.6096583  15.1835700
  56.2216810  63.1384627  15.9981322  55.3597842  64.2362350  15.4116960
  57.0022117  57.8869090  21.2299001  56.6671950  57.8469860  22.1256651
  56.5026063  57.2213806  20.7569411  50.9766361  53.2936720  26.7551582
  50.8386159  52.5616959  27.3563121  51.8871285  53.2045620  26.4735770
  59.9381309  55.2325124  11.5036061  59.3210480  54.5071952  11.4069113
  59.4697797  55.9934484  11.1603135  53.6048662  53.0056679  26.2435262
  54.3148281  52.3649871  26.2021880  53.5617970  53.2569574  27.1661442
  61.5935441  59.9424032  29.1641841  61.5347987  59.2583253  28.4972424
  61.9954959  60.6843022  28.7122467  52.3177596  49.9921897  28.0630901
  51.7814953  49.5412635  28.7152497  51.7294304  50.1267806  27.3201365
  50.6126139  66.7585946  21.9575560  50.8522738  67.3904470  22.6354578
  49.7695336  66.4073986  22.2440919  51.7279855  49.4510548  10.6257365
  50.8509321  49.3299349  10.2619611  52.2037608  48.6596627  10.3736253
  61.5952848  57.9063616  27.3955821  60.7079627  57.5689538  27.5182219
  62.1651399  57.1746648  27.6324586  43.2481995  54.2387708  20.7198872
  43.9353035  53.9249438  20.1319887  43.0930124  55.1429073  20.4466123
  48.0516717  49.1277905  25.1483896  47.9674906  48.5203574  24.4134306
  47.2299424  49.6186923  25.1493392  55.1254001  62.5665069  24.3617064
  55.0524173  63.3720040  24.8736368  54.6831394  62.7657034  23.5365085
  54.9143781  61.8036839  17.8719885  54.1311303  62.3458519  17.9658110
  55.6136526  62.3210818  18.2714126  58.2240431  47.6131468  20.5154091
  58.7209131  46.8601430  20.1955161  57.4527413  47.6495785  19.9497300
  66.0770188  53.3171834  22.1572382  66.0660065  54.1996549  21.7866315
  65.2087568  52.9643385  21.9626919  57.5852685  62.4651903  26.5175222
  58.2980657  63.0999368  26.4451124  57.0942714  62.5615769  25.7015224
  59.3070212  56.3703155  18.0892514  58.3726491  56.4904618  17.9197218
  59.4846880  55.4675622  17.8252524  54.8075400  49.7548851  20.2425775
  54.4373187  49.2019892  20.9306681  55.3034492  49.1506985  19.6900775
  62.6942763  52.2120475  18.6242548  63.1603215  53.0448466  18.5502851
  63.1450264  51.7465456  19.3287807  52.6364598  60.2146346  27.3380793
  53.3374058  60.8482829  27.4910187  52.1659713  60.5561078  26.5776433
  60.7618994  58.5564296  15.6228700  61.0378838  58.4420891  16.5322574
  59.8923493  58.1581781  15.5840873  60.6659426  44.5801062  22.6633450
  59.7522506  44.8105289  22.8315656  61.0952527  44.6639506  23.5147482
  60.4365884  52.7690954  25.1633344  59.7837335  53.0166861  24.5085796
  60.8146264  51.9555092  24.8295821  57.3973058  62.8050647  19.2661514
  57.5795453  61.9872303  19.7289266  58.2206044  63.0218339  18.8286404
  57.7315224  61.7318832  16.5276562  58.2602990  61.2211287  15.9146724
  57.9943443  61.4161362  17.3922095  56.4853457  53.5110765  31.6499381
  55.8094094  53.4104894  32.3201756  57.3081091  53.3549978  32.1135378
  48.2332316  59.7482701  24.2711896  48.8185753  59.0026389  24.4039800
  48.0357155  60.0586658  25.1548560  51.0870972  62.7833949  19.2874338
  50.4181347  63.2680076  18.8038378  50.9483841  63.0303169  20.2017717
  42.8249971  52.3188301  22.9916339  42.8634071  51.7851892  23.7853457
  42.3190264  51.7923507  22.3727316  55.2276240  64.8177692  25.8856997
  55.7794548  64.9809314  26.6506082  55.5682434  65.4082130  25.2137022
  50.2040733  47.1652842  26.4878881  50.2682060  48.0267673  26.0756279
  50.1407854  46.5526844  25.7551240  49.6793006  49.2375974  30.1351916
  50.3065045  48.8553052  30.7489440  48.8220925  49.0190176  30.5007608
  60.0787115  59.6438950  31.7405651  60.6227019  60.2568908  31.2460606
  59.4973959  60.2018528  32.2572664  46.4558549  51.0452404  16.0670270
  46.7511990  50.1363082  16.0137324  45.5546585  51.0240143  15.7451273
  58.3644628  62.7659668  22.8720679  58.2395767  61.9649408  22.3631624
  59.0223719  63.2605861  22.3834649  49.9852796  49.1208400  22.0497819
  49.2639382  49.7344368  21.9105292  50.7746052  49.6566165  21.9714465
  60.4279536  60.5668688  24.5000229  59.4809871  60.4474039  24.4278556
  60.7762309  59.6791186  24.5826490  52.7879109  46.4562827  28.3238471
  53.3113511  46.7025123  29.0864780  52.5691443  47.2882861  27.9041608
  48.1846390  48.7266501  16.1909596  47.8559097  47.8463880  16.0084702
  48.5385761  48.6714170  17.0785985  57.4325969  60.3621404  20.7004581
  57.2850932  59.4338111  20.8812151  58.2579463  60.3841495  20.2161656
  51.2988214  49.0139471  16.5585073  51.6384286  49.5425392  15.8363682
  51.7460334  49.3519877  17.3343640  61.0360091  61.1849963  21.7869454
  61.9606639  60.9792824  21.6493905  60.8675394  60.9366364  22.6958795
  53.9931654  47.3976522  26.0088141  53.6528475  46.5984335  26.4108821
  53.2870661  47.6978233  25.4364975  54.6448126  44.4825834  24.4615464
  55.4674195  44.0086312  24.3394355  54.8886190  45.2616318  24.9614151
  53.2856361  47.5114093  14.7578366  54.0064723  47.8895345  14.2542083
  52.6621665  48.2302969  14.8613344  57.4287484  48.2159242  15.6936698
  57.6451098  49.0983879  15.3925527  56.9481551  47.8245455  14.9642340
  52.1686705  51.1744955  22.2707443  52.0231286  51.4885258  23.1631724
  51.6911909  51.7929855  21.7178342  54.0283088  48.1647503  22.3188333
  54.0144657  47.2688596  21.9820630  54.7455516  48.1718167  22.9526619
  55.8809219  48.5984843  24.3641460  55.6226996  49.5201914  24.3625790
  55.3494259  48.2015278  25.0541924  60.8255407  61.7035630  17.1431545
  60.9992285  61.1382053  16.3905398  61.3184299  62.5036525  16.9611035
  46.6432367  53.7150299  25.2095104  46.0985835  54.4910107  25.3415378
  47.5211717  54.0621104  25.0514226  53.4319984  47.0461883  17.5875903
  53.5535895  46.1178529  17.7866790  53.1422026  47.0600569  16.6754218
  56.3011174  44.7316794  20.7242623  56.3232871  44.7956127  19.7694602
  56.7179233  43.8921302  20.9183129  66.6794798  54.4672053  18.7621845
  67.1225944  53.7179378  18.3640968  65.8021309  54.4582189  18.3795577
  61.8130580  61.0202395  14.2428444  62.5081484  61.6409087  14.4615758
  62.1553730  60.1697746  14.5180822  47.4298389  52.8420195  28.1025261
  46.6880125  52.9902831  28.6889891  47.1091133  53.1028461  27.2392010
  63.7122003  58.4702100  15.7715774  64.2373327  58.8089373  15.0465094
  63.6244355  57.5349115  15.5878909  55.3742052  62.3836174  27.9005651
  55.6829178  62.1385320  28.7728351  56.1717534  62.5882812  27.4124521
  55.3962664  64.5374083  20.1311028  54.9567654  64.0450462  20.8243884
  56.1470781  63.9947051  19.8903103  47.8755003  60.7285624  20.1335656
  48.7013023  60.4289396  19.7534299  47.5249055  59.9593247  20.5825444
  52.8436536  60.0812092  22.2033329  52.2216545  59.4182797  21.9035557
  53.5141403  60.1073224  21.5206977  46.0763608  58.6471951  21.0924589
  45.2395516  58.2194125  20.9108591  46.0487253  58.8404394  22.0295380
  52.9161063  48.5593880  31.7965835  52.9649219  49.4356003  31.4143605
  53.4583577  48.0171274  31.2237478  63.4015909  59.1035004  31.0766972
  62.6111453  59.0859143  30.5371472  63.1649264  59.6423297  31.8316009
  63.5213784  55.9527470  28.3899701  63.5711789  55.7877478  29.3315224
  63.4127707  55.0854729  27.9997582  52.4050043  58.6316016  15.6791790
  52.5538163  59.3151480  15.0258463  53.2116486  58.6121106  16.1941246
  60.8117546  51.9358398  29.7059008  61.7127409  51.7964863  29.4143005
  60.8865521  52.1012853  30.6457185  55.1460352  49.3125253  28.5512194
  54.2763661  49.6058819  28.2794782  55.3819832  49.8965698  29.2719458
  65.0231981  58.3724412  28.6341722  64.7316789  58.7354392  29.4705183
  64.4104112  57.6591420  28.4555055  66.2227663  55.9377291  21.1544293
  67.0574555  56.3767095  21.3181853  66.3586792  55.4615945  20.3352538
  63.2719169  53.4957026  27.1021780  63.7473291  53.6884673  26.2940632
  62.3484734  53.5516212  26.8565164  50.1602676  54.6581193  16.6852859
  49.9148718  53.7543523  16.8833069  50.3298590  54.6598344  15.7432337
  57.8499386  45.5304870  26.0677614  58.3681329  46.2665897  25.7424103
  57.4954518  45.8368863  26.9024373  49.4298323  50.3909551  14.1839020
  48.7367568  50.4653906  13.5279056  49.1850075  49.6269895  14.7060537
  58.1011980  41.9505152  21.5878511  58.3813733  41.2828341  22.2138937
  58.8862587  42.1434248  21.0753175  55.9045448  61.1264146  13.1503537
  55.3319415  61.7454333  12.6974009  56.4778242  61.6763508  13.6843459
  61.9720838  50.3722786  25.3350086  62.9238261  50.4720884  25.3562310
  61.8024288  49.5801055  25.8448170  59.9935218  47.4578370  25.5209487
  59.3985150  47.7383382  24.8255976  59.7084914  47.9472270  26.2926228
  59.1242708  61.4101296  14.2812119  60.0573381  61.3446858  14.4844995
  59.0365921  62.2457563  13.8226652  61.7530725  60.7267167  11.2416067
  61.6744356  60.3927030  12.1351825  62.5740391  61.2188935  11.2407539
  64.4508916  53.5928906  24.4492386  64.4185236  52.6544907  24.6352069
  65.0609540  53.6712943  23.7158211  56.2892247  52.4624959  10.4919590
  57.2351351  52.3331167  10.5608008  55.9106492  51.7239621  10.9689018
  64.6003404  50.3839949  24.4950669  64.0842453  49.5998406  24.3080598
  65.4843353  50.0558666  24.6597188  62.2614131  44.1280965  20.4546482
  62.0638952  43.8196053  21.3389813  62.8713837  44.8542604  20.5844411
  70.2685466  54.6544913  23.5898422  70.9988854  54.3930201  24.1506126
  69.6592411  53.9173635  23.6300490  68.3500763  52.7952775  24.1872874
  67.6233926  52.6608740  23.5789365  67.9348050  53.1029604  24.9929592
  56.1730939  56.5142705  31.9520247  57.0933949  56.6921304  32.1460293
  56.1380522  55.5698750  31.7999946  54.4735164  50.3874935  10.4274475
  53.5666619  50.0908048  10.5037189  54.7511145  50.0904753   9.5608761
  45.3913104  51.7081299  20.8773521  45.0715889  50.8546607  20.5847895
  44.8446532  51.9229877  21.6331489  49.1693012  54.4243740  24.5943028
  49.3879022  55.3560848  24.6131062  49.5818786  54.0651714  25.3797832
  56.0897230  44.9311825  16.5818716  55.2797958  44.5858910  16.9573962
  56.7781647  44.6219369  17.1706328  58.0187778  44.0089872  18.2043013
  58.5718816  44.4285325  18.8633036  58.2557864  43.0825620  18.2465969
  54.0420877  49.9976946  33.9845777  53.9417604  50.9471302  33.9157868
  53.8242419  49.6695184  33.1121847  53.2433949  47.2461871  10.5686454
  54.1053112  47.5716769  10.8282271  53.4284293  46.4593366  10.0559520
  45.2601364  55.3284210  22.8466643  44.5664836  54.9138163  22.3336597
  46.0074355  55.3704747  22.2500062  61.3966585  46.1190397  17.7121677
  60.8165254  46.7775201  17.3299730  61.1302518  45.2967742  17.3009095
  59.8470151  45.5195455  19.9142997  60.3469930  45.6311989  19.1057316
  60.4905759  45.2156508  20.5543806  53.9052147  53.4274084  32.8010838
  53.4219229  54.2274444  33.0074727  53.9913086  53.4382029  31.8478282
  47.1738107  55.2602464  20.7232658  47.1508795  55.3590151  19.7714541
  47.4838743  56.1067615  21.0449824  49.8325485  57.3178619  24.8379272
  50.7868738  57.2862561  24.7709204  49.6338008  56.8569243  25.6529498
  50.4224867  55.8879735  27.4050070  51.2417756  56.3823814  27.4284907
  50.6961675  54.9711703  27.3767637  60.1791463  48.2790487  16.7678025
  59.2917318  48.5640138  16.5498220  60.5945452  48.1184251  15.9205302
  63.5305999  48.3037008  20.4832365  64.3066389  48.7933461  20.7556981
  62.8054133  48.7295063  20.9404234  65.9678558  49.0164628  21.5406305
  66.5623049  48.7760364  20.8299614  66.0405141  48.2971758  22.1679842
  48.1875713  62.8598239  21.8549470  48.0530181  62.0998639  21.2887468
  47.7707776  63.5839138  21.3878259  59.3234676  58.0435162  10.8626045
  60.0270527  58.2485165  11.4783701  58.5997325  58.6111924  11.1275129
  60.1532487  53.7945023  16.9828316  60.0967688  54.2513575  16.1435948
  60.7060829  53.0335708  16.8051158  63.9637293  49.5834755  17.8078435
  63.7074227  49.1831391  18.6386643  63.3390161  50.2978549  17.6828574
  68.2749631  52.3230828  20.3149726  67.7149188  52.3924018  21.0881289
  67.6693134  52.1471813  19.5949223  51.3444839  63.7567556  22.0667913
  51.2277223  64.7012988  21.9646603  50.5237286  63.4541117  22.4553712
  61.2321374  58.4817691  12.9124505  62.0666978  58.0498890  12.7301980
  61.0705717  58.3099705  13.8401400  60.8867266  54.9849805  14.2780845
  60.8316070  54.8194076  13.3369289  60.2613321  55.6925838  14.4343034
  45.6759781  50.2217869  28.1042267  46.3218645  49.7116823  28.5929492
  45.4676932  50.9586551  28.6785692  58.2013173  57.2898716  33.6034408
  59.0704333  57.4639369  33.2421042  57.7219925  58.1093133  33.4810137
  54.1963392  44.4857914  13.8566163  54.1842061  45.4299754  14.0134434
  55.0886813  44.3028059  13.5625624  52.3699353  64.4095817  25.2823841
  53.2726600  64.4419428  25.5990336  52.1436724  63.4796268  25.2970177
  54.1252955  63.1626804  21.9433920  53.1748586  63.1628666  21.8298292
  54.4285442  62.4159539  21.4269954  58.0115511  41.0800690  18.1112100
  57.2447907  40.5259177  18.2568782  58.4226216  41.1522559  18.9726252
  50.0157272  47.3685486  32.2017281  50.8788734  47.0122291  32.4120606
  49.4422683  47.0299381  32.8892685  69.8605649  68.9987342  23.0079682
  70.4984059  68.8794090  22.3043022  69.7426492  69.9468186  23.0667634
  66.6695355  68.9514771  22.9441207  66.3313867  68.8355835  22.0561742
  67.5385123  68.5505936  22.9242213  62.5282171  70.8050247  18.9338098
  61.9647036  70.7140184  18.1654386  62.4134566  69.9850151  19.4140590
  67.1515138  70.1049622  28.9027412  67.1403779  69.7102421  28.0307916
  67.3135778  69.3715695  29.4961184  60.0746603  72.3001439  21.7722318
  60.8667895  71.9592263  21.3568618  60.3143253  72.4096414  22.6924472
  68.1081730  74.4721215  14.2452563  67.4569709  75.0575295  13.8586577
  68.9026092  75.0027410  14.3047600  62.0337357  71.5610352  14.6439697
  62.8068233  71.0139339  14.5052573  62.3862756  72.4254601  14.8554158
  63.8722399  72.8886734  27.8506596  63.5812265  73.7932365  27.7353263
  64.5079384  72.9303262  28.5650666  64.7978606  70.2663583  24.4407956
  65.3942178  70.0419605  23.7264919  64.8553578  69.5248328  25.0433404
  64.3703635  67.7203018  12.2758147  64.6229155  67.1984539  11.5141610
  63.4328194  67.5569163  12.3784831  69.4146917  66.7238796  20.0832890
  70.2010007  66.3058219  19.7323307  69.6785622  67.6284888  20.2514539
  69.5856995  72.1611647  14.7821547  68.9502828  72.2346273  15.4942452
  69.2554401  72.7505245  14.1040626  74.8155345  66.6614029  20.9865869
  75.5480517  66.0913246  21.2203698  74.0594700  66.2735630  21.4272374
  64.0899923  69.6231124  14.4782522  63.9736181  68.9476027  15.1463606
  64.2002183  69.1363498  13.6614675  66.4331464  69.0841271  18.1829211
  66.0689672  68.5571892  18.8942133  67.2898580  68.6939740  18.0095697
  72.3380765  60.3735604  25.4460477  72.0064090  61.2431015  25.2221692
  71.7426378  60.0571888  26.1254508  66.0736951  64.1131171  13.1790560
  66.2411354  64.9811407  13.5461031  65.8834120  64.2758452  12.2551849
  68.8312284  72.5748150  24.8456390  68.5313008  73.4773188  24.7372197
  68.4863344  72.3080333  25.6977543  62.2824766  69.0261946  20.8793094
  61.3575262  68.8938161  21.0870786  62.5309179  69.8056166  21.3763037
  72.2309428  65.0930690  22.5253827  71.3226306  65.0246098  22.2312588
  72.1797024  65.5702635  23.3535653  66.0526172  66.5688828  14.1637227
  65.9325797  67.0145879  15.0022707  65.3578761  66.9174146  13.6050765
  59.6433577  68.6695220  21.7136884  59.7725958  68.9229699  22.6276295
  58.9631028  69.2622928  21.3941539  63.8133064  79.3392470  17.8127358
  63.7357094  80.2900295  17.8915838  63.2094708  78.9938342  18.4702284
  66.3050294  66.5120335  30.4688725  65.5283628  67.0714255  30.4591589
  66.9440857  66.9977118  30.9903595  74.0971075  63.2947128  24.3031701
  73.4545455  63.5879661  23.6571496  73.5926003  63.1800048  25.1084898
  71.7511238  67.0410301  14.9917561  72.6629094  67.2737688  14.8165258
  71.2420885  67.6247346  14.4292639  64.5596666  69.3205789  30.0306692
  65.3011351  69.8590833  29.7541515  63.8533652  69.9472077  30.1878243
  70.0352006  71.4634929  28.6278853  70.4435362  71.0217340  27.8833486
  69.3129267  70.8887557  28.8813046  66.3883076  66.4007536  26.0012410
  67.2344271  66.8246949  26.1447059  66.3281714  65.7441160  26.6950973
  70.3580821  72.0236120  22.3831142  69.7289683  72.1881834  21.6807210
  69.9706483  72.4377729  23.1542106  74.2370053  72.9590558  19.7375506
  73.5521091  73.3389459  19.1872539  74.3213902  73.5685884  20.4707454
  69.5382521  64.0611904  27.6593584  69.2943453  64.8153965  27.1227859
  69.8142452  64.4397252  28.4940831  71.4920984  70.6050517  26.3370849
  71.7037879  71.2482277  25.6605230  71.4450732  69.7712833  25.8692779
  69.0947213  63.2168337  23.2407421  68.2331692  63.5149591  23.5324159
  69.1209648  63.4338736  22.3088454  65.9108782  71.7610528  19.6481227
  66.3747128  72.0398231  18.8585850  65.6465581  70.8593972  19.4654318
  62.8032864  71.3082009  22.5860990  63.3734221  71.7369278  21.9478475
  63.3940975  71.0264594  23.2845176  64.8477669  67.8833680  16.4570792
  65.5501712  68.3354724  16.9244719  64.5158297  67.2417499  17.0850685
  63.2958030  66.4745437  30.8322002  62.6656691  67.1561718  31.0657398
  63.1894118  66.3628518  29.8875140  58.5903003  66.1417233  21.7587926
  57.8002056  66.3974761  21.2828036  59.0814250  66.9565571  21.8639966
  72.6066812  73.4822472  24.5093207  73.4284256  73.0802659  24.2275888
  72.6029215  73.3790706  25.4609322  60.5417748  66.5061812  18.7171403
  59.7448911  66.6180506  19.2354898  60.3143340  66.8448464  17.8512293
  66.3723416  73.0306515  26.6653917  66.4367848  73.4926923  27.5012089
  65.6634339  72.4003880  26.7936227  56.8740705  66.3947723  24.1902917
  57.1248744  67.2794733  24.4560493  57.4100254  66.2152325  23.4178008
  80.6972805  69.8261221  20.8578178  79.9436514  69.2568619  20.7022183
  80.8320346  69.7923885  21.8048813  66.0871433  74.6974623  16.5332897
  65.9517108  75.5426159  16.9617745  66.6281246  74.8993901  15.7698831
  62.5738773  60.7766203  33.1947253  62.1805718  60.2232401  33.8694897
  63.3904913  61.0876781  33.5853770  59.5400831  72.2150061  17.1060823
  60.0525351  73.0093311  17.2566387  60.1923543  71.5176351  17.0394424
  61.3495715  75.3315817  19.1883576  61.5262344  76.2533782  19.0004560
  62.1452549  75.0174236  19.6177956  65.4906734  62.1924082  30.7867509
  66.2316447  62.7931235  30.7071972  65.7224657  61.4501720  30.2285552
  60.6348072  67.3780449  29.0645739  60.5201587  66.4765706  29.3652838
  59.7792590  67.6244146  28.7130555  67.7139910  75.3198189  30.6633240
  67.2703764  74.5334568  30.3454144  68.3757123  75.5077340  29.9977130
  62.4727031  76.8493991  25.1893918  63.0234456  76.7211054  24.4170912
  61.6338507  77.1488880  24.8388811  69.8121148  75.6000989  28.6914641
  69.7939623  76.4209870  28.1994910  70.7341068  75.4755065  28.9164782
  66.2694202  73.1145119  29.5338149  66.8022539  72.3533407  29.3037457
  65.7408283  72.8218771  30.2762304  69.4363897  58.2205185  25.0631791
  69.0928166  59.1106826  24.9870902  69.8042859  58.0306842  24.2001376
  57.5049747  70.5438715  17.8820393  58.3424969  70.9535724  17.6654101
  57.6828015  69.6038157  17.8520587  69.4014179  68.2113796  13.5704226
  68.8860803  68.9818400  13.8092613  69.1291488  67.5378932  14.1937288
  66.9861290  63.0563497  18.6289464  66.1302887  62.6670347  18.4495103
  67.3988242  63.1355457  17.7689250  68.5160437  60.5909840  23.0281024
  68.0125233  60.5539975  22.2148829  68.8091044  61.5002583  23.0877681
  64.7603323  60.6748570  22.0347206  65.6256320  60.4791378  21.6753095
  64.8280832  60.4458921  22.9616563  74.3748454  70.9646151  15.5057400
  73.5977896  70.6257310  15.0612562  75.0539935  70.9698774  14.8312365
  69.1900483  66.0840888  15.3964007  68.8850618  66.3987037  16.2474150
  70.1430925  66.1622308  15.4391340  67.6346914  72.2431111  17.0456961
  67.1068276  71.5083871  16.7330199  67.1334417  73.0205788  16.7996930
  72.6139761  70.4380132  22.1624008  71.9563435  71.1279393  22.2504136
  73.4180160  70.8276564  22.5057994  62.3665642  62.9050778  19.4063573
  62.9409394  62.6825959  18.6736766  62.9536625  62.9739472  20.1592174
  71.4245219  68.7924504  20.2127949  71.9377101  69.4254496  20.7149659
  72.0746443  68.1925700  19.8471309  62.6935229  64.9355239  13.4259458
  61.8572541  65.2729925  13.7468733  62.5539999  64.8004218  12.4886595
  64.6688310  59.7792026  18.1338642  64.0152722  59.4641044  17.5095257
  64.6268784  59.1567767  18.8598465  65.7799515  70.0611322  10.0491934
  64.8726576  69.8300575  10.2483083  66.2770547  69.2648941  10.2365916
  68.6867594  78.7708829  12.9688620  68.0129292  79.0740525  13.5773578
  69.0733416  79.5737909  12.6194077  67.9026050  66.2673960  22.4586290
  66.9848612  66.4888907  22.3007978  68.3186194  66.3420270  21.5997997
  68.6861098  67.6665376  17.5888970  69.4332917  68.1786773  17.2796092
  68.9552687  67.3449428  18.4493364  66.9587748  70.1623916  14.5715924
  66.0498967  69.8782949  14.6688394  66.9882832  70.5822995  13.7119231
  72.1907016  73.7730506  18.3407092  71.7369343  72.9321416  18.3972282
  71.5600982  74.4091904  18.6781872  71.1339935  64.7022492  19.5707759
  70.3962692  64.1899878  19.9018002  71.3866709  64.2622874  18.7591036
  70.6339955  75.6107003  19.2756910  70.9262929  76.1712060  18.5569276
  71.1438575  75.9035564  20.0310069  71.2351562  57.4798744  20.1649529
  71.5410439  56.6196107  19.8775444  71.9604167  58.0716364  19.9648523
  57.5275918  67.8829431  18.5531127  57.3300318  67.2898791  17.8282193
  56.9722582  67.5781641  19.2707065  65.5072642  67.7752537  20.6725720
  65.5621252  66.8226373  20.5968196  64.6963844  67.9311976  21.1567018
  66.6563836  71.7032660  11.9104003  66.2183266  70.9868519  11.4509640
  67.3974277  71.9308775  11.3489094  63.4465002  66.3929597  18.4316099
  62.6332868  66.6923767  18.8381291  63.9423996  65.9985286  19.1490581
  65.5973580  76.3887354  20.3650363  65.5549759  76.6148200  19.4358895
  66.5136279  76.1550728  20.5136164  69.0439214  66.8571421  27.2630992
  69.3988601  67.0842894  28.1225458  69.6911345  67.1889798  26.6408248
  74.7736951  69.9789857  17.9680321  74.6354849  70.1691453  17.0401511
  74.4173169  70.7409240  18.4248373  62.9379077  63.9647952  24.0477334
  63.5778456  63.8236711  23.3500297  62.1056607  63.6782466  23.6715936
  74.8006330  72.0466384  22.9791593  75.2342837  71.9541673  23.8274647
  75.5137911  72.0223885  22.3411609  63.7139381  73.2650383  20.1612326
  64.5079979  72.7700703  19.9594901  63.0031073  72.7368246  19.7980032
  68.5334225  75.6468478  24.5124694  68.5871247  76.2159415  25.2802410
  67.6649007  75.8170363  24.1478731  60.0222144  67.4093464  16.2372079
  59.0919732  67.3477920  16.4542041  60.1179616  66.8869417  15.4408720
  59.9407693  63.9348277  18.8250320  60.2014511  64.8493611  18.7159481
  60.7624866  63.4672720  18.9746933  61.4132619  65.3486034  25.9949145
  62.0855672  65.1403397  25.3461794  60.5862405  65.1508120  25.5554377
  75.6621880  72.0890085  25.5124478  75.8557770  72.9935895  25.7583753
  75.5622498  71.6297504  26.3463063  67.3158191  61.9747975  28.0114806
  66.6686106  62.6737925  27.9179282  68.0859206  62.4084119  28.3791054
  70.7236989  72.2396828  31.0865359  70.5722495  72.0107379  30.1695443
  70.7141668  73.1967429  31.0996704  67.4922325  69.8128740  26.0711625
  68.4214385  69.9639900  25.8980593  67.0713355  69.9012761  25.2160272
  66.2910657  73.8379405  23.8410163  66.1521742  73.4698189  24.7136101
  65.5025253  74.3527044  23.6694121  66.8858809  78.9388501  15.1835700
  67.0610564  78.4676544  15.9981322  66.1991597  79.5654267  15.4116960
  67.8415872  73.2161007  21.2299001  67.5065704  73.1761777  22.1256651
  67.3419818  72.5505723  20.7569411  61.8160116  68.6228637  26.7551582
  61.6779914  67.8908876  27.3563121  62.7265039  68.5337538  26.4735770
  70.7775064  70.5617042  11.5036061  70.1604234  69.8363870  11.4069113
  70.3091552  71.3226402  11.1603135  64.4442416  68.3348597  26.2435262
  65.1542035  67.6941789  26.2021880  64.4011725  68.5861492  27.1661442
  72.4329195  75.2715950  29.1641841  72.3741741  74.5875170  28.4972424
  72.8348714  76.0134940  28.7122467  63.1571350  65.3213815  28.0630901
  62.6208707  64.8704553  28.7152497  62.5688059  65.4559723  27.3201365
  61.4519894  82.0877864  21.9575560  61.6916492  82.7196388  22.6354578
  60.6089090  81.7365904  22.2440919  62.5673609  64.7802466  10.6257365
  61.6903076  64.6591267  10.2619611  63.0431362  63.9888544  10.3736253
  72.4346602  73.2355534  27.3955821  71.5473381  72.8981456  27.5182219
  73.0045154  72.5038565  27.6324586  54.0875750  69.5679626  20.7198872
  54.7746789  69.2541356  20.1319887  53.9323878  70.4720990  20.4466123
  58.8910472  64.4569822  25.1483896  58.8068660  63.8495492  24.4134306
  58.0693178  64.9478841  25.1493392  65.9647756  77.8956986  24.3617064
  65.8917927  78.7011958  24.8736368  65.5225149  78.0948952  23.5365085
  65.7537535  77.1328756  17.8719885  64.9705057  77.6750437  17.9658110
  66.4530281  77.6502736  18.2714126  69.0634186  62.9423386  20.5154091
  69.5602885  62.1893348  20.1955161  68.2921167  62.9787702  19.9497300
  76.9163943  68.6463751  22.1572382  76.9053819  69.5288467  21.7866315
  76.0481322  68.2935302  21.9626919  68.4246439  77.7943820  26.5175222
  69.1374412  78.4291285  26.4451124  67.9336468  77.8907686  25.7015224
  70.1463966  71.6995073  18.0892514  69.2120245  71.8196536  17.9197218
  70.3240635  70.7967540  17.8252524  65.6469154  65.0840769  20.2425775
  65.2766942  64.5311809  20.9306681  66.1428247  64.4798902  19.6900775
  73.5336518  67.5412392  18.6242548  73.9996970  68.3740384  18.5502851
  73.9844018  67.0757374  19.3287807  63.4758353  75.5438264  27.3380793
  64.1767812  76.1774747  27.4910187  63.0053468  75.8852995  26.5776433
  71.6012749  73.8856214  15.6228700  71.8772593  73.7712808  16.5322574
  70.7317247  73.4873698  15.5840873  71.5053180  59.9092979  22.6633450
  70.5916260  60.1397206  22.8315656  71.9346282  59.9931423  23.5147482
  71.2759639  68.0982871  25.1633344  70.6231089  68.3458779  24.5085796
  71.6540019  67.2847009  24.8295821  68.2366813  78.1342564  19.2661514
  68.4189207  77.3164220  19.7289266  69.0599799  78.3510257  18.8286404
  68.5708978  77.0610750  16.5276562  69.0996745  76.5503204  15.9146724
  68.8337198  76.7453280  17.3922095  67.3247212  68.8402682  31.6499381
  66.6487849  68.7396812  32.3201756  68.1474846  68.6841896  32.1135378
  59.0726071  75.0774619  24.2711896  59.6579508  74.3318307  24.4039800
  58.8750909  75.3878576  25.1548560  61.9264726  78.1125866  19.2874338
  61.2575101  78.5971994  18.8038378  61.7877596  78.3595087  20.2017717
  53.6643726  67.6480219  22.9916339  53.7027825  67.1143810  23.7853457
  53.1584019  67.1215425  22.3727316  66.0669995  80.1469610  25.8856997
  66.6188303  80.3101231  26.6506082  66.4076188  80.7374048  25.2137022
  61.0434488  62.4944760  26.4878881  61.1075814  63.3559591  26.0756279
  60.9801608  61.8818761  25.7551240  60.5186761  64.5667892  30.1351916
  61.1458799  64.1844969  30.7489440  59.6614679  64.3482094  30.5007608
  70.9180869  74.9730867  31.7405651  71.4620773  75.5860826  31.2460606
  70.3367714  75.5310446  32.2572664  57.2952303  66.3744321  16.0670270
  57.5905744  65.4655000  16.0137324  56.3940339  66.3532061  15.7451273
  69.2038382  78.0951585  22.8720679  69.0789521  77.2941325  22.3631624
  69.8617473  78.5897779  22.3834649  60.8246550  64.4500318  22.0497819
  60.1033136  65.0636286  21.9105292  61.6139806  64.9858083  21.9714465
  71.2673290  75.8960605  24.5000229  70.3203626  75.7765957  24.4278556
  71.6156064  75.0083103  24.5826490  63.6272864  61.7854744  28.3238471
  64.1507266  62.0317041  29.0864780  63.4085197  62.6174779  27.9041608
  59.0240145  64.0558419  16.1909596  58.6952851  63.1755798  16.0084702
  59.3779516  64.0006088  17.0785985  68.2719724  75.6913322  20.7004581
  68.1244686  74.7630029  20.8812151  69.0973217  75.7133412  20.2161656
  62.1381968  64.3431389  16.5585073  62.4778041  64.8717310  15.8363682
  62.5854088  64.6811795  17.3343640  71.8753846  76.5141880  21.7869454
  72.8000393  76.3084742  21.6493905  71.7069149  76.2658282  22.6958795
  64.8325409  62.7268439  26.0088141  64.4922229  61.9276253  26.4108821
  64.1264415  63.0270150  25.4364975  65.4841881  59.8117752  24.4615464
  66.3067950  59.3378230  24.3394355  65.7279944  60.5908236  24.9614151
  64.1250115  62.8406010  14.7578366  64.8458478  63.2187263  14.2542083
  63.5015419  63.5594887  14.8613344  68.2681238  63.5451159  15.6936698
  68.4844852  64.4275797  15.3925527  67.7875305  63.1537373  14.9642340
  63.0080459  66.5036873  22.2707443  62.8625040  66.8177176  23.1631724
  62.5305663  67.1221773  21.7178342  64.8676842  63.4939420  22.3188333
  64.8538411  62.5980514  21.9820630  65.5849270  63.5010084  22.9526619
  66.7202973  63.9276761  24.3641460  66.4620751  64.8493831  24.3625790
  66.1888013  63.5307195  25.0541924  71.6649162  77.0327548  17.1431545
  71.8386039  76.4673970  16.3905398  72.1578053  77.8328443  16.9611035
  57.4826122  69.0442217  25.2095104  56.9379590  69.8202025  25.3415378
  58.3605471  69.3913021  25.0514226  64.2713738  62.3753801  17.5875903
  64.3929649  61.4470447  17.7866790  63.9815781  62.3892487  16.6754218
  67.1404929  60.0608711  20.7242623  67.1626625  60.1248044  19.7694602
  67.5572988  59.2213220  20.9183129  77.5188553  69.7963971  18.7621845
  77.9619699  69.0471296  18.3640968  76.6415063  69.7874107  18.3795577
  72.6524334  76.3494312  14.2428444  73.3475239  76.9701005  14.4615758
  72.9947484  75.4989663  14.5180822  58.2692143  68.1712113  28.1025261
  57.5273879  68.3194749  28.6889891  57.9484888  68.4320379  27.2392010
  74.5515757  73.7994018  15.7715774  75.0767081  74.1381291  15.0465094
  74.4638110  72.8641033  15.5878909  66.2135806  77.7128091  27.9005651
  66.5222933  77.4677238  28.7728351  67.0111288  77.9174730  27.4124521
  66.2356418  79.8666001  20.1311028  65.7961408  79.3742380  20.8243884
  66.9864535  79.3238969  19.8903103  58.7148757  76.0577542  20.1335656
  59.5406777  75.7581314  19.7534299  58.3642809  75.2885164  20.5825444
  63.6830290  75.4104010  22.2033329  63.0610300  74.7474715  21.9035557
  64.3535157  75.4365142  21.5206977  56.9157362  73.9763868  21.0924589
  56.0789270  73.5486043  20.9108591  56.8881008  74.1696312  22.0295380
  63.7554818  63.8885798  31.7965835  63.8042973  64.7647921  31.4143605
  64.2977332  63.3463191  31.2237478  74.2409663  74.4326921  31.0766972
  73.4505207  74.4151060  30.5371472  74.0043018  74.9715215  31.8316009
  63.2443797  73.9607933  15.6791790  63.3931918  74.6443398  15.0258463
  64.0510241  73.9413024  16.1941246  71.6511301  67.2650316  29.7059008
  72.5521164  67.1256781  29.4143005  71.7259275  67.4304771  30.6457185
  65.9854106  64.6417171  28.5512194  65.1157416  64.9350737  28.2794782
  66.2213587  65.2257616  29.2719458  75.8625735  73.7016329  28.6341722
  75.5710544  74.0646310  29.4705183  75.2497867  72.9883338  28.4555055
  77.0621418  71.2669209  21.1544293  77.8968309  71.7059013  21.3181853
  77.1980546  70.7907862  20.3352538  74.1112924  68.8248944  27.1021780
  74.5867045  69.0176590  26.2940632  73.1878489  68.8808130  26.8565164
  60.9996430  69.9873111  16.6852859  60.7542472  69.0835441  16.8833069
  61.1692345  69.9890262  15.7432337  68.6893140  60.8596787  26.0677614
  69.2075084  61.5957814  25.7424103  68.3348273  61.1660781  26.9024373
  60.2692078  65.7201469  14.1839020  59.5761323  65.7945824  13.5279056
  60.0243830  64.9561812  14.7060537  68.9405734  57.2797070  21.5878511
  69.2207488  56.6120259  22.2138937  69.7256341  57.4726166  21.0753175
  66.7439203  76.4556064  13.1503537  66.1713170  77.0746251  12.6974009
  67.3171996  77.0055426  13.6843459  72.8114593  65.7014704  25.3350086
  73.7632015  65.8012802  25.3562310  72.6418043  64.9092973  25.8448170
  70.8328972  62.7870287  25.5209487  70.2378904  63.0675300  24.8255976
  70.5478669  63.2764188  26.2926228  69.9636462  76.7393214  14.2812119
  70.8967136  76.6738776  14.4844995  69.8759675  77.5749481  13.8226652
  72.5924479  76.0559084  11.2416067  72.5138111  75.7218948  12.1351825
  73.4134146  76.5480852  11.2407539  75.2902670  68.9220824  24.4492386
  75.2578990  67.9836824  24.6352069  75.9003294  69.0004860  23.7158211
  67.1286001  67.7916877  10.4919590  68.0745106  67.6623085  10.5608008
  66.7500246  67.0531539  10.9689018  75.4397159  65.7131867  24.4950669
  74.9236207  64.9290324  24.3080598  76.3237107  65.3850584  24.6597188
  73.1007886  59.4572883  20.4546482  72.9032707  59.1487971  21.3389813
  73.7107591  60.1834522  20.5844411  81.1079220  69.9836831  23.5898422
  81.8382609  69.7222119  24.1506126  80.4986166  69.2465552  23.6300490
  79.1894517  68.1244693  24.1872874  78.4627681  67.9900658  23.5789365
  78.7741804  68.4321522  24.9929592  67.0124694  71.8434623  31.9520247
  67.9327703  72.0213222  32.1460293  66.9774277  70.8990668  31.7999946
  65.3128918  65.7166853  10.4274475  64.4060374  65.4199966  10.5037189
  65.5904899  65.4196671   9.5608761  56.2306859  67.0373216  20.8773521
  55.9109643  66.1838525  20.5847895  55.6840287  67.2521795  21.6331489
  60.0086766  69.7535657  24.5943028  60.2272776  70.6852765  24.6131062
  60.4212540  69.3943632  25.3797832  66.9290984  60.2603743  16.5818716
  66.1191712  59.9150828  16.9573962  67.6175401  59.9511286  17.1706328
  68.8581532  59.3381790  18.2043013  69.4112571  59.7577243  18.8633036
  69.0951619  58.4117538  18.2465969  64.8814632  65.3268863  33.9845777
  64.7811359  66.2763220  33.9157868  64.6636174  64.9987102  33.1121847
  64.0827703  62.5753788  10.5686454  64.9446867  62.9008687  10.8282271
  64.2678047  61.7885284  10.0559520  56.0995119  70.6576128  22.8466643
  55.4058590  70.2430081  22.3336597  56.8468110  70.6996664  22.2500062
  72.2360339  61.4482315  17.7121677  71.6559009  62.1067119  17.3299730
  71.9696272  60.6259659  17.3009095  70.6863906  60.8487372  19.9142997
  71.1863684  60.9603907  19.1057316  71.3299514  60.5448425  20.5543806
  64.7445902  68.7566002  32.8010838  64.2612983  69.5566362  33.0074727
  64.8306841  68.7673947  31.8478282  58.0131861  70.5894382  20.7232658
  57.9902549  70.6882069  19.7714541  58.3232498  71.4359533  21.0449824
  60.6719239  72.6470537  24.8379272  61.6262493  72.6154479  24.7709204
  60.4731763  72.1861160  25.6529498  61.2618621  71.2171653  27.4050070
  62.0811510  71.7115731  27.4284907  61.5355429  70.3003621  27.3767637
  71.0185217  63.6082405  16.7678025  70.1311073  63.8932056  16.5498220
  71.4339207  63.4476168  15.9205302  74.3699754  63.6328926  20.4832365
  75.1460144  64.1225379  20.7556981  73.6447888  64.0586980  20.9404234
  76.8072312  64.3456545  21.5406305  77.4016803  64.1052281  20.8299614
  76.8798896  63.6263676  22.1679842  59.0269468  78.1890156  21.8549470
  58.8923936  77.4290557  21.2887468  58.6101530  78.9131056  21.3878259
  70.1628431  73.3727080  10.8626045  70.8664281  73.5777082  11.4783701
  69.4391080  73.9403842  11.1275129  70.9926241  69.1236941  16.9828316
  70.9361443  69.5805492  16.1435948  71.5454584  68.3627626  16.8051158
  74.8031047  64.9126673  17.8078435  74.5467981  64.5123309  18.6386643
  74.1783915  65.6270467  17.6828574  79.1143385  67.6522746  20.3149726
  78.5542943  67.7215935  21.0881289  78.5086888  67.4763731  19.5949223
  62.1838594  79.0859473  22.0667913  62.0670978  80.0304906  21.9646603
  61.3631040  78.7833035  22.4553712  72.0715128  73.8109609  12.9124505
  72.9060732  73.3790807  12.7301980  71.9099471  73.6391623  13.8401400
  71.7261021  70.3141722  14.2780845  71.6709824  70.1485994  13.3369289
  71.1007076  71.0217755  14.4343034  56.5153536  65.5509787  28.1042267
  57.1612399  65.0408741  28.5929492  56.3070687  66.2878468  28.6785692
  69.0406928  72.6190634  33.6034408  69.9098087  72.7931286  33.2421042
  68.5613679  73.4385051  33.4810137  65.0357146  59.8149831  13.8566163
  65.0235816  60.7591671  14.0134434  65.9280568  59.6319977  13.5625624
  63.2093108  79.7387735  25.2823841  64.1120355  79.7711345  25.5990336
  62.9830478  78.8088186  25.2970177  64.9646710  78.4918722  21.9433920
  64.0142341  78.4920583  21.8298292  65.2679196  77.7451456  21.4269954
  68.8509265  56.4092608  18.1112100  68.0841661  55.8551095  18.2568782
  69.2619970  56.4814477  18.9726252  60.8551027  62.6977404  32.2017281
  61.7182488  62.3414209  32.4120606  60.2816437  62.3591299  32.8892685
  80.6999403  84.3279260  23.0079682  81.3377813  84.2086007  22.3043022
  80.5820246  85.2760104  23.0667634  77.5089110  84.2806688  22.9441207
  77.1707621  84.1647753  22.0561742  78.3778878  83.8797853  22.9242213
  73.3675925  86.1342165  18.9338098  72.8040791  86.0432102  18.1654386
  73.2528320  85.3142069  19.4140590  77.9908893  85.4341540  28.9027412
  77.9797533  85.0394338  28.0307916  78.1529532  84.7007613  29.4961184
  70.9140357  87.6293356  21.7722318  71.7061649  87.2884181  21.3568618
  71.1537008  87.7388331  22.6924472  78.9475484  89.8013132  14.2452563
  78.2963464  90.3867213  13.8586577  79.7419847  90.3319327  14.3047600
  72.8731111  86.8902269  14.6439697  73.6461987  86.3431257  14.5052573
  73.2256510  87.7546519  14.8554158  74.7116154  88.2178652  27.8506596
  74.4206020  89.1224283  27.7353263  75.3473138  88.2595179  28.5650666
  75.6372361  85.5955500  24.4407956  76.2335933  85.3711523  23.7264919
  75.6947332  84.8540246  25.0433404  75.2097389  83.0494936  12.2758147
  75.4622910  82.5276457  11.5141610  74.2721948  82.8861081  12.3784831
  80.2540672  82.0530714  20.0832890  81.0403761  81.6350137  19.7323307
  80.5179376  82.9576806  20.2514539  80.4250749  87.4903564  14.7821547
  79.7896582  87.5638191  15.4942452  80.0948156  88.0797163  14.1040626
  85.6549099  81.9905947  20.9865869  86.3874271  81.4205164  21.2203698
  84.8988455  81.6027548  21.4272374  74.9293678  84.9523042  14.4782522
  74.8129936  84.2767945  15.1463606  75.0395938  84.4655415  13.6614675
  77.2725219  84.4133189  18.1829211  76.9083426  83.8863810  18.8942133
  78.1292335  84.0231658  18.0095697  83.1774519  75.7027521  25.4460477
  82.8457844  76.5722932  25.2221692  82.5820133  75.3863805  26.1254508
  76.9130706  79.4423088  13.1790560  77.0805108  80.3103325  13.5461031
  76.7227875  79.6050370  12.2551849  79.6706039  87.9040067  24.8456390
  79.3706762  88.8065106  24.7372197  79.3257098  87.6372250  25.6977543
  73.1218520  84.3553864  20.8793094  72.1969017  84.2230078  21.0870786
  73.3702934  85.1348083  21.3763037  83.0703183  80.4222607  22.5253827
  82.1620060  80.3538016  22.2312588  83.0190779  80.8994552  23.3535653
  76.8919927  81.8980746  14.1637227  76.7719552  82.3437797  15.0022707
  76.1972515  82.2466064  13.6050765  70.4827331  83.9987138  21.7136884
  70.6119713  84.2521617  22.6276295  69.8024783  84.5914846  21.3941539
  74.6526819  94.6684388  17.8127358  74.5750848  95.6192213  17.8915838
  74.0488462  94.3230260  18.4702284  77.1444049  81.8412253  30.4688725
  76.3677383  82.4006173  30.4591589  77.7834612  82.3269036  30.9903595
  84.9364829  78.6239046  24.3031701  84.2939209  78.9171579  23.6571496
  84.4319758  78.5091966  25.1084898  82.5904993  82.3702219  14.9917561
  83.5022849  82.6029606  14.8165258  82.0814640  82.9539263  14.4292639
  75.3990421  84.6497706  30.0306692  76.1405105  85.1882750  29.7541515
  74.6927406  85.2763995  30.1878243  80.8745760  86.7926847  28.6278853
  81.2829116  86.3509257  27.8833486  80.1523022  86.2179474  28.8813046
  77.2276831  81.7299454  26.0012410  78.0738026  82.1538867  26.1447059
  77.1675468  81.0733078  26.6950973  81.1974575  87.3528037  22.3831142
  80.5683438  87.5173752  21.6807210  80.8100237  87.7669647  23.1542106
  85.0763807  88.2882475  19.7375506  84.3914845  88.6681377  19.1872539
  85.1607656  88.8977802  20.4707454  80.3776276  79.3903822  27.6593584
  80.1337208  80.1445883  27.1227859  80.6536206  79.7689170  28.4940831
  82.3314739  85.9342434  26.3370849  82.5431634  86.5774194  25.6605230
  82.2844487  85.1004751  25.8692779  79.9340968  78.5460255  23.2407421
  79.0725447  78.8441509  23.5324159  79.9603402  78.7630654  22.3088454
  76.7502537  87.0902446  19.6481227  77.2140883  87.3690149  18.8585850
  76.4859335  86.1885890  19.4654318  73.6426618  86.6373927  22.5860990
  74.2127975  87.0661195  21.9478475  74.2334730  86.3556512  23.2845176
  75.6871423  83.2125598  16.4570792  76.3895466  83.6646642  16.9244719
  75.3552052  82.5709417  17.0850685  74.1351785  81.8037355  30.8322002
  73.5050445  82.4853635  31.0657398  74.0287872  81.6920436  29.8875140
  69.4296757  81.4709151  21.7587926  68.6395811  81.7266679  21.2828036
  69.9208004  82.2857488  21.8639966  83.4460567  88.8114390  24.5093207
  84.2678010  88.4094577  24.2275888  83.4422969  88.7082624  25.4609322
  71.3811502  81.8353730  18.7171403  70.5842666  81.9472424  19.2354898
  71.1537095  82.1740382  17.8512293  77.2117170  88.3598433  26.6653917
  77.2761603  88.8218840  27.5012089  76.5028094  87.7295798  26.7936227
  67.7134460  81.7239641  24.1902917  67.9642498  82.6086651  24.4560493
  68.2494008  81.5444243  23.4178008  91.5366560  85.1553138  20.8578178
  90.7830268  84.5860536  20.7022183  91.6714101  85.1215803  21.8048813
  76.9265188  90.0266541  16.5332897  76.7910862  90.8718076  16.9617745
  77.4675000  90.2285818  15.7698831  73.4132527  76.1058120  33.1947253
  73.0199473  75.5524319  33.8694897  74.2298668  76.4168699  33.5853770
  70.3794585  87.5441979  17.1060823  70.8919106  88.3385229  17.2566387
  71.0317298  86.8468269  17.0394424  72.1889470  90.6607735  19.1883576
  72.3656098  91.5825700  19.0004560  72.9846303  90.3466154  19.6177956
  76.3300488  77.5215999  30.7867509  77.0710202  78.1223153  30.7071972
  76.5618411  76.7793637  30.2285552  71.4741826  82.7072367  29.0645739
  71.3595341  81.8057624  29.3652838  70.6186344  82.9536064  28.7130555
  78.5533664  90.6490107  30.6633240  78.1097518  89.8626486  30.3454144
  79.2150878  90.8369258  29.9977130  73.3120785  92.1785909  25.1893918
  73.8628210  92.0502972  24.4170912  72.4732261  92.4780798  24.8388811
  80.6514902  90.9292907  28.6914641  80.6333377  91.7501788  28.1994910
  81.5734822  90.8046982  28.9164782  77.1087956  88.4437036  29.5338149
  77.6416293  87.6825325  29.3037457  76.5802037  88.1510688  30.2762304
  80.2757651  73.5497102  25.0631791  79.9321921  74.4398744  24.9870902
  80.6436614  73.3598760  24.2001376  68.3443502  85.8730633  17.8820393
  69.1818724  86.2827641  17.6654101  68.5221770  84.9330075  17.8520587
  80.2407934  83.5405714  13.5704226  79.7254557  84.3110318  13.8092613
  79.9685242  82.8670850  14.1937288  77.8255045  78.3855414  18.6289464
  76.9696641  77.9962265  18.4495103  78.2381997  78.4647375  17.7689250
  79.3554192  75.9201758  23.0281024  78.8518987  75.8831893  22.2148829
  79.6484798  76.8294500  23.0877681  75.5997078  76.0040487  22.0347206
  76.4650074  75.8083296  21.6753095  75.6674586  75.7750839  22.9616563
  85.2142208  86.2938068  15.5057400  84.4371651  85.9549228  15.0612562
  85.8933689  86.2990691  14.8312365  80.0294237  81.4132806  15.3964007
  79.7244373  81.7278955  16.2474150  80.9824679  81.4914226  15.4391340
  78.4740669  87.5723029  17.0456961  77.9462031  86.8375789  16.7330199
  77.9728172  88.3497705  16.7996930  83.4533515  85.7672049  22.1624008
  82.7957189  86.4571311  22.2504136  84.2573914  86.1568481  22.5057994
  73.2059397  78.2342695  19.4063573  73.7803148  78.0117877  18.6736766
  73.7930379  78.3031390  20.1592174  82.2638974  84.1216422  20.2127949
  82.7770856  84.7546414  20.7149659  82.9140198  83.5217618  19.8471309
  73.5328984  80.2647156  13.4259458  72.6966296  80.6021843  13.7468733
  73.3933753  80.1296136  12.4886595  75.5082064  75.1083944  18.1338642
  74.8546477  74.7932961  17.5095257  75.4662538  74.4859685  18.8598465
  76.6193269  85.3903239  10.0491934  75.7120331  85.1592493  10.2483083
  77.1164301  84.5940858  10.2365916  78.7419805  81.5965878  22.4586290
  77.8242366  81.8180825  22.3007978  79.1579948  81.6712188  21.5997997
  79.5254852  82.9957293  17.5888970  80.2726671  83.5078691  17.2796092
  79.7946442  82.6741346  18.4493364  77.7981503  85.4915834  14.5715924
  76.8892722  85.2074867  14.6688394  77.8276586  85.9114913  13.7119231
  83.0300770  89.1022424  18.3407092  82.5763097  88.2613333  18.3972282
  82.3994737  89.7383822  18.6781872  81.9733690  80.0314410  19.5707759
  81.2356446  79.5191796  19.9018002  82.2260463  79.5914791  18.7591036
  81.4733709  90.9398920  19.2756910  81.7656684  91.5003977  18.5569276
  81.9832330  91.2327481  20.0310069  82.0745317  72.8090662  20.1649529
  82.3804194  71.9488025  19.8775444  82.7997922  73.4008282  19.9648523
  68.3669673  83.2121348  18.5531127  68.1694073  82.6190709  17.8282193
  67.8116337  82.9073558  19.2707065  76.3466397  83.1044455  20.6725720
  76.4015006  82.1518291  20.5968196  75.5357599  83.2603894  21.1567018
  77.4957590  87.0324578  11.9104003  77.0577020  86.3160437  11.4509640
  78.2368031  87.2600693  11.3489094  74.2858757  81.7221514  18.4316099
  73.4726622  82.0215685  18.8381291  74.7817751  81.3277203  19.1490581
  76.4367334  91.7179271  20.3650363  76.3943513  91.9440118  19.4358895
  77.3530033  91.4842646  20.5136164  79.8832968  82.1863339  27.2630992
  80.2382356  82.4134812  28.1225458  80.5305099  82.5181716  26.6408248
  85.6130705  85.3081775  17.9680321  85.4748604  85.4983371  17.0401511
  85.2566924  86.0701158  18.4248373  73.7772831  79.2939870  24.0477334
  74.4172211  79.1528629  23.3500297  72.9450362  79.0074383  23.6715936
  85.6400085  87.3758302  22.9791593  86.0736591  87.2833591  23.8274647
  86.3531665  87.3515802  22.3411609  74.5533135  88.5942300  20.1612326
  75.3473734  88.0992621  19.9594901  73.8424828  88.0660164  19.7980032
  79.3727980  90.9760396  24.5124694  79.4265002  91.5451332  25.2802410
  78.5042761  91.1462281  24.1478731  70.8615899  82.7385382  16.2372079
  69.9313487  82.6769838  16.4542041  70.9573371  82.2161335  15.4408720
  70.7801448  79.2640195  18.8250320  71.0408265  80.1785528  18.7159481
  71.6018620  78.7964638  18.9746933  72.2526373  80.6777952  25.9949145
  72.9249426  80.4695314  25.3461794  71.4256160  80.4800038  25.5554377
  86.5015634  87.4182002  25.5124478  86.6951524  88.3227813  25.7583753
  86.4016253  86.9589422  26.3463063  78.1551945  77.3039893  28.0114806
  77.5079860  78.0029843  27.9179282  78.9252960  77.7376037  28.3791054
  81.5630743  87.5688745  31.0865359  81.4116249  87.3399297  30.1695443
  81.5535422  88.5259347  31.0996704  78.3316079  85.1420658  26.0711625
  79.2608139  85.2931818  25.8980593  77.9107109  85.2304679  25.2160272
  77.1304411  89.1671322  23.8410163  76.9915497  88.7990107  24.7136101
  76.3419007  89.6818962  23.6694121  77.7252563  94.2680419  15.1835700
  77.9004319  93.7968462  15.9981322  77.0385351  94.8946185  15.4116960
  78.6809626  88.5452925  21.2299001  78.3459459  88.5053695  22.1256651
  78.1813572  87.8797641  20.7569411  72.6553870  83.9520555  26.7551582
  72.5173668  83.2200794  27.3563121  73.5658794  83.8629455  26.4735770
  81.6168818  85.8908959  11.5036061  80.9997989  85.1655788  11.4069113
  81.1485306  86.6518320  11.1603135  75.2836171  83.6640514  26.2435262
  75.9935790  83.0233707  26.2021880  75.2405479  83.9153409  27.1661442
  83.2722950  90.6007868  29.1641841  83.2135496  89.9167088  28.4972424
  83.6742468  91.3426858  28.7122467  73.9965105  80.6505732  28.0630901
  73.4602462  80.1996471  28.7152497  73.4081813  80.7851641  27.3201365
  72.2913648  97.4169782  21.9575560  72.5310247  98.0488306  22.6354578
  71.4482845  97.0657822  22.2440919  73.4067364  80.1094384  10.6257365
  72.5296830  79.9883184  10.2619611  73.8825117  79.3180462  10.3736253
  83.2740357  88.5647452  27.3955821  82.3867136  88.2273373  27.5182219
  83.8438908  87.8330483  27.6324586  64.9269504  84.8971543  20.7198872
  65.6140544  84.5833273  20.1319887  64.7717633  85.8012908  20.4466123
  69.7304226  79.7861740  25.1483896  69.6462415  79.1787410  24.4134306
  68.9086933  80.2770758  25.1493392  76.8041510  93.2248904  24.3617064
  76.7311682  94.0303876  24.8736368  76.3618903  93.4240870  23.5365085
  76.5931290  92.4620674  17.8719885  75.8098812  93.0042354  17.9658110
  77.2924035  92.9794654  18.2714126  79.9027940  78.2715304  20.5154091
  80.3996640  77.5185266  20.1955161  79.1314922  78.3079620  19.9497300
  87.7557697  83.9755669  22.1572382  87.7447574  84.8580384  21.7866315
  86.8875077  83.6227220  21.9626919  79.2640194  93.1235738  26.5175222
  79.9768166  93.7583203  26.4451124  78.7730222  93.2199604  25.7015224
  80.9857721  87.0286991  18.0892514  80.0513999  87.1488453  17.9197218
  81.1634389  86.1259458  17.8252524  76.4862909  80.4132687  20.2425775
  76.1160696  79.8603727  20.9306681  76.9822001  79.8090820  19.6900775
  84.3730272  82.8704310  18.6242548  84.8390724  83.7032302  18.5502851
  84.8237773  82.4049292  19.3287807  74.3152107  90.8730182  27.3380793
  75.0161567  91.5066664  27.4910187  73.8447222  91.2144913  26.5776433
  82.4406503  89.2148131  15.6228700  82.7166347  89.1004726  16.5322574
  81.5711002  88.8165616  15.5840873  82.3446935  75.2384897  22.6633450
  81.4310015  75.4689124  22.8315656  82.7740036  75.3223341  23.5147482
  82.1153393  83.4274789  25.1633344  81.4624844  83.6750696  24.5085796
  82.4933773  82.6138927  24.8295821  79.0760567  93.4634482  19.2661514
  79.2582962  92.6456138  19.7289266  79.8993553  93.6802174  18.8286404
  79.4102733  92.3902667  16.5276562  79.9390499  91.8795122  15.9146724
  79.6730952  92.0745197  17.3922095  78.1640966  84.1694600  31.6499381
  77.4881603  84.0688729  32.3201756  78.9868600  84.0133814  32.1135378
  69.9119825  90.4066537  24.2711896  70.4973262  89.6610224  24.4039800
  69.7144664  90.7170493  25.1548560  72.7658481  93.4417784  19.2874338
  72.0968856  93.9263912  18.8038378  72.6271350  93.6887004  20.2017717
  64.5037480  82.9772137  22.9916339  64.5421580  82.4435727  23.7853457
  63.9977773  82.4507342  22.3727316  76.9063749  95.4761527  25.8856997
  77.4582057  95.6393149  26.6506082  77.2469943  96.0665965  25.2137022
  71.8828242  77.8236677  26.4878881  71.9469569  78.6851508  26.0756279
  71.8195363  77.2110679  25.7551240  71.3580515  79.8959810  30.1351916
  71.9852554  79.5136887  30.7489440  70.5008434  79.6774012  30.5007608
  81.7574624  90.3022785  31.7405651  82.3014528  90.9152743  31.2460606
  81.1761468  90.8602363  32.2572664  68.1346058  81.7036239  16.0670270
  68.4299499  80.7946917  16.0137324  67.2334094  81.6823978  15.7451273
  80.0432137  93.4243503  22.8720679  79.9183276  92.6233243  22.3631624
  80.7011228  93.9189696  22.3834649  71.6640305  79.7792236  22.0497819
  70.9426891  80.3928203  21.9105292  72.4533561  80.3150000  21.9714465
  82.1067045  91.2252523  24.5000229  81.1597380  91.1057874  24.4278556
  82.4549818  90.3375021  24.5826490  74.4666618  77.1146662  28.3238471
  74.9901020  77.3608959  29.0864780  74.2478952  77.9466697  27.9041608
  69.8633899  79.3850337  16.1909596  69.5346605  78.5047716  16.0084702
  70.2173270  79.3298005  17.0785985  79.1113478  91.0205239  20.7004581
  78.9638441  90.0921947  20.8812151  79.9366972  91.0425330  20.2161656
  72.9775723  79.6723306  16.5585073  73.3171795  80.2009228  15.8363682
  73.4247843  80.0103713  17.3343640  82.7147600  91.8433798  21.7869454
  83.6394148  91.6376659  21.6493905  82.5462903  91.5950199  22.6958795
  75.6719163  78.0560357  26.0088141  75.3315984  77.2568170  26.4108821
  74.9658170  78.3562068  25.4364975  76.3235635  75.1409670  24.4615464
  77.1461704  74.6670148  24.3394355  76.5673699  75.9200153  24.9614151
  74.9643870  78.1697928  14.7578366  75.6852232  78.5479181  14.2542083
  74.3409174  78.8886805  14.8613344  79.1074993  78.8743077  15.6936698
  79.3238607  79.7567715  15.3925527  78.6269060  78.4829290  14.9642340
  73.8474214  81.8328790  22.2707443  73.7018795  82.1469093  23.1631724
  73.3699418  82.4513691  21.7178342  75.7070597  78.8231338  22.3188333
  75.6932166  77.9272431  21.9820630  76.4243025  78.8302002  22.9526619
  77.5596728  79.2568678  24.3641460  77.3014505  80.1785749  24.3625790
  77.0281768  78.8599113  25.0541924  82.5042916  92.3619465  17.1431545
  82.6779794  91.7965888  16.3905398  82.9971807  93.1620360  16.9611035
  68.3219876  84.3734135  25.2095104  67.7773344  85.1493943  25.3415378
  69.1999226  84.7204939  25.0514226  75.1107493  77.7045718  17.5875903
  75.2323404  76.7762365  17.7866790  74.8209535  77.7184404  16.6754218
  77.9798683  75.3900629  20.7242623  78.0020380  75.4539962  19.7694602
  78.3966742  74.5505138  20.9183129  88.3582307  85.1255888  18.7621845
  88.8013453  84.3763214  18.3640968  87.4808818  85.1166025  18.3795577
  83.4918089  91.6786230  14.2428444  84.1868993  92.2992923  14.4615758
  83.8341239  90.8281581  14.5180822  69.1085898  83.5004031  28.1025261
  68.3667634  83.6486666  28.6889891  68.7878642  83.7612296  27.2392010
  85.3909512  89.1285935  15.7715774  85.9160836  89.4673208  15.0465094
  85.3031864  88.1932951  15.5878909  77.0529561  93.0420009  27.9005651
  77.3616687  92.7969156  28.7728351  77.8505043  93.2466648  27.4124521
  77.0750173  95.1957919  20.1311028  76.6355163  94.7034297  20.8243884
  77.8258290  94.6530886  19.8903103  69.5542512  91.3869460  20.1335656
  70.3800532  91.0873231  19.7534299  69.2036564  90.6177082  20.5825444
  74.5224045  90.7395928  22.2033329  73.9004054  90.0766633  21.9035557
  75.1928912  90.7657060  21.5206977  67.7551117  89.3055786  21.0924589
  66.9183025  88.8777960  20.9108591  67.7274762  89.4988229  22.0295380
  74.5948572  79.2177716  31.7965835  74.6436728  80.0939839  31.4143605
  75.1371086  78.6755109  31.2237478  85.0803418  89.7618839  31.0766972
  84.2898962  89.7442978  30.5371472  84.8436773  90.3007133  31.8316009
  85.2001293  86.6111305  28.3899701  85.2499298  86.4461313  29.3315224
  85.0915216  85.7438564  27.9997582  74.0837552  89.2899851  15.6791790
  74.2325672  89.9735316  15.0258463  74.8903995  89.2704941  16.1941246
  82.4905055  82.5942233  29.7059008  83.3914918  82.4548698  29.4143005
  82.5653030  82.7596688  30.6457185  76.8247861  79.9709088  28.5512194
  75.9551170  80.2642654  28.2794782  77.0607341  80.5549533  29.2719458
  86.7019490  89.0308247  28.6341722  86.4104298  89.3938228  29.4705183
  86.0891621  88.3175255  28.4555055  87.9015172  86.5961127  21.1544293
  88.7362064  87.0350931  21.3181853  88.0374301  86.1199780  20.3352538
  84.9506678  84.1540862  27.1021780  85.4260800  84.3468508  26.2940632
  84.0272243  84.2100047  26.8565164  71.8390185  85.3165029  16.6852859
  71.5936227  84.4127359  16.8833069  72.0086099  85.3182179  15.7432337
  79.5286895  76.1888705  26.0677614  80.0468838  76.9249732  25.7424103
  79.1742027  76.4952698  26.9024373  71.1085832  81.0493386  14.1839020
  70.4155077  81.1237741  13.5279056  70.8637584  80.2853730  14.7060537
  79.7799489  72.6088988  21.5878511  80.0601242  71.9412177  22.2138937
  80.5650096  72.8018083  21.0753175  77.5832957  91.7847982  13.1503537
  77.0106924  92.4038169  12.6974009  78.1565751  92.3347343  13.6843459
  83.6508347  81.0306622  25.3350086  84.6025770  81.1304719  25.3562310
  83.4811797  80.2384890  25.8448170  81.6722727  78.1162205  25.5209487
  81.0772659  78.3967218  24.8255976  81.3872423  78.6056106  26.2926228
  80.8030217  92.0685132  14.2812119  81.7360890  92.0030693  14.4844995
  80.7153430  92.9041399  13.8226652  86.1296425  84.2512741  24.4492386
  86.0972745  83.3128742  24.6352069  86.7397048  84.3296778  23.7158211
  77.9679756  83.1208794  10.4919590  78.9138860  82.9915002  10.5608008
  77.5894001  82.3823456  10.9689018  86.2790913  81.0423785  24.4950669
  85.7629962  80.2582241  24.3080598  87.1630862  80.7142501  24.6597188
  83.9401640  74.7864800  20.4546482  83.7426461  74.4779889  21.3389813
  84.5501346  75.5126439  20.5844411  91.9472975  85.3128748  23.5898422
  92.6776363  85.0514036  24.1506126  91.3379920  84.5757470  23.6300490
  90.0288272  83.4536611  24.1872874  89.3021435  83.3192576  23.5789365
  89.6135559  83.7613439  24.9929592  77.8518448  87.1726540  31.9520247
  78.7721458  87.3505139  32.1460293  77.8168031  86.2282586  31.7999946
  76.1522673  81.0458771  10.4274475  75.2454128  80.7491883  10.5037189
  76.4298654  80.7488589   9.5608761  67.0700613  82.3665134  20.8773521
  66.7503398  81.5130442  20.5847895  66.5234041  82.5813712  21.6331489
  70.8480521  85.0827575  24.5943028  71.0666531  86.0144683  24.6131062
  71.2606295  84.7235550  25.3797832  77.7684739  75.5895660  16.5818716
  76.9585467  75.2442745  16.9573962  78.4569156  75.2803204  17.1706328
  79.6975287  74.6673707  18.2043013  80.2506325  75.0869161  18.8633036
  79.9345373  73.7409455  18.2465969  75.7208386  80.6560781  33.9845777
  75.6205113  81.6055138  33.9157868  75.5029928  80.3279020  33.1121847
  74.9221457  77.9045706  10.5686454  75.7840621  78.2300604  10.8282271
  75.1071802  77.1177202  10.0559520  66.9388873  85.9868046  22.8466643
  66.2452345  85.5721998  22.3336597  67.6861864  86.0288582  22.2500062
  83.0754094  76.7774232  17.7121677  82.4952763  77.4359036  17.3299730
  82.8090027  75.9551577  17.3009095  81.5257660  76.1779290  19.9142997
  82.0257439  76.2895825  19.1057316  82.1693268  75.8740343  20.5543806
  75.5839656  84.0857920  32.8010838  75.1006738  84.8858280  33.0074727
  75.6700595  84.0965865  31.8478282  68.8525616  85.9186299  20.7232658
  68.8296304  86.0173987  19.7714541  69.1626252  86.7651450  21.0449824
  71.5112994  87.9762454  24.8379272  72.4656247  87.9446397  24.7709204
  71.3125517  87.5153078  25.6529498  72.1012376  86.5463570  27.4050070
  72.9205265  87.0407649  27.4284907  72.3749183  85.6295539  27.3767637
  81.8578972  78.9374323  16.7678025  80.9704827  79.2223973  16.5498220
  82.2732961  78.7768086  15.9205302  85.2093508  78.9620844  20.4832365
  85.9853898  79.4517296  20.7556981  84.4841642  79.3878898  20.9404234
  87.6466067  79.6748463  21.5406305  88.2410558  79.4344199  20.8299614
  87.7192650  78.9555594  22.1679842  69.8663222  93.5182074  21.8549470
  69.7317690  92.7582475  21.2887468  69.4495285  94.2422974  21.3878259
  81.0022185  88.7018997  10.8626045  81.7058036  88.9069000  11.4783701
  80.2784834  89.2695759  11.1275129  81.8319996  84.4528859  16.9828316
  81.7755197  84.9097410  16.1435948  82.3848338  83.6919543  16.8051158
  85.6424802  80.2418591  17.8078435  85.3861736  79.8415226  18.6386643
  85.0177670  80.9562385  17.6828574  89.9537139  82.9814664  20.3149726
  89.3936697  83.0507853  21.0881289  89.3480643  82.8055648  19.5949223
  73.0232348  94.4151391  22.0667913  72.9064732  95.3596823  21.9646603
  72.2024795  94.1124952  22.4553712  82.9108883  89.1401527  12.9124505
  83.7454487  88.7082725  12.7301980  82.7493226  88.9683540  13.8401400
  82.5654775  85.6433640  14.2780845  82.5103579  85.4777911  13.3369289
  81.9400830  86.3509673  14.4343034  67.3547290  80.8801704  28.1042267
  68.0006154  80.3700658  28.5929492  67.1464441  81.6170386  28.6785692
  79.8800682  87.9482552  33.6034408  80.7491842  88.1223204  33.2421042
  79.4007434  88.7676969  33.4810137  75.8750900  75.1441749  13.8566163
  75.8629570  76.0883589  14.0134434  76.7674322  74.9611894  13.5625624
  74.0486862  95.0679653  25.2823841  74.9514109  95.1003263  25.5990336
  73.8224233  94.1380104  25.2970177  75.8040464  93.8210639  21.9433920
  74.8536095  93.8212501  21.8298292  76.1072951  93.0743374  21.4269954
  79.6903020  71.7384526  18.1112100  78.9235416  71.1843012  18.2568782
  80.1013725  71.8106394  18.9726252  71.6944781  78.0269321  32.2017281
  72.5576243  77.6706126  32.4120606  71.1210192  77.6883216  32.8892685
  91.5393158  99.6571178  23.0079682  92.1771568  99.5377925  22.3043022
  91.4214001 100.6052022  23.0667634  88.3482864  99.6098606  22.9441207
  88.0101376  99.4939671  22.0561742  89.2172632  99.2089771  22.9242213
  88.8302647 100.7633458  28.9027412  88.8191288 100.3686256  28.0307916
  88.9923287 100.0299530  29.4961184  81.7534112 102.9585274  21.7722318
  82.5455404 102.6176099  21.3568618  81.9930762 103.0680249  22.6924472
  85.5509908 103.5470569  27.8506596  85.2599774 104.4516200  27.7353263
  86.1866893 103.5887097  28.5650666  86.4766115 100.9247418  24.4407956
  87.0729687 100.7003440  23.7264919  86.5341087 100.1832163  25.0433404
  91.0934426  97.3822632  20.0832890  91.8797516  96.9642055  19.7323307
  91.3573131  98.2868724  20.2514539  94.0168274  91.0319439  25.4460477
  93.6851599  91.9014850  25.2221692  93.4213887  90.7155723  26.1254508
  90.5099793 103.2331985  24.8456390  90.2100517 104.1357024  24.7372197
  90.1650853 102.9664168  25.6977543  83.9612275  99.6845782  20.8793094
  83.0362771  99.5521996  21.0870786  84.2096688 100.4640001  21.3763037
  93.9096937  95.7514525  22.5253827  93.0013815  95.6829934  22.2312588
  93.8584533  96.2286470  23.3535653  81.3221086  99.3279055  21.7136884
  81.4513467  99.5813534  22.6276295  80.6418537  99.9206763  21.3941539
  87.9837803  97.1704171  30.4688725  87.2071137  97.7298091  30.4591589
  88.6228366  97.6560954  30.9903595  95.7758584  93.9530963  24.3031701
  95.1332964  94.2463497  23.6571496  95.2713512  93.8383884  25.1084898
  86.2384175  99.9789624  30.0306692  86.9798860 100.5174668  29.7541515
  85.5321161 100.6055913  30.1878243  91.7139515 102.1218765  28.6278853
  92.1222871 101.6801175  27.8833486  90.9916776 101.5471392  28.8813046
  88.0670585  97.0591371  26.0012410  88.9131780  97.4830785  26.1447059
  88.0069223  96.4024996  26.6950973  91.2170030  94.7195740  27.6593584
  90.9730962  95.4737800  27.1227859  91.4929961  95.0981087  28.4940831
  93.1708493 101.2634352  26.3370849  93.3825388 101.9066112  25.6605230
  93.1238241 100.4296669  25.8692779  90.7734722  93.8752173  23.2407421
  89.9119201  94.1733426  23.5324159  90.7997157  94.0922572  22.3088454
  84.4820373 101.9665845  22.5860990  85.0521730 102.3953113  21.9478475
  85.0728484 101.6848429  23.2845176  84.9745539  97.1329272  30.8322002
  84.3444200  97.8145553  31.0657398  84.8681627  97.0212354  29.8875140
  80.2690511  96.8001068  21.7587926  79.4789565  97.0558597  21.2828036
  80.7601759  97.6149406  21.8639966  82.2205257  97.1645648  18.7171403
  81.4236420  97.2764342  19.2354898  81.9930849  97.5032300  17.8512293
  88.0510924 103.6890351  26.6653917  88.1155357 104.1510758  27.5012089
  87.3421848 103.0587716  26.7936227  78.5528214  97.0531559  24.1902917
  78.8036253  97.9378569  24.4560493  79.0887763  96.8736160  23.4178008
  84.2526282  91.4350038  33.1947253  83.8593227  90.8816237  33.8694897
  85.0692422  91.7460617  33.5853770  87.1694243  92.8507917  30.7867509
  87.9103956  93.4515070  30.7071972  87.4012166  92.1085555  30.2285552
  82.3135581  98.0364284  29.0645739  82.1989096  97.1349542  29.3652838
  81.4580099  98.2827981  28.7130555  89.3927419 105.9782025  30.6633240
  88.9491273 105.1918403  30.3454144  90.0544632 106.1661175  29.9977130
  84.1514540 107.5077826  25.1893918  84.7021965 107.3794890  24.4170912
  83.3126016 107.8072715  24.8388811  91.4908657 106.2584825  28.6914641
  91.4727132 107.0793706  28.1994910  92.4128577 106.1338900  28.9164782
  87.9481711 103.7728954  29.5338149  88.4810048 103.0117242  29.3037457
  87.4195792 103.4802606  30.2762304  91.1151406  88.8789020  25.0631791
  90.7715675  89.7690662  24.9870902  91.4830368  88.6890678  24.2001376
  79.1837256 101.2022551  17.8820393  80.0212478 101.6119559  17.6654101
  79.3615524 100.2621993  17.8520587  88.6648799  93.7147332  18.6289464
  87.8090396  93.3254182  18.4495103  89.0775751  93.7939293  17.7689250
  90.1947946  91.2493675  23.0281024  89.6912742  91.2123810  22.2148829
  90.4878553  92.1586418  23.0877681  86.4390832  91.3332405  22.0347206
  87.3043829  91.1375214  21.6753095  86.5068341  91.1042757  22.9616563
  84.0453151  93.5634613  19.4063573  84.6196903  93.3409794  18.6736766
  84.6324134  93.6323307  20.1592174  86.3475819  90.4375862  18.1338642
  85.6940231  90.1224879  17.5095257  86.3056293  89.8151602  18.8598465
  89.5813559  96.9257795  22.4586290  88.6636121  97.1472742  22.3007978
  89.9973703  97.0004106  21.5997997  92.9139071  88.1382579  20.1649529
  93.2197948  87.2779943  19.8775444  93.6391676  88.7300199  19.9648523
  79.2063427  98.5413266  18.5531127  79.0087827  97.9482627  17.8282193
  78.6510091  98.2365476  19.2707065  87.1860151  98.4336372  20.6725720
  87.2408761  97.4810209  20.5968196  86.3751353  98.5895811  21.1567018
  85.1252511  97.0513432  18.4316099  84.3120377  97.3507603  18.8381291
  85.6211505  96.6569121  19.1490581  90.7226723  97.5155257  27.2630992
  91.0776110  97.7426730  28.1225458  91.3698854  97.8473633  26.6408248
  84.6166586  94.6231788  24.0477334  85.2565965  94.4820547  23.3500297
  83.7844116  94.3366301  23.6715936  90.2121734 106.3052314  24.5124694
  90.2658756 106.8743250  25.2802410  89.3436516 106.4754199  24.1478731
  81.6195202  94.5932113  18.8250320  81.8802020  95.5077446  18.7159481
  82.4412375  94.1256555  18.9746933  83.0920128  96.0069870  25.9949145
  83.7643181  95.7987232  25.3461794  82.2649914  95.8091956  25.5554377
  88.9945700  92.6331811  28.0114806  88.3473615  93.3321760  27.9179282
  89.7646715  93.0667955  28.3791054  92.4024498 102.8980663  31.0865359
  92.2510004 102.6691215  30.1695443  92.3929177 103.8551264  31.0996704
  89.1709834 100.4712576  26.0711625  90.1001894 100.6223735  25.8980593
  88.7500864 100.5596596  25.2160272  87.9698166 104.4963240  23.8410163
  87.8309251 104.1282024  24.7136101  87.1812762 105.0110879  23.6694121
  83.4947625  99.2812473  26.7551582  83.3567423  98.5492712  27.3563121
  84.4052548  99.1921373  26.4735770  86.1229925  98.9932432  26.2435262
  86.8329544  98.3525624  26.2021880  86.0799234  99.2445327  27.1661442
  94.1116704 105.9299785  29.1641841  94.0529250 105.2459006  28.4972424
  94.5136223 106.6718775  28.7122467  84.8358859  95.9797650  28.0630901
  84.2996216  95.5288388  28.7152497  84.2475568  96.1143559  27.3201365
  94.1134111 103.8939369  27.3955821  93.2260890 103.5565291  27.5182219
  94.6832662 103.1622401  27.6324586  75.7663259 100.2263461  20.7198872
  76.4534298  99.9125191  20.1319887  75.6111387 101.1304826  20.4466123
  80.5697981  95.1153658  25.1483896  80.4856169  94.5079327  24.4134306
  79.7480687  95.6062676  25.1493392  90.7421695  93.6007221  20.5154091
  91.2390394  92.8477184  20.1955161  89.9708676  93.6371538  19.9497300
  90.1033948 108.4527656  26.5175222  90.8161921 109.0875121  26.4451124
  89.6123977 108.5491522  25.7015224  87.3256663  95.7424604  20.2425775
  86.9554451  95.1895645  20.9306681  87.8215756  95.1382738  19.6900775
  85.1545862 106.2022099  27.3380793  85.8555321 106.8358582  27.4910187
  84.6840977 106.5436831  26.5776433  93.1840689  90.5676815  22.6633450
  92.2703769  90.7981042  22.8315656  93.6133791  90.6515259  23.5147482
  92.9547148  98.7566707  25.1633344  92.3018598  99.0042614  24.5085796
  93.3327528  97.9430845  24.8295821  89.0034721  99.4986518  31.6499381
  88.3275358  99.3980647  32.3201756  89.8262355  99.3425731  32.1135378
  80.7513580 105.7358454  24.2711896  81.3367017 104.9902142  24.4039800
  80.5538418 106.0462411  25.1548560  75.3431235  98.3064054  22.9916339
  75.3815334  97.7727645  23.7853457  74.8371527  97.7799260  22.3727316
  82.7221997  93.1528595  26.4878881  82.7863323  94.0143426  26.0756279
  82.6589117  92.5402597  25.7551240  82.1974269  95.2251728  30.1351916
  82.8246308  94.8428805  30.7489440  81.3402188  95.0065929  30.5007608
  92.5968378 105.6314703  31.7405651  93.1408282 106.2444661  31.2460606
  92.0155223 106.1894281  32.2572664  78.9739812  97.0328157  16.0670270
  79.2693253  96.1238835  16.0137324  78.0727848  97.0115896  15.7451273
  82.5034059  95.1084153  22.0497819  81.7820645  95.7220121  21.9105292
  83.2927315  95.6441918  21.9714465  85.3060373  92.4438580  28.3238471
  85.8294775  92.6900876  29.0864780  85.0872706  93.2758614  27.9041608
  80.7027654  94.7142254  16.1909596  80.3740360  93.8339633  16.0084702
  81.0567025  94.6589923  17.0785985  83.8169477  95.0015224  16.5585073
  84.1565549  95.5301145  15.8363682  84.2641597  95.3395630  17.3343640
  86.5112918  93.3852275  26.0088141  86.1709738  92.5860088  26.4108821
  85.8051924  93.6853986  25.4364975  87.1629390  90.4701587  24.4615464
  87.9855459  89.9962065  24.3394355  87.4067453  91.2492071  24.9614151
  84.6867968  97.1620708  22.2707443  84.5412549  97.4761011  23.1631724
  84.2093172  97.7805608  21.7178342  86.5464351  94.1523256  22.3188333
  86.5325920  93.2564349  21.9820630  87.2636779  94.1593920  22.9526619
  88.3990482  94.5860596  24.3641460  88.1408260  95.5077667  24.3625790
  87.8675522  94.1891031  25.0541924  79.1613631  99.7026052  25.2095104
  78.6167099 100.4785860  25.3415378  80.0392980 100.0496857  25.0514226
  85.9501247  93.0337636  17.5875903  86.0717158  92.1054282  17.7866790
  85.6603290  93.0476322  16.6754218  88.8192438  90.7192547  20.7242623
  88.8414134  90.7831880  19.7694602  89.2360497  89.8797055  20.9183129
  79.9479652  98.8295949  28.1025261  79.2061388  98.9778584  28.6889891
  79.6272397  99.0904214  27.2392010  87.8923315 108.3711927  27.9005651
  88.2010442 108.1261074  28.7728351  88.6898797 108.5758565  27.4124521
  78.5944871 104.6347704  21.0924589  77.7576779 104.2069878  20.9108591
  78.5668517 104.8280147  22.0295380  85.4342327  94.5469633  31.7965835
  85.4830482  95.4231756  31.4143605  85.9764841  94.0047027  31.2237478
  95.9197172 105.0910757  31.0766972  95.1292716 105.0734896  30.5371472
  95.6830527 105.6299050  31.8316009  96.0395047 101.9403223  28.3899701
  96.0893052 101.7753231  29.3315224  95.9308971 101.0730482  27.9997582
  93.3298810  97.9234151  29.7059008  94.2308673  97.7840616  29.4143005
  93.4046784  98.0888606  30.6457185  87.6641615  95.3001006  28.5512194
  86.7944925  95.5934572  28.2794782  87.9001096  95.8841451  29.2719458
  97.5413244 104.3600165  28.6341722  97.2498053 104.7230145  29.4705183
  96.9285376 103.6467173  28.4555055  95.7900433  99.4832779  27.1021780
  96.2654554  99.6760426  26.2940632  94.8665998  99.5391965  26.8565164
  90.3680649  91.5180623  26.0677614  90.8862593  92.2541650  25.7424103
  90.0135782  91.8244616  26.9024373  90.6193243  87.9380905  21.5878511
  90.8994997  87.2704094  22.2138937  91.4043850  88.1310001  21.0753175
  94.4902102  96.3598539  25.3350086  95.4419524  96.4596637  25.3562310
  94.3205552  95.5676808  25.8448170  92.5116481  93.4454123  25.5209487
  91.9166413  93.7259135  24.8255976  92.2266178  93.9348023  26.2926228
  96.9690179  99.5804659  24.4492386  96.9366499  98.6420660  24.6352069
  97.5790803  99.6588696  23.7158211  97.1184668  96.3715702  24.4950669
  96.6023716  95.5874159  24.3080598  98.0024616  96.0434419  24.6597188
  94.7795395  90.1156718  20.4546482  94.5820216  89.8071806  21.3389813
  95.3895100  90.8418357  20.5844411  88.6912203 102.5018458  31.9520247
  89.6115212 102.6797057  32.1460293  88.6561786 101.5574503  31.7999946
  77.9094368  97.6957052  20.8773521  77.5897152  96.8422360  20.5847895
  77.3627796  97.9105630  21.6331489  81.6874275 100.4119493  24.5943028
  81.9060285 101.3436601  24.6131062  82.1000049 100.0527467  25.3797832
  88.6078493  90.9187578  16.5818716  87.7979221  90.5734663  16.9573962
  89.2962910  90.6095122  17.1706328  90.5369041  89.9965625  18.2043013
  91.0900080  90.4161078  18.8633036  90.7739128  89.0701373  18.2465969
  86.5602141  95.9852699  33.9845777  86.4598867  96.9347056  33.9157868
  86.3423683  95.6570937  33.1121847  77.7782628 101.3159963  22.8466643
  77.0846099 100.9013916  22.3336597  78.5255619 101.3580500  22.2500062
  92.3651415  91.5071208  19.9142997  92.8651193  91.6187742  19.1057316
  93.0087023  91.2032261  20.5543806  86.4233411  99.4149837  32.8010838
  85.9400492 100.2150198  33.0074727  86.5094350  99.4257782  31.8478282
  79.6919370 101.2478217  20.7232658  79.6690058 101.3465904  19.7714541
  80.0020007 102.0943368  21.0449824  82.3506748 103.3054372  24.8379272
  83.3050002 103.2738314  24.7709204  82.1519272 102.8444996  25.6529498
  82.9406130 101.8755488  27.4050070  83.7599019 102.3699567  27.4284907
  83.2142938 100.9587456  27.3767637  96.0487263  94.2912761  20.4832365
  96.8247653  94.7809214  20.7556981  95.3235397  94.7170816  20.9404234
  78.1941045  96.2093622  28.1042267  78.8399908  95.6992576  28.5929492
  77.9858196  96.9462304  28.6785692  90.7194437 103.2774469  33.6034408
  91.5885596 103.4515122  33.2421042  90.2401188 104.0968886  33.4810137
  84.8880617 110.3971571  25.2823841  85.7907864 110.4295181  25.5990336
  84.6617987 109.4672021  25.2970177  90.5296774  87.0676443  18.1112100
  89.7629170  86.5134930  18.2568782  90.9407479  87.1398312  18.9726252
  82.5338536  93.3561239  32.2017281  83.3969997  92.9998044  32.4120606
  81.9603946  93.0175134  32.8892685  95.0920036 106.7641956  33.1947253
  94.6986982 106.2108154  33.8694897  95.9086177 107.0752534  33.5853770
  98.0087997 108.1799835  30.7867509  98.7497711 108.7806988  30.7071972
  98.2405920 107.4377473  30.2285552  93.0368024 110.5543645  30.1351916
  93.6640063 110.1720723  30.7489440  92.1795943 110.3357847  30.5007608
  96.2736081 109.8761551  31.7965835  96.3224237 110.7523674  31.4143605
  96.8158595 109.3338944  31.2237478  97.3995895 111.3144616  33.9845777
  97.2992622 112.2638973  33.9157868  97.1817437 110.9862855  33.1121847
  89.0334799 111.5385540  28.1042267  89.6793663 111.0284494  28.5929492
  88.8251950 112.2754221  28.6785692  93.3732290 108.6853157  32.2017281
  94.2363752 108.3289962  32.4120606  92.7997701 108.3467052  32.8892685
  46.0352402  21.6676477  17.3878546  45.5916256  20.8812855  17.0699451
  46.6969615  21.8555627  16.7222437  48.1333640  21.9479277  15.4159947
  48.1152115  22.7688158  14.9240217  49.0553560  21.8233352  15.6410089
  49.0449481  18.5875115  17.8110666  48.8934987  18.3585666  16.8940749
  49.0354160  19.5445716  17.8242011  50.7541687  21.6194237  15.8887148
  50.6954234  20.9353457  15.2217731  51.1561206  22.3613227  15.4367774
  49.2393361  21.3209155  18.4650958  49.7833265  21.9339113  17.9705913
  48.6580206  21.8788733  18.9817971  52.5622156  20.7805209  17.8012279
  51.7717699  20.7629347  17.2616778  52.3255510  21.3193502  18.5561316
  54.1838228  20.0494617  15.3587029  53.8923036  20.4124597  16.1950490
  53.5710359  19.3361625  15.1800361  47.3619420  18.9668921  20.3279714
  48.2310580  19.1409574  19.9666349  46.8826171  19.7863338  20.2055444
  59.0211896  30.6757547   9.7324989  59.6590306  30.5564295   9.0288329
  58.9032739  31.6238391   9.7912941  55.8301602  30.6284975   9.6686514
  55.4920114  30.5126040   8.7807048  56.6991370  30.2276141   9.6487520
  56.3121385  31.7819827  15.6272719  56.3010026  31.3872625  14.7553223
  56.4742024  31.0485900  16.2206491  49.2352850  33.9771643   8.4967625
  50.0274142  33.6362468   8.0813924  49.4749500  34.0866619   9.4169778
  53.0328646  34.5656939  14.5751903  52.7418512  35.4702570  14.4598569
  53.6685630  34.6073467  15.2895973  53.9584853  31.9433787  11.1653263
  54.5548425  31.7189810  10.4510226  54.0159825  31.2018533  11.7678711
  63.9761591  28.3384234   7.7111175  64.7086763  27.7683451   7.9449005
  63.2200947  27.9505835   8.1517681  61.4987012  22.0505808  12.1705784
  61.1670336  22.9201219  11.9466999  60.9032625  21.7342092  12.8499814
  57.9918531  34.2518354  11.5701697  57.6919254  35.1543393  11.4617504
  57.6469591  33.9850538  12.4222850  61.3915675  26.7700895   9.2499134
  60.4832552  26.7016303   8.9557895  61.3403271  27.2472840  10.0780960
  52.9739311  41.0162675   4.5372664  52.8963341  41.9670500   4.6161145
  52.3700955  40.6708547   5.1947591  55.4656541  28.1890540  17.1934031
  54.6889875  28.7484460  17.1836896  56.1047104  28.6747323  17.7148901
  63.2577321  24.9717333  11.0277008  62.6151702  25.2649866  10.3816803
  62.7532250  24.8570253  11.8330205  53.7202913  30.9975994  16.7551998
  54.4617597  31.5361038  16.4786822  53.0139899  31.6242282  16.9123550
  59.1958253  33.1405134  15.3524160  59.6041609  32.6987545  14.6078792
  58.4735514  32.5657762  15.6058353  55.5489323  28.0777741  12.7257717
  56.3950518  28.5017154  12.8692366  55.4887960  27.4211365  13.4196280
  59.5187067  33.7006325   9.1076449  58.8895930  33.8652039   8.4052517
  59.1312729  34.1147934   9.8787413  63.3976299  34.6360763   6.4620812
  62.7127337  35.0159664   5.9117846  63.4820149  35.2456089   7.1952760
  58.6988768  25.7382109  14.3838890  58.4549700  26.4924170  13.8473166
  58.9748699  26.1167457  15.2186137  60.6527231  32.2820722  13.0616156
  60.8644126  32.9252481  12.3850537  60.6056979  31.4483038  12.5938086
  55.0715029  33.4380733   6.3726534  55.5353375  33.7168436   5.5831156
  54.8071827  32.5364177   6.1899624  51.9639110  32.9852214   9.3106297
  52.5340467  33.4139483   8.6723782  52.5547222  32.7034799  10.0090483
  52.4564277  28.1515642  17.5567308  51.8262937  28.8331923  17.7902705
  52.3500365  28.0398723  16.6120447  61.7673059  35.1592677  11.2338513
  62.5890503  34.7572864  10.9521195  61.7635462  35.0560911  12.1854629
  55.5329662  34.7076720  13.3899224  55.5974095  35.1697128  14.2257396
  54.8240586  34.0774085  13.5181534  69.8579052  31.5031425   7.5823485
  69.1042760  30.9338824   7.4267489  69.9926593  31.4694090   8.5294119
  51.7345020  22.4536408  19.9192559  51.3411965  21.9002606  20.5940204
  52.5511160  22.7646986  20.3099077  50.5101962  37.0086022   5.9128882
  50.6868590  37.9303987   5.7249866  51.3058796  36.6944441   6.3423262
  54.6512981  23.8694287  17.5112816  55.3922694  24.4701440  17.4317278
  54.8830903  23.1271925  16.9530858  49.7954319  29.0550654  15.7891046
  49.6807834  28.1535911  16.0898145  48.9398836  29.3014351  15.4375862
  56.8746156  36.9968394  17.3878546  56.4310011  36.2104773  17.0699451
  57.5363370  37.1847545  16.7222437  51.6333277  38.5264196  11.9139225
  52.1840703  38.3981259  11.1416219  50.7944753  38.8259085  11.5634118
  58.9727394  37.2771194  15.4159947  58.9545870  38.0980075  14.9240217
  59.8947314  37.1525269  15.6410089  55.4300449  34.7915324  16.2583456
  55.9628785  34.0303612  16.0282764  54.9014530  34.4988976  17.0007610
  61.7746007  32.1150337   8.8869314  61.1169682  32.8049598   8.9749443
  62.5786406  32.5046769   9.2303301  60.5851466  30.4694709   6.9373256
  61.0983348  31.1024701   7.4394966  61.2352690  29.8695905   6.5716616
  57.0632297  27.9444165   9.1831596  56.1454858  28.1659112   9.0253285
  57.4792441  28.0190475   8.3243304  61.3513262  35.4500711   5.0652399
  60.8975589  34.6091621   5.1217589  60.7207229  36.0862109   5.4027179
  59.7946202  37.2877208   6.0002217  60.0869176  37.8482265   5.2814582
  60.3044822  37.5805769   6.7555376  54.7579827  38.0657559   7.0895670
  54.7156006  38.2918405   6.1604202  55.6742526  37.8320933   7.2381471
  58.2045461  28.5341626  13.9876299  58.5594848  28.7613099  14.8470765
  58.8517592  28.8660003  13.3653554  63.9343197  31.6560062   4.6925628
  63.7961096  31.8461658   3.7646817  63.5779416  32.4179445   5.1493679
  63.9612577  33.7236589   9.7036900  64.3949084  33.6311878  10.5519954
  64.6744158  33.6994090   9.0656916  52.8745627  34.9420588   6.8857633
  53.6686226  34.4470908   6.6840208  52.1637320  34.4138451   6.5225338
  57.6940472  37.3238683  11.2370000  57.7477494  37.8929619  12.0047716
  56.8255253  37.4940568  10.8724037  50.5738865  27.0256239  12.7194452
  51.2461919  26.8173601  12.0707100  49.7468652  26.8278325  12.2799684
  64.8228127  33.7660290  12.2369785  65.0164017  34.6706100  12.4829060
  64.7228745  33.3067709  13.0708370  56.4764437  23.6518180  14.7360112
  55.8292352  24.3508130  14.6424589  57.2465453  24.0854324  15.1036361
  59.8843235  33.9167032  17.8110666  59.7328742  33.6877584  16.8940749
  59.8747915  34.8737634  17.8242011  56.6528572  31.4898945  12.7956932
  57.5820632  31.6410105  12.6225899  56.2319602  31.5782966  11.9405579
  55.4516903  35.5149610  10.5655470  55.3127989  35.1468394  11.4381408
  54.6631500  36.0297249  10.3939428  56.0465055  40.6158706   1.9081006
  56.2216811  40.1446749   2.7226629  55.3597843  41.2424472   2.1362267
  57.0022119  34.8931212   7.9544308  56.6671951  34.8531982   8.8501957
  56.5026064  34.2275928   7.4814718  50.9766363  30.2998842  13.4796889
  50.8386161  29.5679081  14.0808428  51.8871286  30.2107742  13.1981076
  53.6048663  30.0118802  12.9680568  54.3148282  29.3711994  12.9267187
  53.5617971  30.2631696  13.8906749  61.5935442  36.9486155  15.8887148
  61.5347988  36.2645375  15.2217731  61.9954960  37.6905145  15.4367774
  52.3177597  26.9984020  14.7876208  51.7814954  26.5474758  15.4397804
  51.7294306  27.1329928  14.0446672  50.6126141  43.7648069   8.6820866
  50.8522739  44.3966593   9.3599885  49.7695337  43.4136109   8.9686226
  61.5952849  34.9125739  14.1201127  60.7079628  34.5751661  14.2427526
  62.1651400  34.1808770  14.3569893  55.1254003  39.5727191  11.0862370
  55.0524174  40.3782163  11.5981675  54.6831396  39.7719157  10.2610392
  54.9143782  38.8098961   4.5965192  54.1311304  39.3520641   4.6903416
  55.6136527  39.3272941   4.9959433  66.0770190  30.3233956   8.8817689
  66.0660066  31.2058672   8.5111622  65.2087569  29.9705507   8.6872226
  57.5852686  39.4714025  13.2420529  58.2980658  40.1061490  13.1696431
  57.0942715  39.5677891  12.4260531  59.3070213  33.3765278   4.8137821
  58.3726492  33.4966740   4.6442525  59.4846881  32.4737745   4.5497831
  62.6942764  29.2182597   5.3487855  63.1603217  30.0510589   5.2748158
  63.1450265  28.7527579   6.0533113  52.6364600  37.2208469  14.0626100
  53.3374059  37.8544952  14.2155494  52.1659715  37.5623200  13.3021739
  60.4365886  29.7753076  11.8878650  59.7837336  30.0228984  11.2331103
  60.8146266  28.9617214  11.5541128  57.3973060  39.8112769   5.9906821
  57.5795454  38.9934425   6.4534573  58.2206046  40.0280462   5.5531711
  57.7315225  38.7380955   3.2521869  58.2602991  38.2273409   2.6392031
  57.9943445  38.4223485   4.1167402  56.4853459  30.5172887  18.3744687
  55.8094096  30.4167017  19.0447063  57.3081093  30.3612101  18.8380685
  48.2332318  36.7544824  10.9957203  48.8185755  36.0088512  11.1285107
  48.0357156  37.0648781  11.8793866  51.0870973  39.7896071   6.0119645
  50.4181348  40.2742199   5.5283685  50.9483843  40.0365292   6.9263023
  55.2276242  41.8239815  12.6102303  55.7794550  41.9871436  13.3751389
  55.5682435  42.4144253  11.9382328  49.6793007  26.2438097  16.8597222
  50.3065046  25.8615174  17.4734747  48.8220926  26.0252299  17.2252915
  60.0787116  36.6501072  18.4650958  60.6227020  37.2631031  17.9705913
  59.4973961  37.2080651  18.9817971  58.3644629  39.7721790   9.5965985
  58.2395768  38.9711530   9.0876931  59.0223720  40.2667984   9.1079955
  60.4279537  37.5730810  11.2245536  59.4809873  37.4536162  11.1523862
  60.7762310  36.6853308  11.3071797  52.7879111  23.4624949  15.0483777
  53.3113512  23.7087246  15.8110087  52.5691444  24.2944984  14.6286915
  57.4325970  37.3683527   7.4249888  57.2850933  36.4400234   7.6057458
  58.2579464  37.3903617   6.9406963  61.0360092  38.1912085   8.5114761
  61.9606640  37.9854947   8.3739212  60.8675396  37.9428486   9.4204102
  53.9931656  24.4038644  12.7333448  53.6528476  23.6046457  13.1354128
  53.2870662  24.7040355  12.1610281  55.8809220  25.6046966  11.0886767
  55.6226998  26.5264036  11.0871097  55.3494260  25.2077400  11.7787231
  60.8255409  38.7097753   3.8676852  60.9992286  38.1444175   3.1150704
  61.3184300  39.5098648   3.6856342  46.6432368  30.7212422  11.9340411
  46.0985836  31.4972230  12.0660685  47.5211718  31.0683226  11.7759532
  66.6794800  31.4734176   5.4867152  67.1225946  30.7241501   5.0886275
  65.8021310  31.4644312   5.1040884  61.8130581  38.0264517   0.9673750
  62.5081486  38.6471210   1.1861065  62.1553731  37.1759868   1.2426128
  47.4298390  29.8482318  14.8270568  46.6880126  29.9964953  15.4135198
  47.1091134  30.1090584  13.9637317  63.7122004  35.4764223   2.4961081
  64.2373328  35.8151495   1.7710401  63.6244357  34.5411238   2.3124216
  55.3742053  39.3898296  14.6250958  55.6829179  39.1447443  15.4973657
  56.1717535  39.5944935  14.1369828  55.3962665  41.5436206   6.8556334
  54.9567655  41.0512585   7.5489191  56.1470782  41.0009174   6.6148409
  47.8755004  37.7347747   6.8580962  48.7013024  37.4351519   6.4779606
  47.5249056  36.9655369   7.3070751  52.8436537  37.0874215   8.9278636
  52.2216546  36.4244920   8.6280864  53.5141404  37.1135347   8.2452284
  52.9161065  25.5656003  18.5211142  52.9649220  26.4418126  18.1388912
  53.4583579  25.0233396  17.9482785  63.4015910  36.1097126  17.8012279
  62.6111454  36.0921265  17.2616778  63.1649265  36.6485420  18.5561316
  63.5213785  32.9589593  15.1145008  63.5711790  32.7939600  16.0560530
  63.4127709  32.0916852  14.7242888  60.8117548  28.9420521  16.4304314
  61.7127410  28.8026986  16.1388312  60.8865522  29.1074976  17.3702492
  55.1460353  26.3187375  15.2757501  54.2763662  26.6120942  15.0040089
  55.3819833  26.9027820  15.9964764  65.0231982  35.3786534  15.3587029
  64.7316790  35.7416515  16.1950490  64.4104113  34.6653542  15.1800361
  66.2227664  32.9439414   7.8789599  67.0574556  33.3829218   8.0427160
  66.3586793  32.4678067   7.0597845  63.2719170  30.5019149  13.8267087
  63.7473292  30.6946795  13.0185938  62.3484736  30.5578335  13.5810471
  57.8499387  22.5366992  12.7922921  58.3681331  23.2728019  12.4669410
  57.4954520  22.8430986  13.6269680  61.9720839  27.3784909  12.0595393
  62.9238262  27.4783007  12.0807617  61.8024290  26.5863177  12.5693477
  59.9935219  24.4640492  12.2454794  59.3985151  24.7445505  11.5501282
  59.7084916  24.9534393  13.0171535  64.4508917  30.5991029  11.1737692
  64.4185237  29.6607029  11.3597376  65.0609541  30.6775065  10.4403517
  64.6003406  27.3902072  11.2195976  64.0842454  26.6060529  11.0325904
  65.4843354  27.0620789  11.3842495  70.2685467  31.6607035  10.3143729
  70.9988855  31.3992324  10.8751432  69.6592412  30.9235757  10.3545797
  68.3500764  29.8014898  10.9118180  67.6233928  29.6670863  10.3034672
  67.9348051  30.1091727  11.7174898  56.1730941  33.5204828  18.6765553
  57.0933950  33.6983427  18.8705600  56.1380524  32.5760873  18.5245253
  49.1693013  31.4305862  11.3188335  49.3879023  32.3622970  11.3376368
  49.5818787  31.0713837  12.1043138  54.0420878  27.0039068  20.7091083
  53.9417605  27.9533425  20.6403175  53.8242420  26.6757307  19.8367154
  53.9052148  30.4336207  19.5256145  53.4219230  31.2336567  19.7320034
  53.9913087  30.4444152  18.5723589  49.8325486  34.3240742  11.5624579
  50.7868739  34.2924684  11.4954510  49.6338010  33.8631365  12.3774805
  50.4224868  32.8941858  14.1295377  51.2417757  33.3885936  14.1530214
  50.6961676  31.9773826  14.1012944  63.5306000  25.3099131   7.2077671
  64.3066391  25.7995583   7.4802288  62.8054135  25.7357185   7.6649541
  65.9678559  26.0226750   8.2651612  66.5623050  25.7822486   7.5544920
  66.0405143  25.3033881   8.8925148  48.1875715  39.8660361   8.5794777
  48.0530183  39.1060762   8.0132775  47.7707777  40.5901261   8.1123566
  68.2749632  29.3292951   7.0395033  67.7149190  29.3986140   7.8126595
  67.6693135  29.1533936   6.3194529  51.3444841  40.7629678   8.7913219
  51.2277225  41.7075111   8.6891910  50.5237287  40.4603240   9.1799019
  45.6759782  27.2279992  14.8287574  46.3218646  26.7178946  15.3174799
  45.4676933  27.9648673  15.4030999  58.2013174  34.2960839  20.3279714
  59.0704334  34.4701491  19.9666349  57.7219926  35.1155256  20.2055444
  52.3699355  41.4157940  12.0069148  53.2726601  41.4481550  12.3235643
  52.1436725  40.4858391  12.0215484  54.1252957  40.1688927   8.6679226
  53.1748588  40.1690788   8.5543599  54.4285443  39.4221661   8.1515261
  50.0157273  24.3747609  18.9262588  50.8788735  24.0184414  19.1365912
  49.4422684  24.0361503  19.6137992  69.8605650  46.0049465   9.7324989
  70.4984060  45.8856212   9.0288329  69.7426493  46.9530309   9.7912941
  66.6695357  45.9576893   9.6686514  66.3313868  45.8417958   8.7807048
  67.5385125  45.5568058   9.6487520  62.5282172  47.8112370   5.6583404
  61.9647037  47.7202306   4.8899692  62.4134567  46.9912274   6.1385897
  67.1515139  47.1111745  15.6272719  67.1403780  46.7164543  14.7553223
  67.3135779  46.3777817  16.2206491  60.0746604  49.3063561   8.4967625
  60.8667896  48.9654386   8.0813924  60.3143254  49.4158536   9.4169778
  68.1081731  51.4783337   0.9697869  67.4569711  52.0637418   0.5831883
  68.9026094  52.0089532   1.0292907  62.0337358  48.5672474   1.3685004
  62.8068234  48.0201461   1.2297880  62.3862757  49.4316724   1.5799465
  63.8722401  49.8948857  14.5751903  63.5812267  50.7994487  14.4598569
  64.5079385  49.9365384  15.2895973  64.7978607  47.2725705  11.1653263
  65.3942180  47.0481728  10.4510226  64.8553579  46.5310451  11.7678711
  64.3703636  44.7265141  -0.9996546  64.6229157  44.2046662  -1.7613083
  63.4328195  44.5631286  -0.8969863  69.4146919  43.7300919   6.8078197
  70.2010008  43.3120342   6.4568614  69.6785623  44.6347011   6.9759845
  69.5856996  49.1673769   1.5066854  68.9502829  49.2408396   2.2187758
  69.2554402  49.7567368   0.8285933  74.8155346  43.6676152   7.7111175
  75.5480518  43.0975369   7.9449005  74.0594702  43.2797753   8.1517681
  64.0899925  46.6293246   1.2027829  63.9736183  45.9538150   1.8708913
  64.2002185  46.1425620   0.3859982  66.4331466  46.0903394   4.9074518
  66.0689673  45.5634015   5.6187439  67.2898581  45.7001863   4.7341003
  72.3380766  37.3797726  12.1705784  72.0064091  38.2493137  11.9466999
  71.7426380  37.0634010  12.8499814  66.0736953  41.1193293  -0.0964134
  66.2411355  41.9873530   0.2706337  65.8834122  41.2820575  -1.0202844
  68.8312286  49.5810272  11.5701697  68.5313009  50.4835311  11.4617504
  68.4863345  49.3142455  12.4222850  62.2824767  46.0324069   7.6038401
  61.3575264  45.9000283   7.8116093  62.5309180  46.8118288   8.1008344
  72.2309430  42.0992812   9.2499134  71.3226307  42.0308221   8.9557895
  72.1797025  42.5764757  10.0780960  66.0526173  43.5750951   0.8882533
  65.9325799  44.0208002   1.7268013  65.3578762  43.9236268   0.3296071
  59.6433578  45.6757343   8.4382190  59.7725959  45.9291821   9.3521602
  58.9631030  46.2685051   8.1186845  63.8133066  56.3454593   4.5372664
  63.7357095  57.2962418   4.6161145  63.2094709  56.0000465   5.1947591
  66.3050295  43.5182458  17.1934031  65.5283629  44.0776378  17.1836896
  66.9440858  44.0039241  17.7148901  74.0971076  40.3009251  11.0277008
  73.4545456  40.5941784  10.3816803  73.5926004  40.1862171  11.8330205
  71.7511240  44.0472424   1.7162867  72.6629096  44.2799811   1.5410565
  71.2420887  44.6309468   1.1537946  64.5596668  46.3267911  16.7551998
  65.3011352  46.8652955  16.4786822  63.8533653  46.9534200  16.9123550
  70.0352007  48.4697052  15.3524160  70.4435363  48.0279462  14.6078792
  69.3129269  47.8949679  15.6058353  66.3883077  43.4069659  12.7257717
  67.2344272  43.8309072  12.8692366  66.3281715  42.7503283  13.4196280
  70.3580822  49.0298242   9.1076449  69.7289684  49.1943957   8.4052517
  69.9706484  49.4439852   9.8787413  74.2370054  49.9652680   6.4620812
  73.5521092  50.3451582   5.9117846  74.3213903  50.5748007   7.1952760
  69.5382523  41.0674027  14.3838890  69.2943454  41.8216087  13.8473166
  69.8142453  41.4459374  15.2186137  71.4920985  47.6112639  13.0616156
  71.7037881  48.2544399  12.3850537  71.4450734  46.7774956  12.5938086
  69.0947214  40.2230460   9.9652728  68.2331693  40.5211713  10.2569466
  69.1209649  40.4400859   9.0333761  65.9108784  48.7672650   6.3726534
  66.3747129  49.0460353   5.5831156  65.6465582  47.8656095   6.1899624
  62.8032865  48.3144132   9.3106297  63.3734222  48.7431400   8.6723782
  63.3940977  48.0326717  10.0090483  64.8477670  44.8895803   3.1816099
  65.5501713  45.3416847   3.6490025  64.5158298  44.2479622   3.8095992
  63.2958031  43.4807559  17.5567308  62.6656692  44.1623840  17.7902705
  63.1894119  43.3690641  16.6120447  58.5903004  43.1479356   8.4833232
  57.8002058  43.4036884   8.0073343  59.0814251  43.9627693   8.5885273
  72.6066813  50.4884595  11.2338513  73.4284257  50.0864782  10.9521195
  72.6029216  50.3852829  12.1854629  60.5417749  43.5123935   5.4416709
  59.7448912  43.6242629   5.9600205  60.3143341  43.8510587   4.5757600
  66.3723417  50.0368638  13.3899224  66.4367849  50.4989045  14.2257396
  65.6634341  49.4066003  13.5181534  56.8740707  43.4009846  10.9148223
  57.1248745  44.2856856  11.1805799  57.4100255  43.2214447  10.1423315
  80.6972806  46.8323343   7.5823485  79.9436515  46.2630741   7.4267489
  80.8320348  46.7986008   8.5294119  66.0871434  51.7036745   3.2578204
  65.9517109  52.5488281   3.6863052  66.6281247  51.9056023   2.4944138
  62.5738774  37.7828325  19.9192559  62.1805720  37.2294524  20.5940204
  63.3904914  38.0938904  20.3099077  59.5400832  49.2212184   3.8306129
  60.0525352  50.0155434   3.9811694  60.1923545  48.5238474   3.7639731
  61.3495717  52.3377940   5.9128882  61.5262345  53.2595904   5.7249866
  62.1452550  52.0236359   6.3423262  65.4906735  39.1986204  17.5112816
  66.2316448  39.7993358  17.4317278  65.7224658  38.4563842  16.9530858
  60.6348073  44.3842572  15.7891046  60.5201588  43.4827829  16.0898145
  59.7792591  44.6306268  15.4375862  67.7139911  52.3260312  17.3878546
  67.2703765  51.5396691  17.0699451  68.3757124  52.5139462  16.7222437
  62.4727032  53.8556114  11.9139225  63.0234457  53.7273177  11.1416219
  61.6338508  54.1551003  11.5634118  69.8121149  52.6063112  15.4159947
  69.7939624  53.4271993  14.9240217  70.7341069  52.4817187  15.6410089
  66.2694203  50.1207241  16.2583456  66.8022540  49.3595530  16.0282764
  65.7408284  49.8280893  17.0007610  69.4363898  35.2267307  11.7877098
  69.0928167  36.1168949  11.7116208  69.8042861  35.0368965  10.9246683
  57.5049749  47.5500838   4.6065700  58.3424971  47.9597846   4.3899407
  57.6828016  46.6100280   4.5765894  69.4014181  45.2175918   0.2949533
  68.8860804  45.9880523   0.5337920  69.1291489  44.5441055   0.9182594
  66.9861292  40.0625619   5.3534771  66.1302888  39.6732470   5.1740410
  67.3988244  40.1417580   4.4934557  68.5160438  37.5971963   9.7526331
  68.0125234  37.5602098   8.9394136  68.8091045  38.5064705   9.8122988
  64.7603324  37.6810692   8.7592513  65.6256321  37.4853501   8.3998402
  64.8280833  37.4521044   9.6861869  74.3748455  47.9708273   2.2302706
  73.5977898  47.6319433   1.7857868  75.0539936  47.9760896   1.5557671
  69.1900484  43.0903011   2.1209314  68.8850619  43.4049160   2.9719457
  70.1430926  43.1684430   2.1636647  67.6346916  49.2493234   3.7702268
  67.1068277  48.5145993   3.4575505  67.1334418  50.0267910   3.5242236
  72.6139762  47.4442254   8.8869314  71.9563436  48.1341516   8.9749443
  73.4180161  47.8338686   9.2303301  62.3665643  39.9112900   6.1308879
  62.9409395  39.6888082   5.3982072  62.9536626  39.9801595   6.8837481
  71.4245221  45.7986627   6.9373256  71.9377102  46.4316619   7.4394966
  72.0746444  45.1987823   6.5716616  62.6935230  41.9417361   0.1504765
  61.8572543  42.2792048   0.4714039  62.5540000  41.8066341  -0.7868098
  64.6688311  36.7854149   4.8583949  64.0152723  36.4703166   4.2340564
  64.6268785  36.1629890   5.5843772  65.7799516  47.0673444  -3.2262759
  64.8726578  46.8362698  -3.0271610  66.2770548  46.2711063  -3.0388778
  68.6867595  55.7770951  -0.3066073  68.0129294  56.0802648   0.3018885
  69.0733417  56.5800032  -0.6560616  67.9026051  43.2736083   9.1831596
  66.9848613  43.4951030   9.0253285  68.3186195  43.3482393   8.3243304
  68.6861099  44.6727498   4.3134277  69.4332918  45.1848895   4.0041399
  68.9552689  44.3511551   5.1738670  66.9587749  47.1686039   1.2961231
  66.0498969  46.8845072   1.3933701  66.9882833  47.5885118   0.4364538
  72.1907017  50.7792628   5.0652399  71.7369344  49.9383538   5.1217589
  71.5600983  51.4154027   5.4027179  71.1339936  41.7084615   6.2953066
  70.3962693  41.1962001   6.6263309  71.3866710  41.2684996   5.4836343
  70.6339956  52.6169125   6.0002217  70.9262930  53.1774182   5.2814582
  71.1438577  52.9097686   6.7555376  71.2351564  34.4860867   6.8894835
  71.5410440  33.6258230   6.6020750  71.9604168  35.0778487   6.6893829
  57.5275920  44.8891553   5.2776433  57.3300320  44.2960914   4.5527500
  56.9722584  44.5843763   5.9952372  65.5072643  44.7814660   7.3971026
  65.5621253  43.8288496   7.3213503  64.6963845  44.9374099   7.8812325
  66.6563837  48.7094783  -1.3650690  66.2183267  47.9930642  -1.8245053
  67.3974278  48.9370897  -1.9265599  63.4465003  43.3991719   5.1561405
  62.6332869  43.6985890   5.5626597  63.9423998  43.0047408   5.8735887
  65.5973581  53.3949476   7.0895670  65.5549760  53.6210323   6.1604202
  66.5136280  53.1612851   7.2381471  69.0439215  43.8633544  13.9876299
  69.3988603  44.0905017  14.8470765  69.6911346  44.1951921  13.3653554
  74.7736952  46.9851980   4.6925628  74.6354851  47.1753576   3.7646817
  74.4173171  47.7471363   5.1493679  62.9379078  40.9710075  10.7722640
  63.5778457  40.8298834  10.0745603  62.1056609  40.6844588  10.3961242
  74.8006332  49.0528507   9.7036900  75.2342838  48.9603796  10.5519954
  75.5137912  49.0286007   9.0656916  63.7139382  50.2712505   6.8857633
  64.5079980  49.7762825   6.6840208  63.0031074  49.7430368   6.5225338
  68.5334226  52.6530601  11.2370000  68.5871249  53.2221537  12.0047716
  67.6649008  52.8232486  10.8724037  60.0222145  44.4155587   2.9617385
  59.0919734  44.3540043   3.1787347  60.1179617  43.8931540   2.1654027
  59.9407694  40.9410400   5.5495627  60.2014512  41.8555733   5.4404787
  60.7624867  40.4734842   5.6992240  61.4132620  42.3548157  12.7194452
  62.0855673  42.1465519  12.0707100  60.5862406  42.1570243  12.2799684
  75.6621881  49.0952207  12.2369785  75.8557771  49.9998018  12.4829060
  75.5622499  48.6359626  13.0708370  67.3158192  38.9810098  14.7360112
  66.6686107  39.6800048  14.6424589  68.0859207  39.4146242  15.1036361
  70.7236990  49.2458950  17.8110666  70.5722496  49.0169502  16.8940749
  70.7141669  50.2029552  17.8242011  67.4922326  46.8190863  12.7956932
  68.4214386  46.9702022  12.6225899  67.0713356  46.9074884  11.9405579
  66.2910658  50.8441527  10.5655470  66.1521744  50.4760312  11.4381408
  65.5025254  51.3589167  10.3939428  66.8858810  55.9450624   1.9081006
  67.0610566  55.4738667   2.7226629  66.1991598  56.5716390   2.1362267
  67.8415873  50.2223130   7.9544308  67.5065706  50.1823900   8.8501957
  67.3419819  49.5567846   7.4814718  61.8160117  45.6290760  13.4796889
  61.6779915  44.8970999  14.0808428  62.7265041  45.5399660  13.1981076
  70.7775065  47.5679164  -1.7718633  70.1604235  46.8425992  -1.8685580
  70.3091553  48.3288525  -2.1151559  64.4442418  45.3410719  12.9680568
  65.1542036  44.7003912  12.9267187  64.4011726  45.5923614  13.8906749
  72.4329196  52.2778073  15.8887148  72.3741743  51.5937293  15.2217731
  72.8348715  53.0197063  15.4367774  63.1571352  42.3275937  14.7876208
  62.6208709  41.8766676  15.4397804  62.5688060  42.4621846  14.0446672
  61.4519895  59.0939987   8.6820866  61.6916493  59.7258511   9.3599885
  60.6089092  58.7428027   8.9686226  72.4346604  50.2417657  14.1201127
  71.5473382  49.9043578  14.2427526  73.0045155  49.5100688  14.3569893
  54.0875751  46.5741748   7.4444179  54.7746791  46.2603478   6.8565194
  53.9323880  47.4783113   7.1711430  58.8910473  41.4631945  11.8729202
  58.8068662  40.8557614  11.1379612  58.0693179  41.9540963  11.8738699
  65.9647757  54.9019109  11.0862370  65.8917929  55.7074080  11.5981675
  65.5225150  55.1011075  10.2610392  65.7537537  54.1390879   4.5965192
  64.9705059  54.6812559   4.6903416  66.4530282  54.6564859   4.9959433
  69.0634187  39.9485508   7.2399397  69.5602886  39.1955471   6.9200468
  68.2921168  39.9849825   6.6742607  76.9163944  45.6525874   8.8817689
  76.9053820  46.5350589   8.5111622  76.0481324  45.2997425   8.6872226
  68.4246441  54.8005943  13.2420529  69.1374413  55.4353408  13.1696431
  67.9336469  54.8969809  12.4260531  70.1463968  48.7057196   4.8137821
  69.2120246  48.8258658   4.6442525  70.3240636  47.8029662   4.5497831
  65.6469156  42.0902891   6.9671082  65.2766943  41.5373932   7.6551988
  66.1428248  41.4861025   6.4146082  73.5336519  44.5474515   5.3487855
  73.9996971  45.3802507   5.2748158  73.9844019  44.0819497   6.0533113
  63.4758354  52.5500386  14.0626100  64.1767814  53.1836869  14.2155494
  63.0053469  52.8915118  13.3021739  71.6012750  50.8918336   2.3474007
  71.8772594  50.7774931   3.2567881  70.7317249  50.4935821   2.3086180
  71.5053182  36.9155102   9.3878756  70.5916261  37.1459329   9.5560963
  71.9346283  36.9993546  10.2392789  71.2759640  45.1044994  11.8878650
  70.6231090  45.3520901  11.2331103  71.6540020  44.2909132  11.5541128
  68.2366814  55.1404687   5.9906821  68.4189209  54.3226343   6.4534573
  69.0599800  55.3572379   5.5531711  68.5708979  54.0672872   3.2521869
  69.0996746  53.5565327   2.6392031  68.8337199  53.7515402   4.1167402
  67.3247213  45.8464805  18.3744687  66.6487850  45.7458934  19.0447063
  68.1474847  45.6904019  18.8380685  59.0726072  52.0836741  10.9957203
  59.6579509  51.3380429  11.1285107  58.8750911  52.3940698  11.8793866
  61.9264727  55.1187989   6.0119645  61.2575103  55.6034117   5.5283685
  61.7877597  55.3657209   6.9263023  53.6643727  44.6542342   9.7161646
  53.7027826  44.1205932  10.5098764  53.1584020  44.1277547   9.0972623
  66.0669996  57.1531732  12.6102303  66.6188304  57.3163354  13.3751389
  66.4076189  57.7436170  11.9382328  61.0434489  39.5006882  13.2124188
  61.1075816  40.3621713  12.8001586  60.9801609  38.8880884  12.4796547
  60.5186762  41.5730015  16.8597222  61.1458801  41.1907092  17.4734747
  59.6614681  41.3544217  17.2252915  70.9180870  51.9792990  18.4650958
  71.4620774  52.5922948  17.9705913  70.3367715  52.5372568  18.9817971
  57.2952305  43.3806444   2.7915577  57.5905746  42.4717122   2.7382631
  56.3940340  43.3594183   2.4696579  69.2038383  55.1013708   9.5965985
  69.0789523  54.3003448   9.0876931  69.8617474  55.5959901   9.1079955
  60.8246552  41.4562440   8.7743126  60.1033137  42.0698408   8.6350599
  61.6139807  41.9920205   8.6959772  71.2673292  52.9022728  11.2245536
  70.3203627  52.7828079  11.1523862  71.6156065  52.0145226  11.3071797
  63.6272865  38.7916867  15.0483777  64.1507267  39.0379163  15.8110087
  63.4085198  39.6236902  14.6286915  59.0240146  41.0620542   2.9154902
  58.6952852  40.1817920   2.7330008  59.3779517  41.0068210   3.8031291
  68.2719725  52.6975444   7.4249888  68.1244687  51.7692152   7.6057458
  69.0973218  52.7195535   6.9406963  62.1381969  41.3493511   3.2830380
  62.4778042  41.8779433   2.5608988  62.5854090  41.6873917   4.0588946
  71.8753847  53.5204003   8.5114761  72.8000394  53.3146864   8.3739212
  71.7069150  53.2720404   9.4204102  64.8325410  39.7330562  12.7333448
  64.4922230  38.9338375  13.1354128  64.1264416  40.0332273  12.1610281
  65.4841882  36.8179874  11.1860771  66.3067951  36.3440353  11.0639661
  65.7279945  37.5970358  11.6859457  64.1250116  39.8468133   1.4823673
  64.8458479  40.2249386   0.9787390  63.5015421  40.5657010   1.5858651
  68.2681239  40.5513282   2.4182005  68.4844854  41.4337920   2.1170833
  67.7875306  40.1599495   1.6887647  63.0080461  43.5098995   8.9952750
  62.8625041  43.8239298   9.8877031  62.5305664  44.1283895   8.4423648
  64.8676844  40.5001543   9.0433639  64.8538412  39.6042636   8.7065937
  65.5849272  40.5072207   9.6771925  66.7202974  40.9338883  11.0886767
  66.4620752  41.8555954  11.0871097  66.1888015  40.5369318  11.7787231
  71.6649163  54.0389670   3.8676852  71.8386041  53.4736093   3.1150704
  72.1578054  54.8390565   3.6856342  57.4826123  46.0504339  11.9340411
  56.9379591  46.8264147  12.0660685  58.3605473  46.3975144  11.7759532
  64.2713739  39.3815923   4.3121209  64.3929651  38.4532570   4.5112097
  63.9815782  39.3954609   3.3999525  67.1404930  37.0670834   7.4487929
  67.1626627  37.1310167   6.4939909  67.5572989  36.2275342   7.6428435
  77.5188554  46.8026093   5.4867152  77.9619700  46.0533419   5.0886275
  76.6415064  46.7936230   5.1040884  72.6524336  53.3556435   0.9673750
  73.3475240  53.9763127   1.1861065  72.9947486  52.5051786   1.2426128
  58.2692145  45.1774236  14.8270568  57.5273881  45.3256871  15.4135198
  57.9484889  45.4382501  13.9637317  74.5515759  50.8056140   2.4961081
  75.0767083  51.1443413   1.7710401  74.4638111  49.8703156   2.3124216
  66.2135807  54.7190214  14.6250958  66.5222934  54.4739361  15.4973657
  67.0111289  54.9236852  14.1369828  66.2356419  56.8728124   6.8556334
  65.7961410  56.3804502   7.5489191  66.9864536  56.3301091   6.6148409
  58.7148758  53.0639664   6.8580962  59.5406778  52.7643436   6.4779606
  58.3642810  52.2947287   7.3070751  63.6830292  52.4166133   8.9278636
  63.0610301  51.7536838   8.6280864  64.3535158  52.4427265   8.2452284
  56.9157363  50.9825991   7.8169896  56.0789272  50.5548165   7.6353897
  56.8881009  51.1758434   8.7540687  63.7554819  40.8947921  18.5211142
  63.8042974  41.7710044  18.1388912  64.2977333  40.3525314  17.9482785
  74.2409665  51.4389044  17.8012279  73.4505208  51.4213183  17.2616778
  74.0043019  51.9777338  18.5561316  74.3607540  48.2881510  15.1145008
  74.4105545  48.1231518  16.0560530  74.2521463  47.4208769  14.7242888
  63.2443798  50.9670056   2.4037096  63.3931919  51.6505520   1.7503769
  64.0510242  50.9475146   2.9186552  71.6511302  44.2712438  16.4304314
  72.5521165  44.1318903  16.1388312  71.7259277  44.4366893  17.3702492
  65.9854107  41.6479293  15.2757501  65.1157417  41.9412859  15.0040089
  66.2213588  42.2319738  15.9964764  75.8625737  50.7078452  15.3587029
  75.5710545  51.0708432  16.1950490  75.2497868  49.9945460  15.1800361
  77.0621419  48.2731332   7.8789599  77.8968310  48.7121136   8.0427160
  77.1980548  47.7969985   7.0597845  74.1112925  45.8311067  13.8267087
  74.5867046  46.0238713  13.0185938  73.1878490  45.8870252  13.5810471
  60.9996431  46.9935234   3.4098165  60.7542473  46.0897564   3.6078375
  61.1692346  46.9952384   2.4677643  68.6893141  37.8658910  12.7922921
  69.2075085  38.6019937  12.4669410  68.3348274  38.1722903  13.6269680
  60.2692079  42.7263591   0.9084327  59.5761324  42.8007946   0.2524363
  60.0243831  41.9623935   1.4305844  68.9405735  34.2859193   8.3123818
  69.2207489  33.6182382   8.9384244  69.7256342  34.4788288   7.7998481
  66.7439204  53.4618186  -0.1251156  66.1713171  54.0808374  -0.5780684
  67.3171998  54.0117548   0.4088766  72.8114594  42.7076827  12.0595393
  73.7632017  42.8074924  12.0807617  72.6418044  41.9155095  12.5693477
  70.8328973  39.7932410  12.2454794  70.2378905  40.0737423  11.5501282
  70.5478670  40.2826311  13.0171535  69.9636464  53.7455337   1.0057426
  70.8967137  53.6800898   1.2090302  69.8759677  54.5811603   0.5471959
  72.5924480  53.0621207  -2.0338626  72.5138112  52.7281071  -1.1402868
  73.4134147  53.5542975  -2.0347154  75.2902672  45.9282946  11.1737692
  75.2578992  44.9898947  11.3597376  75.9003295  46.0066983  10.4403517
  67.1286002  44.7978999  -2.7835104  68.0745107  44.6685207  -2.7146686
  66.7500247  44.0593661  -2.3065675  75.4397160  42.7193990  11.2195976
  74.9236209  41.9352446  11.0325904  76.3237109  42.3912706  11.3842495
  73.1007887  36.4635005   7.1791788  72.9032708  36.1550093   8.0635120
  73.7107593  37.1896644   7.3089718  81.1079221  46.9898953  10.3143729
  81.8382610  46.7284241  10.8751432  80.4986167  46.2527675  10.3545797
  79.1894519  45.1306816  10.9118180  78.4627682  44.9962781  10.3034672
  78.7741805  45.4383644  11.7174898  67.0124695  48.8496745  18.6765553
  67.9327704  49.0275344  18.8705600  66.9774278  47.9052791  18.5245253
  65.3128920  42.7228976  -2.8480218  64.4060375  42.4262088  -2.7717505
  65.5904901  42.4258794  -3.7145932  56.2306860  44.0435339   7.6018828
  55.9109644  43.1900647   7.3093202  55.6840288  44.2583917   8.3576795
  60.0086768  46.7597780  11.3188335  60.2272777  47.6914888  11.3376368
  60.4212541  46.4005754  12.1043138  66.9290985  37.2665865   3.3064023
  66.1191714  36.9212950   3.6819269  67.6175402  36.9573409   3.8951634
  68.8581534  36.3443912   4.9288320  69.4112572  36.7639366   5.5878343
  69.0951620  35.4179660   4.9711276  64.8814633  42.3330986  20.7091083
  64.7811360  43.2825343  20.6403175  64.6636175  42.0049225  19.8367154
  56.0995120  47.6638251   9.5711950  55.4058591  47.2492203   9.0581904
  56.8468111  47.7058787   8.9745368  72.2360341  38.4544437   4.4366984
  71.6559010  39.1129241   4.0545036  71.9696273  37.6321782   4.0254401
  70.6863907  37.8549495   6.6388304  71.1863685  37.9666030   5.8302623
  71.3299515  37.5510548   7.2789113  64.7445903  45.7628125  19.5256145
  64.2612985  46.5628485  19.7320034  64.8306842  45.7736070  18.5723589
  58.0131863  47.5956504   7.4477964  57.9902551  47.6944192   6.4959848
  58.3232499  48.4421655   7.7695131  60.6719240  49.6532659  11.5624579
  61.6262494  49.6216602  11.4954510  60.4731764  49.1923283  12.3774805
  61.2618623  48.2233775  14.1295377  62.0811512  48.7177854  14.1530214
  61.5355430  47.3065744  14.1012944  71.0185219  40.6144528   3.4923332
  70.1311074  40.8994178   3.2743527  71.4339208  40.4538291   2.6450609
  74.3699755  40.6391049   7.2077671  75.1460145  41.1287501   7.4802288
  73.6447889  41.0649103   7.6649541  76.8072313  41.3518668   8.2651612
  77.4016804  41.1114404   7.5544920  76.8798897  40.6325798   8.8925148
  59.0269469  55.1952279   8.5794777  58.8923937  54.4352680   8.0132775
  58.6101531  55.9193179   8.1123566  70.1628432  50.3789202  -2.4128648
  70.8664282  50.5839205  -1.7970992  69.4391081  50.9465964  -2.1479564
  70.9926242  46.1299064   3.7073622  70.9361444  46.5867615   2.8681255
  71.5454585  45.3689748   3.5296465  74.8031048  41.9188796   4.5323742
  74.5467983  41.5185431   5.3631949  74.1783916  42.6332589   4.4073881
  79.1143386  44.6584869   7.0395033  78.5542944  44.7278058   7.8126595
  78.5086890  44.4825853   6.3194529  62.1838595  56.0921596   8.7913219
  62.0670979  57.0367028   8.6891910  61.3631041  55.7895157   9.1799019
  72.0715130  50.8171732  -0.3630188  72.9060734  50.3852930  -0.5452713
  71.9099473  50.6453745   0.5646707  71.7261022  47.3203845   1.0026151
  71.6709826  47.1548116   0.0614595  71.1007077  48.0279878   1.1588341
  56.5153537  42.5571909  14.8287574  57.1612400  42.0470863  15.3174799
  56.3070688  43.2940591  15.4030999  69.0406929  49.6252757  20.3279714
  69.9098089  49.7993409  19.9666349  68.5613680  50.4447174  20.2055444
  65.0357147  36.8211954   0.5811470  65.0235817  37.7653794   0.7379741
  65.9280569  36.6382099   0.2870931  63.2093109  56.7449858  12.0069148
  64.1120356  56.7773468  12.3235643  62.9830479  55.8150309  12.0215484
  64.9646711  55.4980844   8.6679226  64.0142342  55.4982706   8.5543599
  65.2679197  54.7513579   8.1515261  68.8509267  33.4154731   4.8357407
  68.0841663  32.8613217   4.9814089  69.2619972  33.4876599   5.6971558
  60.8551028  39.7039526  18.9262588  61.7182489  39.3476331  19.1365912
  60.2816438  39.3653421  19.6137992  80.6999405  61.3341383   9.7324989
  81.3377815  61.2148130   9.0288329  80.5820248  62.2822227   9.7912941
  77.5089111  61.2868811   9.6686514  77.1707623  61.1709875   8.7807048
  78.3778879  60.8859976   9.6487520  73.3675927  63.1404287   5.6583404
  72.8040792  63.0494224   4.8899692  73.2528322  62.3204192   6.1385897
  77.9908894  62.4403663  15.6272719  77.9797535  62.0456461  14.7553223
  78.1529533  61.7069735  16.2206491  70.9140359  64.6355479   8.4967625
  71.7061651  64.2946303   8.0813924  71.1537009  64.7450454   9.4169778
  78.9475485  66.8075255   0.9697869  78.2963465  67.3929335   0.5831883
  79.7419848  67.3381450   1.0292907  72.8731113  63.8964392   1.3685004
  73.6461989  63.3493379   1.2297880  73.2256511  64.7608641   1.5799465
  74.7116155  65.2240774  14.5751903  74.4206021  66.1286405  14.4598569
  75.3473139  65.2657302  15.2895973  75.6372362  62.6017623  11.1653263
  76.2335934  62.3773645  10.4510226  75.6947334  61.8602368  11.7678711
  75.2097390  60.0557058  -0.9996546  75.4622911  59.5338579  -1.7613083
  74.2721949  59.8923204  -0.8969863  80.2540673  59.0592837   6.8078197
  81.0403762  58.6412260   6.4568614  80.5179378  59.9638929   6.9759845
  80.4250751  64.4965687   1.5066854  79.7896584  64.5700313   2.2187758
  80.0948157  65.0859286   0.8285933  85.6549100  58.9968070   7.7111175
  86.3874272  58.4267287   7.9449005  84.8988456  58.6089670   8.1517681
  74.9293679  61.9585164   1.2027829  74.8129937  61.2830068   1.8708913
  75.0395939  61.4717538   0.3859982  77.2725220  61.4195311   4.9074518
  76.9083427  60.8925932   5.6187439  78.1292336  61.0293780   4.7341003
  83.1774521  52.7089644  12.1705784  82.8457845  53.5785055  11.9466999
  82.5820134  52.3925928  12.8499814  76.9130707  56.4485211  -0.0964134
  77.0805109  57.3165447   0.2706337  76.7227876  56.6112493  -1.0202844
  79.6706040  64.9102190  11.5701697  79.3706763  65.8127229  11.4617504
  79.3257100  64.6434373  12.4222850  73.1218522  61.3615987   7.6038401
  72.1969018  61.2292201   7.8116093  73.3702935  62.1410206   8.1008344
  83.0703184  57.4284730   9.2499134  82.1620061  57.3600138   8.9557895
  83.0190780  57.9056675  10.0780960  76.8919928  58.9042868   0.8882533
  76.7719553  59.3499919   1.7268013  76.1972516  59.2528186   0.3296071
  70.4827333  61.0049260   8.4382190  70.6119714  61.2583739   9.3521602
  69.8024784  61.5976968   8.1186845  74.6526820  71.6746510   4.5372664
  74.5750850  72.6254335   4.6161145  74.0488464  71.3292383   5.1947591
  77.1444050  58.8474376  17.1934031  76.3677384  59.4068296  17.1836896
  77.7834613  59.3331159  17.7148901  84.9364830  55.6301168  11.0277008
  84.2939211  55.9233702  10.3816803  84.4319759  55.5154089  11.8330205
  82.5904994  59.3764342   1.7162867  83.5022850  59.6091728   1.5410565
  82.0814641  59.9601386   1.1537946  75.3990422  61.6559829  16.7551998
  76.1405106  62.1944873  16.4786822  74.6927408  62.2826118  16.9123550
  80.8745762  63.7988969  15.3524160  81.2829118  63.3571380  14.6078792
  80.1523023  63.2241597  15.6058353  77.2276832  58.7361576  12.7257717
  78.0738027  59.1600990  12.8692366  77.1675469  58.0795201  13.4196280
  81.1974576  64.3590160   9.1076449  80.5683439  64.5235874   8.4052517
  80.8100238  64.7731770   9.8787413  85.0763808  65.2944598   6.4620812
  84.3914846  65.6743499   5.9117846  85.1607658  65.9039925   7.1952760
  80.3776277  56.3965945  14.3838890  80.1337209  57.1508005  13.8473166
  80.6536208  56.7751292  15.2186137  82.3314740  62.9404557  13.0616156
  82.5431635  63.5836317  12.3850537  82.2844488  62.1066873  12.5938086
  79.9340969  55.5522378   9.9652728  79.0725448  55.8503631  10.2569466
  79.9603403  55.7692776   9.0333761  76.7502538  64.0964568   6.3726534
  77.2140884  64.3752271   5.5831156  76.4859336  63.1948013   6.1899624
  73.6426619  63.6436050   9.3106297  74.2127976  64.0723318   8.6723782
  74.2334731  63.3618634  10.0090483  75.6871424  60.2187721   3.1816099
  76.3895468  60.6708764   3.6490025  75.3552053  59.5771539   3.8095992
  74.1351786  58.8099477  17.5567308  73.5050446  59.4915758  17.7902705
  74.0287874  58.6982559  16.6120447  69.4296758  58.4771273   8.4833232
  68.6395812  58.7328802   8.0073343  69.9208006  59.2919611   8.5885273
  83.4460568  65.8176512  11.2338513  84.2678012  65.4156700  10.9521195
  83.4422971  65.7144747  12.1854629  71.3811504  58.8415852   5.4416709
  70.5842667  58.9534547   5.9600205  71.1537096  59.1802505   4.5757600
  77.2117171  65.3660556  13.3899224  77.2761604  65.8280963  14.2257396
  76.5028095  64.7357921  13.5181534  67.7134461  58.7301764  10.9148223
  67.9642500  59.6148774  11.1805799  68.2494010  58.5506365  10.1423315
  91.5366561  62.1615261   7.5823485  90.7830269  61.5922659   7.4267489
  91.6714102  62.1277925   8.5294119  76.9265189  67.0328663   3.2578204
  76.7910864  67.8780199   3.6863052  77.4675001  67.2347941   2.4944138
  73.4132529  53.1120243  19.9192559  73.0199474  52.5586442  20.5940204
  74.2298669  53.4230821  20.3099077  70.3794586  64.5504101   3.8306129
  70.8919107  65.3447351   3.9811694  71.0317299  63.8530392   3.7639731
  72.1889471  67.6669857   5.9128882  72.3656099  68.5887822   5.7249866
  72.9846305  67.3528277   6.3423262  76.3300490  54.5278122  17.5112816
  77.0710203  55.1285275  17.4317278  76.5618412  53.7855760  16.9530858
  71.4741828  59.7134489  15.7891046  71.3595343  58.8119747  16.0898145
  70.6186345  59.9598186  15.4375862  78.5533665  67.6552230  17.3878546
  78.1097519  66.8688608  17.0699451  79.2150879  67.8431380  16.7222437
  73.3120786  69.1848031  11.9139225  73.8628212  69.0565095  11.1416219
  72.4732262  69.4842920  11.5634118  80.6514903  67.9355030  15.4159947
  80.6333379  68.7563911  14.9240217  81.5734823  67.8109105  15.6410089
  77.1087958  65.4499159  16.2583456  77.6416294  64.6887447  16.0282764
  76.5802039  65.1572811  17.0007610  80.2757652  50.5559225  11.7877098
  79.9321922  51.4460867  11.7116208  80.6436615  50.3660883  10.9246683
  68.3443503  62.8792755   4.6065700  69.1818725  63.2889764   4.3899407
  68.5221771  61.9392198   4.5765894  80.2407935  60.5467836   0.2949533
  79.7254559  61.3172441   0.5337920  79.9685244  59.8732972   0.9182594
  77.8255046  55.3917537   5.3534771  76.9696643  55.0024387   5.1740410
  78.2381998  55.4709498   4.4934557  79.3554193  52.9263880   9.7526331
  78.8518988  52.8894015   8.9394136  79.6484800  53.8356623   9.8122988
  75.5997079  53.0102610   8.7592513  76.4650076  52.8145419   8.3998402
  75.6674588  52.7812962   9.6861869  85.2142209  63.3000191   2.2302706
  84.4371652  62.9611350   1.7857868  85.8933690  63.3052814   1.5557671
  80.0294238  58.4194928   2.1209314  79.7244374  58.7341077   2.9719457
  80.9824681  58.4976348   2.1636647  78.4740670  64.5785152   3.7702268
  77.9462032  63.8437911   3.4575505  77.9728173  65.3559828   3.5242236
  83.4533516  62.7734172   8.8869314  82.7957191  63.4633433   8.9749443
  84.2573915  63.1630604   9.2303301  73.2059398  55.2404818   6.1308879
  73.7803150  55.0179999   5.3982072  73.7930380  55.3093512   6.8837481
  82.2638975  61.1278545   6.9373256  82.7770857  61.7608537   7.4394966
  82.9140199  60.5279740   6.5716616  73.5328985  57.2709279   0.1504765
  72.6966297  57.6083965   0.4714039  73.3933755  57.1358259  -0.7868098
  75.5082066  52.1146067   4.8583949  74.8546478  51.7995084   4.2340564
  75.4662540  51.4921807   5.5843772  76.6193270  62.3965362  -3.2262759
  75.7120332  62.1654615  -3.0271610  77.1164302  61.6002981  -3.0388778
  78.7419806  58.6028000   9.1831596  77.8242367  58.8242947   9.0253285
  79.1579950  58.6774311   8.3243304  79.5254854  60.0019416   4.3134277
  80.2726673  60.5140813   4.0041399  79.7946443  59.6803469   5.1738670
  77.7981504  62.4977957   1.2961231  76.8892723  62.2136989   1.3933701
  77.8276588  62.9177035   0.4364538  83.0300771  66.1084546   5.0652399
  82.5763098  65.2675456   5.1217589  82.3994738  66.7445945   5.4027179
  81.9733691  57.0376532   6.2953066  81.2356448  56.5253918   6.6263309
  82.2260464  56.5976914   5.4836343  81.4733711  67.9461043   6.0002217
  81.7656685  68.5066100   5.2814582  81.9832331  68.2389604   6.7555376
  82.0745318  49.8152784   6.8894835  82.3804195  48.9550148   6.6020750
  82.7997923  50.4070404   6.6893829  68.3669674  60.2183471   5.2776433
  68.1694074  59.6252832   4.5527500  67.8116338  59.9135681   5.9952372
  76.3466398  60.1106577   7.3971026  76.4015008  59.1580414   7.3213503
  75.5357600  60.2666016   7.8812325  77.4957592  64.0386700  -1.3650690
  77.0577022  63.3222559  -1.8245053  78.2368033  64.2662815  -1.9265599
  74.2858758  58.7283637   5.1561405  73.4726623  59.0277808   5.5626597
  74.7817752  58.3339326   5.8735887  76.4367336  68.7241394   7.0895670
  76.3943514  68.9502240   6.1604202  77.3530035  68.4904769   7.2381471
  79.8832969  59.1925461  13.9876299  80.2382357  59.4196935  14.8470765
  80.5305101  59.5243838  13.3653554  85.6130706  62.3143897   4.6925628
  85.4748605  62.5045493   3.7646817  85.2566925  63.0763280   5.1493679
  73.7772833  56.3001993  10.7722640  74.4172212  56.1590752  10.0745603
  72.9450363  56.0136506  10.3961242  85.6400086  64.3820424   9.7036900
  86.0736593  64.2895713  10.5519954  86.3531667  64.3577925   9.0656916
  74.5533136  65.6004423   6.8857633  75.3473735  65.1054743   6.6840208
  73.8424829  65.0722286   6.5225338  79.3727981  67.9822518  11.2370000
  79.4265003  68.5513455  12.0047716  78.5042762  68.1524404  10.8724037
  70.8615900  59.7447505   2.9617385  69.9313488  59.6831960   3.1787347
  70.9573372  59.2223457   2.1654027  70.7801449  56.2702318   5.5495627
  71.0408266  57.1847651   5.4404787  71.6018621  55.8026760   5.6992240
  72.2526374  57.6840075  12.7194452  72.9249428  57.4757437  12.0707100
  71.4256161  57.4862161  12.2799684  86.5015636  64.4244125  12.2369785
  86.6951526  65.3289936  12.4829060  86.4016254  63.9651544  13.0708370
  78.1551946  54.3102016  14.7360112  77.5079861  55.0091965  14.6424589
  78.9252962  54.7438160  15.1036361  81.5630744  64.5750868  17.8110666
  81.4116251  64.3461419  16.8940749  81.5535424  65.5321469  17.8242011
  78.3316081  62.1482781  12.7956932  79.2608141  62.2993940  12.6225899
  77.9107111  62.2366801  11.9405579  77.1304412  66.1733445  10.5655470
  76.9915498  65.8052229  11.4381408  76.3419009  66.6881084  10.3939428
  77.7252564  71.2742541   1.9081006  77.9004320  70.8030585   2.7226629
  77.0385352  71.9008308   2.1362267  78.6809628  65.5515048   7.9544308
  78.3459460  65.5115818   8.8501957  78.1813573  64.8859764   7.4814718
  72.6553872  60.9582678  13.4796889  72.5173670  60.2262917  14.0808428
  73.5658795  60.8691578  13.1981076  81.6168819  62.8971082  -1.7718633
  80.9997990  62.1717910  -1.8685580  81.1485308  63.6580442  -2.1151559
  75.2836172  60.6702637  12.9680568  75.9935791  60.0295829  12.9267187
  75.2405480  60.9215532  13.8906749  83.2722951  67.6069990  15.8887148
  83.2135497  66.9229210  15.2217731  83.6742469  68.3488980  15.4367774
  73.9965106  57.6567855  14.7876208  73.4602463  57.2058593  15.4397804
  73.4081815  57.7913764  14.0446672  72.2913650  74.4231904   8.6820866
  72.5310248  75.0550428   9.3599885  71.4482846  74.0719944   8.9686226
  73.4067365  57.1156506  -2.6497329  72.5296831  56.9945307  -3.0135082
  73.8825118  56.3242585  -2.9018440  83.2740358  65.5709574  14.1201127
  82.3867137  65.2335496  14.2427526  83.8438909  64.8392606  14.3569893
  64.9269505  61.9033666   7.4444179  65.6140545  61.5895396   6.8565194
  64.7717634  62.8075031   7.1711430  69.7304227  56.7923863  11.8729202
  69.6462416  56.1849532  11.1379612  68.9086934  57.2832881  11.8738699
  76.8041512  70.2311027  11.0862370  76.7311683  71.0365998  11.5981675
  76.3618905  70.4302992  10.2610392  76.5931291  69.4682797   4.5965192
  75.8098813  70.0104477   4.6903416  77.2924036  69.9856776   4.9959433
  79.9027941  55.2777426   7.2399397  80.3996641  54.5247388   6.9200468
  79.1314923  55.3141743   6.6742607  87.7557699  60.9817792   8.8817689
  87.7447575  61.8642507   8.5111622  86.8875078  60.6289342   8.6872226
  79.2640195  70.1297861  13.2420529  79.9768167  70.7645325  13.1696431
  78.7730224  70.2261727  12.4260531  80.9857722  64.0349113   4.8137821
  80.0514001  64.1550576   4.6442525  81.1634390  63.1321580   4.5497831
  76.4862910  57.4194809   6.9671082  76.1160698  56.8665849   7.6551988
  76.9822003  56.8152943   6.4146082  84.3730273  59.8766433   5.3487855
  84.8390726  60.7094424   5.2748158  84.8237774  59.4111414   6.0533113
  74.3152109  67.8792304  14.0626100  75.0161568  68.5128787  14.2155494
  73.8447224  68.2207036  13.3021739  82.4406504  66.2210254   2.3474007
  82.7166348  66.1066848   3.2567881  81.5711003  65.8227739   2.3086180
  82.3446936  52.2447020   9.3878756  81.4310016  52.4751246   9.5560963
  82.7740038  52.3285464  10.2392789  82.1153395  60.4336912  11.8878650
  81.4624845  60.6812819  11.2331103  82.4933775  59.6201050  11.5541128
  79.0760568  70.4696605   5.9906821  79.2582963  69.6518261   6.4534573
  79.8993554  70.6864297   5.5531711  79.4102734  69.3964790   3.2521869
  79.9390500  68.8857244   2.6392031  79.6730954  69.0807320   4.1167402
  78.1640968  61.1756723  18.3744687  77.4881605  61.0750852  19.0447063
  78.9868602  61.0195936  18.8380685  69.9119827  67.4128659  10.9957203
  70.4973264  66.6672347  11.1285107  69.7144665  67.7232616  11.8793866
  72.7658482  70.4479907   6.0119645  72.0968857  70.9326034   5.5283685
  72.6271352  70.6949127   6.9263023  64.5037481  59.9834259   9.7161646
  64.5421581  59.4497850  10.5098764  63.9977774  59.4569465   9.0972623
  76.9063751  72.4823650  12.6102303  77.4582059  72.6455272  13.3751389
  77.2469944  73.0728088  11.9382328  71.8828244  54.8298800  13.2124188
  71.9469570  55.6913631  12.8001586  71.8195364  54.2172802  12.4796547
  71.3580516  56.9021932  16.8597222  71.9852555  56.5199010  17.4734747
  70.5008435  56.6836134  17.2252915  81.7574625  67.3084908  18.4650958
  82.3014529  67.9214866  17.9705913  81.1761470  67.8664486  18.9817971
  68.1346059  58.7098362   2.7915577  68.4299500  57.8009040   2.7382631
  67.2334095  58.6886101   2.4696579  80.0432138  70.4305626   9.5965985
  79.9183277  69.6295365   9.0876931  80.7011229  70.9251819   9.1079955
  71.6640306  56.7854358   8.7743126  70.9426892  57.3990326   8.6350599
  72.4533562  57.3212123   8.6959772  82.1067046  68.2314646  11.2245536
  81.1597382  68.1119997  11.1523862  82.4549819  67.3437144  11.3071797
  74.4666620  54.1208785  15.0483777  74.9901021  54.3671081  15.8110087
  74.2478953  54.9528819  14.6286915  69.8633901  56.3912459   2.9154902
  69.5346607  55.5109838   2.7330008  70.2173271  56.3360128   3.8031291
  79.1113479  68.0267362   7.4249888  78.9638442  67.0984069   7.6057458
  79.9366973  68.0487453   6.9406963  72.9775724  56.6785429   3.2830380
  73.3171796  57.2071350   2.5608988  73.4247844  57.0165835   4.0588946
  82.7147601  68.8495921   8.5114761  83.6394149  68.6438782   8.3739212
  82.5462905  68.6012322   9.4204102  75.6719165  55.0622480  12.7333448
  75.3315985  54.2630293  13.1354128  74.9658171  55.3624191  12.1610281
  76.3235636  52.1471792  11.1860771  77.1461706  51.6732270  11.0639661
  76.5673700  52.9262276  11.6859457  74.9643871  55.1760051   1.4823673
  75.6852233  55.5541303   0.9787390  74.3409175  55.8948927   1.5858651
  79.1074994  55.8805200   2.4182005  79.3238608  56.7629837   2.1170833
  78.6269061  55.4891413   1.6887647  73.8474215  58.8390913   8.9952750
  73.7018796  59.1531216   9.8877031  73.3699419  59.4575813   8.4423648
  75.7070598  55.8293461   9.0433639  75.6932167  54.9334554   8.7065937
  76.4243026  55.8364125   9.6771925  77.5596729  56.2630801  11.0886767
  77.3014507  57.1847872  11.0871097  77.0281769  55.8661236  11.7787231
  82.5042918  69.3681588   3.8676852  82.6779795  68.8028011   3.1150704
  82.9971809  70.1682483   3.6856342  68.3219877  61.3796257  11.9340411
  67.7773345  62.1556065  12.0660685  69.1999227  61.7267062  11.7759532
  75.1107494  54.7107841   4.3121209  75.2323405  53.7824487   4.5112097
  74.8209536  54.7246527   3.3999525  77.9798684  52.3962751   7.4487929
  78.0020381  52.4602085   6.4939909  78.3966743  51.5567260   7.6428435
  88.3582309  62.1318011   5.4867152  88.8013455  61.3825336   5.0886275
  87.4808819  62.1228147   5.1040884  83.4918090  68.6848352   0.9673750
  84.1868995  69.3055045   1.1861065  83.8341240  67.8343704   1.2426128
  69.1085899  60.5066153  14.8270568  68.3667635  60.6548789  15.4135198
  68.7878643  60.7674419  13.9637317  85.3909513  66.1348058   2.4961081
  85.9160837  66.4735331   1.7710401  85.3031866  65.1995073   2.3124216
  77.0529562  70.0482132  14.6250958  77.3616688  69.8031278  15.4973657
  77.8505044  70.2528770  14.1369828  77.0750174  72.2020041   6.8556334
  76.6355164  71.7096420   7.5489191  77.8258291  71.6593009   6.6148409
  69.5542513  68.3931582   6.8580962  70.3800533  68.0935354   6.4779606
  69.2036565  67.6239205   7.3070751  74.5224046  67.7458050   8.9278636
  73.9004055  67.0828755   8.6280864  75.1928913  67.7719182   8.2452284
  67.7551118  66.3117909   7.8169896  66.9183026  65.8840083   7.6353897
  67.7274763  66.5050352   8.7540687  74.5948574  56.2239838  18.5211142
  74.6436729  57.1001961  18.1388912  75.1371088  55.6817231  17.9482785
  85.0803419  66.7680962  17.8012279  84.2898963  66.7505101  17.2616778
  84.8436774  67.3069255  18.5561316  85.2001294  63.6173428  15.1145008
  85.2499299  63.4523435  16.0560530  85.0915218  62.7500687  14.7242888
  74.0837553  66.2961974   2.4037096  74.2325673  66.9797438   1.7503769
  74.8903996  66.2767064   2.9186552  82.4905057  59.6004356  16.4304314
  83.3914919  59.4610821  16.1388312  82.5653031  59.7658811  17.3702492
  76.8247862  56.9771211  15.2757501  75.9551171  57.2704777  15.0040089
  77.0607342  57.5611656  15.9964764  86.7019491  66.0370370  15.3587029
  86.4104299  66.4000350  16.1950490  86.0891622  65.3237378  15.1800361
  87.9015173  63.6023249   7.8789599  88.7362065  64.0413053   8.0427160
  88.0374302  63.1261903   7.0597845  84.9506679  61.1602984  13.8267087
  85.4260801  61.3530630  13.0185938  84.0272245  61.2162170  13.5810471
  71.8390186  62.3227151   3.4098165  71.5936228  61.4189481   3.6078375
  72.0086100  62.3244302   2.4677643  79.5286896  53.1950828  12.7922921
  80.0468840  53.9311855  12.4669410  79.1742029  53.5014821  13.6269680
  71.1085833  58.0555509   0.9084327  70.4155078  58.1299864   0.2524363
  70.8637585  57.2915853   1.4305844  79.7799490  49.6151110   8.3123818
  80.0601244  48.9474299   8.9384244  80.5650097  49.8080206   7.7998481
  77.5832958  68.7910104  -0.1251156  77.0106926  69.4100291  -0.5780684
  78.1565752  69.3409466   0.4088766  83.6508348  58.0368744  12.0595393
  84.6025771  58.1366842  12.0807617  83.4811799  57.2447013  12.5693477
  81.6722728  55.1224327  12.2454794  81.0772660  55.4029340  11.5501282
  81.3872424  55.6118228  13.0171535  80.8030218  69.0747254   1.0057426
  81.7360891  69.0092816   1.2090302  80.7153431  69.9103521   0.5471959
  86.1296426  61.2574864  11.1737692  86.0972746  60.3190865  11.3597376
  86.7397050  61.3358901  10.4403517  77.9679757  60.1270917  -2.7835104
  78.9138862  59.9977125  -2.7146686  77.5894002  59.3885579  -2.3065675
  86.2790915  58.0485907  11.2195976  85.7629963  57.2644364  11.0325904
  87.1630863  57.7204624  11.3842495  83.9401642  51.7926923   7.1791788
  83.7426463  51.4842011   8.0635120  84.5501347  52.5188562   7.3089718
  91.9472976  62.3190871  10.3143729  92.6776364  62.0576159  10.8751432
  91.3379921  61.5819593  10.3545797  90.0288273  60.4598733  10.9118180
  89.3021437  60.3254698  10.3034672  89.6135560  60.7675562  11.7174898
  77.8518449  64.1788663  18.6765553  78.7721459  64.3567262  18.8705600
  77.8168033  63.2344708  18.5245253  76.1522674  58.0520893  -2.8480218
  75.2454130  57.7554006  -2.7717505  76.4298655  57.7550711  -3.7145932
  67.0700614  59.3727257   7.6018828  66.7503399  58.5192565   7.3093202
  66.5234043  59.5875835   8.3576795  70.8480522  62.0889698  11.3188335
  71.0666532  63.0206806  11.3376368  71.2606296  61.7297672  12.1043138
  77.7684740  52.5957783   3.3064023  76.9585468  52.2504868   3.6819269
  78.4569157  52.2865327   3.8951634  79.6975288  51.6735830   4.9288320
  80.2506327  52.0931283   5.5878343  79.9345374  50.7471578   4.9711276
  75.7208387  57.6622903  20.7091083  75.6205114  58.6117260  20.6403175
  75.5029929  57.3341142  19.8367154  74.9221459  54.9107829  -2.7068239
  75.7840623  55.2362727  -2.4472422  75.1071803  54.1239324  -3.2195173
  66.9388874  62.9930168   9.5711950  66.2452346  62.5784121   9.0581904
  67.6861865  63.0350705   8.9745368  83.0754095  53.7836355   4.4366984
  82.4952764  54.4421159   4.0545036  82.8090028  52.9613700   4.0254401
  81.5257662  53.1841413   6.6388304  82.0257440  53.2957947   5.8302623
  82.1693270  52.8802466   7.2789113  75.5839657  61.0920042  19.5256145
  75.1006739  61.8920402  19.7320034  75.6700596  61.1027987  18.5723589
  68.8525617  62.9248422   7.4477964  68.8296305  63.0236109   6.4959848
  69.1626254  63.7713573   7.7695131  71.5112995  64.9824577  11.5624579
  72.4656248  64.9508519  11.4954510  71.3125518  64.5215201  12.3774805
  72.1012377  63.5525693  14.1295377  72.9205266  64.0469772  14.1530214
  72.3749185  62.6357661  14.1012944  81.8578973  55.9436445   3.4923332
  80.9704828  56.2286096   3.2743527  82.2732962  55.7830209   2.6450609
  85.2093509  55.9682966   7.2077671  85.9853899  56.4579419   7.4802288
  84.4841644  56.3941021   7.6649541  87.6466068  56.6810586   8.2651612
  88.2410559  56.4406322   7.5544920  87.7192652  55.9617716   8.8925148
  69.8663224  70.5244197   8.5794777  69.7317692  69.7644597   8.0132775
  69.4495286  71.2485096   8.1123566  81.0022187  65.7081120  -2.4128648
  81.7058037  65.9131123  -1.7970992  80.2784835  66.2757882  -2.1479564
  81.8319997  61.4590981   3.7073622  81.7755198  61.9159533   2.8681255
  82.3848339  60.6981666   3.5296465  85.6424803  57.2480713   4.5323742
  85.3861737  56.8477349   5.3631949  85.0177671  57.9624507   4.4073881
  89.9537141  59.9876786   7.0395033  89.3936699  60.0569976   7.8126595
  89.3480644  59.8117771   6.3194529  73.0232350  71.4213514   8.7913219
  72.9064734  72.3658946   8.6891910  72.2024796  71.1187075   9.1799019
  82.9108884  66.1463649  -0.3630188  83.7454488  65.7144848  -0.5452713
  82.7493227  65.9745663   0.5646707  82.5654776  62.6495763   1.0026151
  82.5103580  62.4840034   0.0614595  81.9400832  63.3571795   1.1588341
  67.3547291  57.8863827  14.8287574  68.0006155  57.3762781  15.3174799
  67.1464442  58.6232509  15.4030999  79.8800683  64.9544674  20.3279714
  80.7491843  65.1285327  19.9666349  79.4007435  65.7739091  20.2055444
  75.8750902  52.1503872   0.5811470  75.8629572  53.0945711   0.7379741
  76.7674324  51.9674017   0.2870931  74.0486864  72.0741775  12.0069148
  74.9514110  72.1065386  12.3235643  73.8224234  71.1442226  12.0215484
  75.8040466  70.8272762   8.6679226  74.8536097  70.8274624   8.5543599
  76.1072952  70.0805497   8.1515261  79.6903021  48.7446648   4.8357407
  78.9235417  48.1905135   4.9814089  80.1013726  48.8168517   5.6971558
  71.6944782  55.0331444  18.9262588  72.5576244  54.6768249  19.1365912
  71.1210193  54.6945339  19.6137992  91.5393159  76.6633300   9.7324989
  92.1771569  76.5440048   9.0288329  91.4214002  77.6114144   9.7912941
  88.3482865  76.6160728   9.6686514  88.0101377  76.5001793   8.7807048
  89.2172634  76.2151894   9.6487520  88.8302648  77.7695580  15.6272719
  88.8191289  77.3748378  14.7553223  88.9923288  77.0361653  16.2206491
  81.7534113  79.9647396   8.4967625  82.5455405  79.6238221   8.0813924
  81.9930763  80.0742372   9.4169778  85.5509910  80.5532692  14.5751903
  85.2599776  81.4578323  14.4598569  86.1866894  80.5949220  15.2895973
  86.4766116  77.9309541  11.1653263  87.0729689  77.7065563  10.4510226
  86.5341088  77.1894286  11.7678711  91.0934428  74.3884754   6.8078197
  91.8797517  73.9704177   6.4568614  91.3573132  75.2930846   6.9759845
  94.0168275  68.0381562  12.1705784  93.6851600  68.9076972  11.9466999
  93.4213889  67.7217846  12.8499814  90.5099795  80.2394108  11.5701697
  90.2100518  81.1419146  11.4617504  90.1650854  79.9726291  12.4222850
  83.9612276  76.6907904   7.6038401  83.0362773  76.5584118   7.8116093
  84.2096689  77.4702124   8.1008344  93.9096938  72.7576648   9.2499134
  93.0013816  72.6892056   8.9557895  93.8584534  73.2348593  10.0780960
  81.3221087  76.3341178   8.4382190  81.4513468  76.5875657   9.3521602
  80.6418539  76.9268886   8.1186845  87.9837804  74.1766293  17.1934031
  87.2071138  74.7360213  17.1836896  88.6228367  74.6623076  17.7148901
  95.7758585  70.9593086  11.0277008  95.1332965  71.2525619  10.3816803
  95.2713513  70.8446006  11.8330205  86.2384177  76.9851747  16.7551998
  86.9798861  77.5236791  16.4786822  85.5321162  77.6118035  16.9123550
  91.7139516  79.1280887  15.3524160  92.1222872  78.6863298  14.6078792
  90.9916778  78.5533515  15.6058353  88.0670586  74.0653494  12.7257717
  88.9131781  74.4892907  12.8692366  88.0069224  73.4087118  13.4196280
  91.2170032  71.7257862  14.3838890  90.9730963  72.4799923  13.8473166
  91.4929962  72.1043210  15.2186137  93.1708494  78.2696475  13.0616156
  93.3825390  78.9128235  12.3850537  93.1238243  77.4358791  12.5938086
  90.7734723  70.8814295   9.9652728  89.9119202  71.1795549  10.2569466
  90.7997158  71.0984694   9.0333761  84.4820374  78.9727967   9.3106297
  85.0521731  79.4015236   8.6723782  85.0728486  78.6910552  10.0090483
  84.9745540  74.1391395  17.5567308  84.3444201  74.8207676  17.7902705
  84.8681628  74.0274476  16.6120447  80.2690513  73.8063191   8.4833232
  79.4789567  74.0620719   8.0073343  80.7601760  74.6211529   8.5885273
  82.2205258  74.1707770   5.4416709  81.4236421  74.2826464   5.9600205
  81.9930850  74.5094422   4.5757600  88.0510926  80.6952473  13.3899224
  88.1155358  81.1572881  14.2257396  87.3421850  80.0649838  13.5181534
  78.5528216  74.0593681  10.9148223  78.8036254  74.9440691  11.1805799
  79.0887764  73.8798283  10.1423315  84.2526283  68.4412161  19.9192559
  83.8593229  67.8878359  20.5940204  85.0692423  68.7522739  20.3099077
  87.1694244  69.8570040  17.5112816  87.9103957  70.4577193  17.4317278
  87.4012167  69.1147678  16.9530858  82.3135582  75.0426407  15.7891046
  82.1989097  74.1411664  16.0898145  81.4580100  75.2890104  15.4375862
  89.3927420  82.9844147  17.3878546  88.9491274  82.1980526  17.0699451
  90.0544633  83.1723298  16.7222437  84.1514541  84.5139949  11.9139225
  84.7021966  84.3857012  11.1416219  83.3126017  84.8134838  11.5634118
  91.4908658  83.2646947  15.4159947  91.4727133  84.0855828  14.9240217
  92.4128578  83.1401022  15.6410089  87.9481712  80.7791077  16.2583456
  88.4810049  80.0179365  16.0282764  87.4195793  80.4864729  17.0007610
  91.1151407  65.8851143  11.7877098  90.7715676  66.7752784  11.7116208
  91.4830370  65.6952800  10.9246683  79.1837258  78.2084673   4.6065700
  80.0212480  78.6181682   4.3899407  79.3615525  77.2684115   4.5765894
  88.6648801  70.7209455   5.3534771  87.8090397  70.3316305   5.1740410
  89.0775753  70.8001415   4.4934557  90.1947947  68.2555798   9.7526331
  89.6912743  68.2185933   8.9394136  90.4878554  69.1648541   9.8122988
  86.4390833  68.3394528   8.7592513  87.3043830  68.1437336   8.3998402
  86.5068342  68.1104879   9.6861869  84.0453152  70.5696736   6.1308879
  84.6196904  70.3471917   5.3982072  84.6324135  70.6385430   6.8837481
  86.3475820  67.4437984   4.8583949  85.6940232  67.1287002   4.2340564
  86.3056294  66.8213725   5.5843772  89.5813560  73.9319918   9.1831596
  88.6636122  74.1534865   9.0253285  89.9973704  74.0066228   8.3243304
  92.9139073  65.1444702   6.8894835  93.2197949  64.2842065   6.6020750
  93.6391677  65.7362322   6.6893829  79.2063429  75.5475388   5.2776433
  79.0087829  74.9544749   4.5527500  78.6510093  75.2427599   5.9952372
  87.1860152  75.4398495   7.3971026  87.2408762  74.4872331   7.3213503
  86.3751354  75.5957934   7.8812325  85.1252512  74.0575555   5.1561405
  84.3120378  74.3569725   5.5626597  85.6211506  73.6631243   5.8735887
  90.7226724  74.5217379  13.9876299  91.0776112  74.7488852  14.8470765
  91.3698855  74.8535756  13.3653554  84.6166587  71.6293910  10.7722640
  85.2565966  71.4882669  10.0745603  83.7844118  71.3428424  10.3961242
  90.2121735  83.3114436  11.2370000  90.2658758  83.8805372  12.0047716
  89.3436517  83.4816321  10.8724037  81.6195203  71.5994235   5.5495627
  81.8802021  72.5139568   5.4404787  82.4412376  71.1318678   5.6992240
  83.0920129  73.0131992  12.7194452  83.7643182  72.8049355  12.0707100
  82.2649915  72.8154078  12.2799684  88.9945701  69.6393933  14.7360112
  88.3473616  70.3383883  14.6424589  89.7646716  70.0730077  15.1036361
  92.4024499  79.9042785  17.8110666  92.2510005  79.6753337  16.8940749
  92.3929178  80.8613387  17.8242011  89.1709835  77.4774698  12.7956932
  90.1001895  77.6285858  12.6225899  88.7500865  77.5658719  11.9405579
  87.9698167  81.5025363  10.5655470  87.8309253  81.1344147  11.4381408
  87.1812763  82.0173002  10.3939428  83.4947626  76.2874595  13.4796889
  83.3567424  75.5554834  14.0808428  84.4052550  76.1983495  13.1981076
  86.1229927  75.9994555  12.9680568  86.8329545  75.3587747  12.9267187
  86.0799235  76.2507450  13.8906749  94.1116705  82.9361908  15.8887148
  94.0529252  82.2521128  15.2217731  94.5136224  83.6780898  15.4367774
  84.8358861  72.9859773  14.7876208  84.2996218  72.5350511  15.4397804
  84.2475569  73.1205681  14.0446672  94.1134113  80.9001492  14.1201127
  93.2260891  80.5627414  14.2427526  94.6832664  80.1684523  14.3569893
  75.7663260  77.2325584   7.4444179  76.4534300  76.9187314   6.8565194
  75.6111388  78.1366948   7.1711430  80.5697982  72.1215780  11.8729202
  80.4856171  71.5141450  11.1379612  79.7480688  72.6124799  11.8738699
  90.7421696  70.6069344   7.2399397  91.2390395  69.8539306   6.9200468
  89.9708677  70.6433660   6.6742607  90.1033950  85.4589778  13.2420529
  90.8161922  86.0937243  13.1696431  89.6123978  85.5553644  12.4260531
  87.3256665  72.7486727   6.9671082  86.9554452  72.1957767   7.6551988
  87.8215757  72.1444860   6.4146082  85.1545863  83.2084222  14.0626100
  85.8555323  83.8420705  14.2155494  84.6840978  83.5498953  13.3021739
  93.1840691  67.5738937   9.3878756  92.2703770  67.8043164   9.5560963
  93.6133792  67.6577381  10.2392789  92.9547149  75.7628829  11.8878650
  92.3018599  76.0104737  11.2331103  93.3327529  74.9492967  11.5541128
  89.0034722  76.5048640  18.3744687  88.3275359  76.4042770  19.0447063
  89.8262356  76.3487854  18.8380685  80.7513581  82.7420577  10.9957203
  81.3367018  81.9964265  11.1285107  80.5538420  83.0524534  11.8793866
  75.3431236  75.3126177   9.7161646  75.3815335  74.7789768  10.5098764
  74.8371529  74.7861383   9.0972623  82.7221998  70.1590718  13.2124188
  82.7863325  71.0205548  12.8001586  82.6589118  69.5464719  12.4796547
  82.1974271  72.2313850  16.8597222  82.8246310  71.8490927  17.4734747
  81.3402190  72.0128052  17.2252915  92.5968379  82.6376825  18.4650958
  93.1408283  83.2506784  17.9705913  92.0155224  83.1956404  18.9817971
  78.9739814  74.0390279   2.7915577  79.2693255  73.1300958   2.7382631
  78.0727849  74.0178019   2.4696579  82.5034061  72.1146276   8.7743126
  81.7820646  72.7282243   8.6350599  83.2927316  72.6504041   8.6959772
  85.3060374  69.4500702  15.0483777  85.8294776  69.6962999  15.8110087
  85.0872707  70.2820737  14.6286915  80.7027655  71.7204377   2.9154902
  80.3740361  70.8401756   2.7330008  81.0567026  71.6652046   3.8031291
  83.8169478  72.0077347   3.2830380  84.1565551  72.5363268   2.5608988
  84.2641599  72.3457753   4.0588946  86.5112919  70.3914397  12.7333448
  86.1709739  69.5922210  13.1354128  85.8051925  70.6916108  12.1610281
  87.1629391  67.4763710  11.1860771  87.9855460  67.0024188  11.0639661
  87.4067454  68.2554194  11.6859457  84.6867970  74.1682830   8.9952750
  84.5412550  74.4823134   9.8877031  84.2093173  74.7867731   8.4423648
  86.5464353  71.1585378   9.0433639  86.5325921  70.2626472   8.7065937
  87.2636781  71.1656042   9.6771925  88.3990483  71.5922719  11.0886767
  88.1408261  72.5139789  11.0871097  87.8675524  71.1953153  11.7787231
  79.1613632  76.7088175  11.9340411  78.6167100  77.4847983  12.0660685
  80.0392982  77.0558979  11.7759532  85.9501248  70.0399759   4.3121209
  86.0717160  69.1116405   4.5112097  85.6603291  70.0538445   3.3999525
  88.8192439  67.7254669   7.4487929  88.8414136  67.7894002   6.4939909
  89.2360498  66.8859178   7.6428435  79.9479654  75.8358071  14.8270568
  79.2061390  75.9840706  15.4135198  79.6272398  76.0966337  13.9637317
  87.8923316  85.3774049  14.6250958  88.2010443  85.1323196  15.4973657
  88.6898798  85.5820688  14.1369828  78.5944872  81.6409826   7.8169896
  77.7576781  81.2132001   7.6353897  78.5668518  81.8342270   8.7540687
  85.4342328  71.5531756  18.5211142  85.4830483  72.4293879  18.1388912
  85.9764842  71.0109149  17.9482785  95.9197174  82.0972879  17.8012279
  95.1292717  82.0797018  17.2616778  95.6830528  82.6361173  18.5561316
  96.0395049  78.9465346  15.1145008  96.0893054  78.7815353  16.0560530
  95.9308972  78.0792605  14.7242888  93.3298811  74.9296274  16.4304314
  94.2308674  74.7902739  16.1388312  93.4046786  75.0950729  17.3702492
  87.6641616  72.3063128  15.2757501  86.7944926  72.5996695  15.0040089
  87.9001097  72.8903573  15.9964764  97.5413246  81.3662287  15.3587029
  97.2498054  81.7292268  16.1950490  96.9285377  80.6529296  15.1800361
  95.7900434  76.4894902  13.8267087  96.2654555  76.6822548  13.0185938
  94.8665999  76.5454088  13.5810471  90.3680650  68.5242745  12.7922921
  90.8862594  69.2603772  12.4669410  90.0135783  68.8306739  13.6269680
  90.6193244  64.9443028   8.3123818  90.8994998  64.2766217   8.9384244
  91.4043851  65.1372124   7.7998481  94.4902103  73.3660662  12.0595393
  95.4419526  73.4658760  12.0807617  94.3205553  72.5738930  12.5693477
  92.5116482  70.4516245  12.2454794  91.9166414  70.7321258  11.5501282
  92.2266179  70.9410146  13.0171535  96.9690181  76.5866782  11.1737692
  96.9366501  75.6482782  11.3597376  97.5790804  76.6650818  10.4403517
  97.1184669  73.3777825  11.2195976  96.6023718  72.5936282  11.0325904
  98.0024618  73.0496542  11.3842495  94.7795396  67.1218841   7.1791788
  94.5820217  66.8133929   8.0635120  95.3895102  67.8480480   7.3089718
  88.6912204  79.5080581  18.6765553  89.6115213  79.6859180  18.8705600
  88.6561787  78.5636626  18.5245253  77.9094369  74.7019174   7.6018828
  77.5897153  73.8484483   7.3093202  77.3627797  74.9167753   8.3576795
  81.6874277  77.4181615  11.3188335  81.9060286  78.3498723  11.3376368
  82.1000050  77.0589590  12.1043138  88.6078494  67.9249701   3.3064023
  87.7979223  67.5796786   3.6819269  89.2962911  67.6157244   3.8951634
  90.5369043  67.0027748   4.9288320  91.0900081  67.4223201   5.5878343
  90.7739129  66.0763496   4.9711276  86.5602142  72.9914821  20.7091083
  86.4598869  73.9409178  20.6403175  86.3423684  72.6633060  19.8367154
  77.7782629  78.3222086   9.5711950  77.0846100  77.9076039   9.0581904
  78.5255620  78.3642622   8.9745368  92.3651416  68.5133330   6.6388304
  92.8651194  68.6249865   5.8302623  93.0087024  68.2094383   7.2789113
  86.4233412  76.4211960  19.5256145  85.9400494  77.2212320  19.7320034
  86.5094351  76.4319905  18.5723589  79.6919372  78.2540340   7.4477964
  79.6690060  78.3528027   6.4959848  80.0020008  79.1005490   7.7695131
  82.3506749  80.3116495  11.5624579  83.3050003  80.2800437  11.4954510
  82.1519273  79.8507118  12.3774805  82.9406132  78.8817611  14.1295377
  83.7599021  79.3761689  14.1530214  83.2142939  77.9649579  14.1012944
  96.0487264  71.2974884   7.2077671  96.8247654  71.7871336   7.4802288
  95.3235398  71.7232938   7.6649541  78.1941046  73.2155745  14.8287574
  78.8399909  72.7054699  15.3174799  77.9858197  73.9524426  15.4030999
  90.7194438  80.2836592  20.3279714  91.5885598  80.4577244  19.9666349
  90.2401189  81.1031009  20.2055444  84.8880618  87.4033693  12.0069148
  85.7907865  87.4357303  12.3235643  84.6617988  86.4734144  12.0215484
  90.5296776  64.0738566   4.8357407  89.7629172  63.5197053   4.9814089
  90.9407481  64.1460435   5.6971558  82.5338537  70.3623362  18.9262588
  83.3969998  70.0060167  19.1365912  81.9603947  70.0237257  19.6137992
  95.0920038  83.7704078  19.9192559  94.6986983  83.2170277  20.5940204
  95.9086178  84.0814657  20.3099077  98.0087999  85.1861957  17.5112816
  98.7497712  85.7869111  17.4317278  98.2405921  84.4439595  16.9530858
  93.0368025  87.5605768  16.8597222  93.6640064  87.1782845  17.4734747
  92.1795944  87.3419970  17.2252915  96.2736083  86.8823674  18.5211142
  96.3224238  87.7585797  18.1388912  96.8158597  86.3401067  17.9482785
  97.3995896  88.3206739  20.7091083  97.2992623  89.2701096  20.6403175
  97.1817438  87.9924978  19.8367154  89.0334800  88.5447662  14.8287574
  89.6793664  88.0346616  15.3174799  88.8251951  89.2816344  15.4030999
  93.3732291  85.6915279  18.9262588  94.2363753  85.3352084  19.1365912
  92.7997702  85.3529174  19.6137992  67.7139912  29.3322435   4.1123853
  67.2703766  28.5458813   3.7944757  68.3757126  29.5201585   3.4467744
  69.8121150  29.6125234   2.1405254  69.7939625  30.4334116   1.6485523
  70.7341070  29.4879310   2.3655395  70.7236991  26.2521073   4.5355972
  70.5722497  26.0231624   3.6186056  70.7141671  27.2091674   4.5487317
  72.4329198  29.2840195   2.6132454  72.3741744  28.5999415   1.9463037
  72.8348716  30.0259185   2.1613080  70.9180872  28.9855113   5.1896264
  71.4620776  29.5985071   4.6951219  70.3367716  29.5434691   5.7063277
  74.2409666  28.4451167   4.5257586  73.4505210  28.4275305   3.9862085
  74.0043021  28.9839460   5.2806622  75.8625738  27.7140574   2.0832336
  75.5710546  28.0770555   2.9195797  75.2497869  27.0007583   1.9045668
  69.0406930  26.6314879   7.0525021  69.9098090  26.8055532   6.6911656
  68.5613682  27.4509296   6.9300750  80.6999406  38.3403505  -3.5429705
  81.3377816  38.2210253  -4.2466364  80.5820249  39.2884349  -3.4841752
  77.5089112  38.2930933  -3.6068180  77.1707624  38.1771998  -4.4947645
  78.3778880  37.8922098  -3.6267174  77.9908895  39.4465785   2.3518026
  77.9797536  39.0518583   1.4798529  78.1529535  38.7131858   2.9451797
  70.9140360  41.6417601  -4.7787068  71.7061652  41.3008426  -5.1940769
  71.1537010  41.7512576  -3.8584915  74.7116156  42.2302897   1.2997210
  74.4206022  43.1348528   1.1843876  75.3473141  42.2719425   2.0141279
  75.6372363  39.6079745  -2.1101431  76.2335935  39.3835768  -2.8244468
  75.6947335  38.8664491  -1.5075983  83.1774522  29.7151766  -1.1048909
  82.8457847  30.5847177  -1.3287694  82.5820135  29.3988050  -0.4254879
  79.6706041  41.9164312  -1.7052997  79.3706765  42.8189351  -1.8137189
  79.3257101  41.6496496  -0.8531844  83.0703185  34.4346853  -4.0255559
  82.1620063  34.3662261  -4.3196798  83.0190781  34.9118798  -3.1973734
  74.6526821  48.6808633  -8.7382029  74.5750851  49.6316458  -8.6593548
  74.0488465  48.3354505  -8.0807103  77.1444051  35.8536498   3.9179338
  76.3677385  36.4130418   3.9082203  77.7834614  36.3393281   4.4394208
  84.9364832  32.6363291  -2.2477685  84.2939212  32.9295824  -2.8937891
  84.4319760  32.5216211  -1.4424489  75.3990423  38.6621952   3.4797305
  76.1405108  39.2006996   3.2032129  74.6927409  39.2888240   3.6368857
  80.8745763  40.8051092   2.0769466  81.2829119  40.3633503   1.3324099
  80.1523024  40.2303720   2.3303659  77.2276833  35.7423699  -0.5496977
  78.0738028  36.1663112  -0.4062328  77.1675471  35.0857323   0.1441586
  81.1974578  41.3652283  -4.1678245  80.5683440  41.5297997  -4.8702177
  80.8100240  41.7793892  -3.3967281  85.0763810  42.3006721  -6.8133881
  84.3914848  42.6805622  -7.3636848  85.1607659  42.9102047  -6.0801933
  80.3776278  33.4028067   1.1084197  80.1337210  34.1570128   0.5718473
  80.6536209  33.7813415   1.9431444  82.3314741  39.9466680  -0.2138537
  82.5431636  40.5898439  -0.8904156  82.2844489  39.1128996  -0.6816607
  76.7502540  41.1026691  -6.9028160  77.2140885  41.3814394  -7.6923537
  76.4859338  40.2010135  -7.0855069  73.6426621  40.6498172  -3.9648396
  74.2127978  41.0785441  -4.6030912  74.2334732  40.3680757  -3.2664211
  74.1351787  35.8161600   4.2812615  73.5050448  36.4977881   4.5148012
  74.0287875  35.7044681   3.3365753  83.4460569  42.8238635  -2.0416180
  84.2678013  42.4218822  -2.3233498  83.4422972  42.7206869  -1.0900064
  77.2117173  42.3722678   0.1144530  77.2761605  42.8343085   0.9502702
  76.5028096  41.7420043   0.2426840  73.4132530  30.1182366   6.6437866
  73.0199475  29.5648564   7.3185510  74.2298670  30.4292944   7.0344384
  72.1889472  44.6731980  -7.3625811  72.3656101  45.5949945  -7.5504827
  72.9846306  44.3590399  -6.9331431  76.3300491  31.5340245   4.2358123
  77.0710204  32.1347398   4.1562585  76.5618414  30.7917882   3.6776165
  71.4741829  36.7196612   2.5136352  71.3595344  35.8181869   2.8143451
  70.6186347  36.9660309   2.1621169  78.5533667  44.6614352   4.1123853
  78.1097521  43.8750731   3.7944757  79.2150880  44.8493503   3.4467744
  73.3120788  46.1910154  -1.3615469  73.8628213  46.0627217  -2.1338475
  72.4732264  46.4905043  -1.7120576  80.6514905  44.9417152   2.1405254
  80.6333380  45.7626033   1.6485523  81.5734825  44.8171227   2.3655395
  77.1087959  42.4561282   2.9828762  77.6416296  41.6949570   2.7528070
  76.5802040  42.1634933   3.7252917  83.4533518  39.7796295  -4.3885379
  82.7957192  40.4695556  -4.3005251  84.2573917  40.1692727  -4.0451393
  82.2638976  38.1340667  -6.3381437  82.7770858  38.7670659  -5.8359728
  82.9140200  37.5341863  -6.7038077  78.7419807  35.6090123  -4.0923097
  77.8242369  35.8305070  -4.2501409  79.1579951  35.6836433  -4.9511390
  83.0300773  43.1146669  -8.2102295  82.5763100  42.2737579  -8.1537104
  82.3994739  43.7508067  -7.8727515  81.4733712  44.9523165  -7.2752477
  81.7656686  45.5128223  -7.9940111  81.9832332  45.2451726  -6.5199318
  76.4367337  45.7303517  -6.1859023  76.3943516  45.9564363  -7.1150491
  77.3530036  45.4966891  -6.0373222  79.8832971  36.1987584   0.7121606
  80.2382358  36.4259057   1.5716071  80.5305102  36.5305961   0.0898861
  85.6400087  41.3882547  -3.5717794  86.0736594  41.2957836  -2.7234740
  86.3531668  41.3640047  -4.2097778  74.5533138  42.6066546  -6.3897061
  75.3473736  42.1116866  -6.5914486  73.8424830  42.0784409  -6.7529355
  79.3727982  44.9884641  -2.0384693  79.4265004  45.5575577  -1.2706977
  78.5042764  45.1586526  -2.4030656  72.2526376  34.6902197  -0.5560242
  72.9249429  34.4819559  -1.2047593  71.4256162  34.4924283  -0.9955010
  86.5015637  41.4306248  -1.0384908  86.6951527  42.3352058  -0.7925633
  86.4016255  40.9713667  -0.2046323  78.1551948  31.3164138   1.4605419
  77.5079863  32.0154088   1.3669895  78.9252963  31.7500282   1.8281667
  81.5630746  41.5812990   4.5355972  81.4116252  41.3523542   3.6186056
  81.5535425  42.5383592   4.5487317  78.3316082  39.1544903  -0.4797761
  79.2608142  39.3056063  -0.6528794  77.9107112  39.2428924  -1.3349115
  77.1304414  43.1795568  -2.7099224  76.9915499  42.8114352  -1.8373286
  76.3419010  43.6943207  -2.8815266  77.7252566  48.2804664 -11.3673687
  77.9004321  47.8092707 -10.5528064  77.0385354  48.9070430 -11.1392426
  78.6809629  42.5577170  -5.3210386  78.3459461  42.5177940  -4.4252736
  78.1813575  41.8921886  -5.7939976  72.6553873  37.9644800   0.2042195
  72.5173671  37.2325039   0.8053734  73.5658796  37.8753700  -0.0773617
  75.2836173  37.6764760  -0.3074125  75.9935792  37.0357952  -0.3487507
  75.2405482  37.9277654   0.6152056  83.2722952  44.6132113   2.6132454
  83.2135498  43.9291333   1.9463037  83.6742471  45.3551103   2.1613080
  73.9965107  34.6629977   1.5121514  73.4602464  34.2120716   2.1643111
  73.4081816  34.7975886   0.7691979  72.2913651  51.4294027  -4.5933827
  72.5310249  52.0612551  -3.9154808  71.4482847  51.0782067  -4.3068468
  83.2740359  42.5771697   0.8446434  82.3867138  42.2397619   0.9672833
  83.8438911  41.8454728   1.0815199  76.8041513  47.2373149  -2.1892323
  76.7311684  48.0428121  -1.6773018  76.3618906  47.4365115  -3.0144302
  76.5931292  46.4744919  -8.6789501  75.8098814  47.0166599  -8.5851277
  77.2924038  46.9918899  -8.2795260  79.2640196  47.1359983  -0.0334164
  79.9768169  47.7707448  -0.1058263  78.7730225  47.2323849  -0.8494162
  80.9857723  41.0411236  -8.4616873  80.0514002  41.1612698  -8.6312168
  81.1634392  40.1383703  -8.7256863  74.3152110  44.8854427   0.7871407
  75.0161569  45.5190910   0.9400801  73.8447225  45.2269158   0.0267046
  82.1153396  37.4399034  -1.3876043  81.4624846  37.6874942  -2.0423590
  82.4933776  36.6263172  -1.7213566  79.0760570  47.4758727  -7.2847873
  79.2582964  46.6580383  -6.8220121  79.8993556  47.6926420  -7.7222983
  79.4102735  46.4026912 -10.0232824  79.9390502  45.8919367 -10.6362662
  79.6730955  46.0869443  -9.1587291  78.1640969  38.1818845   5.0989994
  77.4881606  38.0812975   5.7692369  78.9868603  38.0258059   5.5625991
  69.9119828  44.4190782  -2.2797491  70.4973265  43.6734470  -2.1469587
  69.7144666  44.7294738  -1.3960827  72.7658483  47.4542029  -7.2635048
  72.0968858  47.9388157  -7.7471008  72.6271353  47.7011250  -6.3491670
  76.9063752  49.4885773  -0.6652390  77.4582060  49.6517394   0.0996695
  77.2469945  50.0790211  -1.3372365  71.3580518  33.9084055   3.5842529
  71.9852556  33.5261132   4.1980053  70.5008436  33.6898257   3.9498221
  81.7574626  44.3147030   5.1896264  82.3014530  44.9276988   4.6951219
  81.1761471  44.8726609   5.7063277  80.0432139  47.4367748  -3.6788708
  79.9183278  46.6357488  -4.1877762  80.7011230  47.9313942  -4.1674738
  82.1067047  45.2376768  -2.0509158  81.1597383  45.1182119  -2.1230831
  82.4549821  44.3499266  -1.9682896  74.4666621  31.1270907   1.7729084
  74.9901023  31.3733204   2.5355393  74.2478954  31.9590942   1.3532221
  79.1113481  45.0329485  -5.8504806  78.9638443  44.1046192  -5.6697236
  79.9366974  45.0549575  -6.3347730  82.7147603  45.8558043  -4.7639933
  83.6394150  45.6500905  -4.9015482  82.5462906  45.6074444  -3.8550591
  75.6719166  32.0684602  -0.5421245  75.3315986  31.2692415  -0.1400565
  74.9658172  32.3686313  -1.1144412  77.5596730  33.2692924  -2.1867927
  77.3014508  34.1909994  -2.1883596  77.0281770  32.8723358  -1.4967463
  82.5042919  46.3743711  -9.4077841  82.6779796  45.8090133 -10.1603989
  82.9971810  47.1744606  -9.5898351  68.3219879  38.3858380  -1.3414283
  67.7773347  39.1618188  -1.2094008  69.1999228  38.7329184  -1.4995161
  69.1085900  37.5128276   1.5515874  68.3667636  37.6610911   2.1380505
  68.7878645  37.7736542   0.6882624  77.0529563  47.0544254   1.3496264
  77.3616690  46.8093401   2.2218964  77.8505045  47.2590893   0.8615135
  77.0750175  49.2082164  -6.4198359  76.6355165  48.7158543  -5.7265502
  77.8258292  48.6655132  -6.6606284  69.5542514  45.3993705  -6.4173731
  70.3800534  45.0997477  -6.7975088  69.2036566  44.6301327  -5.9683942
  74.5224047  44.7520173  -4.3476057  73.9004057  44.0890878  -4.6473830
  75.1928914  44.7781305  -5.0302410  74.5948575  33.2301961   5.2456449
  74.6436730  34.1064084   4.8634218  75.1371089  32.6879354   4.6728092
  85.0803420  43.7743084   4.5257586  84.2898964  43.7567223   3.9862085
  84.8436775  44.3131378   5.2806622  85.2001295  40.6235551   1.8390314
  85.2499300  40.4585558   2.7805837  85.0915219  39.7562810   1.4488195
  82.4905058  36.6066479   3.1549621  83.3914921  36.4672944   2.8633619
  82.5653032  36.7720933   4.0947798  76.8247863  33.9833333   2.0002807
  75.9551173  34.2766899   1.7285396  77.0607344  34.5673778   2.7210071
  86.7019492  43.0432492   2.0832336  86.4104301  43.4062473   2.9195797
  86.0891624  42.3299500   1.9045668  84.9506681  38.1665107   0.5512394
  85.4260802  38.3592753  -0.2568755  84.0272246  38.2224293   0.3055777
  79.5286897  30.2012950  -0.4831772  80.0468841  30.9373977  -0.8085284
  79.1742030  30.5076944   0.3514987  83.6508350  35.0430867  -1.2159301
  84.6025772  35.1428965  -1.1947077  83.4811800  34.2509135  -0.7061216
  81.6722729  32.1286450  -1.0299900  81.0772661  32.4091463  -1.7253411
  81.3872426  32.6180351  -0.2583159  86.1296427  38.2636987  -2.1017001
  86.0972747  37.3252987  -1.9157317  86.7397051  38.3421023  -2.8351176
  77.8518451  41.1850786   5.4010860  78.7721460  41.3629385   5.5950906
  77.8168034  40.2406831   5.2490559  70.8480523  39.0951820  -1.9566359
  71.0666533  40.0268928  -1.9378325  71.2606297  38.7359795  -1.1711555
  75.7208389  34.6685026   7.4336390  75.6205116  35.6179383   7.3648481
  75.5029931  34.3403265   6.5612460  75.5839659  38.0982165   6.2501452
  75.1006740  38.8982525   6.4565341  75.6700598  38.1090110   5.2968896
  71.5112996  41.9886700  -1.7130114  72.4656250  41.9570642  -1.7800183
  71.3125520  41.5277323  -0.8979889  72.1012378  40.5587816   0.8540683
  72.9205267  41.0531894   0.8775520  72.3749186  39.6419784   0.8258251
  69.8663225  47.5306319  -4.6959917  69.7317693  46.7706720  -5.2621919
  69.4495287  48.2547219  -5.1631128  73.0232351  48.4275636  -4.4841474
  72.9064735  49.3721069  -4.5862784  72.2024797  48.1249198  -4.0955675
  67.3547293  34.8925950   1.5532880  68.0006156  34.3824904   2.0420105
  67.1464444  35.6294631   2.1276305  79.8800685  41.9606797   7.0525021
  80.7491844  42.1347449   6.6911656  79.4007436  42.7801214   6.9300750
  74.0486865  49.0803898  -1.2685546  74.9514112  49.1127508  -0.9519051
  73.8224235  48.1504349  -1.2539210  75.8040467  47.8334885  -4.6075467
  74.8536098  47.8336746  -4.7211095  76.1072953  47.0867619  -5.1239432
  71.6944784  32.0393567   5.6507894  72.5576245  31.6830371   5.8611219
  71.1210194  31.7007461   6.3383299  91.5393160  53.6695423  -3.5429705
  92.1771570  53.5502170  -4.2466364  91.4214003  54.6176267  -3.4841752
  88.3482867  53.6222851  -3.6068180  88.0101378  53.5063916  -4.4947645
  89.2172635  53.2214016  -3.6267174  88.8302650  54.7757703   2.3518026
  88.8191290  54.3810501   1.4798529  88.9923289  54.0423775   2.9451797
  81.7534114  56.9709519  -4.7787068  82.5455406  56.6300344  -5.1940769
  81.9930765  57.0804494  -3.8584915  85.5509911  57.5594815   1.2997210
  85.2599777  58.4640445   1.1843876  86.1866895  57.6011342   2.0141279
  86.4766118  54.9371663  -2.1101431  87.0729690  54.7127686  -2.8244468
  86.5341089  54.1956409  -1.5075983  91.0934429  51.3946877  -6.4676496
  91.8797518  50.9766300  -6.8186079  91.3573133  52.2992969  -6.2994848
  94.0168276  45.0443684  -1.1048909  93.6851601  45.9139095  -1.3287694
  93.4213890  44.7279968  -0.4254879  90.5099796  57.2456230  -1.7052997
  90.2100519  58.1481269  -1.8137189  90.1650855  56.9788413  -0.8531844
  83.9612277  53.6970027  -5.6716292  83.0362774  53.5646241  -5.4638600
  84.2096691  54.4764246  -5.1746350  93.9096940  49.7638770  -4.0255559
  93.0013817  49.6954179  -4.3196798  93.8584536  50.2410715  -3.1973734
  81.3221088  53.3403300  -4.8372503  81.4513470  53.5937779  -3.9233091
  80.6418540  53.9331008  -5.1567848  87.9837806  51.1828416   3.9179338
  87.2071140  51.7422336   3.9082203  88.6228369  51.6685199   4.4394208
  95.7758586  47.9655209  -2.2477685  95.1332966  48.2587742  -2.8937891
  95.2713515  47.8508129  -1.4424489  86.2384178  53.9913869   3.4797305
  86.9798862  54.5298913   3.2032129  85.5321163  54.6180158   3.6368857
  91.7139517  56.1343010   2.0769466  92.1222874  55.6925420   1.3324099
  90.9916779  55.5595637   2.3303659  88.0670588  51.0715616  -0.5496977
  88.9131783  51.4955030  -0.4062328  88.0069225  50.4149241   0.1441586
  91.2170033  48.7319985   1.1084197  90.9730965  49.4862045   0.5718473
  91.4929963  49.1105332   1.9431444  93.1708496  55.2758597  -0.2138537
  93.3825391  55.9190357  -0.8904156  93.1238244  54.4420914  -0.6816607
  90.7734725  47.8876418  -3.3101965  89.9119204  48.1857671  -3.0185228
  90.7997159  48.1046817  -4.2420933  84.4820375  55.9790090  -3.9648396
  85.0521732  56.4077358  -4.6030912  85.0728487  55.6972675  -3.2664211
  84.9745542  51.1453517   4.2812615  84.3444202  51.8269798   4.5148012
  84.8681629  51.0336599   3.3365753  80.2690514  50.8125313  -4.7921461
  79.4789568  51.0682842  -5.2681350  80.7601761  51.6273651  -4.6869420
  82.2205259  51.1769893  -7.8337984  81.4236423  51.2888587  -7.3154489
  81.9930852  51.5156545  -8.6997094  88.0510927  57.7014596   0.1144530
  88.1155360  58.1635003   0.9502702  87.3421851  57.0711961   0.2426840
  78.5528217  51.0655804  -2.3606470  78.8036255  51.9502814  -2.0948894
  79.0887765  50.8860405  -3.1331378  84.2526284  45.4474283   6.6437866
  83.8593230  44.8940482   7.3185510  85.0692425  45.7584862   7.0344384
  87.1694245  46.8632162   4.2358123  87.9103959  47.4639315   4.1562585
  87.4012168  46.1209800   3.6776165  82.3135583  52.0488530   2.5136352
  82.1989098  51.1473787   2.8143451  81.4580101  52.2952226   2.1621169
  89.3927421  59.9906270   4.1123853  88.9491275  59.2042648   3.7944757
  90.0544635  60.1785420   3.4467744  84.1514542  61.5202072  -1.3615469
  84.7021967  61.3919135  -2.1338475  83.3126018  61.8196961  -1.7120576
  91.4908659  60.2709070   2.1405254  91.4727134  61.0917951   1.6485523
  92.4128579  60.1463145   2.3655395  87.9481713  57.7853199   2.9828762
  88.4810050  57.0241488   2.7528070  87.4195794  57.4926851   3.7252917
  91.1151408  42.8913265  -1.4877596  90.7715678  43.7814907  -1.5638485
  91.4830371  42.7014923  -2.3508011  79.1837259  55.2146796  -8.6688994
  80.0212481  55.6243804  -8.8855286  79.3615527  54.2746238  -8.6988800
  90.1947949  45.2617920  -3.5228363  89.6912744  45.2248056  -4.3360557
  90.4878555  46.1710663  -3.4631706  86.4390835  45.3456650  -4.5162181
  87.3043831  45.1499459  -4.8756291  86.5068343  45.1167002  -3.5892824
  84.0453154  47.5758858  -7.1445814  84.6196905  47.3534040  -7.8772621
  84.6324136  47.6447553  -6.3917213  89.5813562  50.9382041  -4.0923097
  88.6636123  51.1596988  -4.2501409  89.9973705  51.0128351  -4.9511390
  79.2063430  52.5537511  -7.9978260  79.0087830  51.9606872  -8.7227194
  78.6510094  52.2489721  -7.2802321  87.1860154  52.4460618  -5.8783667
  87.2408763  51.4934454  -5.9541190  86.3751356  52.6020057  -5.3942369
  85.1252514  51.0637677  -8.1193288  84.3120379  51.3631848  -7.7128096
  85.6211508  50.6693366  -7.4018806  90.7226725  51.5279502   0.7121606
  91.0776113  51.7550975   1.5716071  91.3698856  51.8597879   0.0898861
  84.6166588  48.6356033  -2.5032053  85.2565968  48.4944792  -3.2009090
  83.7844119  48.3490546  -2.8793451  90.2121737  60.3176559  -2.0384693
  90.2658759  60.8867495  -1.2706977  89.3436518  60.4878444  -2.4030656
  81.6195205  48.6056358  -7.7259066  81.8802022  49.5201691  -7.8349906
  82.4412377  48.1380800  -7.5762454  83.0920130  50.0194115  -0.5560242
  83.7643183  49.8111477  -1.2047593  82.2649917  49.8216201  -0.9955010
  88.9945702  46.6456056   1.4605419  88.3473617  47.3446006   1.3669895
  89.7646717  47.0792200   1.8281667  92.4024500  56.9104908   4.5355972
  92.2510006  56.6815460   3.6186056  92.3929179  57.8675509   4.5487317
  89.1709836  54.4836821  -0.4797761  90.1001896  54.6347980  -0.6528794
  88.7500866  54.5720842  -1.3349115  87.9698168  58.5087485  -2.7099224
  87.8309254  58.1406270  -1.8373286  87.1812764  59.0235125  -2.8815266
  83.4947627  53.2936718   0.2042195  83.3567425  52.5616957   0.8053734
  84.4052551  53.2045618  -0.0773617  86.1229928  53.0056677  -0.3074125
  86.8329547  52.3649869  -0.3487507  86.0799236  53.2569572   0.6152056
  94.1116707  59.9424031   2.6132454  94.0529253  59.2583251   1.9463037
  94.5136225  60.6843021   2.1613080  84.8358862  49.9921895   1.5121514
  84.2996219  49.5412634   2.1643111  84.2475570  50.1267804   0.7691979
  94.1134114  57.9063615   0.8446434  93.2260893  57.5689536   0.9672833
  94.6832665  57.1746646   1.0815199  75.7663261  54.2387706  -5.8310515
  76.4534301  53.9249436  -6.4189499  75.6111390  55.1429071  -6.1043263
  80.5697983  49.1277903  -1.4025491  80.4856172  48.5203572  -2.1375081
  79.7480690  49.6186921  -1.4015995  90.1033951  62.4651901  -0.0334164
  90.8161923  63.0999366  -0.1058263  89.6123979  62.5615767  -0.8494162
  87.3256666  49.7548849  -6.3083611  86.9554453  49.2019890  -5.6202706
  87.8215758  49.1506983  -6.8608611  85.1545864  60.2146344   0.7871407
  85.8555324  60.8482827   0.9400801  84.6840979  60.5561076   0.0267046
  92.9547150  52.7690952  -1.3876043  92.3018601  53.0166859  -2.0423590
  93.3327530  51.9555090  -1.7213566  89.0034723  53.5110763   5.0989994
  88.3275360  53.4104892   5.7692369  89.8262357  53.3549977   5.5625991
  80.7513582  59.7482699  -2.2797491  81.3367019  59.0026387  -2.1469587
  80.5538421  60.0586656  -1.3960827  75.3431237  52.3188300  -3.5593048
  75.3815337  51.7851890  -2.7655930  74.8371530  51.7923505  -4.1782070
  82.7221999  47.1652840  -0.0630505  82.7863326  48.0267671  -0.4753108
  82.6589120  46.5526842  -0.7958147  82.1974272  49.2375973   3.5842529
  82.8246311  48.8553050   4.1980053  81.3402191  49.0190175   3.9498221
  92.5968381  59.6438948   5.1896264  93.1408285  60.2568906   4.6951219
  92.0155225  60.2018526   5.7063277  78.9739815  51.0452402 -10.4839116
  79.2693256  50.1363080 -10.5372063  78.0727851  51.0240141 -10.8058114
  82.5034062  49.1208398  -4.5011568  81.7820648  49.7344366  -4.6404094
  83.2927318  49.6566163  -4.5794922  85.3060375  46.4562825   1.7729084
  85.8294777  46.7025121   2.5355393  85.0872709  47.2882860   1.3532221
  80.7027656  48.7266499 -10.3599791  80.3740363  47.8463878 -10.5424685
  81.0567027  48.6714168  -9.4723402  83.8169480  49.0139469  -9.9924313
  84.1565552  49.5425391 -10.7145705  84.2641600  49.3519875  -9.2165747
  86.5112920  47.3976520  -0.5421245  86.1709741  46.5984333  -0.1400565
  85.8051927  47.6978231  -1.1144412  87.1629392  44.4825832  -2.0893922
  87.9855461  44.0086311  -2.2115032  87.4067456  45.2616316  -1.5895236
  84.6867971  51.1744953  -4.2801944  84.5412552  51.4885256  -3.3877662
  84.2093175  51.7929853  -4.8331045  86.5464354  48.1647501  -4.2321054
  86.5325923  47.2688594  -4.5688756  87.2636782  48.1718165  -3.5982768
  88.3990485  48.5984841  -2.1867927  88.1408262  49.5201912  -2.1883596
  87.8675525  48.2015276  -1.4967463  79.1613633  53.7150297  -1.3414283
  78.6167101  54.4910105  -1.2094008  80.0392983  54.0621102  -1.4995161
  85.9501250  47.0461881  -8.9633484  86.0717161  46.1178527  -8.7642597
  85.6603292  47.0600567  -9.8755169  79.9479655  52.8420194   1.5515874
  79.2061391  52.9902829   2.1380505  79.6272399  53.1028459   0.6882624
  87.8923318  62.3836172   1.3496264  88.2010444  62.1385319   2.2218964
  88.6898800  62.5882810   0.8615135  78.5944874  58.6471949  -5.4584797
  77.7576782  58.2194123  -5.6400796  78.5668519  58.8404392  -4.5214006
  85.4342329  48.5593879   5.2456449  85.4830485  49.4356001   4.8634218
  85.9764843  48.0171272   4.6728092  95.9197175  59.1035002   4.5257586
  95.1292719  59.0859141   3.9862085  95.6830530  59.6423296   5.2806622
  96.0395050  55.9527468   1.8390314  96.0893055  55.7877476   2.7805837
  95.9308973  55.0854727   1.4488195  93.3298812  51.9358396   3.1549621
  94.2308675  51.7964861   2.8633619  93.4046787  52.1012851   4.0947798
  87.6641618  49.3125251   2.0002807  86.7944927  49.6058817   1.7285396
  87.9001098  49.8965696   2.7210071  97.5413247  58.3724410   2.0832336
  97.2498055  58.7354390   2.9195797  96.9285378  57.6591418   1.9045668
  95.7900435  53.4957024   0.5512394  96.2654557  53.6884671  -0.2568755
  94.8666000  53.5516210   0.3055777  90.3680652  45.5304868  -0.4831772
  90.8862595  46.2665895  -0.8085284  90.0135784  45.8368861   0.3514987
  94.4902104  50.3722785  -1.2159301  95.4419527  50.4720882  -1.1947077
  94.3205554  49.5801053  -0.7061216  92.5116484  47.4578368  -1.0299900
  91.9166416  47.7383380  -1.7253411  92.2266180  47.9472269  -0.2583159
  96.9690182  53.5928904  -2.1017001  96.9366502  52.6544905  -1.9157317
  97.5790806  53.6712941  -2.8351176  88.6912205  56.5142703   5.4010860
  89.6115215  56.6921302   5.5950906  88.6561788  55.5698749   5.2490559
  77.9094370  51.7081297  -5.6735865  77.5897155  50.8546605  -5.9661491
  77.3627798  51.9229875  -4.9177898  81.6874278  54.4243738  -1.9566359
  81.9060288  55.3560846  -1.9378325  82.1000052  54.0651712  -1.1711555
  86.5602143  49.9976944   7.4336390  86.4598870  50.9471301   7.3648481
  86.3423685  49.6695183   6.5612460  77.7782630  55.3284208  -3.7042744
  77.0846102  54.9138161  -4.2172789  78.5255621  55.3704745  -4.3009325
  86.4233413  53.4274083   6.2501452  85.9400495  54.2274443   6.4565341
  86.5094352  53.4382027   5.2968896  79.6919373  55.2602462  -5.8276729
  79.6690061  55.3590150  -6.7794846  80.0020009  56.1067613  -5.5059563
  82.3506751  57.3178617  -1.7130114  83.3050004  57.2862560  -1.7800183
  82.1519274  56.8569241  -0.8979889  82.9406133  55.8879733   0.8540683
  83.7599022  56.3823812   0.8775520  83.2142940  54.9711701   0.8258251
  78.1941047  50.2217867   1.5532880  78.8399911  49.7116821   2.0420105
  77.9858198  50.9586549   2.1276305  90.7194439  57.2898715   7.0525021
  91.5885599  57.4639367   6.6911656  90.2401191  58.1093132   6.9300750
  84.8880619  64.4095816  -1.2685546  85.7907866  64.4419426  -0.9519051
  84.6617990  63.4796267  -1.2539210  82.5338538  47.3685484   5.6507894
  83.3970000  47.0122289   5.8611219  81.9603949  47.0299379   6.3383299
  95.0920039  60.7766201   6.6437866  94.6986984  60.2232399   7.3185510
  95.9086179  61.0876779   7.0344384  98.0088000  62.1924080   4.2358123
  98.7497713  62.7931233   4.1562585  98.2405923  61.4501718   3.6776165
  93.0368026  64.5667890   3.5842529  93.6640065  64.1844968   4.1980053
  92.1795945  64.3482092   3.9498221  96.2736084  63.8885796   5.2456449
  96.3224239  64.7647919   4.8634218  96.8158598  63.3463189   4.6728092
  97.3995898  65.3268861   7.4336390  97.2992624  66.2763218   7.3648481
  97.1817440  64.9987100   6.5612460  89.0334802  65.5509785   1.5532880
  89.6793665  65.0408739   2.0420105  88.8251953  66.2878467   2.1276305
  93.3732293  62.6977402   5.6507894  94.2363754  62.3414207   5.8611219
  92.7997703  62.3591297   6.3383299   4.8216519 100.4845059  73.9596949
   4.0680227  99.9152458  73.8040953   4.9564060 100.4507724  74.9067583
   1.6432266 100.4547810  71.8640615   2.0863413  99.7055135  71.4659739
   0.7658777 100.4457946  71.4814347   1.1865131 101.9253048  74.2563063
   2.0212023 102.3642852  74.4200623   1.3224260 101.4491701  73.4371309
   5.2322934 100.6420669  76.6917193   5.9626322 100.3805958  77.2524896
   4.6229879  99.9049391  76.7319261   3.3138231  98.7828532  77.2891644
   2.5871394  98.6484497  76.6808136   2.8985518  99.0905361  78.0948362
   0.9316026  95.0040384  74.6425076   1.5260517  94.7636120  73.9318384
   1.0042609  94.2847515  75.2698612   3.2387099  98.3106585  73.4168497
   2.6786657  98.3799774  74.1900059   2.6330602  98.1347570  72.6967993
   4.4001365 104.2080941  78.1650561   4.0565634 105.0982583  78.0889672
   4.7680327 104.0182599  77.3020146   6.1989030 103.4674501  73.2668299
   6.5047907 102.6071864  72.9794214   6.9241635 104.0592121  73.0667293
   6.4690648 105.8968736  75.7652220   5.5553728 106.1272963  75.9334427
   6.8983750 105.9807180  76.6166252   3.9043202 103.2672827  74.6897281
   4.1844956 102.5996016  75.3157708   4.6893809 103.4601922  74.1771945
   8.0645354 105.4448639  73.5565252   7.8670175 105.1363727  74.4408584
   8.6745059 106.1710278  73.6863182   3.8219000 105.3257546  71.3061783
   4.3750039 105.7453000  71.9651806   4.0589087 104.3993294  71.3484739
   3.8146733 102.3968365  71.2130870   3.0479129 101.8426851  71.3587553
   4.2257438 102.4690233  72.0745022   4.8216520  77.4907182  60.6842255
   4.0680228  76.9214580  60.5286260   4.9564061  77.4569847  61.6312890
   1.6432268  77.4609932  58.5885922   2.0863414  76.7117257  58.1905045
   0.7658778  77.4520069  58.2059654   1.1865132  78.9315171  60.9808370
   2.0212024  79.3704975  61.1445930   1.3224261  78.4553824  60.1616615
   5.2322935  77.6482792  63.4162499   5.9626323  77.3868080  63.9770203
   4.6229880  76.9111514  63.4564567   3.3138232  75.7890655  64.0136951
   2.5871396  75.6546620  63.4053442   2.8985519  76.0967483  64.8193669
   0.9316027  72.0102507  61.3670382   1.5260518  71.7698243  60.6563691
   1.0042611  71.2909637  61.9943919   3.2387100  75.3168708  60.1413803
   2.6786658  75.3861897  60.9145366   2.6330603  75.1409692  59.4213300
   4.8243118  91.9925222  62.8343759   5.4621528  91.8731969  62.1307099
   4.7063961  92.9406066  62.8931711   1.6332825  91.9452650  62.7705284
   1.2951336  91.8293714  61.8825819   2.5022593  91.5443815  62.7506290
   2.1152608  93.0987501  68.7291489   2.1041248  92.7040300  67.8571993
   2.2773247  92.3653574  69.3225261   3.0719199  97.4659094  54.0716640
   2.4207179  98.0513174  53.6850654   3.8663562  97.9965289  54.1311677
   4.3784387  89.7176675  59.9096967   5.1647476  89.2996099  59.5587384
   4.6423091  90.6222768  60.0778616   4.5494464  95.1549526  54.6085624
   3.9140297  95.2284152  55.3206529   4.2191870  95.7443125  53.9304703
   9.7792814  89.6551909  60.8129946  10.5117986  89.0851125  61.0467775
   9.0232170  89.2673509  61.2536451   1.3968934  92.0779150  58.0093288
   1.0327141  91.5509771  58.7206210   2.2536049  91.6877619  57.8359774
   7.3018234  83.3673483  65.2724554   6.9701559  84.2368894  65.0485769
   6.7063848  83.0509767  65.9518585   1.0374421  87.1069050  53.0054637
   1.2048823  87.9749286  53.3725108   0.8471590  87.2696332  52.0815926
   3.7949754  95.5686029  64.6720467   3.4950477  96.4711068  64.5636274
   3.4500813  95.3018212  65.5241620   7.1946898  88.0868569  62.3517904
   6.2863775  88.0183977  62.0576665   7.1434493  88.5640514  63.1799730
   1.2687763  89.5058215  70.2952802   0.4921097  90.0652135  70.2855666
   1.9078326  89.9914997  70.8167672   9.0608544  86.2885007  64.1295778
   8.4182924  86.5817540  63.4835573   8.5563472  86.1737928  64.9348975
   6.7148708  90.0348181  54.8181638   7.6266564  90.2675567  54.6429335
   6.2058355  90.6185225  54.2556716   4.9989475  94.4572808  68.4542930
   5.4072831  94.0155219  67.7097563   4.2766737  93.8825436  68.7077123
   1.3520545  89.3945415  65.8276487   2.1981741  89.8184829  65.9711136
   1.2919183  88.7379039  66.5215050   5.3218290  95.0173999  62.2095219
   4.6927152  95.1819713  61.5071287   4.9343952  95.4315609  62.9806183
   9.2007522  95.9528437  59.5639583   8.5158560  96.3327338  59.0136616
   9.2851371  96.5623763  60.2971531   4.5019991  87.0549783  67.4857661
   4.2580923  87.8091844  66.9491936   4.7779921  87.4335131  68.3204908
   6.4558453  93.5988396  66.1634926   6.6675349  94.2420156  65.4869307
   6.4088202  92.7650712  65.6956856   4.0584682  86.2106216  63.0671498
   3.1969161  86.5087470  63.3588236   4.0847117  86.4276615  62.1352531
   0.8746252  94.7548407  59.4745304   1.3384597  95.0336110  58.6849927
   0.6103050  93.8531852  59.2918395   7.5704281  96.4760351  64.3357284
   8.3921725  96.0740539  64.0539965   7.5666684  96.3728585  65.2873399
   1.3360885  96.0244395  66.4917994   1.4005317  96.4864802  67.3276166
   0.6271809  95.3941759  66.6200304  15.6610274  92.8199100  60.6842255
  14.9073983  92.2506498  60.5286260  15.7957816  92.7861764  61.6312890
   1.0508902  97.6912502  56.3596974   0.9154577  98.5364038  56.7881822
   1.5918715  97.8931780  55.5962908   2.6777379  98.3136069  70.4897317
   2.2341233  97.5272447  70.1718221   3.3394592  98.5015219  69.8241207
   4.7758617  98.5938868  68.5178718   4.7577092  99.4147750  68.0258987
   5.6978537  98.4692944  68.7428859   1.2331671  96.1082998  69.3602226
   1.7660008  95.3471286  69.1301534   0.7045752  95.8156650  70.1026381
   4.4001366  81.2143064  64.8895868   4.0565635  82.1044706  64.8134979
   4.7680329  81.0244722  64.0265453   4.3651649  91.2051675  53.3968303
   3.8498272  91.9756280  53.6356690   4.0928957  90.5316811  54.0201365
   1.9498760  86.0501376  58.4553541   1.0940356  85.6608226  58.2759180
   2.3625712  86.1293337  57.5953327   3.4797906  83.5847719  62.8545101
   2.9762702  83.5477854  62.0412906   3.7728513  84.4940462  62.9141758
   9.3385923  93.9584030  55.3321477   8.5615366  93.6195189  54.8876639
  10.0177404  93.9636653  54.6576442   4.1537952  89.0778767  55.2228084
   3.8488087  89.3924916  56.0738227   5.1068394  89.1560187  55.2655417
   2.5984384  95.2368990  56.8721038   2.0705745  94.5021750  56.5594276
   2.0971886  96.0143667  56.6261007   7.5777230  93.4318011  61.9888085
   6.9200904  94.1217272  62.0768213   8.3817629  93.8214443  62.3322071
   6.3882689  91.7862384  60.0392026   6.9014570  92.4192375  60.5413736
   7.0383912  91.1863579  59.6735386   3.6505063 101.7646708  52.7952697
   2.9766762 102.0678405  53.4037655   4.0370885 102.5675788  52.4458154
   2.8663519  89.2611839  62.2850367   1.9486081  89.4826786  62.1272055
   3.2823663  89.3358150  61.4262074   3.6498567  90.6603255  57.4153047
   4.3970386  91.1724652  57.1060169   3.9190157  90.3387308  58.2757441
   1.9225217  93.1561796  54.3980001   1.0136437  92.8720828  54.4952471
   1.9520301  93.5760874  53.5383308   7.1544485  96.7668385  58.1671169
   6.7006812  95.9259295  58.2236359   6.5238452  97.4029783  58.5045949
   6.0977404  87.6960371  59.3971836   5.3600161  87.1837757  59.7282079
   6.3504178  87.2560753  58.5855113   5.5977424  98.6044882  59.1020987
   5.8900398  99.1649939  58.3833353   6.1076045  98.8973443  59.8574146
   6.1989032  80.4736623  59.9913606   6.5047908  79.6133987  59.7039521
   6.9241636  81.0654243  59.7912600   1.6201305  94.6970539  51.7368080
   1.1820735  93.9806398  51.2773717   2.3611746  94.9246654  51.1753171
   0.5611049  99.3825233  60.1914440   0.5187228  99.6086079  59.2622972
   1.4773748  99.1488607  60.3400241   4.0076683  89.8509300  67.0895069
   4.3626071  90.0780774  67.9489535   4.6548814  90.1827677  66.4672325
   9.7374420  92.9727736  57.7944398   9.5992319  93.1629332  56.8665588
   9.3810639  93.7347119  58.2512450   9.7643800  95.0404263  62.8055670
  10.1980306  94.9479552  63.6538724  10.4775380  95.0161764  62.1675686
   3.4971694  98.6406357  64.3388771   3.5508717  99.2097294  65.1066487
   2.6286476  98.8108242  63.9742808  10.6259349  95.0827964  65.3388555
  10.8195239  95.9873774  65.5847830  10.5259967  94.6235383  66.1727140
   2.2795660  84.9685855  67.8378883   1.6323575  85.6675804  67.7443359
   3.0496675  85.4021998  68.2055131   5.6874458  95.2334707  70.9129436
   5.5359964  95.0045258  69.9959520   5.6779137  96.1905308  70.9260781
   2.4559794  92.8066619  65.8975702   3.3851854  92.9577779  65.7244670
   2.0350824  92.8950640  65.0424349   1.8496278 101.9326380  55.0099777
   2.0248034 101.4614424  55.8245399   1.1629066 102.5592147  55.2381037
   2.8053341  96.2098887  61.0563078   2.4703174  96.1699657  61.9520728
   2.3057287  95.5443602  60.5833488   5.7412533  93.5554921  51.3300138
   5.1241703  92.8301749  51.2333190   5.2729021  94.3164281  50.9867212
   7.3966664  98.2653829  68.9905918   7.3379211  97.5813049  68.3236501
   7.7986183  99.0072819  68.5386544   7.3984072  96.2293413  67.2219898
   6.5110850  95.8919335  67.3446296   7.9682623  95.4976444  67.4588663
   0.9285225 100.8894866  64.1881141   0.8555397 101.6949837  64.7000445
   0.4862618 101.0886831  63.3629162   4.0271655  85.9361265  60.3418168
   4.5240354  85.1831227  60.0219238   3.2558636  85.9725582  59.7761377
  11.8801412  91.6401631  61.9836459  11.8691289  92.5226346  61.6130392
  11.0118792  91.2873181  61.7890996   3.3883909 100.7881700  66.3439299
   4.1011881 101.4229164  66.2715201   2.8973937 100.8845566  65.5279301
   5.1101436  94.6932952  57.9156591   4.1757714  94.8134415  57.7461295
   5.2878104  93.7905419  57.6516601   8.4973987  90.5350272  58.4506625
   8.9634439  91.3678263  58.3766928   8.9481487  90.0695253  59.1551884
   6.5650218  96.8794093  55.4492777   6.8410062  96.7650687  56.3586651
   5.6954717  96.4811578  55.4104950   6.4690650  82.9030859  62.4897527
   5.5553729  83.1335085  62.6579734   6.8983751  82.9869303  63.3411559
   6.2397108  91.0920750  64.9897421   5.5868558  91.3396658  64.3349873
   6.6177488  90.2784889  64.6559898   3.2004282 101.1280444  59.0925591
   3.3826677 100.3102100  59.5553343   4.0237268 101.3448136  58.6550481
   3.5346448 100.0548629  56.3540639   4.0634214  99.5441083  55.7410801
   3.7974667  99.7391159  57.2186172   2.2884681  91.8340562  71.4763458
   1.6125318  91.7334691  72.1465833   3.1112315  91.6779775  71.9399455
   1.0307464 103.1407489  65.7121074   1.5825772 103.3039110  66.4770159
   1.3713658 103.7311927  65.0401099   5.8818338  97.9668746  71.5669728
   6.4258242  98.5798705  71.0724683   5.3005183  98.5248325  72.0836741
   4.1675851 101.0889465  62.6984756   4.0426991 100.2879204  62.1895701
   4.8254942 101.5835658  62.2098726   6.2310760  98.8898485  64.3264306
   5.2841095  98.7703836  64.2542633   6.5793533  98.0020983  64.4090567
   3.2357193  98.6851201  60.5268658   3.0882155  97.7567908  60.7076228
   4.0610687  98.7071292  60.0425733   6.8391315  99.5079760  61.6133531
   7.7637862  99.3022621  61.4757982   6.6706618  99.2596161  62.5222872
   3.2318707  86.5389038  55.5200775   3.4482322  87.4213676  55.2189604
   2.7512774  86.1475252  54.7906417   1.6840442  86.9214640  64.1905537
   1.4258220  87.8431711  64.1889867   1.1525483  86.5245074  64.8806001
   6.6286631 100.0265427  56.9695622   6.8023509  99.4611849  56.2169475
   7.1215522 100.8266322  56.7875112   2.1042398  83.0546590  60.5506700
   2.1264095  83.1185923  59.5958679   2.5210457  82.2151099  60.7447206
  12.4826022  92.7901850  58.5885922  12.9257168  92.0409175  58.1905045
  11.6052533  92.7811986  58.2059654   7.6161804  99.3432191  54.0692521
   8.3112708  99.9638884  54.2879835   7.9584954  98.4927543  54.3444899
   9.5153227  96.7931897  55.5979851  10.0404551  97.1319170  54.8729171
   9.4275579  95.8578912  55.4142986   1.1773275 100.7065971  67.7269728
   1.4860402 100.4615117  68.5992428   1.9748757 100.9112609  67.2388598
   1.1993887 102.8603880  59.9575105   0.7598878 102.3680259  60.6507961
   1.9502004 102.3176848  59.7167180   9.2047133  97.4264801  70.9031049
   8.4142676  97.4088939  70.3635549   8.9680487  97.9653094  71.6580086
   9.3245008  94.2757267  68.2163778   9.3743013  94.1107274  69.1579301
   9.2158931  93.4084526  67.8261659   6.6148770  90.2588195  69.5323085
   7.5158633  90.1194660  69.2407082   6.6896745  90.4242650  70.4721262
  10.8263205  96.6954208  68.4605799  10.5348013  97.0584189  69.2969260
  10.2135336  95.9821217  68.2819132  12.0258887  94.2607088  60.9808370
  12.8605778  94.6996892  61.1445930  12.1618016  93.7845741  60.1616615
   9.0750393  91.8186823  66.9285857   9.5504514  92.0114469  66.1204709
   8.1515958  91.8746009  66.6829241   3.6530609  83.8534667  65.8941691
   4.1712553  84.5895694  65.5688180   3.2985742  84.1598660  66.7288450
   3.9043203  80.2734949  61.4142588   4.1844957  79.6058138  62.0403014
   4.6893810  80.4664045  60.9017252   1.7076672  99.4493943  52.9767614
   1.1350639 100.0684130  52.5238086   2.2809466  99.9993305  53.5107536
   7.7752062  88.6952583  65.1614163   8.7269485  88.7950681  65.1826387
   7.6055512  87.9030852  65.6712247   5.7966441  85.7808166  65.3473564
   5.2016373  86.0613179  64.6520053   5.5116138  86.2702067  66.1190305
   4.9273932  99.7331093  54.1076197   5.8604605  99.6676655  54.3109072
   4.8397145 100.5687360  53.6490729   7.5561948  99.0496964  51.0680144
   7.4775580  98.7156827  51.9615902   8.3771615  99.5418731  51.0671616
  10.2540140  91.9158703  64.2756463  10.2216460  90.9774704  64.4616147
  10.8640763  91.9942740  63.5422288   2.0923470  90.7854756  50.3183667
   3.0382575  90.6560964  50.3872085   1.7137715  90.0469418  50.7953095
  10.4034628  88.7069746  64.3214746   9.8873677  87.9228203  64.1344675
  11.2874577  88.3788463  64.4861265   8.0645355  82.4510762  60.2810559
   7.8670176  82.1425850  61.1653891   8.6745061  83.1772401  60.4108488
  16.0716689  92.9774710  63.4162499  16.8020078  92.7159998  63.9770203
  15.4623635  92.2403432  63.4564567  14.1531987  91.1182572  64.0136951
  13.4265150  90.9838537  63.4053442  13.7379273  91.4259401  64.8193669
   1.9762163  94.8372502  71.7784324   2.8965172  95.0151101  71.9724370
   1.9411746  93.8928547  71.6264023   1.8928453  83.2541622  56.4082793
   1.0829182  82.9088707  56.7838039   2.5812870  82.9449166  56.9970405
   3.8219002  82.3319669  58.0307090   4.3750040  82.7515122  58.6897113
   4.0589088  81.4055417  58.0730046   7.1997809  84.4420194  57.5385754
   6.6196478  85.1004998  57.1563807   6.9333741  83.6197539  57.1273172
   5.6501375  83.8425252  59.7407074   6.1501153  83.9541786  58.9321393
   6.2936983  83.5386304  60.3807883   5.9822687  86.6020284  56.5942102
   5.0948542  86.8869935  56.3762297   6.3976676  86.4414048  55.7469379
   9.3337223  86.6266805  60.3096442  10.1097613  87.1163258  60.5821058
   8.6085357  87.0524859  60.7668311  11.7709782  87.3394424  61.3670382
  12.3654272  87.0990160  60.6563691  11.8436365  86.6201555  61.9943919
   5.1265900  96.3664959  50.6890122   5.8301750  96.5714961  51.3047778
   4.4028549  96.9341721  50.9539206   5.9563711  92.1174820  56.8092393
   5.8998912  92.5743372  55.9700025   6.5092053  91.3565505  56.6315235
   9.7668516  87.9064552  57.6342512   9.5105451  87.5061188  58.4650720
   9.1421384  88.6208346  57.5092651  14.0780854  90.6460625  60.1413803
  13.5180412  90.7153815  60.9145366  13.4724358  90.4701610  59.4213300
   7.0352598  96.8047488  52.7388582   7.8698202  96.3728687  52.5566057
   6.8736941  96.6329502  53.6665477   6.6898490  93.3079601  54.1044922
   6.6347294  93.1423873  53.1633366   6.0644545  94.0155634  54.2607111
   4.0044397  95.6128513  73.4298485   4.8735557  95.7869166  73.0685119
   3.5251148  96.4322930  73.3074214   3.8146735  79.4030487  57.9376177
   3.0479131  78.8488974  58.0832859   4.2257440  79.4752356  58.7990329
  15.6636873 107.3217139  62.8343759  16.3015283 107.2023887  62.1307099
  15.5457716 108.2697983  62.8931711  12.4726579 107.2744567  62.7705284
  12.1345091 107.1585632  61.8825819  13.3416347 106.8735732  62.7506290
  12.9546362 108.4279419  68.7291489  12.9435003 108.0332217  67.8571993
  13.1167001 107.6945492  69.3225261  10.1734858 106.0432815  52.1022224
  10.4260379 105.5214336  51.3405687   9.2359417 105.8798960  52.2048908
  15.2178141 105.0468593  59.9096967  16.0041230 104.6288016  59.5587384
  15.4816846 105.9514685  60.0778616  20.6186568 104.9843826  60.8129946
  21.3511740 104.4143043  61.0467775  19.8625924 104.5965427  61.2536451
  12.2362688 107.4071068  58.0093288  11.8720895 106.8801689  58.7206210
  13.0929804 107.0169537  57.8359774  18.1411989  98.6965400  65.2724554
  17.8095313  99.5660811  65.0485769  17.5457602  98.3801684  65.9518585
  11.8768175 102.4360968  53.0054637  12.0442577 103.3041204  53.3725108
  11.6865344 102.5988249  52.0815926  18.0340652 103.4160487  62.3517904
  17.1257529 103.3475895  62.0576665  17.9828248 103.8932432  63.1799730
  11.8557396 104.8918625  53.9901304  11.7357021 105.3375676  54.8286784
  11.1609984 105.2403943  53.4314842  12.1081518 104.8350132  70.2952802
  11.3314852 105.3944052  70.2855666  12.7472081 105.3206915  70.8167672
  19.9002298 101.6176925  64.1295778  19.2576679 101.9109458  63.4835573
  19.3957227 101.5029845  64.9348975  17.5542462 105.3640098  54.8181638
  18.4660318 105.5967485  54.6429335  17.0452109 105.9477142  54.2556716
  15.8383230 109.7864726  68.4542930  16.2466586 109.3447137  67.7097563
  15.1160491 109.2117354  68.7077123  12.1914300 104.7237333  65.8276487
  13.0375495 105.1476746  65.9711136  12.1312937 104.0670957  66.5215050
  15.3413745 102.3841701  67.4857661  15.0974677 103.1383762  66.9491936
  15.6173676 102.7627049  68.3204908  17.2952208 108.9280314  66.1634926
  17.5069103 109.5712073  65.4869307  17.2481956 108.0942630  65.6956856
  14.8978437 101.5398134  63.0671498  14.0362916 101.8379388  63.3588236
  14.9240872 101.7568533  62.1352531  10.6508892 106.2063477  56.2834869
  11.3532936 106.6584521  56.7508796  10.3189521 105.5647296  56.9114762
   9.0989254 104.7975234  70.6586079   8.4687914 105.4791515  70.8921475
   8.9925342 104.6858315  69.7139217   4.3934226 104.4647030  61.5852003
   3.6033280 104.7204558  61.1092113   4.8845474 105.2795368  61.6904043
   6.3448972 104.8291609  58.5435480   5.5480135 104.9410303  59.0618975
   6.1174564 105.1678261  57.6776370  26.5004029 108.1491017  60.6842255
  25.7467737 107.5798415  60.5286260  26.6351570 108.1153682  61.6312890
   8.3769997  99.0996000  73.0211330   7.9836942  98.5462198  73.6958974
   9.1936137  99.4106578  73.4117847  11.2937958 100.5153879  70.6131586
  12.0347671 101.1161032  70.5336049  11.5255880  99.7731516  70.0549629
   6.4379296 105.7010246  68.8909816   6.3232811 104.7995503  69.1916915
   5.5823813 105.9473943  68.5394633  15.2395121  96.5434982  64.8895868
  14.8959390  97.4336623  64.8134979  15.6074083  96.3536639  64.0265453
  15.2045403 106.5343593  53.3968303  14.6892027 107.3048197  53.6356690
  14.9322712 105.8608729  54.0201365  12.7892514 101.3793293  58.4553541
  11.9334111 100.9900144  58.2759180  13.2019466 101.4585254  57.5953327
  14.3191661  98.9139637  62.8545101  13.8156456  98.8769772  62.0412906
  14.6122268  99.8232379  62.9141758  10.5634547  98.9978366  61.8611283
  11.4287544  98.8021175  61.5017172  10.6312056  98.7688718  62.7880640
  20.1779677 109.2875947  55.3321477  19.4009120 108.9487107  54.8876639
  20.8571158 109.2928571  54.6576442  14.9931706 104.4070685  55.2228084
  14.6881842 104.7216834  56.0738227  15.9462149 104.4852105  55.2655417
  18.4170984 108.7609929  61.9888085  17.7594659 109.4509190  62.0768213
  19.2211383 109.1506361  62.3322071   8.1696866 101.2280574  59.2327650
   8.7440618 101.0055756  58.5000843   8.7567848 101.2969269  59.9856251
  17.2276443 107.1154301  60.0392026  17.7408325 107.7484293  60.5413736
  17.8777667 106.5155497  59.6735386   8.4966453 103.2585035  53.2523535
   7.6603765 103.5959722  53.5732810   8.3571223 103.1234015  52.3150672
  10.4719534  98.1021823  57.9602719   9.8183946  97.7870840  57.3359334
  10.4300008  97.4797564  58.6862542  11.5830738 108.3841118  49.8756011
  10.6757800 108.1530372  50.0747160  12.0801770 107.5878738  50.0629993
  13.7057274 104.5903757  62.2850367  12.7879835 104.8118704  62.1272055
  14.1217418 104.6650067  61.4262074  14.4892322 105.9895173  57.4153047
  15.2364141 106.5016570  57.1060169  14.7583911 105.6679225  58.2757441
  12.7618972 108.4853713  54.3980001  11.8530191 108.2012746  54.4952471
  12.7914056 108.9052792  53.5383308  16.9371159 103.0252289  59.3971836
  16.1993916 102.5129675  59.7282079  17.1897932 102.5852670  58.5855113
  17.0382786  95.8028541  59.9913606  17.3441663  94.9425904  59.7039521
  17.7635391  96.3946161  59.7912600  11.3103866 106.0982334  60.4989797
  11.3652476 105.1456170  60.4232273  10.4995068 106.2541773  60.9831095
   9.2496226 104.7159394  58.2580176   8.4364091 105.0153564  58.6645368
   9.7455220 104.3215082  58.9754658  14.8470438 105.1801218  67.0895069
  15.2019825 105.4072691  67.9489535  15.4942569 105.5119595  66.4672325
  20.5768174 108.3019654  57.7944398  20.4386073 108.4921250  56.8665588
  20.2204393 109.0639037  58.2512450   8.7410301 102.2877749  63.8741411
   9.3809680 102.1466508  63.1764374   7.9087831 102.0012263  63.4980013
  20.6037554 110.3696181  62.8055670  21.0374061 110.2771470  63.6538724
  21.3169135 110.3453681  62.1675686   5.8253368 105.7323261  56.0636156
   4.8950956 105.6707717  56.2806118   5.9210840 105.2099214  55.2672797
   5.7438917 102.2578074  58.6514397   6.0045734 103.1723407  58.5423558
   6.5656089 101.7902517  58.8011010   7.2163842 103.6715831  65.8213222
   7.8886896 103.4633193  65.1725871   6.3893629 103.4737917  65.3818454
  21.4653104 110.4119882  65.3388555  21.6588994 111.3165692  65.5847830
  21.3653722 109.9527301  66.1727140  13.1189414 100.2977772  67.8378883
  12.4717329 100.9967722  67.7443359  13.8890430 100.7313916  68.2055131
  13.2953549 108.1358537  65.8975702  14.2245609 108.2869697  65.7244670
  12.8744579 108.2242558  65.0424349   7.6191340 106.9458434  66.5815659
   7.4811138 106.2138673  67.1827198   8.5296263 106.8567334  66.2999847
  16.5806287 108.8846839  51.3300138  15.9635458 108.1593667  51.2333190
  16.1122776 109.6456199  50.9867212  10.2473640 106.6578394  66.0699339
  10.9573259 106.0171586  66.0285957  10.2042948 106.9091288  66.9925519
   8.9602574 103.6443611  67.8894978   8.4239931 103.1934350  68.5416574
   8.3719283 103.7789520  67.1465442   8.3704833 103.1032263  50.4521442
   7.4934300 102.9821064  50.0883688   8.8462586 102.3118341  50.2000330
   4.6941695 102.7799619  64.9747973   4.6099884 102.1725289  64.2398383
   3.8724402 103.2708637  64.9757469  14.8665409 101.2653183  60.3418168
  15.3634109 100.5123145  60.0219238  14.0952391 101.3017499  59.7761377
  22.7195167 106.9693548  61.9836459  22.7085043 107.8518264  61.6130392
  21.8512546 106.6165099  61.7890996  11.4500378 103.4070566  60.0689852
  11.0798166 102.8541606  60.7570758  11.9459471 102.8028699  59.5164852
  19.3367741 105.8642189  58.4506625  19.8028194 106.6970181  58.3766928
  19.7875242 105.3987171  59.1551884  17.3084404  98.2322776  62.4897527
  16.3947484  98.4627003  62.6579734  17.7377506  98.3161220  63.3411559
  17.0790863 106.4212668  64.9897421  16.4262313 106.6688576  64.3349873
  17.4571243 105.6076806  64.6559898  13.1278436 107.1632479  71.4763458
  12.4519073 107.0626609  72.1465833  13.9506070 107.0071693  71.9399455
   6.8465712 100.8174556  66.3142958   6.9107038 101.6789387  65.9020356
   6.7832832 100.2048558  65.5815317   6.3217984 102.8897689  69.9615993
   6.9490023 102.5074766  70.5753517   5.4645903 102.6711891  70.3271685
   3.0983527 104.6974118  55.8934347   3.3936968 103.7884797  55.8401401
   2.1971563 104.6761858  55.5715350   6.6277774 102.7730115  61.8761896
   5.9064360 103.3866082  61.7369369   7.4171030 103.3087880  61.7978542
   9.4304088 100.1084541  68.1502548   9.9538489 100.3546838  68.9128857
   9.2116421 100.9404576  67.7305685   4.8271369 102.3788216  56.0173673
   4.4984075 101.4985595  55.8348779   5.1810739 102.3235884  56.9050062
   7.9413192 102.6661186  56.3849150   8.2809264 103.1947107  55.6627759
   8.3885312 103.0041592  57.1607717  10.6356633 101.0498236  65.8352218
  10.2953453 100.2506049  66.2372898   9.9295639 101.3499947  65.2629052
  11.2873104  98.1347549  64.2879541  12.1099174  97.6608027  64.1658432
  11.5311168  98.9138032  64.7878228   9.9281339 101.1635807  54.5842443
  10.6489701 101.5417060  54.0806160   9.3046643 101.8824684  54.6877421
  14.0712462 101.8680956  55.5200775  14.2876076 102.7505594  55.2189604
  13.5906529 101.4767170  54.7906417   8.8111683 104.8266669  62.0971520
   8.6656264 105.1406972  62.9895801   8.3336887 105.4451570  61.5442419
  10.6708066 101.8169217  62.1452410  10.6569635 100.9210311  61.8084707
  11.3880494 101.8239881  62.7790696  12.5234197 102.2506558  64.1905537
  12.2651975 103.1723628  64.1889867  11.9919237 101.8536992  64.8806001
  10.0744962 100.6983598  57.4139980  10.1960873  99.7700244  57.6130867
   9.7847004 100.7122284  56.5018295  12.9436152  98.3838508  60.5506700
  12.9657849  98.4477841  59.5958679  13.3604211  97.5443017  60.7447206
  23.3219777 108.1193768  58.5885922  23.7650923 107.3701093  58.1905045
  22.4446287 108.1103904  58.2059654   9.5586042 102.2115595  71.6229912
   9.6074197 103.0877718  71.2407682  10.1008556 101.6692988  71.0501556
  20.1638762 109.6049185  68.2163778  20.2136767 109.4399192  69.1579301
  20.0552686 108.7376444  67.8261659  17.4542525 105.5880113  69.5323085
  18.3552387 105.4486578  69.2407082  17.5290499 105.7534567  70.4721262
  11.7885330 102.9646967  68.3776271  10.9188639 103.2580533  68.1058859
  12.0244810 103.5487412  69.0983535  22.8652641 109.5899006  60.9808370
  23.6999533 110.0288810  61.1445930  23.0011770 109.1137659  60.1616615
  19.9144147 107.1478741  66.9285857  20.3898269 107.3406387  66.1204709
  18.9909713 107.2037927  66.6829241  14.4924364  99.1826584  65.8941691
  15.0106308  99.9187611  65.5688180  14.1379497  99.4890578  66.7288450
   6.0723301 104.0431266  54.0103097   5.3792546 104.1175621  53.3543133
   5.8275053 103.2791609  54.5324614  14.7436958  95.6026867  61.4142588
  15.0238712  94.9350056  62.0403014  15.5287565  95.7955962  60.9017252
  18.6145816 104.0244501  65.1614163  19.5663239 104.1242599  65.1826387
  18.4449267 103.2322769  65.6712247  16.6360196 101.1100084  65.3473564
  16.0410128 101.3905097  64.6520053  16.3509893 101.5993985  66.1190305
  21.0933894 107.2450621  64.2756463  21.0610214 106.3066621  64.4616147
  21.7034518 107.3234657  63.5422288  12.9317225 106.1146674  50.3183667
  13.8776330 105.9852882  50.3872085  12.5531470 105.3761335  50.7953095
  21.2428383 104.0361664  64.3214746  20.7267431 103.2520121  64.1344675
  22.1268331 103.7080381  64.4861265  18.9039110  97.7802680  60.2810559
  18.7063931  97.4717768  61.1653891  19.5138815  98.5064318  60.4108488
  26.9110444 108.3066627  63.4162499  27.6413832 108.0451916  63.9770203
  26.3017389 107.5695349  63.4564567  24.9925741 106.4474490  64.0136951
  24.2658905 106.3130455  63.4053442  24.5773028 106.7551319  64.8193669
  11.1160142 104.0396650  50.2538552  10.2091598 103.7429763  50.3301266
  11.3936123 103.7426468  49.3872838  12.7322208  98.5833540  56.4082793
  11.9222936  98.2380625  56.7838039  13.4206625  98.2741083  56.9970405
  14.6612756  97.6611586  58.0307090  15.2143795  98.0807040  58.6897113
  14.8982843  96.7347335  58.0730046  10.6845855 103.6498660  73.8109854
  10.5842582 104.5993017  73.7421945  10.4667397 103.3216899  72.9385924
   9.8858927 100.8983585  50.3950531  10.7478091 101.2238483  50.6546348
  10.0709271 100.1115081  49.8823597  18.0391563  99.7712112  57.5385754
  17.4590232 100.4296916  57.1563807  17.7727496  98.9489456  57.1273172
  16.4895130  99.1717169  59.7407074  16.9894908  99.2833704  58.9321393
  17.1330738  98.8678222  60.3807883  10.5477125 107.0795799  72.6274915
  10.0644207 107.8796159  72.8338804  10.6338064 107.0903744  71.6742359
  16.8216441 101.9312202  56.5942102  15.9342296 102.2161853  56.3762297
  17.2370430 101.7705965  55.7469379  20.1730977 101.9558723  60.3096442
  20.9491368 102.4455175  60.5821058  19.4479112 102.3816777  60.7668311
  22.6103536 102.6686342  61.3670382  23.2048027 102.4282078  60.6563691
  22.6830120 101.9493473  61.9943919  16.7957465 107.4466738  56.8092393
  16.7392666 107.9035289  55.9700025  17.3485807 106.6857422  56.6315235
  20.6062271 103.2356470  57.6342512  20.3499205 102.8353105  58.4650720
  19.9815139 103.9500264  57.5092651  24.9174609 105.9752543  60.1413803
  24.3574167 106.0445732  60.9145366  24.3118112 105.7993528  59.4213300
  17.5292244 108.6371519  54.1044922  17.4741048 108.4715791  53.1633366
  16.9038300 109.3447552  54.2607111   2.3184759 103.8739584  67.9306344
   2.9643623 103.3638538  68.4193569   2.1101910 104.6108265  68.5049769
  10.8388370  98.1379628  53.6830240  10.8267040  99.0821468  53.8398511
  11.7311792  97.9549774  53.3889701  14.6540489  94.7322405  57.9376177
  13.8872885  94.1780891  58.0832859  15.0651194  94.8044274  58.7990329
   6.6582250 101.0207201  72.0281358   7.5213712 100.6644005  72.2384683
   6.0847661 100.6821095  72.7156762  26.0788875 111.8726899  64.8895868
  25.7353144 112.7628541  64.8134979  26.4467838 111.6828557  64.0265453
  27.8776541 111.1320458  59.9913606  28.1835417 110.2717822  59.7039521
  28.6029145 111.7238079  59.7912600  28.1478159 113.5614694  62.4897527
  27.2341238 113.7918921  62.6579734  28.5771260 113.6453138  63.3411559
  25.5830712 110.9318785  61.4142588  25.8632466 110.2641974  62.0403014
  26.3681319 111.1247880  60.9017252  29.7432864 113.1094597  60.2810559
  29.5457685 112.8009685  61.1653891  30.3532570 113.8356236  60.4108488
  25.5006511 112.9903504  58.0307090  26.0537549 113.4098958  58.6897113
  25.7376597 112.0639252  58.0730046  25.4934244 110.0614322  57.9376177
  24.7266640 109.5072809  58.0832859  25.9044949 110.1336191  58.7990329
   4.8216521  54.4969305  47.4087562   4.0680230  53.9276703  47.2531566
   4.9564062  54.4631969  48.3558196   1.6432269  54.4672055  45.3131229
   2.0863415  53.7179380  44.9150352   0.7658779  54.4582191  44.9304961
   1.1865134  55.9377293  47.7053676   2.0212025  56.3767097  47.8691237
   1.3224262  55.4615946  46.8861922   5.2322936  54.6544915  50.1407806
   5.9626325  54.3930203  50.7015509   4.6229882  53.9173637  50.1809874
   3.3138233  52.7952777  50.7382257   2.5871397  52.6608742  50.1298749
   2.8985520  53.1029606  51.5438975   0.9316028  49.0164629  48.0915689
   1.5260519  48.7760365  47.3808997   1.0042612  48.2971760  48.7189225
   3.2387101  52.3230830  46.8659110   2.6786659  52.3924020  47.6390672
   2.6330604  52.1471815  46.1458606   4.8243119  68.9987344  49.5589066
   5.4621529  68.8794092  48.8552406   4.7063962  69.9468188  49.6177018
   1.6332826  68.9514772  49.4950591   1.2951337  68.8355837  48.6071125
   2.5022594  68.5505937  49.4751597   2.1152609  70.1049624  55.4536796
   2.1041250  69.7102422  54.5817300   2.2773248  69.3715697  56.0470568
   3.0719200  74.4721216  40.7961946   2.4207180  75.0575297  40.4095960
   3.8663563  75.0027411  40.8556984   4.3784388  66.7238798  46.6342274
   5.1647477  66.3058221  46.2832691   4.6423092  67.6284890  46.8023922
   4.5494465  72.1611648  41.3330931   3.9140298  72.2346275  42.0451835
   4.2191872  72.7505247  40.6550010   9.7792815  66.6614031  47.5375252
  10.5117987  66.0913248  47.7713082   9.0232171  66.2735632  47.9781758
   1.3968935  69.0841273  44.7338595   1.0327142  68.5571894  45.4451516
   2.2536051  68.6939742  44.5605080   7.3018235  60.3735605  51.9969861
   6.9701560  61.2431016  51.7731076   6.7063849  60.0571889  52.6763891
   1.0374422  64.1131172  39.7299943   1.2048824  64.9811409  40.0970414
   0.8471591  64.2758454  38.8061233   3.7949755  72.5748151  51.3965774
   3.4950478  73.4773190  51.2881581   3.4500815  72.3080335  52.2486927
   7.1946899  65.0930692  49.0763211   6.2863776  65.0246100  48.7821972
   7.1434495  65.5702636  49.9045037   1.2687765  66.5120337  57.0198108
   0.4921099  67.0714257  57.0100973   1.9078328  66.9977120  57.5412978
   9.0608545  63.2947130  50.8541085   8.4182925  63.5879663  50.2080880
   8.5563474  63.1800050  51.6594282   6.7148709  67.0410303  41.5426944
   7.6266565  67.2737690  41.3674642   6.2058356  67.6247347  40.9802023
   4.9989477  71.4634931  55.1788237   5.4072833  71.0217341  54.4342869
   4.2766738  70.8887558  55.4322430   1.3520547  66.4007538  52.5521794
   2.1981742  66.8246951  52.6956443   1.2919184  65.7441162  53.2460357
   5.3218291  72.0236122  48.9340526   4.6927154  72.1881836  48.2316594
   4.9343953  72.4377731  49.7051490   9.2007523  72.9590559  46.2884889
   8.5158561  73.3389461  45.7381923   9.2851372  73.5685886  47.0216837
   4.5019992  64.0611906  54.2102967   4.2580924  64.8153967  53.6737243
   4.7779922  64.4397254  55.0450214   6.4558455  70.6050518  52.8880233
   6.6675350  71.2482278  52.2114614   6.4088203  69.7712835  52.4202163
   4.0584684  63.2168339  49.7916805   3.1969163  63.5149593  50.0833543
   4.0847118  63.4338738  48.8597838   0.8746253  71.7610530  46.1990611
   1.3384599  72.0398233  45.4095233   0.6103051  70.8593974  46.0163701
   7.5704283  73.4822474  51.0602590   8.3921726  73.0802661  50.7785272
   7.5666685  73.3790708  52.0118706   1.3360886  73.0306517  53.2163301
   1.4005319  73.4926924  54.0521473   0.6271810  72.4003882  53.3445611
  15.6610276  69.8261222  47.4087562  14.9073984  69.2568620  47.2531566
  15.7957817  69.7923887  48.3558196   1.0508904  74.6974625  43.0842281
   0.9154578  75.5426160  43.5127129   1.5918716  74.8993902  42.3208215
   2.6777380  75.3198191  57.2142623   2.2341234  74.5334570  56.8963528
   3.3394594  75.5077342  56.5486514   4.7758618  75.6000991  55.2424025
   4.7577094  76.4209872  54.7504294   5.6978538  75.4755066  55.4674166
   1.2331672  73.1145121  56.0847533   1.7660009  72.3533409  55.8546841
   0.7045753  72.8218772  56.8271687   4.4001367  58.2205187  51.6141175
   4.0565637  59.1106828  51.5380285   4.7680330  58.0306844  50.7510760
   4.3651650  68.2113798  40.1213610   3.8498273  68.9818402  40.3601997
   4.0928958  67.5378934  40.7446671   1.9498761  63.0563498  45.1798848
   1.0940357  62.6670349  45.0004487   2.3625713  63.1355459  44.3198634
   3.4797908  60.5909842  49.5790408   2.9762703  60.5539977  48.7658213
   3.7728515  61.5002584  49.6387065   9.3385924  70.9646152  42.0566783
   8.5615367  70.6257312  41.6121945  10.0177405  70.9698775  41.3821748
   4.1537953  66.0840890  41.9473391   3.8488089  66.3987039  42.7983534
   5.1068395  66.1622310  41.9900724   2.5984385  72.2431113  43.5966345
   2.0705747  71.5083873  43.2839582   2.0971888  73.0205789  43.3506313
   7.5777231  70.4380134  48.7133391   6.9200905  71.1279395  48.8013520
   8.3817630  70.8276565  49.0567378   6.3882690  68.7924506  46.7637333
   6.9014572  69.4254498  47.2659043   7.0383914  68.1925702  46.3980693
   3.6505064  78.7708831  39.5198004   2.9766763  79.0740527  40.1282962
   4.0370886  79.5737911  39.1703461   2.8663521  66.2673962  49.0095673
   1.9486082  66.4888909  48.8517362   3.2823664  66.3420272  48.1507381
   3.6498568  67.6665377  44.1398354   4.3970387  68.1786775  43.8305476
   3.9190158  67.3449430  45.0002747   1.9225219  70.1623918  41.1225308
   1.0136438  69.8782951  41.2197778   1.9520302  70.5822997  40.2628615
   7.1544486  73.7730508  44.8916476   6.7006813  72.9321418  44.9481666
   6.5238453  74.4091906  45.2291256   6.0977406  64.7022494  46.1217143
   5.3600162  64.1899880  46.4527386   6.3504179  64.2622875  45.3100420
   5.5977425  75.6107004  45.8266294   5.8900400  76.1712061  45.1078659
   6.1076046  75.9035565  46.5819453   6.1989033  57.4798746  46.7158912
   6.5047910  56.6196109  46.4284827   6.9241638  58.0716366  46.5157906
   1.6201306  71.7032662  38.4613387   1.1820736  70.9868521  38.0019024
   2.3611747  71.9308777  37.8998478   0.5611050  76.3887355  46.9159747
   0.5187229  76.6148202  45.9868279   1.4773749  76.1550730  47.0645548
   4.0076684  66.8571423  53.8140376   4.3626072  67.0842896  54.6734842
   4.6548816  67.1889800  53.1917631   9.7374421  69.9789859  44.5189705
   9.5992320  70.1691455  43.5910894   9.3810640  70.7409242  44.9757756
   9.7643801  72.0466386  49.5300977  10.1980307  71.9541675  50.3784031
  10.4775382  72.0223886  48.8920993   3.4971696  75.6468480  51.0634077
   3.5508718  76.2159416  51.8311793   2.6286477  75.8170365  50.6988114
  10.6259350  72.0890087  52.0633862  10.8195240  72.9935897  52.3093137
  10.5259969  71.6297506  52.8972447   2.2795661  61.9747977  54.5624189
   1.6323576  62.6737927  54.4688666   3.0496677  62.4084121  54.9300438
   5.6874459  72.2396829  57.6374743   5.5359965  72.0107381  56.7204826
   5.6779139  73.1967431  57.6506088   2.4559795  69.8128742  52.6221009
   3.3851855  69.9639902  52.4489976   2.0350825  69.9012763  51.7669656
   1.8496279  78.9388503  41.7345083   2.0248035  78.4676546  42.5490706
   1.1629067  79.5654269  41.9626344   2.8053342  73.2161009  47.7808385
   2.4703175  73.1761779  48.6766034   2.3057288  72.5505725  47.3078795
   5.7412534  70.5617043  38.0545444   5.1241705  69.8363872  37.9578497
   5.2729023  71.3226404  37.7112518   7.3966666  75.2715952  55.7151225
   7.3379212  74.5875172  55.0481808   7.7986184  76.0134942  55.2631851
   7.3984073  73.2355536  53.9465204   6.5110852  72.8981458  54.0691603
   7.9682624  72.5038567  54.1833970   0.9285226  77.8956988  50.9126447
   0.8555398  78.7011960  51.4245752   0.4862619  78.0948954  50.0874469
   4.0271656  62.9423388  47.0663474   4.5240356  62.1893350  46.7464545
   3.2558638  62.9787704  46.5006684  11.8801414  68.6463753  48.7081766
  11.8691290  69.5288469  48.3375699  11.0118793  68.2935304  48.5136303
   3.3883910  77.7943822  53.0684606   4.1011882  78.4291287  52.9960508
   2.8973939  77.8907688  52.2524608   5.1101437  71.6995075  44.6401898
   4.1757716  71.8196537  44.4706602   5.2878105  70.7967542  44.3761908
   8.4973988  67.5412394  45.1751932   8.9634440  68.3740386  45.1012235
   8.9481489  67.0757376  45.8797190   6.5650219  73.8856215  42.1738084
   6.8410063  73.7712810  43.0831958   5.6954718  73.4873700  42.1350257
   6.4690651  59.9092981  49.2142833   5.5553731  60.1397208  49.3825040
   6.8983752  59.9931425  50.0656866   6.2397109  68.0982873  51.7142727
   5.5868560  68.3458781  51.0595180   6.6177489  67.2847011  51.3805205
   3.2004283  78.1342566  45.8170898   3.3826678  77.3164222  46.2798650
   4.0237269  78.3510259  45.3795788   3.5346449  77.0610751  43.0785946
   4.0634215  76.5503206  42.4656108   3.7974668  76.7453282  43.9431479
   2.2884682  68.8402684  58.2008764   1.6125319  68.7396813  58.8711140
   3.1112316  68.6841898  58.6644762   1.0307465  80.1469612  52.4366380
   1.5825773  80.3101233  53.2015466   1.3713659  80.7374049  51.7646405
   5.8818340  74.9730869  58.2915035   6.4258244  75.5860827  57.7969990
   5.3005184  75.5310448  58.8082048   4.1675853  78.0951587  49.4230062
   4.0426992  77.2941327  48.9141008   4.8254944  78.5897780  48.9344032
   6.2310761  75.8960607  51.0509613   5.2841096  75.7765958  50.9787939
   6.5793534  75.0083105  51.1335874   3.2357194  75.6913323  47.2513965
   3.0882157  74.7630031  47.4321535   4.0610688  75.7133414  46.7671040
   6.8391316  76.5141882  48.3378838   7.7637864  76.3084743  48.2003289
   6.6706619  76.2658283  49.2468179   3.2318709  63.5451161  42.2446082
   3.4482323  64.4275799  41.9434910   2.7512776  63.1537374  41.5151724
   1.6840444  63.9276762  50.9150844   1.4258221  64.8493833  50.9135174
   1.1525484  63.5307197  51.6051308   6.6286632  77.0327550  43.6940929
   6.8023510  76.4673972  42.9414781   7.1215524  77.8328444  43.5120419
   2.1042399  60.0608713  47.2752006   2.1264096  60.1248046  46.3203986
   2.5210458  59.2213222  47.4692512  12.4826023  69.7963973  45.3131229
  12.9257170  69.0471298  44.9150352  11.6052534  69.7874109  44.9304961
   7.6161805  76.3494314  40.7937827   8.3112709  76.9701007  41.0125142
   7.9584955  75.4989665  41.0690205   9.5153228  73.7994020  42.3225158
  10.0404552  74.1381292  41.5974478   9.4275580  72.8641035  42.1388293
   1.1773277  77.7128093  54.4515035   1.4860403  77.4677240  55.3237734
   1.9748759  77.9174732  53.9633905   1.1993889  79.8666003  46.6820411
   0.7598879  79.3742382  47.3753268   1.9502006  79.3238970  46.4412486
   9.2047134  74.4326923  57.6276356   8.4142678  74.4151062  57.0880855
   8.9680489  74.9715217  58.3825393   9.3245009  71.2819390  54.9409085
   9.3743014  71.1169397  55.8824607   9.2158932  70.4146649  54.5506965
   6.6148771  67.2650318  56.2568391   7.5158634  67.1256782  55.9652389
   6.6896746  67.4304772  57.1966569  10.8263206  73.7016331  55.1851106
  10.5348014  74.0646312  56.0214567  10.2135337  72.9883339  55.0064438
  12.0258888  71.2669211  47.7053676  12.8605780  71.7059015  47.8691237
  12.1618017  70.7907864  46.8861922   9.0750394  68.8248946  53.6531164
   9.5504516  69.0176592  52.8450015   8.1515959  68.8808132  53.4074548
   3.6530611  60.8596789  52.6186998   4.1712554  61.5957816  52.2933487
   3.2985743  61.1660783  53.4533757   3.9043205  57.2797072  48.1387895
   4.1844959  56.6120261  48.7648321   4.6893812  57.4726167  47.6262558
   1.7076673  76.4556066  39.7012921   1.1350640  77.0746253  39.2483393
   2.2809467  77.0055427  40.2352843   7.7752063  65.7014706  51.8859470
   8.7269486  65.8012803  51.9071694   7.6055514  64.9092974  52.3957554
   5.7966443  62.7870289  52.0718871   5.2016375  63.0675302  51.3765359
   5.5116139  63.2764190  52.8435612   4.9273933  76.7393216  40.8321503
   5.8604606  76.6738777  41.0354379   4.8397146  77.5749483  40.3736036
   7.5561950  76.0559086  37.7925451   7.4775581  75.7218950  38.6861209
   8.3771617  76.5480854  37.7916923  10.2540141  68.9220825  51.0001769
  10.2216461  67.9836826  51.1861453  10.8640765  69.0004862  50.2667594
   2.0923472  67.7916878  37.0428973   3.0382576  67.6623087  37.1117391
   1.7137717  67.0531540  37.5198402  10.4034629  65.7131869  51.0460053
   9.8873678  64.9290326  50.8589981  11.2874578  65.3850586  51.2106572
   8.0645356  59.4572884  47.0055865   7.8670177  59.1487973  47.8899197
   8.6745062  60.1834523  47.1353795  16.0716691  69.9836832  50.1407806
  16.8020079  69.7222120  50.7015509  15.4623636  69.2465554  50.1809874
  14.1531988  68.1244695  50.7382257  13.4265151  67.9900660  50.1298749
  13.7379275  68.4321524  51.5438975   1.9762164  71.8434625  58.5029630
   2.8965174  72.0213224  58.6969677   1.9411747  70.8990670  58.3509330
   1.8928455  60.2603745  43.1328100   1.0829183  59.9150830  43.5083346
   2.5812872  59.9511288  43.7215711   3.8219003  59.3381791  44.7552397
   4.3750042  59.7577245  45.4142420   4.0589089  58.4117539  44.7975353
   7.1997810  61.4482317  44.2631061   6.6196479  62.1067121  43.8809113
   6.9333743  60.6259661  43.8518478   5.6501376  60.8487374  46.4652381
   6.1501155  60.9603909  45.6566700   6.2936984  60.5448427  47.1053190
   5.9822688  63.6082407  43.3187409   5.0948543  63.8932058  43.1007604
   6.3976677  63.4476170  42.4714686   9.3337224  63.6328928  47.0341748
  10.1097614  64.1225380  47.3066365   8.6085358  64.0586982  47.4913618
  11.7709783  64.3456547  48.0915689  12.3654274  64.1052283  47.3808997
  11.8436366  63.6263678  48.7189225   5.1265901  73.3727082  37.4135429
   5.8301752  73.5777084  38.0293085   4.4028550  73.9403843  37.6784513
   5.9563712  69.1236943  43.5337699   5.8998913  69.5805494  42.6945332
   6.5092054  68.3627627  43.3560542   9.7668518  64.9126675  44.3587819
   9.5105452  64.5123310  45.1896026   9.1421386  65.6270469  44.2337958
  14.0780856  67.6522748  46.8659110  13.5180414  67.7215937  47.6390672
  13.4724359  67.4763733  46.1458606   7.0352599  73.8109611  39.4633889
   7.8698203  73.3790809  39.2811364   6.8736942  73.6391624  40.3910784
   6.6898491  70.3141724  40.8290228   6.6347295  70.1485995  39.8878673
   6.0644546  71.0217757  40.9852418   4.0044398  72.6190636  60.1543791
   4.8735558  72.7931288  59.7930426   3.5251150  73.4385053  60.0319521
   3.8146736  56.4092610  44.6621484   3.0479132  55.8551096  44.8078166
   4.2257441  56.4814478  45.5235635  15.6636874  84.3279262  49.5589066
  16.3015284  84.2086009  48.8552406  15.5457717  85.2760106  49.6177018
  12.4726580  84.2806690  49.4950591  12.1345092  84.1647755  48.6071125
  13.3416348  83.8797855  49.4751597   8.3313396  86.1342166  45.4847481
   7.7678261  86.0432103  44.7163769   8.2165791  85.3142071  45.9649974
  12.9546363  85.4341542  55.4536796  12.9435004  85.0394340  54.5817300
  13.1167003  84.7007614  56.0470568   5.8777828  87.6293358  48.3231702
   6.6699120  87.2884183  47.9078001   6.1174478  87.7388333  49.2433855
  13.9112955  89.8013134  40.7961946  13.2600934  90.3867215  40.4095960
  14.7057317  90.3319329  40.8556984   7.8368582  86.8902271  41.1949081
   8.6099458  86.3431258  41.0561957   8.1893981  87.7546521  41.4063542
   9.6753624  88.2178654  54.4015980   9.3843490  89.1224284  54.2862646
  10.3110609  88.2595181  55.1160050  10.6009831  85.5955502  50.9917340
  11.1973404  85.3711524  50.2774303  10.6584803  84.8540248  51.5942788
  10.1734860  83.0494937  38.8267531  10.4260380  82.5276459  38.0650994
   9.2359419  82.8861083  38.9294214  15.2178142  82.0530716  46.6342274
  16.0041232  81.6350139  46.2832691  15.4816847  82.9576808  46.8023922
  15.3888220  87.4903566  41.3330931  14.7534053  87.5638193  42.0451835
  15.0585626  88.0797165  40.6550010  20.6186570  81.9905949  47.5375252
  21.3511742  81.4205166  47.7713082  19.8625925  81.6027549  47.9781758
   9.8931148  84.9523043  41.0291906   9.7767406  84.2767947  41.6972990
  10.0033408  84.4655417  40.2124059  12.2362689  84.4133190  44.7338595
  11.8720897  83.8863811  45.4451516  13.0929805  84.0231659  44.5605080
  18.1411990  75.7027523  51.9969861  17.8095315  76.5722934  51.7731076
  17.5457603  75.3863807  52.6763891  11.8768176  79.4423090  39.7299943
  12.0442579  80.3103327  40.0970414  11.6865345  79.6050372  38.8061233
  14.6343509  87.9040069  51.3965774  14.3344233  88.8065108  51.2881581
  14.2894569  87.6372252  52.2486927   8.0855991  84.3553866  47.4302478
   7.1606487  84.2230080  47.6380170   8.3340404  85.1348085  47.9272421
  18.0340653  80.4222609  49.0763211  17.1257531  80.3538018  48.7821972
  17.9828249  80.8994554  49.9045037  11.8557397  81.8980748  40.7146610
  11.7357022  82.3437798  41.5532090  11.1609986  82.2466065  40.1560148
   5.4464802  83.9987139  48.2646267   5.5757183  84.2521618  49.1785679
   4.7662253  84.5914847  47.9450922   9.6164289  94.6684389  44.3636741
   9.5388319  95.6192214  44.4425222   9.0125933  94.3230262  45.0211668
  12.1081519  81.8412255  57.0198108  11.3314853  82.4006175  57.0100973
  12.7472082  82.3269038  57.5412978  19.9002300  78.6239048  50.8541085
  19.2576680  78.9171581  50.2080880  19.3957228  78.5091968  51.6594282
  17.5542463  82.3702221  41.5426944  18.4660319  82.6029608  41.3674642
  17.0452110  82.9539265  40.9802023  10.3627891  84.6497708  56.5816075
  11.1042576  85.1882752  56.3050899   9.6564877  85.2763997  56.7387627
  15.8383231  86.7926849  55.1788237  16.2466587  86.3509259  54.4342869
  15.1160493  86.2179476  55.4322430  12.1914301  81.7299455  52.5521794
  13.0375496  82.1538869  52.6956443  12.1312939  81.0733080  53.2460357
  16.1612046  87.3528039  48.9340526  15.5320908  87.5173753  48.2316594
  15.7737708  87.7669649  49.7051490  20.0401278  88.2882477  46.2884889
  19.3552316  88.6681378  45.7381923  20.1245127  88.8977804  47.0216837
  15.3413746  79.3903824  54.2102967  15.0974678  80.1445884  53.6737243
  15.6173677  79.7689171  55.0450214  17.2952209  85.9342436  52.8880233
  17.5069104  86.5774196  52.2114614  17.2481957  85.1004753  52.4202163
  14.8978438  78.5460257  49.7916805  14.0362917  78.8441510  50.0833543
  14.9240873  78.7630656  48.8597838  11.7140008  87.0902447  46.1990611
  12.1778353  87.3690150  45.4095233  11.4496806  86.1885892  46.0163701
   8.6064089  86.6373929  49.1370374   9.1765446  87.0661197  48.4987859
   9.1972200  86.3556514  49.8354560  10.6508894  83.2125600  43.0080176
  11.3532937  83.6646643  43.4754102  10.3189522  82.5709419  43.6360069
   9.0989255  81.8037356  57.3831385   8.4687916  82.4853637  57.6166782
   8.9925343  81.6920438  56.4384524   4.3934228  81.4709152  48.3097309
   3.6033282  81.7266681  47.8337420   4.8845475  82.2857490  48.4149350
  18.4098037  88.8114392  51.0602590  19.2315481  88.4094579  50.7785272
  18.4060440  88.7082626  52.0118706   6.3448973  81.8353732  45.2680786
   5.5480136  81.9472426  45.7864282   6.1174565  82.1740384  44.4021677
  12.1754641  88.3598435  53.2163301  12.2399073  88.8218842  54.0521473
  11.4665564  87.7295800  53.3445611   2.6771931  81.7239643  50.7412300
   2.9279969  82.6086653  51.0069876   3.2131479  81.5444244  49.9687392
  26.5004030  85.1553140  47.4087562  25.7467739  84.5860538  47.2531566
  26.6351571  85.1215805  48.3558196  11.8902658  90.0266542  43.0842281
  11.7548333  90.8718078  43.5127129  12.4312471  90.2285820  42.3208215
   8.3769998  76.1058122  59.7456636   7.9836943  75.5524321  60.4204281
   9.1936138  76.4168701  60.1363154   5.3432056  87.5441980  43.6570206
   5.8556576  88.3385231  43.8075771   5.9954768  86.8468271  43.5903808
   7.1526940  90.6607737  45.7392959   7.3293569  91.5825701  45.5513943
   7.9483774  90.3466156  46.1687339  11.2937959  77.5216001  57.3376893
  12.0347672  78.1223154  57.2581355  11.5255882  76.7793639  56.7794935
   6.4379297  82.7072369  55.6155123   6.3232812  81.8057626  55.9162222
   5.5823815  82.9536065  55.2639939  13.5171135  90.6490109  57.2142623
  13.0734989  89.8626487  56.8963528  14.1788348  90.8369259  56.5486514
   8.2758256  92.1785910  51.7403302   8.8265681  92.0502974  50.9680296
   7.4369732  92.4780799  51.3898195  15.6152373  90.9292909  55.2424025
  15.5970848  91.7501790  54.7504294  16.5372293  90.8046984  55.4674166
  12.0725427  88.4437038  56.0847533  12.6053764  87.6825326  55.8546841
  11.5439508  88.1510690  56.8271687  15.2395122  73.5497104  51.6141175
  14.8959391  74.4398746  51.5380285  15.6074084  73.3598762  50.7510760
   3.3080972  85.8730635  44.4329777   4.1456194  86.2827643  44.2163484
   3.4859240  84.9330077  44.4029971  15.2045404  83.5405715  40.1213610
  14.6892028  84.3110320  40.3601997  14.9322713  82.8670851  40.7446671
  12.7892516  78.3855416  45.1798848  11.9334112  77.9962266  45.0004487
  13.2019467  78.4647377  44.3198634  14.3191662  75.9201759  49.5790408
  13.8156458  75.8831895  48.7658213  14.6122269  76.8294502  49.6387065
  10.5634548  76.0040489  48.5856590  11.4287545  75.8083298  48.2262479
  10.6312057  75.7750841  49.5125946  20.1779679  86.2938070  42.0566783
  19.4009121  85.9549229  41.6121945  20.8571160  86.2990693  41.3821748
  14.9931708  81.4132807  41.9473391  14.6881843  81.7278957  42.7983534
  15.9462150  81.4914227  41.9900724  13.4378140  87.5723031  43.5966345
  12.9099501  86.8375790  43.2839582  12.9365642  88.3497707  43.3506313
  18.4170986  85.7672051  48.7133391  17.7594660  86.4571313  48.8013520
  19.2211385  86.1568483  49.0567378   8.1696867  78.2342697  45.9572956
   8.7440619  78.0117879  45.2246149   8.7567850  78.3031392  46.7101558
  17.2276444  84.1216424  46.7637333  17.7408326  84.7546416  47.2659043
  17.8777668  83.5217619  46.3980693   8.4966454  80.2647158  39.9768842
   7.6603766  80.6021845  40.2978116   8.3571224  80.1296138  39.0395979
  10.4719535  75.1083946  44.6848026   9.8183947  74.7932963  44.0604641
  10.4300009  74.4859686  45.4107849  11.5830740  85.3903241  36.6001318
  10.6757801  85.1592494  36.7992467  12.0801772  84.5940860  36.7875299
  14.4898819  94.1000748  39.5198004  13.8160517  94.4032445  40.1282962
  14.8764641  94.9029829  39.1703461  13.7057275  81.5965879  49.0095673
  12.7879837  81.8180826  48.8517362  14.1217419  81.6712190  48.1507381
  14.4892323  82.9957295  44.1398354  15.2364142  83.5078692  43.8305476
  14.7583913  82.6741348  45.0002747  12.7618973  85.4915836  41.1225308
  11.8530192  85.2074869  41.2197778  12.7914057  85.9114914  40.2628615
  17.9938241  89.1022425  44.8916476  17.5400568  88.2613335  44.9481666
  17.3632207  89.7383824  45.2291256  16.9371160  80.0314411  46.1217143
  16.1993917  79.5191798  46.4527386  17.1897934  79.5914793  45.3100420
  16.4371180  90.9398922  45.8266294  16.7294154  91.5003979  45.1078659
  16.9469800  91.2327483  46.5819453  17.0382787  72.8090663  46.7158912
  17.3441664  71.9488027  46.4284827  17.7635392  73.4008284  46.5157906
   3.3307144  83.2121350  45.1040510   3.1331543  82.6190711  44.3791577
   2.7753808  82.9073560  45.8216449  11.3103867  83.1044456  47.2235103
  11.3652477  82.1518293  47.1477580  10.4995069  83.2603896  47.7076402
  12.4595061  87.0324580  38.4613387  12.0214491  86.3160438  38.0019024
  13.2005502  87.2600694  37.8998478   9.2496227  81.7221516  44.9825482
   8.4364093  82.0215687  45.3890674   9.7455221  81.3277205  45.6999964
  11.4004805  91.7179273  46.9159747  11.3580984  91.9440119  45.9868279
  12.3167504  91.4842648  47.0645548  14.8470439  82.1863341  53.8140376
  15.2019826  82.4134814  54.6734842  15.4942570  82.5181717  53.1917631
  20.5768176  85.3081777  44.5189705  20.4386074  85.4983373  43.5910894
  20.2204395  86.0701159  44.9757756   8.7410302  79.2939872  50.5986717
   9.3809681  79.1528631  49.9009680   7.9087832  79.0074385  50.2225319
  20.6037555  87.3758304  49.5300977  21.0374062  87.2833593  50.3784031
  21.3169136  87.3515804  48.8920993   9.5170606  88.5942302  46.7121710
  10.3111204  88.0992622  46.5104285   8.8062298  88.0660165  46.3489415
  14.3365450  90.9760398  51.0634077  14.3902473  91.5451334  51.8311793
  13.4680232  91.1462283  50.6988114   5.8253369  82.7385384  42.7881462
   4.8950957  82.6769839  43.0051424   5.9210841  82.2161337  41.9918104
   5.7438918  79.2640197  45.3759704   6.0045736  80.1785530  45.2668864
   6.5656091  78.7964639  45.5256317   7.2163844  80.6777954  52.5458529
   7.8886897  80.4695316  51.8971177   6.3893630  80.4800040  52.1063761
  21.4653105  87.4182004  52.0633862  21.6588995  88.3227815  52.3093137
  21.3653723  86.9589423  52.8972447  13.1189416  77.3039895  54.5624189
  12.4717331  78.0029844  54.4688666  13.8890431  77.7376039  54.9300438
  16.5268214  87.5688747  57.6374743  16.3753720  87.3399299  56.7204826
  16.5172893  88.5259348  57.6506088  13.2953550  85.1420660  52.6221009
  14.2245610  85.2931819  52.4489976  12.8744580  85.2304681  51.7669656
  12.0941882  89.1671324  50.3919547  11.9552967  88.7990109  51.2645485
  11.3056478  89.6818964  50.2203505  12.6890034  94.2680421  41.7345083
  12.8641789  93.7968464  42.5490706  12.0022822  94.8946187  41.9626344
  13.6447097  88.5452927  47.7808385  13.3096930  88.5053697  48.6766034
  13.1451043  87.8797643  47.3078795   7.6191341  83.9520557  53.3060966
   7.4811139  83.2200796  53.9072505   8.5296264  83.8629457  53.0245153
  16.5806289  85.8908961  38.0545444  15.9635459  85.1655789  37.9578497
  16.1122777  86.6518321  37.7112518  10.2473642  83.6640516  52.7944645
  10.9573260  83.0233708  52.7531264  10.2042950  83.9153411  53.7170826
  18.2360420  90.6007870  55.7151225  18.1772966  89.9167090  55.0481808
  18.6379939  91.3426860  55.2631851   8.9602576  80.6505734  54.6140285
   8.4239933  80.1996473  55.2661881   8.3719284  80.7851643  53.8710749
   7.2551119  97.4169783  48.5084943   7.4947717  98.0488308  49.1863962
   6.4120315  97.0657823  48.7950303   8.3704834  80.1094385  37.1766748
   7.4934301  79.9883186  36.8128995   8.8462588  79.3180464  36.9245637
  18.2377827  88.5647453  53.9465204  17.3504606  88.2273375  54.0691603
  18.8076379  87.8330485  54.1833970   4.6941697  79.7861742  51.6993279
   4.6099885  79.1787411  50.9643689   3.8724403  80.2770760  51.7002776
  11.7678981  93.2248906  50.9126447  11.6949152  94.0303877  51.4245752
  11.3256374  93.4240872  50.0874469  11.5568760  92.4620676  44.4229269
  10.7736282  93.0042356  44.5167493  12.2561506  92.9794655  44.8223510
  14.8665411  78.2715305  47.0663474  15.3634110  77.5185268  46.7464545
  14.0952392  78.3079622  46.5006684  22.7195168  83.9755671  48.7081766
  22.7085044  84.8580386  48.3375699  21.8512547  83.6227222  48.5136303
  14.2277664  93.1235740  53.0684606  14.9405637  93.7583205  52.9960508
  13.7367693  93.2199606  52.2524608  15.9495191  87.0286993  44.6401898
  15.0151470  87.1488455  44.4706602  16.1271860  86.1259459  44.3761908
  11.4500379  80.4132688  46.7935159  11.0798167  79.8603729  47.4816065
  11.9459472  79.8090822  46.2410159  19.3367743  82.8704312  45.1751932
  19.8028195  83.7032303  45.1012235  19.7875243  82.4049293  45.8797190
   9.2789578  90.8730183  53.8890177   9.9799037  91.5066666  54.0419571
   8.8084693  91.2144915  53.1285816  17.4043974  89.2148133  42.1738084
  17.6803818  89.1004728  43.0831958  16.5348472  88.8165618  42.1350257
  17.3084405  75.2384899  49.2142833  16.3947485  75.4689126  49.3825040
  17.7377507  75.3223343  50.0656866  17.0790864  83.4274791  51.7142727
  16.4262314  83.6750698  51.0595180  17.4571244  82.6138929  51.3805205
  14.0398038  93.4634484  45.8170898  14.2220432  92.6456140  46.2798650
  14.8631024  93.6802176  45.3795788  14.3740203  92.3902669  43.0785946
  14.9027970  91.8795124  42.4656108  14.6368423  92.0745199  43.9431479
  13.1278437  84.1694602  58.2008764  12.4519074  84.0688731  58.8711140
  13.9506071  84.0133816  58.6644762   4.8757296  90.4066538  50.8221280
   5.4610733  89.6610226  50.9549184   4.6782134  90.7170495  51.7057943
   7.7295951  93.4417786  45.8383722   7.0606326  93.9263913  45.3547762
   7.5908821  93.6887006  46.7527100  11.8701220  95.4761529  52.4366380
  12.4219528  95.6393151  53.2015466  12.2107413  96.0665967  51.7646405
   6.8465713  77.8236679  53.0388265   6.9107040  78.6851510  52.6265663
   6.7832833  77.2110681  52.3060624   6.3217986  79.8959812  56.6861299
   6.9490024  79.5136889  57.2998824   5.4645904  79.6774014  57.0516992
  16.7212094  90.3022787  58.2915035  17.2651998  90.9152745  57.7969990
  16.1398939  90.8602365  58.8082048   3.0983528  81.7036241  42.6179654
   3.3936969  80.7946919  42.5646708   2.1971564  81.6823980  42.2960656
  15.0069607  93.4243505  49.4230062  14.8820747  92.6233245  48.9141008
  15.6648698  93.9189698  48.9344032   6.6277775  79.7792237  48.6007203
   5.9064361  80.3928205  48.4614676   7.4171031  80.3150002  48.5223849
  17.0704515  91.2252525  51.0509613  16.1234851  91.1057876  50.9787939
  17.4187289  90.3375023  51.1335874   9.4304089  77.1146664  54.8747854
   9.9538491  77.3608960  55.6374164   9.2116422  77.9466699  54.4550992
   4.8271370  79.3850338  42.7418979   4.4984076  78.5047717  42.5594085
   5.1810741  79.3298007  43.6295369  14.0750949  91.0205241  47.2513965
  13.9275911  90.0921949  47.4321535  14.9004442  91.0425332  46.7671040
   7.9413193  79.6723308  43.1094457   8.2809266  80.2009229  42.3873065
   8.3885314  80.0103714  43.8853023  17.6785071  91.8433800  48.3378838
  18.6031618  91.6376661  48.2003289  17.5100374  91.5950201  49.2468179
  10.6356634  78.0560359  52.5597525  10.2953454  77.2568172  52.9618205
   9.9295640  78.3562070  51.9874358  11.2873106  75.1409671  51.0124848
  12.1099175  74.6670150  50.8903738  11.5311169  75.9200155  51.5123534
   9.9281340  78.1697930  41.3087750  10.6489703  78.5479183  40.8051467
   9.3046644  78.8886807  41.4122728  14.0712463  78.8743079  42.2446082
  14.2876077  79.7567717  41.9434910  13.5906530  78.4829292  41.5151724
   8.8111684  81.8328792  48.8216827   8.6656265  82.1469095  49.7141108
   8.3336888  82.4513692  48.2687725  10.6708067  78.8231340  48.8697716
  10.6569636  77.9272433  48.5330014  11.3880495  78.8302004  49.5036002
  12.5234198  79.2568680  50.9150844  12.2651976  80.1785751  50.9135174
  11.9919238  78.8599115  51.6051308  17.4680387  92.3619467  43.6940929
  17.6417264  91.7965890  42.9414781  17.9609278  93.1620362  43.5120419
   3.2857347  84.3734136  51.7604488   2.7410815  85.1493944  51.8924762
   4.1636696  84.7204941  51.6023609  10.0744963  77.7045720  44.1385286
  10.1960874  76.7762366  44.3376174   9.7847006  77.7184406  43.2263602
  12.9436154  75.3900631  47.2752006  12.9657850  75.4539964  46.3203986
  13.3604213  74.5505139  47.4692512  23.3219778  85.1255890  45.3131229
  23.7650924  84.3763215  44.9150352  22.4446288  85.1166027  44.9304961
  18.4555559  91.6786232  40.7937827  19.1506464  92.2992924  41.0125142
  18.7978709  90.8281583  41.0690205   4.0723368  83.5004033  54.6534645
   3.3305105  83.6486668  55.2399275   3.7516113  83.7612298  53.7901394
  20.3546982  89.1285937  42.3225158  20.8798307  89.4673210  41.5974478
  20.2669335  88.1932953  42.1388293  12.0167031  93.0420011  54.4515035
  12.3254158  92.7969158  55.3237734  12.8142513  93.2466649  53.9633905
  12.0387643  95.1957920  46.6820411  11.5992633  94.7034299  47.3753268
  12.7895760  94.6530888  46.4412486   4.5179982  91.3869461  46.6845039
   5.3438002  91.0873233  46.3043683   4.1674034  90.6177084  47.1334828
   9.4861515  90.7395930  48.7542713   8.8641525  90.0766635  48.4544941
  10.1566382  90.7657061  48.0716361   2.7188587  89.3055788  47.6433973
   1.8820496  88.8777962  47.4617974   2.6912233  89.4988231  48.5804764
   9.5586043  79.2177718  58.3475219   9.6074198  80.0939840  57.9652989
  10.1008557  78.6755111  57.7746862  20.0440888  89.7618841  57.6276356
  19.2536432  89.7442980  57.0880855  19.8074243  90.3007135  58.3825393
  20.1638764  86.6111307  54.9409085  20.2136768  86.4461315  55.8824607
  20.0552687  85.7438566  54.5506965   9.0475022  89.2899853  42.2301173
   9.1963143  89.9735317  41.5767846   9.8541466  89.2704943  42.7450629
  17.4542526  82.5942235  56.2568391  18.3552389  82.4548700  55.9652389
  17.5290500  82.7596690  57.1966569  11.7885331  79.9709090  55.1021578
  10.9188641  80.2642656  54.8304166  12.0244812  80.5549535  55.8228841
  21.6656960  89.0308249  55.1851106  21.3741769  89.3938229  56.0214567
  21.0529092  88.3175257  55.0064438  22.8652643  86.5961129  47.7053676
  23.6999534  87.0350933  47.8691237  23.0011771  86.1199782  46.8861922
  19.9144149  84.1540863  53.6531164  20.3898270  84.3468510  52.8450015
  18.9909714  84.2100049  53.4074548   6.8027655  85.3165031  43.2362242
   6.5573697  84.4127361  43.4342452   6.9723570  85.3182181  42.2941720
  14.4924365  76.1888707  52.6186998  15.0106309  76.9249734  52.2933487
  14.1379498  76.4952700  53.4533757   6.0723303  81.0493388  40.7348404
   5.3792548  81.1237743  40.0788440   5.8275055  80.2853732  41.2569921
  14.7436959  72.6088989  48.1387895  15.0238713  71.9412179  48.7648321
  15.5287566  72.8018085  47.6262558  12.5470428  91.7847983  39.7012921
  11.9744395  92.4038170  39.2483393  13.1203221  92.3347345  40.2352843
  18.6145818  81.0306623  51.8859470  19.5663240  81.1304721  51.9071694
  18.4449268  80.2384892  52.3957554  16.6360197  78.1162207  52.0718871
  16.0410129  78.3967219  51.3765359  16.3509894  78.6056108  52.8435612
  15.7667688  92.0685133  40.8321503  16.6998361  92.0030695  41.0354379
  15.6790900  92.9041400  40.3736036  18.3955704  91.3851004  37.7925451
  18.3169336  91.0510867  38.6861209  19.2165371  91.8772772  37.7916923
  21.0933895  84.2512743  51.0001769  21.0610215  83.3128744  51.1861453
  21.7034519  84.3296780  50.2667594  12.9317226  83.1208796  37.0428973
  13.8776331  82.9915004  37.1117391  12.5531471  82.3823458  37.5198402
  21.2428384  81.0423787  51.0460053  20.7267433  80.2582243  50.8589981
  22.1268332  80.7142503  51.2106572  18.9039111  74.7864802  47.0055865
  18.7063932  74.4779890  47.8899197  19.5138816  75.5126441  47.1353795
  26.9110445  85.3128750  50.1407806  27.6413834  85.0514038  50.7015509
  26.3017391  84.5757472  50.1809874  24.9925742  83.4536613  50.7382257
  24.2658906  83.3192578  50.1298749  24.5773029  83.7613441  51.5438975
  12.8155919  87.1726542  58.5029630  13.7358928  87.3505141  58.6969677
  12.7805502  86.2282588  58.3509330  11.1160143  81.0458773  36.9783859
  10.2091599  80.7491885  37.0546572  11.3936124  80.7488591  36.1118145
   2.0338084  82.3665136  47.4282905   1.7140868  81.5130444  47.1357279
   1.4871512  82.5813714  48.1840872   5.8117991  85.0827577  51.1452412
   6.0304001  86.0144685  51.1640445   6.2243765  84.7235551  51.9307215
  12.7322209  75.5895662  43.1328100  11.9222937  75.2442747  43.5083346
  13.4206626  75.2803206  43.7215711  14.6612757  74.6673709  44.7552397
  15.2143796  75.0869162  45.4142420  14.8982844  73.7409457  44.7975353
  10.6845857  80.6560783  60.5355160  10.5842584  81.6055140  60.4667252
  10.4667399  80.3279022  59.6631231   9.8858928  77.9045708  37.1195838
  10.7478092  78.2300606  37.3791655  10.0709272  77.1177204  36.6068904
   1.9026344  85.9868047  49.3976027   1.2089815  85.5722000  48.8845981
   2.6499335  86.0288584  48.8009445  18.0391564  76.7774234  44.2631061
  17.4590234  77.4359038  43.8809113  17.7727497  75.9551579  43.8518478
  16.4895131  76.1779292  46.4652381  16.9894909  76.2895826  45.6566700
  17.1330739  75.8740345  47.1053190  10.5477127  84.0857922  59.3520222
  10.0644208  84.8858282  59.5584111  10.6338066  84.0965866  58.3987666
   3.8163086  85.9186301  47.2742041   3.7933774  86.0173988  46.3223925
   4.1263723  86.7651452  47.5959208   6.4750464  87.9762456  51.3888656
   7.4293718  87.9446399  51.3218587   6.2762988  87.5153080  52.2038882
   7.0649846  86.5463572  53.9559454   7.8842735  87.0407651  53.9794291
   7.3386654  85.6295540  53.9277021  16.8216443  78.9374325  43.3187409
  15.9342298  79.2223975  43.1007604  17.2370432  78.7768088  42.4714686
  20.1730979  78.9620846  47.0341748  20.9491369  79.4517298  47.3066365
  19.4479113  79.3878900  47.4913618  22.6103537  79.6748465  48.0915689
  23.2048028  79.4344201  47.3808997  22.6830121  78.9555595  48.7189225
   4.8300693  93.5182076  48.4058854   4.6955161  92.7582477  47.8396852
   4.4132755  94.2422976  47.9387643  15.9659656  88.7018999  37.4135429
  16.6695506  88.9069002  38.0293085  15.2422305  89.2695761  37.6784513
  16.7957466  84.4528860  43.5337699  16.7392668  84.9097412  42.6945332
  17.3485809  83.6919545  43.3560542  20.6062272  80.2418592  44.3587819
  20.3499206  79.8415228  45.1896026  19.9815140  80.9562386  44.2337958
  24.9174610  82.9814666  46.8659110  24.3574168  83.0507855  47.6390672
  24.3118113  82.8055650  46.1458606   7.9869819  94.4151393  48.6177296
   7.8702203  95.3596825  48.5155987   7.1662265  94.1124954  49.0063096
  17.8746353  89.1401528  39.4633889  18.7091957  88.7082727  39.2811364
  17.7130696  88.9683542  40.3910784  17.5292246  85.6433642  40.8290228
  17.4741049  85.4777913  39.8878673  16.9038301  86.3509675  40.9852418
   2.3184761  80.8801706  54.6551651   2.9643624  80.3700660  55.1438876
   2.1101912  81.6170388  55.2295076  14.8438153  87.9482554  60.1543791
  15.7129312  88.1223206  59.7930426  14.3644904  88.7676970  60.0319521
  10.8388371  75.1441751  40.4075547  10.8267041  76.0883591  40.5643818
  11.7311793  74.9611896  40.1135008   9.0124333  95.0679655  51.8333225
   9.9151580  95.1003265  52.1499720   8.7861703  94.1380106  51.8479561
  10.7677935  93.8210641  48.4943303   9.8173566  93.8212503  48.3807676
  11.0710421  93.0743376  47.9779338  14.6540490  71.7384527  44.6621484
  13.8872886  71.1843014  44.8078166  15.0651195  71.8106396  45.5235635
   6.6582252  78.0269323  58.7526665   7.5213713  77.6706128  58.9629989
   6.0847662  77.6883218  59.4402069  26.5030628  99.6571180  49.5589066
  27.1409038  99.5377927  48.8552406  26.3851471 100.6052024  49.6177018
  23.3120335  99.6098608  49.4950591  22.9738846  99.4939672  48.6071125
  24.1810103  99.2089773  49.4751597  19.1707150 101.4634084  45.4847481
  18.6072016 101.3724021  44.7163769  19.0559546 100.6433989  45.9649974
  23.7940118 100.7633459  55.4536796  23.7828759 100.3686258  54.5817300
  23.9560757 100.0299532  56.0470568  16.7171582 102.9585276  48.3231702
  17.5092874 102.6176100  47.9078001  16.9568233 103.0680251  49.2433855
  24.7506709 105.1305052  40.7961946  24.0994689 105.7159132  40.4095960
  25.5451072 105.6611247  40.8556984  18.6762336 102.2194189  41.1949081
  19.4493212 101.6723176  41.0561957  19.0287735 103.0838438  41.4063542
  20.5147379 103.5470571  54.4015980  20.2237245 104.4516202  54.2862646
  21.1504363 103.5887099  55.1160050  21.4403586 100.9247420  50.9917340
  22.0367158 100.7003442  50.2774303  21.4978557 100.1832165  51.5942788
  21.0128614  98.3786855  38.8267531  21.2654135  97.8568376  38.0650994
  20.0753173  98.2153000  38.9294214  26.0571897  97.3822633  46.6342274
  26.8434986  96.9642057  46.2832691  26.3210601  98.2868726  46.8023922
  26.2281974 102.8195484  41.3330931  25.5927807 102.8930110  42.0451835
  25.8979381 103.4089083  40.6550010  31.4580324  97.3197867  47.5375252
  32.1905496  96.7497083  47.7713082  30.7019680  96.9319467  47.9781758
  20.7324903 100.2814961  41.0291906  20.6161161  99.6059864  41.6972990
  20.8427163  99.7947335  40.2124059  23.0756444  99.7425108  44.7338595
  22.7114651  99.2155729  45.4451516  23.9323560  99.3523577  44.5605080
  28.9805744  91.0319441  51.9969861  28.6489069  91.9014852  51.7731076
  28.3851358  90.7155725  52.6763891  22.7161931  94.7715008  39.7299943
  22.8836333  95.6395244  40.0970414  22.5259100  94.9342289  38.8061233
  25.4737264 103.2331987  51.3965774  25.1737987 104.1357026  51.2881581
  25.1288323 102.9664170  52.2486927  18.9249745  99.6845784  47.4302478
  18.0000242  99.5521998  47.6380170  19.1734159 100.4640003  47.9272421
  28.8734408  95.7514527  49.0763211  27.9651285  95.6829935  48.7821972
  28.8222004  96.2286472  49.9045037  22.6951152  97.2272665  40.7146610
  22.5750777  97.6729716  41.5532090  22.0003740  97.5757983  40.1560148
  16.2858556  99.3279057  48.2646267  16.4150938  99.5813536  49.1785679
  15.6056008  99.9206765  47.9450922  20.4558044 109.9976307  44.3636741
  20.3782073 110.9484132  44.4425222  19.8519687 109.6522180  45.0211668
  22.9475274  97.1704172  57.0198108  22.1708608  97.7298093  57.0100973
  23.5865837  97.6560955  57.5412978  30.7396054  93.9530965  50.8541085
  30.0970434  94.2463498  50.2080880  30.2350983  93.8383886  51.6594282
  28.3936218  97.6994138  41.5426944  29.3054074  97.9321525  41.3674642
  27.8845865  98.2831183  40.9802023  21.2021646  99.9789626  56.5816075
  21.9436330 100.5174670  56.3050899  20.4958631 100.6055915  56.7387627
  26.6776985 102.1218766  55.1788237  27.0860342 101.6801177  54.4342869
  25.9554247 101.5471394  55.4322430  23.0308056  97.0591373  52.5521794
  23.8769251  97.4830787  52.6956443  22.9706693  96.4024997  53.2460357
  27.0005800 102.6819957  48.9340526  26.3714663 102.8465671  48.2316594
  26.6131462 103.0961566  49.7051490  30.8795032 103.6174395  46.2884889
  30.1946070 103.9973296  45.7381923  30.9638881 104.2269721  47.0216837
  26.1807501  94.7195741  54.2102967  25.9368433  95.4737802  53.6737243
  26.4567431  95.0981089  55.0450214  28.1345964 101.2634354  52.8880233
  28.3462859 101.9066114  52.2114614  28.0875712 100.4296670  52.4202163
  25.7372193  93.8752174  49.7916805  24.8756672  94.1733428  50.0833543
  25.7634627  94.0922573  48.8597838  22.5533762 102.4194365  46.1990611
  23.0172108 102.6982068  45.4095233  22.2890560 101.5177810  46.0163701
  19.4457843 101.9665847  49.1370374  20.0159200 102.3953115  48.4987859
  20.0365955 101.6848431  49.8354560  21.4902648  98.5417517  43.0080176
  22.1926691  98.9938561  43.4754102  21.1583277  97.9001336  43.6360069
  19.9383010  97.1329274  57.3831385  19.3081670  97.8145555  57.6166782
  19.8319097  97.0212356  56.4384524  15.2327982  96.8001070  48.3097309
  14.4427036  97.0558599  47.8337420  15.7239229  97.6149408  48.4149350
  29.2491792 104.1406309  51.0602590  30.0709235 103.7386496  50.7785272
  29.2454194 104.0374543  52.0118706  17.1842727  97.1645649  45.2680786
  16.3873891  97.2764344  45.7864282  16.9568320  97.5032302  44.4021677
  23.0148395 103.6890353  53.2163301  23.0792828 104.1510760  54.0521473
  22.3059319 103.0587717  53.3445611  13.5165685  97.0531560  50.7412300
  13.7673723  97.9378570  51.0069876  14.0525233  96.8736162  49.9687392
  37.3397785 100.4845058  47.4087562  36.5861493  99.9152456  47.2531566
  37.4745326 100.4507722  48.3558196  22.7296413 105.3558460  43.0842281
  22.5942087 106.2009996  43.5127129  23.2706225 105.5577738  42.3208215
  19.2163752  91.4350040  59.7456636  18.8230698  90.8816238  60.4204281
  20.0329893  91.7460618  60.1363154  16.1825810 102.8733898  43.6570206
  16.6950331 103.6677148  43.8075771  16.8348523 102.1760188  43.5903808
  17.9920695 105.9899654  45.7392959  18.1687323 106.9117619  45.5513943
  18.7877528 105.6758074  46.1687339  22.1331713  92.8507919  57.3376893
  22.8741427  93.4515072  57.2581355  22.3649636  92.1085557  56.7794935
  17.2773051  98.0364286  55.6155123  17.1626566  97.1349543  55.9162222
  16.4217569  98.2827983  55.2639939  24.3564889 105.9782027  57.2142623
  23.9128743 105.1918405  56.8963528  25.0182103 106.1661177  56.5486514
  19.1152010 107.5077828  51.7403302  19.6659435 107.3794891  50.9680296
  18.2763486 107.8072717  51.3898195  26.4546127 106.2584826  55.2424025
  26.4364602 107.0793707  54.7504294  27.3766047 106.1338902  55.4674166
  22.9119181 103.7728956  56.0847533  23.4447518 103.0117244  55.8546841
  22.3833262 103.4802608  56.8271687  26.0788876  88.8789022  51.6141175
  25.7353146  89.7690664  51.5380285  26.4467839  88.6890680  50.7510760
  14.1474727 101.2022552  44.4329777  14.9849949 101.6119561  44.2163484
  14.3252995 100.2621994  44.4029971  26.0439159  98.8697633  40.1213610
  25.5285782  99.6402238  40.3601997  25.7716467  98.1962769  40.7446671
  23.6286270  93.7147334  45.1798848  22.7727866  93.3254184  45.0004487
  24.0413222  93.7939295  44.3198634  25.1585417  91.2493677  49.5790408
  24.6550212  91.2123812  48.7658213  25.4516024  92.1586420  49.6387065
  21.4028303  91.3332407  48.5856590  22.2681299  91.1375215  48.2262479
  21.4705811  91.1042759  49.5125946  31.0173433 101.6229988  42.0566783
  30.2402876 101.2841147  41.6121945  31.6964914 101.6282611  41.3821748
  25.8325462  96.7424725  41.9473391  25.5275598  97.0570874  42.7983534
  26.7855904  96.8206145  41.9900724  24.2771894 102.9014948  43.5966345
  23.7493256 102.1667708  43.2839582  23.7759397 103.6789625  43.3506313
  29.2564740 101.0963969  48.7133391  28.5988414 101.7863230  48.8013520
  30.0605139 101.4860401  49.0567378  19.0090622  93.5634615  45.9572956
  19.5834374  93.3409796  45.2246149  19.5961604  93.6323309  46.7101558
  28.0670199  99.4508342  46.7637333  28.5802081 100.0838333  47.2659043
  28.7171423  98.8509537  46.3980693  19.3360209  95.5939076  39.9768842
  18.4997521  95.9313762  40.2978116  19.1964978  95.4588056  39.0395979
  21.3113289  90.4375864  44.6848026  20.6577702  90.1224881  44.0604641
  21.2693763  89.8151604  45.4107849  22.4224494 100.7195159  36.6001318
  21.5151556 100.4884412  36.7992467  22.9195526  99.9232778  36.7875299
  25.3292573 109.4292666  39.5198004  24.6554272 109.7324363  40.1282962
  25.7158395 110.2321746  39.1703461  24.5451030  96.9257797  49.0095673
  23.6273591  97.1472744  48.8517362  24.9611173  97.0004108  48.1507381
  25.3286077  98.3249213  44.1398354  26.0757896  98.8370610  43.8305476
  25.5977667  98.0033266  45.0002747  23.6012728 100.8207754  41.1225308
  22.6923947 100.5366786  41.2197778  23.6307811 101.2406832  40.2628615
  28.8331995 104.4314343  44.8916476  28.3794322 103.5905253  44.9481666
  28.2025962 105.0675741  45.2291256  27.7764915  95.3606329  46.1217143
  27.0387671  94.8483715  46.4527386  28.0291688  94.9206711  45.3100420
  27.2764934 106.2690840  45.8266294  27.5687909 106.8295897  45.1078659
  27.7863555 106.5619401  46.5819453  27.8776542  88.1382581  46.7158912
  28.1835419  87.2779944  46.4284827  28.6029147  88.7300201  46.5157906
  14.1700898  98.5413268  45.1040510  13.9725298  97.9482628  44.3791577
  13.6147562  98.2365478  45.8216449  22.1497622  98.4336374  47.2235103
  22.2046231  97.4810211  47.1477580  21.3388824  98.5895813  47.7076402
  23.2988815 102.3616497  38.4613387  22.8608245 101.6452356  38.0019024
  24.0399256 102.5892612  37.8998478  20.0889982  97.0513434  44.9825482
  19.2757847  97.3507604  45.3890674  20.5848976  96.6569123  45.6999964
  22.2398559 107.0471191  46.9159747  22.1974738 107.2732037  45.9868279
  23.1561258 106.8134565  47.0645548  25.6864193  97.5155258  53.8140376
  26.0413581  97.7426731  54.6734842  26.3336324  97.8473635  53.1917631
  31.4161930 100.6373694  44.5189705  31.2779829 100.8275290  43.5910894
  31.0598149 101.3993077  44.9757756  19.5804056  94.6231789  50.5986717
  20.2203436  94.4820548  49.9009680  18.7481587  94.3366303  50.2225319
  31.4431310 102.7050221  49.5300977  31.8767816 102.6125510  50.3784031
  32.1562891 102.6807722  48.8920993  20.3564360 103.9234220  46.7121710
  21.1504959 103.4284540  46.5104285  19.6456053 103.3952083  46.3489415
  25.1759205 106.3052315  51.0634077  25.2296227 106.8743252  51.8311793
  24.3073986 106.4754200  50.6988114  16.6647124  98.0677302  42.7881462
  15.7344712  98.0061757  43.0051424  16.7604596  97.5453254  41.9918104
  16.5832673  94.5932114  45.3759704  16.8439490  95.5077448  45.2668864
  17.4049845  94.1256557  45.5256317  18.0557598  96.0069872  52.5458529
  18.7280652  95.7987234  51.8971177  17.2287385  95.8091958  52.1063761
  32.3046859 102.7473922  52.0633862  32.4982749 103.6519732  52.3093137
  32.2047478 102.2881341  52.8972447  23.9583170  92.6331812  54.5624189
  23.3111085  93.3321762  54.4688666  24.7284186  93.0667956  54.9300438
  27.3661968 102.8980665  57.6374743  27.2147474 102.6691216  56.7204826
  27.3566648 103.8551266  57.6506088  24.1347304 100.4712577  52.6221009
  25.0639364 100.6223737  52.4489976  23.7138334 100.5596598  51.7669656
  22.9335636 104.4963242  50.3919547  22.7946722 104.1282026  51.2645485
  22.1450232 105.0110881  50.2203505  23.5283788 109.5972338  41.7345083
  23.7035544 109.1260381  42.5490706  22.8416576 110.2238104  41.9626344
  24.4840851 103.8744844  47.7808385  24.1490684 103.8345614  48.6766034
  23.9844797 103.2089560  47.3078795  18.4585095  99.2812475  53.3060966
  18.3204893  98.5492713  53.9072505  19.3690019  99.1921375  53.0245153
  27.4200043 101.2200879  38.0545444  26.8029214 100.4947707  37.9578497
  26.9516531 101.9810239  37.7112518  21.0867396  98.9932434  52.7944645
  21.7967015  98.3525626  52.7531264  21.0436704  99.2445329  53.7170826
  29.0754175 105.9299787  55.7151225  29.0166721 105.2459007  55.0481808
  29.4773693 106.6718777  55.2631851  19.7996330  95.9797652  54.6140285
  19.2633687  95.5288390  55.2661881  19.2113038  96.1143561  53.8710749
  19.2098589  95.4386303  37.1766748  18.3328055  95.3175104  36.8128995
  19.6856342  94.6472381  36.9245637  29.0771582 103.8939371  53.9465204
  28.1898361 103.5565293  54.0691603  29.6470133 103.1622402  54.1833970
  10.7300729 100.2263463  47.2708256  11.4171769  99.9125193  46.6829271
  10.5748858 101.1304828  46.9975507  15.5335451  95.1153659  51.6993279
  15.4493640  94.5079329  50.9643689  14.7118158  95.6062678  51.7002776
  22.6072735 108.5540823  50.9126447  22.5342907 109.3595795  51.4245752
  22.1650128 108.7532789  50.0874469  22.3962515 107.7912594  44.4229269
  21.6130037 108.3334274  44.5167493  23.0955260 108.3086573  44.8223510
  25.7059165  93.6007223  47.0663474  26.2027865  92.8477185  46.7464545
  24.9346147  93.6371540  46.5006684  33.5588923  99.3047588  48.7081766
  33.5478799 100.1872304  48.3375699  32.6906302  98.9519139  48.5136303
  25.0671419 108.4527658  53.0684606  25.7799391 109.0875122  52.9960508
  24.5761448 108.5491524  52.2524608  26.7888946 102.3578910  44.6401898
  25.8545225 102.4780373  44.4706602  26.9665614 101.4551377  44.3761908
  22.2894134  95.7424606  46.7935159  21.9191921  95.1895646  47.4816065
  22.7853226  95.1382739  46.2410159  30.1761497  98.1996229  45.1751932
  30.6421949  99.0324221  45.1012235  30.6268998  97.7341211  45.8797190
  20.1183332 106.2022101  53.8890177  20.8192792 106.8358584  54.0419571
  19.6478447 106.5436833  53.1285816  28.2437728 104.5440051  42.1738084
  28.5197572 104.4296645  43.0831958  27.3742227 104.1457536  42.1350257
  28.1478160  90.5676816  49.2142833  27.2341240  90.7981043  49.3825040
  28.5771261  90.6515261  50.0656866  27.9184618  98.7566708  51.7142727
  27.2656069  99.0042616  51.0595180  28.2964998  97.9430847  51.3805205
  24.8791792 108.7926402  45.8170898  25.0614187 107.9748058  46.2798650
  25.7024778 109.0094094  45.3795788  25.2133958 107.7194587  43.0785946
  25.7421724 107.2087041  42.4656108  25.4762177 107.4037117  43.9431479
  23.9672191  99.4986519  58.2008764  23.2912828  99.3980649  58.8711140
  24.7899825  99.3425733  58.6644762  15.7151050 105.7358456  50.8221280
  16.3004487 104.9902144  50.9549184  15.5175889 106.0462413  51.7057943
  18.5689706 108.7709703  45.8383722  17.9000081 109.2555831  45.3547762
  18.4302575 109.0178924  46.7527100  10.3068705  98.3064056  49.5425723
  10.3452805  97.7727647  50.3362841   9.8008998  97.7799262  48.9236700
  22.7094974 110.8053447  52.4366380  23.2613282 110.9685068  53.2015466
  23.0501168 111.3957885  51.7646405  17.6859468  93.1528597  53.0388265
  17.7500794  94.0143428  52.6265663  17.6226588  92.5402598  52.3060624
  17.1611740  95.2251729  56.6861299  17.7883779  94.8428807  57.2998824
  16.3039659  95.0065931  57.0516992  27.5605849 105.6314704  58.2915035
  28.1045753 106.2444663  57.7969990  26.9792693 106.1894283  58.8082048
  13.9377283  97.0328158  42.6179654  14.2330724  96.1238837  42.5646708
  13.0365319  97.0115898  42.2960656  25.8463362 108.7535422  49.4230062
  25.7214501 107.9525162  48.9141008  26.5042453 109.2481616  48.9344032
  17.4671530  95.1084155  48.6007203  16.7458116  95.7220123  48.4614676
  18.2564786  95.6441920  48.5223849  27.9098270 106.5544443  51.0509613
  26.9628605 106.4349794  50.9787939  28.2581043 105.6666941  51.1335874
  20.2697843  92.4438581  54.8747854  20.7932245  92.6900878  55.6374164
  20.0510177  93.2758616  54.4550992  15.6665124  94.7142256  42.7418979
  15.3377831  93.8339635  42.5594085  16.0204495  94.6589925  43.6295369
  24.9144703 106.3497159  47.2513965  24.7669666 105.4213866  47.4321535
  25.7398197 106.3717249  46.7671040  18.7806948  95.0015226  43.1094457
  19.1203020  95.5301147  42.3873065  19.2279068  95.3395632  43.8853023
  28.5178825 107.1725717  48.3378838  29.4425373 106.9668579  48.2003289
  28.3494128 106.9242119  49.2468179  21.4750388  93.3852277  52.5597525
  21.1347209  92.5860090  52.9618205  20.7689395  93.6853987  51.9874358
  22.1266860  90.4701589  51.0124848  22.9492929  89.9962067  50.8903738
  22.3704924  91.2492073  51.5123534  20.7675095  93.4989847  41.3087750
  21.4883457  93.8771100  40.8051467  20.1440399  94.2178724  41.4122728
  24.9106218  94.2034996  42.2446082  25.1269832  95.0859634  41.9434910
  24.4300285  93.8121210  41.5151724  19.6505439  97.1620710  48.8216827
  19.5050020  97.4761013  49.7141108  19.1730643  97.7805610  48.2687725
  21.5101822  94.1523258  48.8697716  21.4963391  93.2564351  48.5330014
  22.2274250  94.1593921  49.5036002  23.3627953  94.5860598  50.9150844
  23.1045730  95.5077668  50.9135174  22.8312993  94.1891032  51.6051308
  28.3074141 107.6911385  43.6940929  28.4811019 107.1257807  42.9414781
  28.8003033 108.4912280  43.5120419  14.1251101  99.7026054  51.7604488
  13.5804569 100.4785862  51.8924762  15.0030451 100.0496859  51.6023609
  20.9138718  93.0337638  44.1385286  21.0354629  92.1054284  44.3376174
  20.6240760  93.0476324  43.2263602  23.7829908  90.7192548  47.2752006
  23.8051605  90.7831881  46.3203986  24.1997967  89.8797057  47.4692512
  34.1613532 100.4547808  45.3131229  34.6044678  99.7055133  44.9150352
  33.2840043 100.4457944  44.9304961  29.2949314 107.0078149  40.7937827
  29.9900218 107.6284842  41.0125142  29.6372464 106.1573501  41.0690205
  14.9117123  98.8295950  54.6534645  14.1698859  98.9778586  55.2399275
  14.5909867  99.0904216  53.7901394  31.1940737 104.4577855  42.3225158
  31.7192061 104.7965128  41.5974478  31.1063089 103.5224870  42.1388293
  22.8560786 108.3711929  54.4515035  23.1647912 108.1261075  55.3237734
  23.6536268 108.5758567  53.9633905  22.8781398 110.5249838  46.6820411
  22.4386388 110.0326217  47.3753268  23.6289515 109.9822806  46.4412486
  15.3573737 106.7161379  46.6845039  16.1831757 106.4165151  46.3043683
  15.0067789 105.9469001  47.1334828  20.3255270 106.0687847  48.7542713
  19.7035279 105.4058552  48.4544941  20.9960137 106.0948979  48.0716361
  13.5582342 104.6347705  47.6433973  12.7214250 104.2069880  47.4617974
  13.5305987 104.8280149  48.5804764  20.3979797  94.5469635  58.3475219
  20.4467953  95.4231758  57.9652989  20.9402311  94.0047028  57.7746862
  30.8834643 105.0910759  57.6276356  30.0930187 105.0734897  57.0880855
  30.6467998 105.6299052  58.3825393  31.0032518 101.9403225  54.9409085
  31.0530523 101.7753232  55.8824607  30.8946441 101.0730484  54.5506965
  19.8868777 104.6191771  42.2301173  20.0356897 105.3027235  41.5767846
  20.6935220 104.5996861  42.7450629  28.2936280  97.9234153  56.2568391
  29.1946143  97.7840618  55.9652389  28.3684255  98.0888608  57.1966569
  22.6279086  95.3001008  55.1021578  21.7582395  95.5934574  54.8304166
  22.8638566  95.8841453  55.8228841  32.5050715 104.3600166  55.1851106
  32.2135523 104.7230147  56.0214567  31.8922846 103.6467175  55.0064438
  33.7046397 101.9253046  47.7053676  34.5393289 102.3642850  47.8691237
  33.8405526 101.4491699  46.8861922  30.7537903  99.4832781  53.6531164
  31.2292025  99.6760427  52.8450015  29.8303468  99.5391967  53.4074548
  17.6421410 100.6456948  43.2362242  17.3967452  99.7419278  43.4342452
  17.8117324 100.6474099  42.2941720  25.3318120  91.5180625  52.6186998
  25.8500063  92.2541652  52.2933487  24.9773252  91.8244618  53.4533757
  16.9117057  96.3785306  40.7348404  16.2186302  96.4529661  40.0788440
  16.6668809  95.6145649  41.2569921  25.5830714  87.9380907  48.1387895
  25.8632468  87.2704096  48.7648321  26.3681321  88.1310003  47.6262558
  23.3864182 107.1139901  39.7012921  22.8138149 107.7330088  39.2483393
  23.9596976 107.6639263  40.2352843  29.4539572  96.3598541  51.8859470
  30.4056995  96.4596639  51.9071694  29.2843023  95.5676810  52.3957554
  27.4753952  93.4454124  52.0718871  26.8803884  93.7259137  51.3765359
  27.1903648  93.9348025  52.8435612  26.6061442 107.3977051  40.8321503
  27.5392115 107.3322613  41.0354379  26.5184655 108.2333318  40.3736036
  29.2349459 106.7142922  37.7925451  29.1563090 106.3802785  38.6861209
  30.0559125 107.2064689  37.7916923  31.9327650  99.5804661  51.0001769
  31.9003970  98.6420662  51.1861453  32.5428274  99.6588698  50.2667594
  23.7710981  98.4500714  37.0428973  24.7170085  98.3206922  37.1117391
  23.3925226  97.7115376  37.5198402  32.0822138  96.3715704  51.0460053
  31.5661187  95.5874161  50.8589981  32.9662087  96.0434421  51.2106572
  29.7432865  90.1156720  47.0055865  29.5457686  89.8071808  47.8899197
  30.3532571  90.8418359  47.1353795  37.7504200 100.6420668  50.1407806
  38.4807588 100.3805956  50.7015509  37.1411145  99.9049390  50.1809874
  35.8319497  98.7828530  50.7382257  35.1052660  98.6484495  50.1298749
  35.4166784  99.0905359  51.5438975  23.6549673 102.5018460  58.5029630
  24.5752683 102.6797059  58.6969677  23.6199256 101.5574505  58.3509330
  21.9553898  96.3750690  36.9783859  21.0485353  96.0783803  37.0546572
  22.2329879  96.0780508  36.1118145  12.8731838  97.6957054  47.4282905
  12.5534623  96.8422362  47.1357279  12.3265266  97.9105632  48.1840872
  16.6511746 100.4119495  51.1452412  16.8697756 101.3436602  51.1640445
  17.0637520 100.0527469  51.9307215  23.5715964  90.9187580  43.1328100
  22.7616692  90.5734665  43.5083346  24.2600381  90.6095124  43.7215711
  25.5006512  89.9965627  44.7552397  26.0537551  90.4161080  45.4142420
  25.7376598  89.0701375  44.7975353  21.5239611  95.9852700  60.5355160
  21.4236338  96.9347057  60.4667252  21.3061153  95.6570939  59.6631231
  20.7252683  93.2337625  37.1195838  21.5871847  93.5592524  37.3791655
  20.9103027  92.4469121  36.6068904  12.7420098 101.3159965  49.3976027
  12.0483570 100.9013918  48.8845981  13.4893089 101.3580502  48.8009445
  28.8785319  92.1066152  44.2631061  28.2983988  92.7650956  43.8809113
  28.6121252  91.2843496  43.8518478  27.3288885  91.5071210  46.4652381
  27.8288664  91.6187744  45.6566700  27.9724493  91.2032262  47.1053190
  21.3870881  99.4149839  59.3520222  20.9037963 100.2150199  59.5584111
  21.4731820  99.4257784  58.3987666  14.6556841 101.2478219  47.2742041
  14.6327529 101.3465906  46.3223925  14.9657477 102.0943370  47.5959208
  17.3144219 103.3054374  51.3888656  18.2687472 103.2738316  51.3218587
  17.1156742 102.8444998  52.2038882  17.9043601 101.8755490  53.9559454
  18.7236490 102.3699569  53.9794291  18.1780409 100.9587458  53.9277021
  27.6610197  94.2666242  43.3187409  26.7736052  94.5515893  43.1007604
  28.0764186  94.1060006  42.4714686  31.0124733  94.2912763  47.0341748
  31.7885123  94.7809216  47.3066365  30.2872867  94.7170817  47.4913618
  33.4497292  95.0040382  48.0915689  34.0441783  94.7636118  47.3808997
  33.5223875  94.2847513  48.7189225  15.6694447 108.8473993  48.4058854
  15.5348915 108.0874394  47.8396852  15.2526510 109.5714893  47.9387643
  26.8053410 104.0310917  37.4135429  27.5089261 104.2360919  38.0293085
  26.0816059 104.5987679  37.6784513  27.6351221  99.7820778  43.5337699
  27.5786422 100.2389330  42.6945332  28.1879563  99.0211463  43.3560542
  31.4456027  95.5710510  44.3587819  31.1892961  95.1707146  45.1896026
  30.8208895  96.2854304  44.2337958  35.7568365  98.3106583  46.8659110
  35.1967922  98.3799773  47.6390672  35.1511868  98.1347568  46.1458606
  18.8263573 109.7443310  48.6177296  18.7095957 110.6888743  48.5155987
  18.0056020 109.4416872  49.0063096  28.7140108 104.4693446  39.4633889
  29.5485712 104.0374645  39.2811364  28.5524451 104.2975460  40.3910784
  28.3686000 100.9725559  40.8290228  28.3134804 100.8069831  39.8878673
  27.7432055 101.6801592  40.9852418  13.1578515  96.2093624  54.6551651
  13.8037379  95.6992578  55.1438876  12.9495666  96.9462305  55.2295076
  25.6831907 103.2774471  60.1543791  26.5523067 103.4515124  59.7930426
  25.2038659 104.0968888  60.0319521  21.6782126  90.4733668  40.4075547
  21.6660795  91.4175508  40.5643818  22.5705547  90.2903814  40.1135008
  19.8518087 110.3971572  51.8333225  20.7545334 110.4295183  52.1499720
  19.6255458 109.4672023  51.8479561  21.6071689 109.1502559  48.4943303
  20.6567320 109.1504420  48.3807676  21.9104176 108.4035293  47.9779338
  25.4934245  87.0676445  44.6621484  24.7266641  86.5134932  44.8078166
  25.9044950  87.1398314  45.5235635  17.4976006  93.3561241  58.7526665
  18.3607468  92.9998046  58.9629989  16.9241417  93.0175136  59.4402069
  37.3424383 114.9863097  49.5589066  37.9802793 114.8669845  48.8552406
  37.2245226 115.9343941  49.6177018  34.1514089 114.9390525  49.4950591
  33.8132601 114.8231590  48.6071125  35.0203857 114.5381690  49.4751597
  34.6333872 116.0925377  55.4536796  34.6222513 115.6978175  54.5817300
  34.7954512 115.3591450  56.0470568  31.8522369 113.7078773  38.8267531
  32.1047889 113.1860294  38.0650994  30.9146928 113.5444918  38.9294214
  36.8965651 112.7114551  46.6342274  37.6828741 112.2933974  46.2832691
  37.1604356 113.6160643  46.8023922  42.2974079 112.6489784  47.5375252
  43.0299251 112.0789001  47.7713082  41.5413434 112.2611385  47.9781758
  33.9150198 115.0717026  44.7338595  33.5508406 114.5447647  45.4451516
  34.7717314 114.6815495  44.5605080  39.8199499 106.3611358  51.9969861
  39.4882824 107.2306769  51.7731076  39.2245112 106.0447642  52.6763891
  33.5555685 110.1006925  39.7299943  33.7230088 110.9687162  40.0970414
  33.3652854 110.2634207  38.8061233  39.7128162 111.0806445  49.0763211
  38.8045040 111.0121853  48.7821972  39.6615758 111.5578389  49.9045037
  33.5344906 112.5564583  40.7146610  33.4144531 113.0021634  41.5532090
  32.8397495 112.9049901  40.1560148  33.7869028 112.4996090  57.0198108
  33.0102362 113.0590010  57.0100973  34.4259591 112.9852873  57.5412978
  41.5789809 109.2822883  50.8541085  40.9364189 109.5755416  50.2080880
  41.0744737 109.1675803  51.6594282  39.2329972 113.0286056  41.5426944
  40.1447828 113.2613443  41.3674642  38.7239619 113.6123100  40.9802023
  37.5170740 117.4510684  55.1788237  37.9254096 117.0093094  54.4342869
  36.7948001 116.8763311  55.4322430  33.8701810 112.3883291  52.5521794
  34.7163005 112.8122704  52.6956443  33.8100448 111.7316915  53.2460357
  37.0201255 110.0487659  54.2102967  36.7762187 110.8029720  53.6737243
  37.2961186 110.4273007  55.0450214  38.9739718 116.5926271  52.8880233
  39.1856613 117.2358031  52.2114614  38.9269466 115.7588588  52.4202163
  36.5765947 109.2044092  49.7916805  35.7150426 109.5025346  50.0833543
  36.6028382 109.4214491  48.8597838  32.3296403 113.8709435  43.0080176
  33.0320446 114.3230479  43.4754102  31.9977031 113.2293254  43.6360069
  30.7776764 112.4621192  57.3831385  30.1475425 113.1437473  57.6166782
  30.6712852 112.3504273  56.4384524  26.0721737 112.1292988  48.3097309
  25.2820791 112.3850516  47.8337420  26.5632984 112.9441326  48.4149350
  28.0236482 112.4937567  45.2680786  27.2267645 112.6056261  45.7864282
  27.7962074 112.8324219  44.4021677  48.1791539 115.8136975  47.4087562
  47.4255248 115.2444373  47.2531566  48.3139080 115.7799640  48.3558196
  30.0557507 106.7641958  59.7456636  29.6624452 106.2108156  60.4204281
  30.8723647 107.0752536  60.1363154  32.9725468 108.1799837  57.3376893
  33.7135181 108.7806990  57.2581355  33.2043391 107.4377474  56.7794935
  28.1166806 113.3656204  55.6155123  28.0020321 112.4641461  55.9162222
  27.2611324 113.6119901  55.2639939  36.9182631 104.2080940  51.6141175
  36.5746900 105.0982581  51.5380285  37.2861593 104.0182597  50.7510760
  36.8832913 114.1989551  40.1213610  36.3679537 114.9694155  40.3601997
  36.6110222 113.5254687  40.7446671  34.4680025 109.0439251  45.1798848
  33.6121621 108.6546102  45.0004487  34.8806976 109.1231212  44.3198634
  35.9979171 106.5785595  49.5790408  35.4943967 106.5415730  48.7658213
  36.2909778 107.4878337  49.6387065  32.2422057 106.6624324  48.5856590
  33.1075054 106.4667133  48.2262479  32.3099566 106.4334676  49.5125946
  41.8567188 116.9521905  42.0566783  41.0796630 116.6133065  41.6121945
  42.5358669 116.9574528  41.3821748  36.6719217 112.0716643  41.9473391
  36.3669352 112.3862792  42.7983534  37.6249659 112.1498063  41.9900724
  40.0958495 116.4255887  48.7133391  39.4382169 117.1155148  48.8013520
  40.8998894 116.8152319  49.0567378  29.8484376 108.8926532  45.9572956
  30.4228128 108.6701714  45.2246149  30.4355359 108.9615227  46.7101558
  38.9063953 114.7800259  46.7637333  39.4195835 115.4130251  47.2659043
  39.5565177 114.1801455  46.3980693  30.1753963 110.9230993  39.9768842
  29.3391275 111.2605680  40.2978116  30.0358733 110.7879973  39.0395979
  32.1507044 105.7667781  44.6848026  31.4971456 105.4516798  44.0604641
  32.1087518 105.1443522  45.4107849  33.2618249 116.0487076  36.6001318
  32.3545310 115.8176330  36.7992467  33.7589281 115.2524696  36.7875299
  35.3844784 112.2549715  49.0095673  34.4667346 112.4764662  48.8517362
  35.8004928 112.3296025  48.1507381  36.1679832 113.6541130  44.1398354
  36.9151651 114.1662528  43.8305476  36.4371421 113.3325183  45.0002747
  34.4406482 116.1499671  41.1225308  33.5317701 115.8658704  41.2197778
  34.4701566 116.5698750  40.2628615  38.6158669 110.6898247  46.1217143
  37.8781426 110.1775633  46.4527386  38.8685443 110.2498628  45.3100420
  38.7170296 103.4674499  46.7158912  39.0229173 102.6071862  46.4284827
  39.4422901 104.0592119  46.5157906  32.9891376 113.7628292  47.2235103
  33.0439986 112.8102128  47.1477580  32.1782578 113.9187731  47.7076402
  30.9283736 112.3805352  44.9825482  30.1151602 112.6799522  45.3890674
  31.4242730 111.9861040  45.6999964  36.5257948 112.8447176  53.8140376
  36.8807335 113.0718649  54.6734842  37.1730079 113.1765553  53.1917631
  42.2555685 115.9665612  44.5189705  42.1173583 116.1567208  43.5910894
  41.8991904 116.7284995  44.9757756  30.4197811 109.9523707  50.5986717
  31.0597190 109.8112466  49.9009680  29.5875341 109.6658220  50.2225319
  42.2825064 118.0342139  49.5300977  42.7161571 117.9417428  50.3784031
  42.9956645 118.0099639  48.8920993  27.5040878 113.3969219  42.7881462
  26.5738466 113.3353675  43.0051424  27.5998350 112.8745172  41.9918104
  27.4226427 109.9224032  45.3759704  27.6833245 110.8369365  45.2668864
  28.2443600 109.4548475  45.5256317  28.8951353 111.3361789  52.5458529
  29.5674406 111.1279151  51.8971177  28.0681139 111.1383875  52.1063761
  43.1440614 118.0765840  52.0633862  43.3376504 118.9811650  52.3093137
  43.0441232 117.6173259  52.8972447  34.7976925 107.9623730  54.5624189
  34.1504840 108.6613680  54.4688666  35.5677940 108.3959874  54.9300438
  34.9741059 115.8004495  52.6221009  35.9033119 115.9515655  52.4489976
  34.5532089 115.8888516  51.7669656  29.2978850 114.6104392  53.3060966
  29.1598648 113.8784631  53.9072505  30.2083773 114.5213292  53.0245153
  38.2593798 116.5492797  38.0545444  37.6422968 115.8239625  37.9578497
  37.7910286 117.3102157  37.7112518  31.9261151 114.3224352  52.7944645
  32.6360769 113.6817544  52.7531264  31.8830459 114.5737246  53.7170826
  30.6390084 111.3089569  54.6140285  30.1027442 110.8580308  55.2661881
  30.0506793 111.4435478  53.8710749  30.0492343 110.7678221  37.1766748
  29.1721810 110.6467022  36.8128995  30.5250097 109.9764299  36.9245637
  26.3729206 110.4445577  51.6993279  26.2887394 109.8371247  50.9643689
  25.5511912 110.9354595  51.7002776  36.5452920 108.9299141  47.0663474
  37.0421619 108.1769103  46.7464545  35.7739901 108.9663457  46.5006684
  44.3982677 114.6339506  48.7081766  44.3872553 115.5164222  48.3375699
  43.5300056 114.2811057  48.5136303  33.1287888 111.0716524  46.7935159
  32.7585676 110.5187564  47.4816065  33.6246981 110.4674657  46.2410159
  41.0155252 113.5288147  45.1751932  41.4815704 114.3616139  45.1012235
  41.4662752 113.0633129  45.8797190  38.9871914 105.8968734  49.2142833
  38.0734994 106.1272961  49.3825040  39.4165016 105.9807178  50.0656866
  38.7578373 114.0858626  51.7142727  38.1049823 114.3334534  51.0595180
  39.1358753 113.2722764  51.3805205  34.8065946 114.8278437  58.2008764
  34.1306583 114.7272566  58.8711140  35.6293580 114.6717651  58.6644762
  28.5253222 108.4820514  53.0388265  28.5894548 109.3435345  52.6265663
  28.4620342 107.8694516  52.3060624  28.0005495 110.5543647  56.6861299
  28.6277533 110.1720724  57.2998824  27.1433413 110.3357849  57.0516992
  24.7771037 112.3620076  42.6179654  25.0724478 111.4530754  42.5646708
  23.8759073 112.3407816  42.2960656  28.3065284 110.4376073  48.6007203
  27.5851870 111.0512040  48.4614676  29.0958540 110.9733837  48.5223849
  31.1091598 107.7730499  54.8747854  31.6326000 108.0192796  55.6374164
  30.8903931 108.6050534  54.4550992  26.5058879 110.0434174  42.7418979
  26.1771585 109.1631553  42.5594085  26.8598250 109.9881842  43.6295369
  29.6200702 110.3307144  43.1094457  29.9596775 110.8593065  42.3873065
  30.0672822 110.6687550  43.8853023  32.3144143 108.7144194  52.5597525
  31.9740963 107.9152007  52.9618205  31.6083149 109.0145905  51.9874358
  32.9660615 105.7993507  51.0124848  33.7886684 105.3253985  50.8903738
  33.2098678 106.5783990  51.5123534  31.6068849 108.8281765  41.3087750
  32.3277212 109.2063018  40.8051467  30.9834153 109.5470642  41.4122728
  35.7499972 109.5326914  42.2446082  35.9663586 110.4151552  41.9434910
  35.2694039 109.1413127  41.5151724  30.4899193 112.4912627  48.8216827
  30.3443774 112.8052930  49.7141108  30.0124397 113.1097528  48.2687725
  32.3495576 109.4815175  48.8697716  32.3357145 108.5856269  48.5330014
  33.0668004 109.4885839  49.5036002  34.2021707 109.9152516  50.9150844
  33.9439485 110.8369586  50.9135174  33.6706747 109.5182950  51.6051308
  31.7532472 108.3629556  44.1385286  31.8748383 107.4346202  44.3376174
  31.4634515 108.3768242  43.2263602  34.6223663 106.0484466  47.2752006
  34.6445359 106.1123799  46.3203986  35.0391722 105.2088975  47.4692512
  45.0007287 115.7839726  45.3131229  45.4438433 115.0347051  44.9150352
  44.1233797 115.7749862  44.9304961  31.2373552 109.8761553  58.3475219
  31.2861707 110.7523676  57.9652989  31.7796066 109.3338946  57.7746862
  41.8426273 117.2695143  54.9409085  41.8924277 117.1045150  55.8824607
  41.7340196 116.4022402  54.5506965  39.1330035 113.2526071  56.2568391
  40.0339898 113.1132535  55.9652389  39.2078009 113.4180525  57.1966569
  33.4672840 110.6292925  55.1021578  32.5976150 110.9226491  54.8304166
  33.7032321 111.2133370  55.8228841  44.5440152 117.2544964  47.7053676
  45.3787043 117.6934768  47.8691237  44.6799280 116.7783617  46.8861922
  41.5931658 114.8124699  53.6531164  42.0685779 115.0052345  52.8450015
  40.6697223 114.8683885  53.4074548  36.1711874 106.8472542  52.6186998
  36.6893818 107.5833569  52.2933487  35.8167007 107.1536536  53.4533757
  27.7510812 111.7077223  40.7348404  27.0580057 111.7821578  40.0788440
  27.5062564 110.9437567  41.2569921  36.4224468 103.2672825  48.1387895
  36.7026222 102.5996014  48.7648321  37.2075075 103.4601920  47.6262558
  40.2933327 111.6890459  51.8859470  41.2450749 111.7888556  51.9071694
  40.1236777 110.8968727  52.3957554  38.3147706 108.7746042  52.0718871
  37.7197638 109.0551055  51.3765359  38.0297403 109.2639943  52.8435612
  42.7721404 114.9096578  51.0001769  42.7397724 113.9712579  51.1861453
  43.3822028 114.9880615  50.2667594  34.6104735 113.7792631  37.0428973
  35.5563840 113.6498840  37.1117391  34.2318980 113.0407293  37.5198402
  42.9215893 111.7007622  51.0460053  42.4054941 110.9166079  50.8589981
  43.8055841 111.3726339  51.2106572  40.5826620 105.4448637  47.0055865
  40.3851441 105.1363726  47.8899197  41.1926325 106.1710276  47.1353795
  48.5897954 115.9712585  50.1407806  49.3201343 115.7097873  50.7015509
  47.9804900 115.2341307  50.1809874  46.6713251 114.1120448  50.7382257
  45.9446415 113.9776413  50.1298749  46.2560538 114.4197277  51.5438975
  32.7947652 111.7042608  36.9783859  31.8879108 111.4075721  37.0546572
  33.0723633 111.4072426  36.1118145  34.4109718 106.2479498  43.1328100
  33.6010446 105.9026583  43.5083346  35.0994135 105.9387041  43.7215711
  36.3400266 105.3257544  44.7552397  36.8931305 105.7452998  45.4142420
  36.5770353 104.3993292  44.7975353  32.3633366 111.3144618  60.5355160
  32.2630093 112.2638975  60.4667252  32.1454908 110.9862857  59.6631231
  31.5646437 108.5629543  37.1195838  32.4265601 108.8884441  37.3791655
  31.7496781 107.7761039  36.6068904  39.7179073 107.4358070  44.2631061
  39.1377743 108.0942874  43.8809113  39.4515006 106.6135414  43.8518478
  38.1682640 106.8363127  46.4652381  38.6682418 106.9479662  45.6566700
  38.8118248 106.5324180  47.1053190  32.2264636 114.7441757  59.3520222
  31.7431717 115.5442117  59.5584111  32.3125575 114.7549702  58.3987666
  38.5003951 109.5958160  43.3187409  37.6129807 109.8807811  43.1007604
  38.9157941 109.4351923  42.4714686  41.8518488 109.6204681  47.0341748
  42.6278878 110.1101133  47.3066365  41.1266622 110.0462735  47.4913618
  44.2891046 110.3332300  48.0915689  44.8835537 110.0928036  47.3808997
  44.3617630 109.6139431  48.7189225  38.4744975 115.1112696  43.5337699
  38.4180177 115.5681247  42.6945332  39.0273318 114.3503380  43.3560542
  42.2849781 110.9002428  44.3587819  42.0286715 110.4999063  45.1896026
  41.6602649 111.6146222  44.2337958  46.5962119 113.6398501  46.8659110
  46.0361677 113.7091690  47.6390672  45.9905622 113.4639486  46.1458606
  39.2079755 116.3017477  40.8290228  39.1528558 116.1361749  39.8878673
  38.5825810 117.0093510  40.9852418  23.9972270 111.5385541  54.6551651
  24.6431133 111.0284495  55.1438876  23.7889421 112.2754223  55.2295076
  32.5175880 105.8025586  40.4075547  32.5054550 106.7467426  40.5643818
  33.4099302 105.6195732  40.1135008  36.3327999 102.3968363  44.6621484
  35.5660395 101.8426849  44.8078166  36.7438704 102.4690232  45.5235635
  28.3369761 108.6853159  58.7526665  29.2001222 108.3289963  58.9629989
  27.7635171 108.3467053  59.4402069  47.7576385 119.5372857  51.6141175
  47.4140655 120.4274499  51.5380285  48.1255348 119.3474515  50.7510760
  49.5564051 118.7966416  46.7158912  49.8622928 117.9363780  46.4284827
  50.2816656 119.3884037  46.5157906  49.8265669 121.2260652  49.2142833
  48.9128749 121.4564879  49.3825040  50.2558770 121.3099096  50.0656866
  47.2618223 118.5964742  48.1387895  47.5419976 117.9287932  48.7648321
  48.0468830 118.7893838  47.6262558  51.4220374 120.7740555  47.0055865
  51.2245195 120.4655643  47.8899197  52.0320080 121.5002194  47.1353795
  47.1794021 120.6549462  44.7552397  47.7325059 121.0744915  45.4142420
  47.4164107 119.7285210  44.7975353  47.1721754 117.7260280  44.6621484
  46.4054150 117.1718767  44.8078166  47.5832459 117.7982149  45.5235635
   4.8216522  31.5031427  34.1332868   4.0680231  30.9338825  33.9776873
   4.9564064  31.4694092  35.0803503   1.6432270  31.4734177  32.0376535
   2.0863416  30.7241503  31.6395659   0.7658781  31.4644314  31.6550267
   1.1865135  32.9439416  34.4298983   2.0212026  33.3829220  34.5936543
   1.3224264  32.4678069  33.6107229   5.2322938  31.6607037  36.8653113
   5.9626326  31.3992325  37.4260816   4.6229883  30.9235759  36.9055181
   3.3138235  29.8014900  37.4627564   2.5871398  29.6670865  36.8544056
   2.8985522  30.1091728  38.2684282   0.9316030  26.0226752  34.8160996
   1.5260520  25.7822488  34.1054304   1.0042613  25.3033883  35.4434532
   3.2387102  29.3292953  33.5904417   2.6786660  29.3986142  34.3635979
   2.6330606  29.1533937  32.8703913   4.8243121  46.0049467  36.2834372
   5.4621531  45.8856214  35.5797713   4.7063964  46.9530311  36.3422325
   1.6332827  45.9576895  36.2195897   1.2951339  45.8417960  35.3316432
   2.5022595  45.5568060  36.1996903   2.1152610  47.1111747  42.1782103
   2.1041251  46.7164545  41.3062606   2.2773250  46.3777819  42.7715874
   3.0719201  51.4783339  27.5207253   2.4207181  52.0637419  27.1341267
   3.8663564  52.0089534  27.5802290   4.3784389  43.7300921  33.3587581
   5.1647478  43.3120344  33.0077998   4.6423094  44.6347013  33.5269229
   4.5494467  49.1673771  28.0576237   3.9140300  49.2408397  28.7697142
   4.2191873  49.7567370  27.3795317   9.7792816  43.6676154  34.2620559
  10.5117988  43.0975371  34.4958389   9.0232172  43.2797754  34.7027065
   1.3968936  46.0903395  31.4583901   1.0327143  45.5634016  32.1696823
   2.2536052  45.7001864  31.2850387   7.3018237  37.3797728  38.7215168
   6.9701562  38.2493139  38.4976383   6.7063850  37.0634012  39.4009198
   1.0374423  41.1193295  26.4545250   1.2048825  41.9873531  26.8215721
   0.8471592  41.2820577  25.5306539   3.7949756  49.5810274  38.1211080
   3.4950479  50.4835313  38.0126888   3.4500816  49.3142457  38.9732233
   7.1946900  42.0992814  35.8008518   6.2863777  42.0308223  35.5067279
   7.1434496  42.5764759  36.6290343   1.2687766  43.5182460  43.7443415
   0.4921100  44.0776380  43.7346280   1.9078329  44.0039243  44.2658285
   9.0608546  40.3009253  37.5786392   8.4182927  40.5941786  36.9326186
   8.5563475  40.1862173  38.3839588   6.7148710  44.0472426  28.2672251
   7.6266566  44.2799812  28.0919948   6.2058357  44.6309470  27.7047329
   4.9989478  48.4697054  41.9033543   5.4072834  48.0279464  41.1588176
   4.2766739  47.8949681  42.1567736   1.3520548  43.4069660  39.2767100
   2.1981743  43.8309074  39.4201749   1.2919185  42.7503285  39.9705664
   5.3218292  49.0298244  35.6585832   4.6927155  49.1943958  34.9561900
   4.9343955  49.4439854  36.4296796   9.2007524  49.9652682  33.0130196
   8.5158562  50.3451583  32.4627229   9.2851374  50.5748009  33.7462144
   4.5019993  41.0674029  40.9348274   4.2580925  41.8216089  40.3982550
   4.7779924  41.4459376  41.7695521   6.4558456  47.6112641  39.6125540
   6.6675351  48.2544401  38.9359921   6.4088204  46.7774958  39.1447470
   4.0584685  40.2230462  36.5162112   3.1969164  40.5211715  36.8078849
   4.0847120  40.4400861  35.5843144   0.8746254  48.7672652  32.9235917
   1.3384600  49.0460355  32.1340540   0.6103052  47.8656097  32.7409008
   7.5704284  50.4884596  37.7847897   8.3921728  50.0864784  37.5030579
   7.5666687  50.3852831  38.7364013   1.3360887  50.0368640  39.9408607
   1.4005320  50.4989047  40.7766779   0.6271811  49.4066005  40.0690917
  15.6610277  46.8323345  34.1332868  14.9073985  46.2630743  33.9776873
  15.7957818  46.7986009  35.0803503   1.0508905  51.7036747  29.8087588
   0.9154580  52.5488283  30.2372436   1.5918717  51.9056025  29.0453522
   2.6777381  52.3260314  43.9387930   2.2341236  51.5396692  43.6208834
   3.3394595  52.5139464  43.2731821   4.7758619  52.6063114  41.9669331
   4.7577095  53.4271995  41.4749600   5.6978539  52.4817189  42.1919472
   1.2331674  50.1207243  42.8092839   1.7660010  49.3595531  42.5792147
   0.7045755  49.8280895  43.5516994   4.4001369  35.2267309  38.3386481
   4.0565638  36.1168951  38.2625592   4.7680331  35.0368967  37.4756066
   4.3651651  45.2175920  26.8458916   3.8498275  45.9880525  27.0847304
   4.0928960  44.5441056  27.4691978   1.9498762  40.0625621  31.9044155
   1.0940359  39.6732471  31.7249793   2.3625714  40.1417582  31.0443940
   3.4797909  37.5971964  36.3035714   2.9762705  37.5602099  35.4903520
   3.7728516  38.5064707  36.3632371   9.3385925  47.9708275  28.7812090
   8.5615368  47.6319434  28.3367252  10.0177406  47.9760898  28.1067055
   4.1537954  43.0903012  28.6718698   3.8488090  43.4049162  29.5228841
   5.1068397  43.1684432  28.7146031   2.5984386  49.2493236  30.3211652
   2.0705748  48.5145995  30.0084889   2.0971889  50.0267912  30.0751620
   7.5777232  47.4442256  35.4378698   6.9200907  48.1341518  35.5258826
   8.3817632  47.8338688  35.7812684   6.3882691  45.7986629  33.4882640
   6.9014573  46.4316621  33.9904349   7.0383915  45.1987824  33.1226000
   3.6505065  55.7770953  26.2443311   2.9766764  56.0802650  26.8528269
   4.0370887  56.5800033  25.8948768   2.8663522  43.2736084  35.7340980
   1.9486083  43.4951031  35.5762668   3.2823666  43.3482395  34.8752687
   3.6498570  44.6727500  30.8643660   4.3970389  45.1848897  30.5550782
   3.9190159  44.3511553  31.7248054   1.9225220  47.1686041  27.8470615
   1.0136439  46.8845074  27.9443084   1.9520304  47.5885119  26.9873921
   7.1544487  50.7792630  31.6161782   6.7006814  49.9383540  31.6726973
   6.5238454  51.4154029  31.9536562   6.0977407  41.7084616  32.8462450
   5.3600164  41.1962003  33.1772692   6.3504180  41.2684998  32.0345727
   5.5977427  52.6169127  32.5511600   5.8900401  53.1774184  31.8323966
   6.1076047  52.9097688  33.3064759   6.1989034  34.4860868  33.4404219
   6.5047911  33.6258232  33.1530134   6.9241639  35.0778489  33.2403213
   1.6201308  48.7094784  25.1858693   1.1820738  47.9930643  24.7264331
   2.3611749  48.9370899  24.6243785   0.5611052  53.3949478  33.6405054
   0.5187231  53.6210324  32.7113586   1.4773751  53.1612853  33.7890855
   4.0076686  43.8633546  40.5385683   4.3626073  44.0905019  41.3980149
   4.6548817  44.1951922  39.9162938   9.7374422  46.9851981  31.2435012
   9.5992321  47.1753577  30.3156201   9.3810641  47.7471364  31.7003063
   9.7643802  49.0528508  36.2546283  10.1980309  48.9603798  37.1029337
  10.4775383  49.0286009  35.6166299   3.4971697  52.6530603  37.7879384
   3.5508719  53.2221539  38.5557100   2.6286478  52.8232488  37.4233421
  10.6259352  49.0952209  38.7879169  10.8195242  49.9998020  39.0338444
  10.5259970  48.6359628  39.6217754   2.2795662  38.9810100  41.2869496
   1.6323577  39.6800049  41.1933972   3.0496678  39.4146244  41.6545744
   5.6874460  49.2458952  44.3620049   5.5359967  49.0169504  43.4450133
   5.6779140  50.2029553  44.3751394   2.4559797  46.8190865  39.3466316
   3.3851857  46.9702024  39.1735283   2.0350827  46.9074885  38.4914962
   1.8496280  55.9450626  28.4590390   2.0248036  55.4738669  29.2736013
   1.1629069  56.5716392  28.6871651   2.8053344  50.2223132  34.5053691
   2.4703176  50.1823902  35.4011341   2.3057289  49.5567848  34.0324101
   5.7412535  47.5679166  24.7790751   5.1241706  46.8425994  24.6823803
   5.2729024  48.3288526  24.4357825   7.3966667  52.2778074  42.4396531
   7.3379213  51.5937295  41.7727114   7.7986185  53.0197064  41.9877157
   7.3984074  50.2417658  40.6710511   6.5110853  49.9043580  40.7936910
   7.9682625  49.5100690  40.9079276   0.9285228  54.9019111  37.6371754
   0.8555399  55.7074082  38.1491059   0.4862621  55.1011077  36.8119775
   4.0271657  39.9485510  33.7908781   4.5240357  39.1955473  33.4709851
   3.2558639  39.9849827  33.2251990  11.8801415  45.6525876  35.4327072
  11.8691291  46.5350591  35.0621006  11.0118794  45.2997427  35.2381610
   3.3883911  54.8005945  39.7929913   4.1011883  55.4353410  39.7205814
   2.8973940  54.8969811  38.9769915   5.1101438  48.7057197  31.3647204
   4.1757717  48.8258660  31.1951909   5.2878107  47.8029664  31.1007214
   8.4973989  44.5474517  31.8997239   8.9634442  45.3802508  31.8257541
   8.9481490  44.0819498  32.6042497   6.5650221  50.8918338  28.8983391
   6.8410064  50.7774933  29.8077265   5.6954719  50.4935823  28.8595564
   6.4690652  36.9155104  35.9388140   5.5553732  37.1459331  36.1070347
   6.8983754  36.9993548  36.7902172   6.2397111  45.1044996  38.4388034
   5.5868561  45.3520903  37.7840487   6.6177491  44.2909134  38.1050511
   3.2004285  55.1404689  32.5416204   3.3826679  54.3226345  33.0043957
   4.0237271  55.3572381  32.1041094   3.5346450  54.0672874  29.8031253
   4.0634216  53.5565329  29.1901415   3.7974670  53.7515404  30.6676786
   2.2884684  45.8464807  44.9254071   1.6125321  45.7458936  45.5956446
   3.1112318  45.6904020  45.3890068   1.0307467  57.1531734  39.1611687
   1.5825775  57.3163356  39.9260772   1.3713660  57.7436172  38.4891712
   5.8818341  51.9792992  45.0160341   6.4258245  52.5922950  44.5215296
   5.3005186  52.5372570  45.5327354   4.1675854  55.1013710  36.1475369
   4.0426993  54.3003450  35.6386315   4.8254945  55.5959903  35.6589339
   6.2310762  52.9022730  37.7754919   5.2841098  52.7828081  37.7033246
   6.5793535  52.0145228  37.8581181   3.2357196  52.6975446  33.9759271
   3.0882158  51.7692153  34.1566841   4.0610689  52.7195537  33.4916347
   6.8391317  53.5204005  35.0624144   7.7637865  53.3146866  34.9248595
   6.6706621  53.2720406  35.9713486   3.2318710  40.5513284  28.9691389
   3.4482324  41.4337922  28.6680217   2.7512777  40.1599497  28.2397031
   1.6840445  40.9338885  37.6396150   1.4258223  41.8555956  37.6380481
   1.1525485  40.5369320  38.3296614   6.6286634  54.0389672  30.4186236
   6.8023511  53.4736095  29.6660088   7.1215525  54.8390567  30.2365726
   2.1042400  37.0670836  33.9997313   2.1264097  37.1310169  33.0449292
   2.5210459  36.2275344  34.1937819  12.4826025  46.8026095  32.0376535
  12.9257171  46.0533420  31.6395659  11.6052535  46.7936231  31.6550267
   7.6161806  53.3556437  27.5183134   8.3112711  53.9763129  27.7370449
   7.9584956  52.5051788  27.7935512   9.5153229  50.8056142  29.0470465
  10.0404553  51.1443415  28.3219785   9.4275582  49.8703157  28.8633599
   1.1773278  54.7190216  41.1760341   1.4860404  54.4739363  42.0483041
   1.9748760  54.9236854  40.6879212   1.1993890  56.8728125  33.4065718
   0.7598880  56.3804504  34.0998575   1.9502007  56.3301093  33.1657793
   9.2047135  51.4389046  44.3521663   8.4142679  51.4213185  43.8126162
   8.9680490  51.9777339  45.1070699   9.3245010  48.2881512  41.6654391
   9.3743015  48.1231520  42.6069914   9.2158934  47.4208771  41.2752272
   6.6148773  44.2712440  42.9813698   7.5158635  44.1318905  42.6897696
   6.6896747  44.4366895  43.9211875  10.8263207  50.7078454  41.9096413
  10.5348015  51.0708434  42.7459874  10.2135338  49.9945462  41.7309745
  12.0258889  48.2731333  34.4298983  12.8605781  48.7121138  34.5936543
  12.1618018  47.7969987  33.6107229   9.0750395  45.8311068  40.3776471
   9.5504517  46.0238715  39.5695322   8.1515961  45.8870254  40.1319854
   3.6530612  37.8658912  39.3432305   4.1712556  38.6019939  39.0178793
   3.2985745  38.1722905  40.1779064   3.9043206  34.2859194  34.8633201
   4.1844960  33.6182383  35.4893628   4.6893813  34.4788290  34.3507865
   1.7076675  53.4618188  26.4258228   1.1350642  54.0808375  25.9728699
   2.2809468  54.0117550  26.9598149   7.7752064  42.7076828  38.6104776
   8.7269487  42.8074926  38.6317000   7.6055515  41.9155097  39.1202861
   5.7966444  39.7932412  38.7964177   5.2016376  40.0737424  38.1010666
   5.5116141  40.2826313  39.5680918   4.9273934  53.7455338  27.5566810
   5.8604607  53.6800900  27.7599685   4.8397147  54.5811605  27.0981342
   7.5561951  53.0621209  24.5170757   7.4775582  52.7281072  25.4106515
   8.3771618  53.5542977  24.5162230  10.2540142  45.9282948  37.7247076
  10.2216462  44.9898949  37.9106760  10.8640766  46.0066985  36.9912901
   2.0923473  44.7979001  23.7674280   3.0382578  44.6685209  23.8362698
   1.7137718  44.0593663  24.2443708  10.4034631  42.7193991  37.7705359
   9.8873679  41.9352448  37.5835288  11.2874579  42.3912708  37.9351879
   8.0645358  36.4635007  33.7301172   7.8670179  36.1550095  34.6144504
   8.6745063  37.1896646  33.8599102  16.0716692  46.9898955  36.8653113
  16.8020080  46.7284243  37.4260816  15.4623637  46.2527677  36.9055181
  14.1531989  45.1306817  37.4627564  13.4265153  44.9962782  36.8544056
  13.7379276  45.4383646  38.2684282   1.9762166  48.8496747  45.2274937
   2.8965175  49.0275346  45.4214984   1.9411749  47.9052793  45.0754636
   1.8928456  37.2665867  29.8573407   1.0829184  36.9212952  30.2328653
   2.5812873  36.9573411  30.4461018   3.8219004  36.3443914  31.4797703
   4.3750043  36.7639367  32.1387726   4.0589091  35.4179662  31.5220659
   7.1997811  38.4544439  30.9876367   6.6196480  39.1129243  30.6054420
   6.9333744  37.6321784  30.5763785   5.6501378  37.8549497  33.1897688
   6.1501156  37.9666031  32.3812007   6.2936986  37.5510550  33.8298496
   5.9822689  40.6144529  30.0432716   5.0948544  40.8994180  29.8252910
   6.3976678  40.4538293  29.1959993   9.3337225  40.6391050  33.7587055
  10.1097616  41.1287503  34.0311672   8.6085360  41.0649105  34.2158924
  11.7709784  41.3518670  34.8160996  12.3654275  41.1114406  34.1054304
  11.8436368  40.6325800  35.4434532   5.1265903  50.3789204  24.1380736
   5.8301753  50.5839207  24.7538391   4.4028552  50.9465966  24.4029819
   5.9563713  46.1299065  30.2583006   5.8998914  46.5867617  29.4190638
   6.5092055  45.3689750  30.0805849   9.7668519  41.9188797  31.0833125
   9.5105453  41.5185433  31.9141333   9.1421387  42.6332591  30.9583265
  14.0780857  44.6584871  33.5904417  13.5180415  44.7278060  34.3635979
  13.4724360  44.4825855  32.8703913   7.0352600  50.8171733  26.1879196
   7.8698204  50.3852932  26.0056671   6.8736943  50.6453747  27.1156090
   6.6898492  47.3203847  27.5535535   6.6347296  47.1548118  26.6123979
   6.0644548  48.0279880  27.7097725   4.0044400  49.6252759  46.8789098
   4.8735559  49.7993411  46.5175733   3.5251151  50.4447175  46.7564827
   3.8146737  33.4154732  31.3866790   3.0479133  32.8613219  31.5323473
   4.2257442  33.4876601  32.2480942  15.6636875  61.3341384  36.2834372
  16.3015285  61.2148132  35.5797713  15.5457718  62.2822228  36.3422325
  12.4726582  61.2868813  36.2195897  12.1345093  61.1709877  35.3316432
  13.3416350  60.8859978  36.1996903   8.3313397  63.1404289  32.2092788
   7.7678262  63.0494226  31.4409076   8.2165792  62.3204193  32.6895281
  12.9546365  62.4403664  42.1782103  12.9435005  62.0456463  41.3062606
  13.1167004  61.7069737  42.7715874   5.8777829  64.6355481  35.0477009
   6.6699121  64.2946305  34.6323308   6.1174479  64.7450456  35.9679162
  13.9112956  66.8075257  27.5207253  13.2600936  67.3929337  27.1341267
  14.7057319  67.3381452  27.5802290   7.8368583  63.8964394  27.9194387
   8.6099459  63.3493381  27.7807263   8.1893982  64.7608643  28.1308849
   9.6753626  65.2240776  41.1261287   9.3843492  66.1286407  41.0107953
  10.3110610  65.2657304  41.8405356  10.6009833  62.6017625  37.7162646
  11.1973405  62.3773647  37.0019609  10.6584804  61.8602370  38.3188094
  10.1734861  60.0557060  25.5512837  10.4260382  59.5338581  24.7896300
   9.2359420  59.8923205  25.6539521  15.2178144  59.0592838  33.3587581
  16.0041233  58.6412261  33.0077998  15.4816848  59.9638930  33.5269229
  15.3888221  64.4965689  28.0576237  14.7534054  64.5700315  28.7697142
  15.0585628  65.0859287  27.3795317  20.6186571  58.9968072  34.2620559
  21.3511743  58.4267288  34.4958389  19.8625927  58.6089672  34.7027065
   9.8931150  61.9585166  27.7537212   9.7767408  61.2830069  28.4218297
  10.0033410  61.4717540  26.9369365  12.2362691  61.4195313  31.4583901
  11.8720898  60.8925934  32.1696823  13.0929807  61.0293782  31.2850387
  18.1411991  52.7089646  38.7215168  17.8095316  53.5785057  38.4976383
  17.5457605  52.3925930  39.4009198  11.8768178  56.4485213  26.4545250
  12.0442580  57.3165449  26.8215721  11.6865347  56.6112494  25.5306539
  14.6343511  64.9102192  38.1211080  14.3344234  65.8127230  38.0126888
  14.2894570  64.6434375  38.9732233   8.0855992  61.3615988  34.1547785
   7.1606489  61.2292203  34.3625477   8.3340405  62.1410208  34.6517727
  18.0340655  57.4284732  35.8008518  17.1257532  57.3600140  35.5067279
  17.9828250  57.9056677  36.6290343  11.8557398  58.9042870  27.4391917
  11.7357024  59.3499921  28.2777397  11.1609987  59.2528188  26.8805455
   5.4464803  61.0049262  34.9891574   5.5757184  61.2583741  35.9030986
   4.7662255  61.5976970  34.6696229   9.6164291  71.6746512  31.0882048
   9.5388320  72.6254337  31.1670529   9.0125934  71.3292384  31.7456974
  12.1081520  58.8474377  43.7443415  11.3314854  59.4068298  43.7346280
  12.7472083  59.3331160  44.2658285  19.9002301  55.6301170  37.5786392
  19.2576681  55.9233703  36.9326186  19.3957229  55.5154091  38.3839588
  17.5542465  59.3764343  28.2672251  18.4660321  59.6091730  28.0919948
  17.0452112  59.9601388  27.7047329  10.3627893  61.6559831  43.3061382
  11.1042577  62.1944875  43.0296206   9.6564878  62.2826120  43.4632934
  15.8383232  63.7988971  41.9033543  16.2466588  63.3571382  41.1588176
  15.1160494  63.2241599  42.1567736  12.1914302  58.7361578  39.2767100
  13.0375498  59.1600992  39.4201749  12.1312940  58.0795202  39.9705664
  16.1612047  64.3590162  35.6585832  15.5320909  64.5235876  34.9561900
  15.7737709  64.7731771  36.4296796  20.0401279  65.2944600  33.0130196
  19.3552317  65.6743501  32.4627229  20.1245128  65.9039926  33.7462144
  15.3413748  56.3965946  40.9348274  15.0974680  57.1508007  40.3982550
  15.6173678  56.7751294  41.7695521  17.2952210  62.9404559  39.6125540
  17.5069106  63.5836319  38.9359921  17.2481959  62.1066875  39.1447470
  14.8978439  55.5522379  36.5162112  14.0362918  55.8503633  36.8078849
  14.9240874  55.7692778  35.5843144  11.7140009  64.0964570  32.9235917
  12.1778354  64.3752273  32.1340540  11.4496807  63.1948015  32.7409008
   8.6064090  63.6436051  35.8615681   9.1765447  64.0723320  35.2233165
   9.1972202  63.3618636  36.5599866  10.6508895  60.2187722  29.7325483
  11.3532938  60.6708766  30.1999409  10.3189523  59.5771541  30.3605376
   9.0989256  58.8099479  44.1076692   8.4687917  59.4915760  44.3412089
   8.9925344  58.6982561  43.1629830   4.3934229  58.4771275  35.0342616
   3.6033283  58.7328803  34.5582727   4.8845476  59.2919613  35.1394657
  18.4098038  65.8176514  37.7847897  19.2315482  65.4156701  37.5030579
  18.4060441  65.7144748  38.7364013   6.3448974  58.8415854  31.9926093
   5.5480137  58.9534548  32.5109589   6.1174566  59.1802506  31.1266983
  12.1754642  65.3660557  39.9408607  12.2399074  65.8280965  40.7766779
  11.4665566  64.7357922  40.0690917   2.6771932  58.7301765  37.4657607
   2.9279970  59.6148775  37.7315183   3.2131480  58.5506367  36.6932699
  26.5004031  62.1615263  34.1332868  25.7467740  61.5922661  33.9776873
  26.6351573  62.1277927  35.0803503  11.8902659  67.0328665  29.8087588
  11.7548334  67.8780201  30.2372436  12.4312472  67.2347943  29.0453522
   8.3769999  53.1120245  46.4701943   7.9836945  52.5586443  47.1449587
   9.1936139  53.4230823  46.8608461   5.3432057  64.5504103  30.3815513
   5.8556577  65.3447353  30.5321078   5.9954770  63.8530393  30.3149114
   7.1526942  67.6669859  32.4638266   7.3293570  68.5887824  32.2759250
   7.9483775  67.3528278  32.8932646  11.2937960  54.5278124  44.0622200
  12.0347673  55.1285277  43.9826662  11.5255883  53.7855762  43.5040242
   6.4379298  59.7134491  42.3400429   6.3232813  58.8119748  42.6407528
   5.5823816  59.9598188  41.9885246  13.5171136  67.6552231  43.9387930
  13.0734990  66.8688610  43.6208834  14.1788349  67.8431382  43.2731821
   8.2758257  69.1848033  38.4648608   8.8265682  69.0565096  37.6925602
   7.4369733  69.4842922  38.1143501  15.6152374  67.9355031  41.9669331
  15.5970849  68.7563912  41.4749600  16.5372294  67.8109107  42.1919472
  12.0725428  65.4499161  42.8092839  12.6053765  64.6887449  42.5792147
  11.5439509  65.1572813  43.5516994  15.2395123  50.5559227  38.3386481
  14.8959392  51.4460868  38.2625592  15.6074086  50.3660884  37.4756066
   3.3080974  62.8792757  31.1575083   4.1456196  63.2889766  30.9408791
   3.4859241  61.9392199  31.1275277  15.2045406  60.5467838  26.8458916
  14.6892029  61.3172443  27.0847304  14.9322714  59.8732974  27.4691978
  12.7892517  55.3917539  31.9044155  11.9334113  55.0024389  31.7249793
  13.2019469  55.4709499  31.0443940  14.3191663  52.9263882  36.3035714
  13.8156459  52.8894017  35.4903520  14.6122270  53.8356625  36.3632371
  10.5634549  53.0102612  35.3101896  11.4287546  52.8145420  34.9507786
  10.6312058  52.7812963  36.2371253  20.1779680  63.3000193  28.7812090
  19.4009123  62.9611352  28.3367252  20.8571161  63.3052816  28.1067055
  14.9931709  58.4194930  28.6718698  14.6881844  58.7341079  29.5228841
  15.9462151  58.4976350  28.7146031  13.4378141  64.5785153  30.3211652
  12.9099502  63.8437913  30.0084889  12.9365643  65.3559830  30.0751620
  18.4170987  62.7734174  35.4378698  17.7594661  63.4633435  35.5258826
  19.2211386  63.1630606  35.7812684   8.1696868  55.2404820  32.6818263
   8.7440620  55.0180001  31.9491456   8.7567851  55.3093514  33.4346864
  17.2276446  61.1278546  33.4882640  17.7408327  61.7608538  33.9904349
  17.8777669  60.5279742  33.1226000   8.4966455  57.2709281  26.7014148
   7.6603768  57.6083967  27.0223423   8.3571225  57.1358260  25.7641285
  10.4719536  52.1146069  31.4093332   9.8183948  51.7995086  30.7849947
  10.4300010  51.4921809  32.1353155  11.5830741  62.3965364  23.3246625
  10.6757803  62.1654617  23.5237774  12.0801773  61.6002983  23.5120606
  14.4898820  71.1062871  26.2443311  13.8160519  71.4094568  26.8528269
  14.8764642  71.9091951  25.8948768  13.7057276  58.6028002  35.7340980
  12.7879838  58.8242949  35.5762668  14.1217420  58.6774313  34.8752687
  14.4892324  60.0019418  30.8643660  15.2364143  60.5140815  30.5550782
  14.7583914  59.6803470  31.7248054  12.7618974  62.4977958  27.8470615
  11.8530194  62.2136991  27.9443084  12.7914058  62.9177037  26.9873921
  17.9938242  66.1084548  31.6161782  17.5400569  65.2675458  31.6726973
  17.3632209  66.7445946  31.9536562  16.9371161  57.0376534  32.8462450
  16.1993918  56.5253920  33.1772692  17.1897935  56.5976916  32.0345727
  16.4371181  67.9461045  32.5511600  16.7294155  68.5066102  31.8323966
  16.9469802  68.2389606  33.3064759  17.0382789  49.8152786  33.4404219
  17.3441665  48.9550149  33.1530134  17.7635394  50.4070406  33.2403213
   3.3307145  60.2183473  31.8285817   3.1331545  59.6252833  31.1036883
   2.7753809  59.9135683  32.5461756  11.3103868  60.1106579  33.9480410
  11.3652478  59.1580415  33.8722887  10.4995070  60.2666018  34.4321708
  12.4595062  64.0386702  25.1858693  12.0214492  63.3222561  24.7264331
  13.2005503  64.2662817  24.6243785   9.2496228  58.7283639  31.7070789
   8.4364094  59.0277809  32.1135981   9.7455223  58.3339328  32.4245271
  11.4004806  68.7241396  33.6405054  11.3580985  68.9502242  32.7113586
  12.3167505  68.4904770  33.7890855  14.8470440  59.1925463  40.5385683
  15.2019828  59.4196936  41.3980149  15.4942571  59.5243840  39.9162938
  20.5768177  62.3143899  31.2435012  20.4386076  62.5045495  30.3156201
  20.2204396  63.0763282  31.7003063   8.7410303  56.3001994  37.3232024
   9.3809682  56.1590753  36.6254987   7.9087834  56.0136508  36.9470626
  20.6037557  64.3820426  36.2546283  21.0374063  64.2895715  37.1029337
  21.3169137  64.3577927  35.6166299   9.5170607  65.6004425  33.4367016
  10.3111206  65.1054745  33.2349591   8.8062299  65.0722288  33.0734722
  14.3365451  67.9822520  37.7879384  14.3902474  68.5513457  38.5557100
  13.4680233  68.1524405  37.4233421   5.8253370  59.7447506  29.5126769
   4.8950959  59.6831962  29.7296731   5.9210842  59.2223459  28.7163410
   5.7438920  56.2702319  32.1005011   6.0045737  57.1847653  31.9914171
   6.5656092  55.8026762  32.2501623   7.2163845  57.6840076  39.2703835
   7.8886898  57.4757439  38.6216484   6.3893631  57.4862162  38.8309067
  21.4653106  64.4244127  38.7879169  21.6588996  65.3289937  39.0338444
  21.3653724  63.9651546  39.6217754  13.1189417  54.3102017  41.2869496
  12.4717332  55.0091967  41.1933972  13.8890432  54.7438161  41.6545744
  16.5268215  64.5750870  44.3620049  16.3753721  64.3461421  43.4450133
  16.5172894  65.5321471  44.3751394  13.2953551  62.1482782  39.3466316
  14.2245611  62.2993942  39.1735283  12.8744581  62.2366803  38.4914962
  12.0941883  66.1733447  37.1164853  11.9552969  65.8052231  37.9890791
  11.3056479  66.6881086  36.9448811  12.6890035  71.2742543  28.4590390
  12.8641791  70.8030586  29.2736013  12.0022823  71.9008309  28.6871651
  13.6447098  65.5515049  34.5053691  13.3096931  65.5115819  35.4011341
  13.1451044  64.8859765  34.0324101   7.6191342  60.9582679  40.0306272
   7.4811140  60.2262918  40.6317811   8.5296266  60.8691580  39.7490460
  16.5806290  62.8971084  24.7790751  15.9635460  62.1717912  24.6823803
  16.1122778  63.6580444  24.4357825  10.2473643  60.6702639  39.5189952
  10.9573261  60.0295831  39.4776570  10.2042951  60.9215534  40.4416133
  18.2360421  67.6069992  42.4396531  18.1772968  66.9229212  41.7727114
  18.6379940  68.3488982  41.9877157   8.9602577  57.6567857  41.3385591
   8.4239934  57.2058595  41.9907188   8.3719285  57.7913765  40.5956056
   7.2551120  74.4231906  35.2330250   7.4947718  75.0550430  35.9109269
   6.4120317  74.0719946  35.5195609   8.3704836  57.1156508  23.9012055
   7.4934302  56.9945309  23.5374302   8.8462589  56.3242586  23.6490944
  18.2377829  65.5709576  40.6710511  17.3504607  65.2335498  40.7936910
  18.8076380  64.8392607  40.9079276   4.6941698  56.7923864  38.4238586
   4.6099887  56.1849534  37.6888996   3.8724404  57.2832883  38.4248082
  11.7678982  70.2311028  37.6371754  11.6949154  71.0366000  38.1491059
  11.3256375  70.4302994  36.8119775  11.5568762  69.4682798  31.1474576
  10.7736284  70.0104479  31.2412800  12.2561507  69.9856778  31.5468817
  14.8665412  55.2777428  33.7908781  15.3634111  54.5247390  33.4709851
  14.0952393  55.3141745  33.2251990  22.7195169  60.9817793  35.4327072
  22.7085046  61.8642509  35.0621006  21.8512549  60.6289344  35.2381610
  14.2277666  70.1297862  39.7929913  14.9405638  70.7645327  39.7205814
  13.7367694  70.2261728  38.9769915  15.9495193  64.0349115  31.3647204
  15.0151471  64.1550578  31.1951909  16.1271861  63.1321582  31.1007214
  11.4500381  57.4194811  33.5180466  11.0798168  56.8665851  34.2061371
  11.9459473  56.8152944  32.9655466  19.3367744  59.8766434  31.8997239
  19.8028196  60.7094426  31.8257541  19.7875244  59.4111416  32.6042497
   9.2789579  67.8792306  40.6135484   9.9799039  68.5128789  40.7664878
   8.8084694  68.2207037  39.8531123  17.4043975  66.2210256  28.8983391
  17.6803819  66.1066850  29.8077265  16.5348474  65.8227741  28.8595564
  17.3084407  52.2447021  35.9388140  16.3947486  52.4751248  36.1070347
  17.7377508  52.3285465  36.7902172  17.0790865  60.4336913  38.4388034
  16.4262315  60.6812821  37.7840487  17.4571245  59.6201052  38.1050511
  14.0398039  70.4696607  32.5416204  14.2220434  69.6518262  33.0043957
  14.8631025  70.6864299  32.1041094  14.3740205  69.3964792  29.8031253
  14.9027971  68.8857246  29.1901415  14.6368424  69.0807322  30.6676786
  13.1278438  61.1756724  44.9254071  12.4519075  61.0750854  45.5956446
  13.9506072  61.0195938  45.3890068   4.8757297  67.4128661  37.5466586
   5.4610734  66.6672349  37.6794490   4.6782136  67.7232618  38.4303250
   7.7295952  70.4479908  32.5629029   7.0606328  70.9326036  32.0793069
   7.5908822  70.6949129  33.4772407  11.8701221  72.4823652  39.1611687
  12.4219529  72.6455273  39.9260772  12.2107415  73.0728090  38.4891712
   6.8465714  54.8298802  39.7633572   6.9107041  55.6913633  39.3510969
   6.7832835  54.2172803  39.0305930   6.3217987  56.9021934  43.4106606
   6.9490026  56.5199012  44.0244130   5.4645906  56.6836136  43.7762298
  16.7212095  67.3084909  45.0160341  17.2651999  67.9214868  44.5215296
  16.1398940  67.8664488  45.5327354   3.0983530  58.7098363  29.3424961
   3.3936971  57.8009042  29.2892014   2.1971565  58.6886103  29.0205963
  15.0069608  70.4305627  36.1475369  14.8820748  69.6295367  35.6386315
  15.6648699  70.9251821  35.6589339   6.6277777  56.7854360  35.3252509
   5.9064362  57.3990328  35.1859983   7.4171032  57.3212125  35.2469155
  17.0704517  68.2314647  37.7754919  16.1234852  68.1119999  37.7033246
  17.4187290  67.3437146  37.8581181   9.4304090  54.1208786  41.5993161
   9.9538492  54.3671083  42.3619470   9.2116423  54.9528821  41.1796298
   4.8271371  56.3912461  29.4664286   4.4984077  55.5109840  29.2839392
   5.1810742  56.3360130  30.3540675  14.0750950  68.0267364  33.9759271
  13.9275912  67.0984071  34.1566841  14.9004444  68.0487454  33.4916347
   7.9413194  56.6785431  29.8339764   8.2809267  57.2071352  29.1118372
   8.3885315  57.0165837  30.6098330  17.6785072  68.8495922  35.0624144
  18.6031619  68.6438784  34.9248595  17.5100375  68.6012324  35.9713486
  10.6356635  55.0622481  39.2842832  10.2953455  54.2630295  39.6863512
   9.9295641  55.3624192  38.7119665  11.2873107  52.1471794  37.7370155
  12.1099176  51.6732272  37.6149045  11.5311170  52.9262278  38.2368841
   9.9281341  55.1760052  28.0333056  10.6489704  55.5541305  27.5296773
   9.3046646  55.8948929  28.1368034  14.0712464  55.8805201  28.9691389
  14.2876079  56.7629839  28.6680217  13.5906531  55.4891415  28.2397031
   8.8111686  58.8390915  35.5462133   8.6656266  59.1531218  36.4386415
   8.3336889  59.4575815  34.9933032  10.6708069  55.8293463  35.5943023
  10.6569637  54.9334556  35.2575321  11.3880497  55.8364126  36.2281309
  12.5234199  56.2630803  37.6396150  12.2651977  57.1847873  37.6380481
  11.9919240  55.8661237  38.3296614  17.4680388  69.3681590  30.4186236
  17.6417266  68.8028012  29.6660088  17.9609279  70.1682485  30.2365726
   3.2857348  61.3796259  38.4849794   2.7410816  62.1556067  38.6170069
   4.1636698  61.7267063  38.3268916  10.0744965  54.7107843  30.8630593
  10.1960876  53.7824489  31.0621480   9.7847007  54.7246529  29.9508908
  12.9436155  52.3962753  33.9997313  12.9657852  52.4602086  33.0449292
  13.3604214  51.5567262  34.1937819  23.3219779  62.1318013  32.0376535
  23.7650925  61.3825338  31.6395659  22.4446290  62.1228149  31.6550267
  18.4555561  68.6848354  27.5183134  19.1506465  69.3055047  27.7370449
  18.7978711  67.8343705  27.7935512   4.0723370  60.5066155  41.3779951
   3.3305106  60.6548791  41.9644582   3.7516114  60.7674421  40.5146701
  20.3546984  66.1348060  29.0470465  20.8798308  66.4735333  28.3219785
  20.2669336  65.1995075  28.8633599  12.0167032  70.0482133  41.1760341
  12.3254159  69.8031280  42.0483041  12.8142514  70.2528772  40.6879212
  12.0387644  72.2020043  33.4065718  11.5992635  71.7096422  34.0998575
  12.7895761  71.6593011  33.1657793   4.5179983  68.3931584  33.4090346
   5.3438003  68.0935356  33.0288989   4.1674035  67.6239206  33.8580135
   9.4861517  67.7458052  35.4788020   8.8641526  67.0828757  35.1790247
  10.1566383  67.7719184  34.7961667   2.7188588  66.3117910  34.3679280
   1.8820497  65.8840085  34.1863281   2.6912234  66.5050354  35.3050071
   9.5586044  56.2239840  45.0720526   9.6074200  57.1001963  44.6898295
  10.1008558  55.6817233  44.4992169  20.0440890  66.7680963  44.3521663
  19.2536433  66.7505102  43.8126162  19.8074244  67.3069257  45.1070699
  20.1638765  63.6173430  41.6654391  20.2136770  63.4523437  42.6069914
  20.0552688  62.7500689  41.2752272   9.0475023  66.2961976  28.9546480
   9.1963144  66.9797440  28.3013153   9.8541467  66.2767066  29.4695936
  17.4542527  59.6004358  42.9813698  18.3552390  59.4610823  42.6897696
  17.5290502  59.7658813  43.9211875  11.7885332  56.9771213  41.8266884
  10.9188642  57.2704779  41.5549473  12.0244813  57.5611658  42.5474148
  21.6656962  66.0370371  41.9096413  21.3741770  66.4000352  42.7459874
  21.0529093  65.3237380  41.7309745  22.8652644  63.6023251  34.4298983
  23.6999535  64.0413055  34.5936543  23.0011773  63.1261904  33.6107229
  19.9144150  61.1602986  40.3776471  20.3898271  61.3530632  39.5695322
  18.9909715  61.2162172  40.1319854   6.8027656  62.3227153  29.9607549
   6.5573698  61.4189483  30.1587759   6.9723571  62.3244304  29.0187027
  14.4924366  53.1950830  39.3432305  15.0106310  53.9311856  39.0178793
  14.1379499  53.5014823  40.1779064   6.0723304  58.0555511  27.4593710
   5.3792549  58.1299866  26.8033746   5.8275056  57.2915854  27.9815227
  14.7436960  49.6151112  34.8633201  15.0238714  48.9474301  35.4893628
  15.5287567  49.8080208  34.3507865  12.5470429  68.7910106  26.4258228
  11.9744396  69.4100293  25.9728699  13.1203223  69.3409468  26.9598149
  18.6145819  58.0368746  38.6104776  19.5663242  58.1366844  38.6317000
  18.4449269  57.2447015  39.1202861  16.6360198  55.1224329  38.7964177
  16.0410130  55.4029342  38.1010666  16.3509895  55.6118230  39.5680918
  15.7667689  69.0747256  27.5566810  16.6998362  69.0092818  27.7599685
  15.6790902  69.9103523  27.0981342  18.3955705  68.3913126  24.5170757
  18.3169337  68.0572990  25.4106515  19.2165372  68.8834894  24.5162230
  21.0933897  61.2574866  37.7247076  21.0610217  60.3190866  37.9106760
  21.7034520  61.3358902  36.9912901  12.9317227  60.1270919  23.7674280
  13.8776332  59.9977127  23.8362698  12.5531472  59.3885581  24.2443708
  21.2428385  58.0485909  37.7705359  20.7267434  57.2644366  37.5835288
  22.1268334  57.7204626  37.9351879  18.9039112  51.7926925  33.7301172
  18.7063933  51.4842013  34.6144504  19.5138818  52.5188564  33.8599102
  26.9110446  62.3190873  36.8653113  27.6413835  62.0576161  37.4260816
  26.3017392  61.5819595  36.9055181  24.9925744  60.4598735  37.4627564
  24.2658907  60.3254700  36.8544056  24.5773030  60.7675564  38.2684282
  12.8155920  64.1788665  45.2274937  13.7358929  64.3567264  45.4214984
  12.7805503  63.2344710  45.0754636  11.1160145  58.0520895  23.7029165
  10.2091600  57.7554008  23.7791879  11.3936126  57.7550713  22.8363451
   2.0338085  59.3727259  34.1528212   1.7140869  58.5192567  33.8602586
   1.4871513  59.5875837  34.9086179   5.8117993  62.0889700  37.8697718
   6.0304002  63.0206807  37.8885752   6.2243766  61.7297674  38.6552522
  12.7322210  52.5957785  29.8573407  11.9222939  52.2504870  30.2328653
  13.4206627  52.2865329  30.4461018  14.6612759  51.6735832  31.4797703
  15.2143797  52.0931285  32.1387726  14.8982845  50.7471580  31.5220659
  10.6845858  57.6622905  47.2600467  10.5842585  58.6117262  47.1912558
  10.4667400  57.3341144  46.3876537   9.8858929  54.9107830  23.8441144
  10.7478093  55.2362729  24.1036962  10.0709273  54.1239326  23.3314210
   1.9026345  62.9930170  36.1221333   1.2089816  62.5784123  35.6091288
   2.6499336  63.0350707  35.5254752  18.0391566  53.7836357  30.9876367
  17.4590235  54.4421161  30.6054420  17.7727498  52.9613701  30.5763785
  16.4895132  53.1841414  33.1897688  16.9894910  53.2957949  32.3812007
  17.1330740  52.8802467  33.8298496  10.5477128  61.0920044  46.0765529
  10.0644210  61.8920404  46.2829418  10.6338067  61.1027989  45.1232973
   3.8163088  62.9248424  33.9987348   3.7933776  63.0236111  33.0469231
   4.1263724  63.7713575  34.3204514   6.4750465  64.9824579  38.1133963
   7.4293719  64.9508521  38.0463894   6.2762989  64.5215203  38.9284188
   7.0649848  63.5525695  40.6804760   7.8842737  64.0469774  40.7039597
   7.3386655  62.6357663  40.6522328  16.8216444  55.9436447  30.0432716
  15.9342299  56.2286098  29.8252910  17.2370433  55.7830211  29.1959993
  20.1730980  55.9682968  33.7587055  20.9491370  56.4579421  34.0311672
  19.4479114  56.3941022  34.2158924  22.6103539  56.6810587  34.8160996
  23.2048029  56.4406323  34.1054304  22.6830122  55.9617718  35.4434532
   4.8300694  70.5244198  35.1304160   4.6955162  69.7644599  34.5642158
   4.4132756  71.2485098  34.6632949  15.9659657  65.7081122  24.1380736
  16.6695507  65.9131124  24.7538391  15.2422306  66.2757884  24.4029819
  16.7957468  61.4590983  30.2583006  16.7392669  61.9159535  29.4190638
  17.3485810  60.6981668  30.0805849  20.6062273  57.2480715  31.0833125
  20.3499208  56.8477351  31.9141333  19.9815141  57.9624509  30.9583265
  24.9174611  59.9876788  33.5904417  24.3574169  60.0569978  34.3635979
  24.3118115  59.8117773  32.8703913   7.9869820  71.4213515  35.3422603
   7.8702204  72.3658948  35.2401293   7.1662266  71.1187077  35.7308402
  17.8746355  66.1463651  26.1879196  18.7091959  65.7144850  26.0056671
  17.7130698  65.9745665  27.1156090  17.5292247  62.6495764  27.5535535
  17.4741051  62.4840036  26.6123979  16.9038302  63.3571797  27.7097725
   2.3184762  57.8863829  41.3796957   2.9643625  57.3762783  41.8684182
   2.1101913  58.6232510  41.9540382  14.8438154  64.9544676  46.8789098
  15.7129314  65.1285328  46.5175733  14.3644905  65.7739093  46.7564827
  10.8388372  52.1503873  27.1320853  10.8267042  53.0945713  27.2889124
  11.7311794  51.9674019  26.8380315   9.0124334  72.0741777  38.5578531
   9.9151581  72.1065387  38.8745026   8.7861704  71.1442228  38.5724867
  10.7677936  70.8272764  35.2188610   9.8173567  70.8274625  35.1052982
  11.0710422  70.0805498  34.7024645  14.6540492  48.7446650  31.3866790
  13.8872888  48.1905137  31.5323473  15.0651197  48.8168519  32.2480942
   6.6582253  55.0331446  45.4771971   7.5213714  54.6768251  45.6875296
   6.0847663  54.6945341  46.1647376  26.5030630  76.6633302  36.2834372
  27.1409040  76.5440050  35.5797713  26.3851473  77.6114146  36.3422325
  23.3120336  76.6160730  36.2195897  22.9738848  76.5001795  35.3316432
  24.1810104  76.2151895  36.1996903  19.1707152  78.4696207  32.2092788
  18.6072017  78.3786144  31.4409076  19.0559547  77.6496111  32.6895281
  23.7940119  77.7695582  42.1782103  23.7828760  77.3748380  41.3062606
  23.9560758  77.0361655  42.7715874  16.7171584  79.9647398  35.0477009
  17.5092876  79.6238223  34.6323308  16.9568234  80.0742373  35.9679162
  24.7506710  82.1367174  27.5207253  24.0994690  82.7221255  27.1341267
  25.5451073  82.6673369  27.5802290  18.6762338  79.2256312  27.9194387
  19.4493214  78.6785299  27.7807263  19.0287736  80.0900561  28.1308849
  20.5147380  80.5532694  41.1261287  20.2237246  81.4578325  41.0107953
  21.1504365  80.5949221  41.8405356  21.4403587  77.9309542  37.7162646
  22.0367159  77.7065565  37.0019609  21.4978559  77.1894288  38.3188094
  21.0128615  75.3848978  25.5512837  21.2654136  74.8630499  24.7896300
  20.0753174  75.2215123  25.6539521  26.0571898  74.3884756  33.3587581
  26.8434987  73.9704179  33.0077998  26.3210603  75.2930848  33.5269229
  26.2281976  79.8257606  28.0576237  25.5927809  79.8992233  28.7697142
  25.8979382  80.4151205  27.3795317  31.4580325  74.3259989  34.2620559
  32.1905497  73.7559206  34.4958389  30.7019681  73.9381590  34.7027065
  20.7324904  77.2877084  27.7537212  20.6161162  76.6121987  28.4218297
  20.8427164  76.8009458  26.9369365  23.0756445  76.7487231  31.4583901
  22.7114652  76.2217852  32.1696823  23.9323561  76.3585700  31.2850387
  28.9805746  68.0381563  38.7215168  28.6489070  68.9076974  38.4976383
  28.3851359  67.7217847  39.4009198  22.7161932  71.7777130  26.4545250
  22.8836334  72.6457367  26.8215721  22.5259101  71.9404412  25.5306539
  25.4737265  80.2394109  38.1211080  25.1737988  81.1419148  38.0126888
  25.1288325  79.9726293  38.9732233  18.9249747  76.6907906  34.1547785
  18.0000243  76.5584120  34.3625477  19.1734160  77.4702125  34.6517727
  28.8734409  72.7576649  35.8008518  27.9651286  72.6892058  35.5067279
  28.8222005  73.2348594  36.6290343  22.6951153  74.2334788  27.4391917
  22.5750778  74.6791839  28.2777397  22.0003741  74.5820106  26.8805455
  16.2858558  76.3341180  34.9891574  16.4150939  76.5875659  35.9030986
  15.6056009  76.9268888  34.6696229  20.4558045  87.0038430  31.0882048
  20.3782075  87.9546255  31.1670529  19.8519689  86.6584302  31.7456974
  22.9475275  74.1766295  43.7443415  22.1708609  74.7360215  43.7346280
  23.5865838  74.6623078  44.2658285  30.7396055  70.9593088  37.5786392
  30.0970436  71.2525621  36.9326186  30.2350984  70.8446008  38.3839588
  28.3936219  74.7056261  28.2672251  29.3054075  74.9383648  28.0919948
  27.8845866  75.2893305  27.7047329  21.2021647  76.9851748  43.3061382
  21.9436331  77.5236792  43.0296206  20.4958633  77.6118037  43.4632934
  26.6776987  79.1280889  41.9033543  27.0860343  78.6863299  41.1588176
  25.9554248  78.5533516  42.1567736  23.0308057  74.0653496  39.2767100
  23.8769252  74.4892909  39.4201749  22.9706694  73.4087120  39.9705664
  27.0005801  79.6882080  35.6585832  26.3714664  79.8527794  34.9561900
  26.6131463  80.1023689  36.4296796  30.8795033  80.6236517  33.0130196
  30.1946071  81.0035419  32.4627229  30.9638883  81.2331844  33.7462144
  26.1807502  71.7257864  40.9348274  25.9368434  72.4799925  40.3982550
  26.4567433  72.1043212  41.7695521  28.1345965  78.2696476  39.6125540
  28.3462860  78.9128236  38.9359921  28.0875713  77.4358793  39.1447470
  25.7372194  70.8814297  36.5162112  24.8756673  71.1795551  36.8078849
  25.7634629  71.0984696  35.5843144  22.5533763  79.4256488  32.9235917
  23.0172109  79.7044191  32.1340540  22.2890561  78.5239932  32.7409008
  19.4457844  78.9727969  35.8615681  20.0159201  79.4015238  35.2233165
  20.0365956  78.6910554  36.5599866  21.4902649  75.5479640  29.7325483
  22.1926693  76.0000684  30.1999409  21.1583278  74.9063459  30.3605376
  19.9383011  74.1391397  44.1076692  19.3081671  74.8207677  44.3412089
  19.8319099  74.0274478  43.1629830  15.2327983  73.8063193  35.0342616
  14.4427037  74.0620721  34.5582727  15.7239231  74.6211530  35.1394657
  29.2491793  81.1468432  37.7847897  30.0709237  80.7448619  37.5030579
  29.2454196  81.0436666  38.7364013  17.1842729  74.1707772  31.9926093
  16.3873892  74.2826466  32.5109589  16.9568321  74.5094424  31.1266983
  23.0148396  80.6952475  39.9408607  23.0792829  81.1572882  40.7766779
  22.3059320  80.0649840  40.0690917  13.5165686  74.0593683  37.4657607
  13.7673725  74.9440693  37.7315183  14.0525235  73.8798285  36.6932699
  37.3397786  77.4907180  34.1332868  36.5861494  76.9214578  33.9776873
  37.4745327  77.4569845  35.0803503  22.7296414  82.3620583  29.8087588
  22.5942089  83.2072118  30.2372436  23.2706226  82.5639860  29.0453522
  19.2163754  68.4412162  46.4701943  18.8230699  67.8878361  47.1449587
  20.0329894  68.7522741  46.8608461  16.1825811  79.8796021  30.3815513
  16.6950332  80.6739271  30.5321078  16.8348524  79.1822311  30.3149114
  17.9920696  82.9961777  32.4638266  18.1687324  83.9179742  32.2759250
  18.7877530  82.6820196  32.8932646  22.1331715  69.8570042  44.0622200
  22.8741428  70.4577195  43.9826662  22.3649637  69.1147679  43.5040242
  17.2773053  75.0426409  42.3400429  17.1626568  74.1411666  42.6407528
  16.4217570  75.2890106  41.9885246  24.3564890  82.9844149  43.9387930
  23.9128745  82.1980528  43.6208834  25.0182104  83.1723300  43.2731821
  19.1152012  84.5139951  38.4648608  19.6659437  84.3857014  37.6925602
  18.2763487  84.8134840  38.1143501  26.4546128  83.2646949  41.9669331
  26.4364604  84.0855830  41.4749600  27.3766048  83.1401024  42.1919472
  22.9119183  80.7791079  42.8092839  23.4447519  80.0179367  42.5792147
  22.3833264  80.4864730  43.5516994  26.0788878  65.8851144  38.3386481
  25.7353147  66.7752786  38.2625592  26.4467840  65.6952802  37.4756066
  14.1474728  78.2084675  31.1575083  14.9849950  78.6181683  30.9408791
  14.3252996  77.2684117  31.1275277  26.0439160  75.8759756  26.8458916
  25.5285784  76.6464360  27.0847304  25.7716469  75.2024892  27.4691978
  23.6286271  70.7209456  31.9044155  22.7727868  70.3316307  31.7249793
  24.0413223  70.8001417  31.0443940  25.1585418  68.2555800  36.3035714
  24.6550213  68.2185935  35.4903520  25.4516025  69.1648542  36.3632371
  21.4028304  68.3394529  35.3101896  22.2681301  68.1437338  34.9507786
  21.4705813  68.1104881  36.2371253  31.0173434  78.6292110  28.7812090
  30.2402877  78.2903270  28.3367252  31.6964915  78.6344733  28.1067055
  25.8325463  73.7486848  28.6718698  25.5275599  74.0632997  29.5228841
  26.7855906  73.8268268  28.7146031  24.2771895  79.9077071  30.3211652
  23.7493257  79.1729831  30.0084889  23.7759398  80.6851747  30.0751620
  29.2564741  78.1026091  35.4378698  28.5988416  78.7925353  35.5258826
  30.0605140  78.4922523  35.7812684  19.0090623  70.5696737  32.6818263
  19.5834375  70.3471919  31.9491456  19.5961605  70.6385432  33.4346864
  28.0670200  76.4570464  33.4882640  28.5802082  77.0900456  33.9904349
  28.7171424  75.8571660  33.1226000  19.3360210  72.6001198  26.7014148
  18.4997522  72.9375885  27.0223423  19.1964980  72.4650178  25.7641285
  21.3113291  67.4437986  31.4093332  20.6577703  67.1287003  30.7849947
  21.2693765  66.8213727  32.1353155  22.4224495  77.7257281  23.3246625
  21.5151557  77.4946535  23.5237774  22.9195527  76.9294901  23.5120606
  25.3292574  86.4354788  26.2443311  24.6554273  86.7386485  26.8528269
  25.7158396  87.2383869  25.8948768  24.5451031  73.9319920  35.7340980
  23.6273592  74.1534867  35.5762668  24.9611175  74.0066230  34.8752687
  25.3286079  75.3311335  30.8643660  26.0757898  75.8432733  30.5550782
  25.5977668  75.0095388  31.7248054  23.6012729  77.8269876  27.8470615
  22.6923948  77.5428909  27.9443084  23.6307813  78.2468955  26.9873921
  28.8331996  81.4376466  31.6161782  28.3794323  80.5967376  31.6726973
  28.2025963  82.0737864  31.9536562  27.7764916  72.3668452  32.8462450
  27.0387673  71.8545838  33.1772692  28.0291689  71.9268833  32.0345727
  27.2764936  83.2752962  32.5511600  27.5687910  83.8358019  31.8323966
  27.7863556  83.5681523  33.3064759  27.8776543  65.1444704  33.4404219
  28.1835420  64.2842067  33.1530134  28.6029148  65.7362324  33.2403213
  14.1700899  75.5475390  31.8285817  13.9725299  74.9544751  31.1036883
  13.6147563  75.2427600  32.5461756  22.1497623  75.4398497  33.9480410
  22.2046233  74.4872333  33.8722887  21.3388825  75.5957936  34.4321708
  23.2988817  79.3678620  25.1858693  22.8608247  78.6514479  24.7264331
  24.0399258  79.5954735  24.6243785  20.0889983  74.0575556  31.7070789
  19.2757848  74.3569727  32.1135981  20.5848977  73.6631245  32.4245271
  22.2398561  84.0533313  33.6405054  22.1974740  84.2794160  32.7113586
  23.1561260  83.8196688  33.7890855  25.6864195  74.5217381  40.5385683
  26.0413582  74.7488854  41.3980149  26.3336326  74.8535758  39.9162938
  31.4161931  77.6435817  31.2435012  31.2779830  77.8337413  30.3156201
  31.0598150  78.4055200  31.7003063  19.5804058  71.6293912  37.3232024
  20.2203437  71.4882671  36.6254987  18.7481588  71.3428425  36.9470626
  31.4431311  79.7112344  36.2546283  31.8767818  79.6187633  37.1029337
  32.1562892  79.6869844  35.6166299  20.3564362  80.9296342  33.4367016
  21.1504960  80.4346663  33.2349591  19.6456054  80.4014206  33.0734722
  25.1759206  83.3114438  37.7879384  25.2296228  83.8805374  38.5557100
  24.3073987  83.4816323  37.4233421  16.6647125  75.0739424  29.5126769
  15.7344713  75.0123880  29.7296731  16.7604597  74.5515377  28.7163410
  16.5832674  71.5994237  32.1005011  16.8439491  72.5139570  31.9914171
  17.4049846  71.1318680  32.2501623  18.0557599  73.0131994  39.2703835
  18.7280653  72.8049356  38.6216484  17.2287386  72.8154080  38.8309067
  32.3046861  79.7536044  38.7879169  32.4982751  80.6581855  39.0338444
  32.2047479  79.2943464  39.6217754  23.9583171  69.6393935  41.2869496
  23.3111086  70.3383885  41.1933972  24.7284187  70.0730079  41.6545744
  27.3661969  79.9042787  44.3620049  27.2147476  79.6753339  43.4450133
  27.3566649  80.8613389  44.3751394  24.1347306  77.4774700  39.3466316
  25.0639366  77.6285860  39.1735283  23.7138336  77.5658721  38.4914962
  22.9335637  81.5025364  37.1164853  22.7946723  81.1344149  37.9890791
  22.1450234  82.0173004  36.9448811  23.5283789  86.6034461  28.4590390
  23.7035545  86.1322504  29.2736013  22.8416577  87.2300227  28.6871651
  24.4840853  80.8806967  34.5053691  24.1490685  80.8407737  35.4011341
  23.9844798  80.2151683  34.0324101  18.4585097  76.2874597  40.0306272
  18.3204895  75.5554836  40.6317811  19.3690020  76.1983497  39.7490460
  27.4200044  78.2263001  24.7790751  26.8029215  77.5009830  24.6823803
  26.9516533  78.9872362  24.4357825  21.0867397  75.9994556  39.5189952
  21.7967016  75.3587749  39.4776570  21.0436705  76.2507451  40.4416133
  29.0754176  82.9361910  42.4396531  29.0166722  82.2521130  41.7727114
  29.4773694  83.6780900  41.9877157  19.7996331  72.9859774  41.3385591
  19.2633688  72.5350513  41.9907188  19.2113040  73.1205683  40.5956056
  18.0944875  89.7523824  35.2330250  18.3341473  90.3842348  35.9109269
  17.2514071  89.4011864  35.5195609  19.2098590  72.4448426  23.9012055
  18.3328057  72.3237227  23.5374302  19.6856343  71.6534504  23.6490944
  29.0771583  80.9001494  40.6710511  28.1898362  80.5627416  40.7936910
  29.6470134  80.1684525  40.9079276  10.7300730  77.2325585  33.9953562
  11.4171770  76.9187316  33.4074578  10.5748859  78.1366950  33.7220814
  15.5335452  72.1215782  38.4238586  15.4493641  71.5141452  37.6888996
  14.7118159  72.6124800  38.4248082  22.6072737  85.5602946  37.6371754
  22.5342908  86.3657918  38.1491059  22.1650130  85.7594912  36.8119775
  22.3962516  84.7974716  31.1474576  21.6130038  85.3396396  31.2412800
  23.0955261  85.3148696  31.5468817  25.7059166  70.6069346  33.7908781
  26.2027866  69.8539308  33.4709851  24.9346148  70.6433662  33.2251990
  33.5588924  76.3109711  35.4327072  33.5478800  77.1934427  35.0621006
  32.6906303  75.9581262  35.2381610  25.0671420  85.4589780  39.7929913
  25.7799392  86.0937245  39.7205814  24.5761449  85.5553646  38.9769915
  26.7888947  79.3641033  31.3647204  25.8545226  79.4842495  31.1951909
  26.9665616  78.4613500  31.1007214  22.2894135  72.7486729  33.5180466
  21.9191923  72.1957769  34.2061371  22.7853228  72.1444862  32.9655466
  30.1761498  75.2058352  31.8997239  30.6421951  76.0386344  31.8257541
  30.6268999  74.7403334  32.6042497  20.1183334  83.2084224  40.6135484
  20.8192793  83.8420707  40.7664878  19.6478449  83.5498955  39.8531123
  28.2437730  81.5502173  28.8983391  28.5197573  81.4358768  29.8077265
  27.3742228  81.1519658  28.8595564  28.1478161  67.5738939  35.9388140
  27.2341241  67.8043166  36.1070347  28.5771263  67.6577383  36.7902172
  27.9184620  75.7628831  38.4388034  27.2656070  76.0104738  37.7840487
  28.2965000  74.9492969  38.1050511  24.8791794  85.7988524  32.5416204
  25.0614188  84.9810180  33.0043957  25.7024780  86.0156216  32.1041094
  25.2133959  84.7256709  29.8031253  25.7421725  84.2149164  29.1901415
  25.4762179  84.4099240  30.6676786  23.9672193  76.5048642  44.9254071
  23.2912830  76.4042771  45.5956446  24.7899827  76.3487856  45.3890068
  15.7151052  82.7420579  37.5466586  16.3004489  81.9964267  37.6794490
  15.5175890  83.0524535  38.4303250  18.5689707  85.7771826  32.5629029
  17.9000082  86.2617954  32.0793069  18.4302577  86.0241046  33.4772407
  10.3068706  75.3126179  36.2671029  10.3452806  74.7789770  37.0608147
   9.8008999  74.7861384  35.6482007  22.7094976  87.8115570  39.1611687
  23.2613284  87.9747191  39.9260772  23.0501169  88.4020007  38.4891712
  17.6859469  70.1590719  39.7633572  17.7500795  71.0205550  39.3510969
  17.6226589  69.5464721  39.0305930  17.1611741  72.2313852  43.4106606
  17.7883780  71.8490929  44.0244130  16.3039660  72.0128054  43.7762298
  27.5605850  82.6376827  45.0160341  28.1045754  83.2506785  44.5215296
  26.9792695  83.1956405  45.5327354  13.9377284  74.0390281  29.3424961
  14.2330725  73.1300959  29.2892014  13.0365320  74.0178020  29.0205963
  25.8463363  85.7597545  36.1475369  25.7214502  84.9587285  35.6386315
  26.5042454  86.2543738  35.6589339  17.4671531  72.1146278  35.3252509
  16.7458117  72.7282245  35.1859983  18.2564787  72.6504042  35.2469155
  27.9098271  83.5606565  37.7754919  26.9628607  83.4411916  37.7033246
  28.2581044  82.6729063  37.8581181  20.2697845  69.4500704  41.5993161
  20.7932246  69.6963001  42.3619470  20.0510178  70.2820739  41.1796298
  15.6665126  71.7204379  29.4664286  15.3377832  70.8401758  29.2839392
  16.0204496  71.6652047  30.3540675  24.9144705  83.3559281  33.9759271
  24.7669667  82.4275989  34.1566841  25.7398198  83.3779372  33.4916347
  18.7806949  72.0077348  29.8339764  19.1203021  72.5363270  29.1118372
  19.2279069  72.3457755  30.6098330  28.5178826  84.1787840  35.0624144
  29.4425374  83.9730701  34.9248595  28.3494130  83.9304241  35.9713486
  21.4750390  70.3914399  39.2842832  21.1347210  69.5922212  39.6863512
  20.7689396  70.6916110  38.7119665  22.1266861  67.4763712  37.7370155
  22.9492931  67.0024190  37.6149045  22.3704925  68.2554195  38.2368841
  20.7675096  70.5051970  28.0333056  21.4883458  70.8833223  27.5296773
  20.1440400  71.2240847  28.1368034  24.9106219  71.2097119  28.9691389
  25.1269833  72.0921757  28.6680217  24.4300286  70.8183332  28.2397031
  19.6505440  74.1682832  35.5462133  19.5050021  74.4823135  36.4386415
  19.1730644  74.7867733  34.9933032  21.5101823  71.1585380  35.5943023
  21.4963392  70.2626474  35.2575321  22.2274251  71.1656044  36.2281309
  23.3627954  71.5922720  37.6396150  23.1045732  72.5139791  37.6380481
  22.8312994  71.1953155  38.3296614  28.3074143  84.6973508  30.4186236
  28.4811020  84.1319930  29.6660088  28.8003034  85.4974402  30.2365726
  14.1251102  76.7088177  38.4849794  13.5804570  77.4847985  38.6170069
  15.0030452  77.0558981  38.3268916  20.9138719  70.0399761  30.8630593
  21.0354630  69.1116407  31.0621480  20.6240761  70.0538446  29.9508908
  23.7829909  67.7254671  33.9997313  23.8051606  67.7894004  33.0449292
  24.1997968  66.8859180  34.1937819  34.1613534  77.4609930  32.0376535
  34.6044680  76.7117256  31.6395659  33.2840044  77.4520067  31.6550267
  29.2949315  84.0140272  27.5183134  29.9900220  84.6346965  27.7370449
  29.6372465  83.1635623  27.7935512  14.9117124  75.8358073  41.3779951
  14.1698860  75.9840708  41.9644582  14.5909869  76.0966339  40.5146701
  31.1940738  81.4639977  29.0470465  31.7192062  81.8027250  28.3219785
  31.1063091  80.5286993  28.8633599  22.8560787  85.3774051  41.1760341
  23.1647913  85.1323198  42.0483041  23.6536269  85.5820690  40.6879212
  22.8781399  87.5311961  33.4065718  22.4386389  87.0388339  34.0998575
  23.6289516  86.9884928  33.1657793  15.3573738  83.7223502  33.4090346
  16.1831758  83.4227273  33.0288989  15.0067790  82.9531124  33.8580135
  20.3255271  83.0749970  35.4788020  19.7035280  82.4120675  35.1790247
  20.9960138  83.1011102  34.7961667  13.5582343  81.6409828  34.3679280
  12.7214251  81.2132002  34.1863281  13.5305988  81.8342271  35.3050071
  20.3979799  71.5531758  45.0720526  20.4467954  72.4293881  44.6898295
  20.9402313  71.0109151  44.4992169  30.8834644  82.0972881  44.3521663
  30.0930188  82.0797020  43.8126162  30.6467999  82.6361175  45.1070699
  31.0032519  78.9465347  41.6654391  31.0530524  78.7815355  42.6069914
  30.8946443  78.0792607  41.2752272  19.8868778  81.6253893  28.9546480
  20.0356898  82.3089358  28.3013153  20.6935221  81.6058983  29.4695936
  28.2936282  74.9296276  42.9813698  29.1946144  74.7902740  42.6897696
  28.3684256  75.0950730  43.9211875  22.6279087  72.3063130  41.8266884
  21.7582396  72.5996696  41.5549473  22.8638567  72.8903575  42.5474148
  32.5050716  81.3662289  41.9096413  32.2135524  81.7292270  42.7459874
  31.8922847  80.6529297  41.7309745  33.7046398  78.9315169  34.4298983
  34.5393290  79.3704973  34.5936543  33.8405527  78.4553822  33.6107229
  30.7537904  76.4894904  40.3776471  31.2292026  76.6822550  39.5695322
  29.8303470  76.5454089  40.1319854  17.6421411  77.6519071  29.9607549
  17.3967453  76.7481401  30.1587759  17.8117325  77.6536221  29.0187027
  25.3318121  68.5242747  39.3432305  25.8500065  69.2603774  39.0178793
  24.9773254  68.8306740  40.1779064  16.9117058  73.3847428  27.4593710
  16.2186303  73.4591783  26.8033746  16.6668810  72.6207772  27.9815227
  25.5830715  64.9443030  34.8633201  25.8632469  64.2766219  35.4893628
  26.3681322  65.1372125  34.3507865  23.3864183  84.1202024  26.4258228
  22.8138151  84.7392211  25.9728699  23.9596977  84.6701385  26.9598149
  29.4539573  73.3660664  38.6104776  30.4056996  73.4658761  38.6317000
  29.2843024  72.5738932  39.1202861  27.4753953  70.4516247  38.7964177
  26.8803885  70.7321260  38.1010666  27.1903650  70.9410148  39.5680918
  26.6061443  84.4039174  27.5566810  27.5392116  84.3384735  27.7599685
  26.5184656  85.2395441  27.0981342  29.2349460  83.7205044  24.5170757
  29.1563091  83.3864908  25.4106515  30.0559127  84.2126812  24.5162230
  31.9327651  76.5866783  37.7247076  31.9003971  75.6482784  37.9106760
  32.5428275  76.6650820  36.9912901  23.7710982  75.4562836  23.7674280
  24.7170087  75.3269044  23.8362698  23.3925227  74.7177498  24.2443708
  32.0822140  73.3777827  37.7705359  31.5661188  72.5936283  37.5835288
  32.9662088  73.0496543  37.9351879  29.7432867  67.1218842  33.7301172
  29.5457688  66.8133931  34.6144504  30.3532572  67.8480481  33.8599102
  37.7504201  77.6482790  36.8653113  38.4807589  77.3868078  37.4260816
  37.1411146  76.9111512  36.9055181  35.8319498  75.7890653  37.4627564
  35.1052662  75.6546618  36.8544056  35.4166785  76.0967481  38.2684282
  23.6549675  79.5080583  45.2274937  24.5752684  79.6859182  45.4214984
  23.6199258  78.5636628  45.0754636  21.9553899  73.3812813  23.7029165
  21.0485355  73.0845925  23.7791879  22.2329880  73.0842631  22.8363451
  12.8731840  74.7019176  34.1528212  12.5534624  73.8484484  33.8602586
  12.3265268  74.9167754  34.9086179  16.6511747  77.4181617  37.8697718
  16.8697757  78.3498725  37.8885752  17.0637521  77.0589592  38.6552522
  23.5715965  67.9249702  29.8573407  22.7616693  67.5796787  30.2328653
  24.2600382  67.6157246  30.4461018  25.5006513  67.0027749  31.4797703
  26.0537552  67.4223203  32.1387726  25.7376600  66.0763497  31.5220659
  21.5239612  72.9914823  47.2600467  21.4236339  73.9409180  47.1912558
  21.3061154  72.6633062  46.3876537  20.7252684  70.2399748  23.8441144
  21.5871848  70.5654646  24.1036962  20.9103028  69.4531244  23.3314210
  12.7420100  78.3222088  36.1221333  12.0483571  77.9076040  35.6091288
  13.4893091  78.3642624  35.5254752  28.8785320  69.1128274  30.9876367
  28.2983989  69.7713078  30.6054420  28.6121253  68.2905619  30.5763785
  27.3288887  68.5133332  33.1897688  27.8288665  68.6249867  32.3812007
  27.9724495  68.2094385  33.8298496  21.3870882  76.4211962  46.0765529
  20.9037964  77.2212322  46.2829418  21.4731821  76.4319907  45.1232973
  14.6556842  78.2540341  33.9987348  14.6327530  78.3528029  33.0469231
  14.9657479  79.1005492  34.3204514  17.3144220  80.3116496  38.1133963
  18.2687473  80.2800439  38.0463894  17.1156744  79.8507120  38.9284188
  17.9043602  78.8817613  40.6804760  18.7236491  79.3761691  40.7039597
  18.1780410  77.9649581  40.6522328  27.6610198  71.2728365  30.0432716
  26.7736053  71.5578015  29.8252910  28.0764187  71.1122128  29.1959993
  31.0124734  71.2974886  33.7587055  31.7885125  71.7871338  34.0311672
  30.2872869  71.7232940  34.2158924  33.4497293  72.0102505  34.8160996
  34.0441784  71.7698241  34.1054304  33.5223877  71.2909636  35.4434532
  15.6694449  85.8536116  35.1304160  15.5348917  85.0936517  34.5642158
  15.2526511  86.5777016  34.6632949  26.8053412  81.0373040  24.1380736
  27.5089262  81.2423042  24.7538391  26.0816060  81.6049801  24.4029819
  27.6351222  76.7882901  30.2583006  27.5786423  77.2451452  29.4190638
  28.1879564  76.0273585  30.0805849  31.4456028  72.5772633  31.0833125
  31.1892962  72.1769268  31.9141333  30.8208896  73.2916427  30.9583265
  35.7568366  75.3168706  33.5904417  35.1967924  75.3861895  34.3635979
  35.1511869  75.1409691  32.8703913  18.8263575  86.7505433  35.3422603
  18.7095959  87.6950865  35.2401293  18.0056021  86.4478995  35.7308402
  28.7140109  81.4755569  26.1879196  29.5485713  81.0436767  26.0056671
  28.5524452  81.3037582  27.1156090  28.3686001  77.9787682  27.5535535
  28.3134805  77.8131953  26.6123979  27.7432057  78.6863715  27.7097725
  13.1578516  73.2155746  41.3796957  13.8037380  72.7054700  41.8684182
  12.9495667  73.9524428  41.9540382  25.6831909  80.2836594  46.8789098
  26.5523068  80.4577246  46.5175733  25.2038660  81.1031011  46.7564827
  21.6782127  67.4795791  27.1320853  21.6660797  68.4237631  27.2889124
  22.5705549  67.2965936  26.8380315  19.8518089  87.4033695  38.5578531
  20.7545335  87.4357305  38.8745026  19.6255459  86.4734146  38.5724867
  21.6071691  86.1564681  35.2188610  20.6567322  86.1566543  35.1052982
  21.9104177  85.4097416  34.7024645  25.4934246  64.0738568  31.3866790
  24.7266642  63.5197054  31.5323473  25.9044951  64.1460436  32.2480942
  17.4976007  70.3623363  45.4771971  18.3607469  70.0060168  45.6875296
  16.9241418  70.0237258  46.1647376  37.3424384  91.9925220  36.2834372
  37.9802794  91.8731967  35.5797713  37.2245227  92.9406064  36.3422325
  34.1514091  91.9452648  36.2195897  33.8132602  91.8293713  35.3316432
  35.0203859  91.5443813  36.1996903  30.0100906  93.7988124  32.2092788
  29.4465771  93.7078061  31.4409076  29.8953301  92.9788029  32.6895281
  34.6333874  93.0987500  42.1782103  34.6222514  92.7040298  41.3062606
  34.7954513  92.3653572  42.7715874  27.5565338  95.2939316  35.0477009
  28.3486630  94.9530141  34.6323308  27.7961988  95.4034291  35.9679162
  35.5900465  97.4659092  27.5207253  34.9388445  98.0513172  27.1341267
  36.3844828  97.9965287  27.5802290  29.5156092  94.5548229  27.9194387
  30.2886968  94.0077216  27.7807263  29.8681491  95.4192479  28.1308849
  31.3541135  95.8824611  41.1261287  31.0631001  96.7870242  41.0107953
  31.9898119  95.9241139  41.8405356  32.2797342  93.2601460  37.7162646
  32.8760914  93.0357482  37.0019609  32.3372313  92.5186205  38.3188094
  31.8522370  90.7140895  25.5512837  32.1047891  90.1922417  24.7896300
  30.9146929  90.5507041  25.6539521  36.8965653  89.7176674  33.3587581
  37.6828742  89.2996097  33.0077998  37.1604357  90.6222766  33.5269229
  37.0675730  95.1549524  28.0576237  36.4321563  95.2284150  28.7697142
  36.7373136  95.7443123  27.3795317  42.2974080  89.6551907  34.2620559
  43.0299252  89.0851124  34.4958389  41.5413436  89.2673507  34.7027065
  31.5718659  92.6169001  27.7537212  31.4554917  91.9413905  28.4218297
  31.6820919  92.1301375  26.9369365  33.9150200  92.0779148  31.4583901
  33.5508407  91.5509769  32.1696823  34.7717315  91.6877617  31.2850387
  39.8199500  83.3673481  38.7215168  39.4882825  84.2368892  38.4976383
  39.2245114  83.0509765  39.4009198  33.5555687  87.1069048  26.4545250
  33.7230089  87.9749284  26.8215721  33.3652856  87.2696330  25.5306539
  36.3131020  95.5686027  38.1211080  36.0131743  96.4711066  38.0126888
  35.9682079  95.3018210  38.9732233  29.7643501  92.0199824  34.1547785
  28.8393998  91.8876038  34.3625477  30.0127914  92.7994043  34.6517727
  39.7128164  88.0868567  35.8008518  38.8045041  88.0183976  35.5067279
  39.6615759  88.5640512  36.6290343  33.5344907  89.5626706  27.4391917
  33.4144533  90.0083756  28.2777397  32.8397496  89.9112023  26.8805455
  27.1252312  91.6633097  34.9891574  27.2544693  91.9167576  35.9030986
  26.4449764  92.2560805  34.6696229  31.2951800 102.3330347  31.0882048
  31.2175829 103.2838172  31.1670529  30.6913443 101.9876220  31.7456974
  33.7869029  89.5058213  43.7443415  33.0102363  90.0652133  43.7346280
  34.4259592  89.9914996  44.2658285  41.5789810  86.2885006  37.5786392
  40.9364190  86.5817539  36.9326186  41.0744738  86.1737926  38.3839588
  39.2329974  90.0348179  28.2672251  40.1447830  90.2675565  28.0919948
  38.7239621  90.6185223  27.7047329  32.0415402  92.3143666  43.3061382
  32.7830086  92.8528710  43.0296206  31.3352387  92.9409955  43.4632934
  37.5170741  94.4572807  41.9033543  37.9254097  94.0155217  41.1588176
  36.7948003  93.8825434  42.1567736  33.8701811  89.3945413  39.2767100
  34.7163006  89.8184827  39.4201749  33.8100449  88.7379038  39.9705664
  37.8399556  95.0173997  35.6585832  37.2108418  95.1819711  34.9561900
  37.4525218  95.4315607  36.4296796  41.7188788  95.9528435  33.0130196
  41.0339826  96.3327336  32.4627229  41.8032637  96.5623762  33.7462144
  37.0201257  87.0549782  40.9348274  36.7762189  87.8091842  40.3982550
  37.2961187  87.4335129  41.7695521  38.9739719  93.5988394  39.6125540
  39.1856615  94.2420154  38.9359921  38.9269468  92.7650711  39.1447470
  36.5765948  86.2106215  36.5162112  35.7150427  86.5087468  36.8078849
  36.6028383  86.4276614  35.5843144  33.3927518  94.7548405  32.9235917
  33.8565863  95.0336108  32.1340540  33.1284316  93.8531850  32.7409008
  30.2851599  94.3019887  35.8615681  30.8552956  94.7307155  35.2233165
  30.8759711  94.0202472  36.5599866  32.3296404  90.8771558  29.7325483
  33.0320447  91.3292601  30.1999409  31.9977032  90.2355377  30.3605376
  30.7776765  89.4683314  44.1076692  30.1475426  90.1499595  44.3412089
  30.6712853  89.3566396  43.1629830  26.0721738  89.1355110  35.0342616
  25.2820792  89.3912639  34.5582727  26.5632985  89.9503448  35.1394657
  40.0885547  96.4760349  37.7847897  40.9102991  96.0740537  37.5030579
  40.0847950  96.3728584  38.7364013  28.0236483  89.4999690  31.9926093
  27.2267646  89.6118384  32.5109589  27.7962075  89.8386342  31.1266983
  33.8542151  96.0244393  39.9408607  33.9186583  96.4864800  40.7766779
  33.1453075  95.3941758  40.0690917  24.3559441  89.3885601  37.4657607
  24.6067479  90.2732611  37.7315183  24.8918989  89.2090202  36.6932699
  48.1791540  92.8199098  34.1332868  47.4255249  92.2506496  33.9776873
  48.3139082  92.7861762  35.0803503  33.5690168  97.6912500  29.8087588
  33.4335843  98.5364036  30.2372436  34.1099981  97.8931778  29.0453522
  30.0557508  83.7704080  46.4701943  29.6624454  83.2170279  47.1449587
  30.8723648  84.0814659  46.8608461  27.0219566  95.2087938  30.3815513
  27.5344086  96.0031189  30.5321078  27.6742279  94.5114229  30.3149114
  28.8314451  98.3253695  32.4638266  29.0081079  99.2471659  32.2759250
  29.6271284  98.0112114  32.8932646  32.9725469  85.1861959  44.0622200
  33.7135182  85.7869112  43.9826662  33.2043392  84.4439597  43.5040242
  28.1166807  90.3718326  42.3400429  28.0020322  89.4703584  42.6407528
  27.2611325  90.6182023  41.9885246  35.1958645  98.3136067  43.9387930
  34.7522499  97.5272445  43.6208834  35.8575858  98.5015217  43.2731821
  29.9545766  99.8431868  38.4648608  30.5053191  99.7148932  37.6925602
  29.1157242 100.1426757  38.1143501  37.2939883  98.5938867  41.9669331
  37.2758358  99.4147748  41.4749600  38.2159803  98.4692942  42.1919472
  33.7512937  96.1082996  42.8092839  34.2841274  95.3471284  42.5792147
  33.2227018  95.8156648  43.5516994  36.9182632  81.2143062  38.3386481
  36.5746901  82.1044704  38.2625592  37.2861595  81.0244720  37.4756066
  24.9868483  93.5376593  31.1575083  25.8243705  93.9473601  30.9408791
  25.1646750  92.5976035  31.1275277  36.8832915  91.2051673  26.8458916
  36.3679538  91.9756278  27.0847304  36.6110223  90.5316809  27.4691978
  34.4680026  86.0501374  31.9044155  33.6121622  85.6608224  31.7249793
  34.8806978  86.1293335  31.0443940  35.9979172  83.5847717  36.3035714
  35.4943968  83.5477852  35.4903520  36.2909779  84.4940460  36.3632371
  32.2422058  83.6686447  35.3101896  33.1075055  83.4729256  34.9507786
  32.3099567  83.4396799  36.2371253  41.8567189  93.9584028  28.7812090
  41.0796632  93.6195187  28.3367252  42.5358670  93.9636651  28.1067055
  36.6719218  89.0778765  28.6718698  36.3669353  89.3924915  29.5228841
  37.6249660  89.1560185  28.7146031  35.1165650  95.2368989  30.3211652
  34.5887011  94.5021748  30.0084889  34.6153152  96.0143665  30.0751620
  40.0958496  93.4318009  35.4378698  39.4382170  94.1217271  35.5258826
  40.8998895  93.8214441  35.7812684  29.8484377  85.8988655  32.6818263
  30.4228129  85.6763836  31.9491456  30.4355360  85.9677349  33.4346864
  38.9063955  91.7862382  33.4882640  39.4195836  92.4192374  33.9904349
  39.5565178  91.1863577  33.1226000  30.1753964  87.9293116  26.7014148
  29.3391277  88.2667803  27.0223423  30.0358734  87.7942096  25.7641285
  32.1507045  82.7729904  31.4093332  31.4971457  82.4578921  30.7849947
  32.1087519  82.1505644  32.1353155  33.2618250  93.0549199  23.3246625
  32.3545312  92.8238452  23.5237774  33.7589282  92.2586818  23.5120606
  36.1686329 101.7646706  26.2443311  35.4948028 102.0678403  26.8528269
  36.5552151 102.5675786  25.8948768  35.3844785  89.2611837  35.7340980
  34.4667347  89.4826784  35.5762668  35.8004929  89.3358148  34.8752687
  36.1679833  90.6603253  30.8643660  36.9151652  91.1724650  30.5550782
  36.4371423  90.3387306  31.7248054  34.4406483  93.1561794  27.8470615
  33.5317703  92.8720827  27.9443084  34.4701567  93.5760872  26.9873921
  39.6725751  96.7668383  31.6161782  39.2188078  95.9259293  31.6726973
  39.0419717  97.4029782  31.9536562  38.6158670  87.6960369  32.8462450
  37.8781427  87.1837756  33.1772692  38.8685444  87.2560751  32.0345727
  38.1158690  98.6044880  32.5511600  38.4081664  99.1649937  31.8323966
  38.6257311  98.8973441  33.3064759  38.7170298  80.4736621  33.4404219
  39.0229174  79.6133985  33.1530134  39.4422902  81.0654242  33.2403213
  25.0094654  90.8767308  31.8285817  24.8119054  90.2836669  31.1036883
  24.4541318  90.5719518  32.5461756  32.9891377  90.7690414  33.9480410
  33.0439987  89.8164251  33.8722887  32.1782579  90.9249854  34.4321708
  34.1382571  94.6970537  25.1858693  33.7002001  93.9806396  24.7264331
  34.8793012  94.9246652  24.6243785  30.9283737  89.3867474  31.7070789
  30.1151603  89.6861645  32.1135981  31.4242732  88.9923163  32.4245271
  33.0792315  99.3825231  33.6405054  33.0368494  99.6086077  32.7113586
  33.9955014  99.1488606  33.7890855  36.5257949  89.8509299  40.5385683
  36.8807337  90.0780772  41.3980149  37.1730080  90.1827675  39.9162938
  42.2555686  92.9727735  31.2435012  42.1173585  93.1629330  30.3156201
  41.8991905  93.7347117  31.7003063  30.4197812  86.9585830  37.3232024
  31.0597191  86.8174589  36.6254987  29.5875343  86.6720343  36.9470626
  42.2825066  95.0404262  36.2546283  42.7161572  94.9479551  37.1029337
  42.9956646  95.0161762  35.6166299  31.1958116  96.2588260  33.4367016
  31.9898714  95.7638580  33.2349591  30.4849808  95.7306123  33.0734722
  36.0152960  98.6406356  37.7879384  36.0689983  99.2097292  38.5557100
  35.1467742  98.8108241  37.4233421  27.5040879  90.4031342  29.5126769
  26.5738468  90.3415797  29.7296731  27.5998351  89.8807295  28.7163410
  27.4226429  86.9286155  32.1005011  27.6833246  87.8431488  31.9914171
  28.2443601  86.4610597  32.2501623  28.8951354  88.3423912  39.2703835
  29.5674407  88.1341274  38.6216484  28.0681140  88.1445998  38.8309067
  43.1440615  95.0827962  38.7879169  43.3376505  95.9873773  39.0338444
  43.0441233  94.6235381  39.6217754  34.7976926  84.9685853  41.2869496
  34.1504841  85.6675802  41.1933972  35.5677941  85.4021997  41.6545744
  38.2055724  95.2334705  44.3620049  38.0541230  95.0045257  43.4450133
  38.1960403  96.1905306  44.3751394  34.9741060  92.8066618  39.3466316
  35.9033120  92.9577777  39.1735283  34.5532090  92.8950638  38.4914962
  33.7729392  96.8317282  37.1164853  33.6340478  96.4636066  37.9890791
  32.9843988  97.3464922  36.9448811  34.3677544 101.9326379  28.4590390
  34.5429300 101.4614422  29.2736013  33.6810332 102.5592145  28.6871651
  35.3234607  96.2098885  34.5053691  34.9884440  96.1699655  35.4011341
  34.8238553  95.5443601  34.0324101  29.2978851  91.6166515  40.0306272
  29.1598649  90.8846754  40.6317811  30.2083775  91.5275415  39.7490460
  38.2593799  93.5554919  24.7790751  37.6422969  92.8301747  24.6823803
  37.7910287  94.3164279  24.4357825  31.9261152  91.3286474  39.5189952
  32.6360770  90.6879666  39.4776570  31.8830460  91.5799369  40.4416133
  39.9147930  98.2653827  42.4396531  39.8560477  97.5813048  41.7727114
  40.3167449  99.0072817  41.9877157  30.6390086  88.3151692  41.3385591
  30.1027443  87.8642430  41.9907188  30.0506794  88.4497601  40.5956056
  28.9338629 105.0815741  35.2330250  29.1735227 105.7134265  35.9109269
  28.0907826 104.7303781  35.5195609  30.0492345  87.7740343  23.9012055
  29.1721811  87.6529144  23.5374302  30.5250098  86.9826422  23.6490944
  39.9165338  96.2293411  40.6710511  39.0292116  95.8919333  40.7936910
  40.4863889  95.4976443  40.9079276  21.5694485  92.5617503  33.9953562
  22.2565525  92.2479233  33.4074578  21.4142614  93.4658868  33.7220814
  26.3729207  87.4507700  38.4238586  26.2887396  86.8433369  37.6888996
  25.5511913  87.9416718  38.4248082  33.4466491 100.8894864  37.6371754
  33.3736663 101.6949835  38.1491059  33.0043884 101.0886830  36.8119775
  33.2356271 100.1266634  31.1474576  32.4523793 100.6688314  31.2412800
  33.9349016 100.6440613  31.5468817  36.5452921  85.9361263  33.7908781
  37.0421620  85.1831226  33.4709851  35.7739902  85.9725580  33.2251990
  44.3982678  91.6401629  35.4327072  44.3872554  92.5226344  35.0621006
  43.5300058  91.2873180  35.2381610  35.9065175 100.7881698  39.7929913
  36.6193147 101.4229163  39.7205814  35.4155203 100.8845564  38.9769915
  37.6282702  94.6932950  31.3647204  36.6938980  94.8134413  31.1951909
  37.8059370  93.7905417  31.1007214  33.1287890  88.0778646  33.5180466
  32.7585677  87.5249687  34.2061371  33.6246982  87.4736780  32.9655466
  41.0155253  90.5350270  31.8997239  41.4815705  91.3678261  31.8257541
  41.4662753  90.0695251  32.6042497  30.9577088  98.5376141  40.6135484
  31.6586548  99.1712624  40.7664878  30.4872203  98.8790873  39.8531123
  39.0831484  96.8794091  28.8983391  39.3591328  96.7650686  29.8077265
  38.2135983  96.4811576  28.8595564  38.9871916  82.9030857  35.9388140
  38.0734995  83.1335084  36.1070347  39.4165017  82.9869301  36.7902172
  38.7578374  91.0920749  38.4388034  38.1049824  91.3396656  37.7840487
  39.1358754  90.2784887  38.1050511  35.7185548 101.1280442  32.5416204
  35.9007943 100.3102098  33.0043957  36.5418534 101.3448134  32.1041094
  36.0527714 100.0548627  29.8031253  36.5815480  99.5441082  29.1901415
  36.3155933  99.7391157  30.6676786  34.8065947  91.8340560  44.9254071
  34.1306584  91.7334689  45.5956446  35.6293581  91.6779773  45.3890068
  26.5544806  98.0712496  37.5466586  27.1398243  97.3256184  37.6794490
  26.3569645  98.3816453  38.4303250  29.4083461 101.1063744  32.5629029
  28.7393837 101.5909871  32.0793069  29.2696331 101.3532964  33.4772407
  21.1462461  90.6418097  36.2671029  21.1846560  90.1081687  37.0608147
  20.6402754  90.1153302  35.6482007  33.5488730 103.1407487  39.1611687
  34.1007038 103.3039109  39.9260772  33.8894923 103.7311925  38.4891712
  28.5253223  85.4882637  39.7633572  28.5894550  86.3497468  39.3510969
  28.4620344  84.8756639  39.0305930  28.0005496  87.5605770  43.4106606
  28.6277535  87.1782847  44.0244130  27.1433415  87.3419971  43.7762298
  38.3999604  97.9668745  45.0160341  38.9439508  98.5798703  44.5215296
  37.8186449  98.5248323  45.5327354  24.7771039  89.3682199  29.3424961
  25.0724480  88.4592877  29.2892014  23.8759074  89.3469938  29.0205963
  36.6857117 101.0889463  36.1475369  36.5608257 100.2879203  35.6386315
  37.3436208 101.5835656  35.6589339  28.3065286  87.4438195  35.3252509
  27.5851871  88.0574163  35.1859983  29.0958541  87.9795960  35.2469155
  38.7492026  98.8898483  37.7754919  37.8022361  98.7703834  37.7033246
  39.0974799  98.0020981  37.8581181  31.1091599  84.7792622  41.5993161
  31.6326001  85.0254918  42.3619470  30.8903932  85.6112657  41.1796298
  26.5058880  87.0496296  29.4664286  26.1771586  86.1693675  29.2839392
  26.8598251  86.9943965  30.3540675  35.7538459  98.6851199  33.9759271
  35.6063421  97.7567906  34.1566841  36.5791952  98.7071290  33.4916347
  29.6200703  87.3369266  29.8339764  29.9596776  87.8655187  29.1118372
  30.0672824  87.6749672  30.6098330  39.3572581  99.5079758  35.0624144
  40.2819128  99.3022619  34.9248595  39.1887884  99.2596159  35.9713486
  32.3144144  85.7206317  39.2842832  31.9740964  84.9214130  39.6863512
  31.6083150  86.0208028  38.7119665  32.9660616  82.8055629  37.7370155
  33.7886685  82.3316107  37.6149045  33.2098679  83.5846113  38.2368841
  31.6068850  85.8343888  28.0333056  32.3277213  86.2125140  27.5296773
  30.9834155  86.5532765  28.1368034  35.7499973  86.5389037  28.9691389
  35.9663588  87.4213675  28.6680217  35.2694040  86.1475250  28.2397031
  30.4899195  89.4974750  35.5462133  30.3443775  89.8115053  36.4386415
  30.0124398  90.1159650  34.9933032  32.3495578  86.4877298  35.5943023
  32.3357146  85.5918391  35.2575321  33.0668006  86.4947962  36.2281309
  34.2021708  86.9214638  37.6396150  33.9439486  87.8431709  37.6380481
  33.6706749  86.5245073  38.3296614  39.1467897 100.0265425  30.4186236
  39.3204775  99.4611848  29.6660088  39.6396788 100.8266320  30.2365726
  24.9644857  92.0380094  38.4849794  24.4198325  92.8139902  38.6170069
  25.8424207  92.3850899  38.3268916  31.7532474  85.3691678  30.8630593
  31.8748385  84.4408324  31.0621480  31.4634516  85.3830364  29.9508908
  34.6223664  83.0546589  33.9997313  34.6445361  83.1185922  33.0449292
  35.0391723  82.2151097  34.1937819  45.0007288  92.7901848  32.0376535
  45.4438434  92.0409173  31.6395659  44.1233799  92.7811985  31.6550267
  40.1343070  99.3432190  27.5183134  40.8293974  99.9638882  27.7370449
  40.4766220  98.4927541  27.7935512  25.7510879  91.1649991  41.3779951
  25.0092615  91.3132626  41.9644582  25.4303623  91.4258256  40.5146701
  42.0334493  96.7931895  29.0470465  42.5585817  97.1319168  28.3219785
  41.9456845  95.8578910  28.8633599  33.6954541 100.7065969  41.1760341
  34.0041668 100.4615116  42.0483041  34.4930023 100.9112607  40.6879212
  33.7175153 102.8603878  33.4065718  33.2780144 102.3680257  34.0998575
  34.4683270 102.3176846  33.1657793  26.1967492  99.0515419  33.4090346
  27.0225512  98.7519191  33.0288989  25.8461544  98.2823042  33.8580135
  31.1649026  98.4041888  35.4788020  30.5429035  97.7412593  35.1790247
  31.8353892  98.4303019  34.7961667  24.3976097  96.9701746  34.3679280
  23.5608006  96.5423920  34.1863281  24.3699743  97.1634189  35.3050071
  31.2373553  86.8823676  45.0720526  31.2861709  87.7585798  44.6898295
  31.7796067  86.3401069  44.4992169  41.7228399  97.4264799  44.3521663
  40.9323942  97.4088938  43.8126162  41.4861753  97.9653092  45.1070699
  41.8426274  94.2757265  41.6654391  41.8924279  94.1107273  42.6069914
  41.7340197  93.4084524  41.2752272  30.7262532  96.9545811  28.9546480
  30.8750653  97.6381275  28.3013153  31.5328976  96.9350901  29.4695936
  39.1330036  90.2588193  42.9813698  40.0339899  90.1194658  42.6897696
  39.2078011  90.4242648  43.9211875  33.4672841  87.6355048  41.8266884
  32.5976151  87.9288614  41.5549473  33.7032322  88.2195493  42.5474148
  43.3444471  96.6954207  41.9096413  43.0529279  97.0584187  42.7459874
  42.7316602  95.9821215  41.7309745  44.5440153  94.2607086  34.4298983
  45.3787044  94.6996891  34.5936543  44.6799282  93.7845740  33.6107229
  41.5931659  91.8186821  40.3776471  42.0685780  92.0114468  39.5695322
  40.6697224  91.8746007  40.1319854  28.4815165  92.9810988  29.9607549
  28.2361207  92.0773318  30.1587759  28.6511080  92.9828139  29.0187027
  36.1711875  83.8534665  39.3432305  36.6893819  84.5895692  39.0178793
  35.8167008  84.1598658  40.1779064  27.7510813  88.7139346  27.4593710
  27.0580058  88.7883701  26.8033746  27.5062565  87.9499690  27.9815227
  36.4224469  80.2734947  34.8633201  36.7026223  79.6058136  35.4893628
  37.2075076  80.4664043  34.3507865  34.2257938  99.4493941  26.4258228
  33.6531905 100.0684128  25.9728699  34.7990732  99.9993303  26.9598149
  40.2933328  88.6952581  38.6104776  41.2450751  88.7950679  38.6317000
  40.1236778  87.9030850  39.1202861  38.3147707  85.7808165  38.7964177
  37.7197639  86.0613177  38.1010666  38.0297404  86.2702066  39.5680918
  37.4455198  99.7331091  27.5566810  38.3785871  99.6676653  27.7599685
  37.3578411 100.5687358  27.0981342  40.0743214  99.0496962  24.5170757
  39.9956846  98.7156825  25.4106515  40.8952881  99.5418730  24.5162230
  42.7721406  91.9158701  37.7247076  42.7397726  90.9774702  37.9106760
  43.3822029  91.9942738  36.9912901  34.6104736  90.7854754  23.7674280
  35.5563841  90.6560962  23.8362698  34.2318981  90.0469416  24.2443708
  42.9215894  88.7069745  37.7705359  42.4054943  87.9228201  37.5835288
  43.8055843  88.3788461  37.9351879  40.5826621  82.4510760  33.7301172
  40.3851442  82.1425848  34.6144504  41.1926327  83.1772399  33.8599102
  48.5897955  92.9774708  36.8653113  49.3201344  92.7159996  37.4260816
  47.9804901  92.2403430  36.9055181  46.6713253  91.1182571  37.4627564
  45.9446416  90.9838535  36.8544056  46.2560539  91.4259399  38.2684282
  34.4943429  94.8372500  45.2274937  35.4146438  95.0151099  45.4214984
  34.4593012  93.8928546  45.0754636  32.7947654  88.7104730  23.7029165
  31.8879109  88.4137843  23.7791879  33.0723635  88.4134549  22.8363451
  23.7125594  90.0311094  34.1528212  23.3928378  89.1776402  33.8602586
  23.1659022  90.2459672  34.9086179  27.4905502  92.7473535  37.8697718
  27.7091511  93.6790643  37.8885752  27.9031275  92.3881509  38.6552522
  34.4109719  83.2541620  29.8573407  33.6010448  82.9088705  30.2328653
  35.0994136  82.9449164  30.4461018  36.3400268  82.3319667  31.4797703
  36.8931306  82.7515120  32.1387726  36.5770354  81.4055415  31.5220659
  32.3633367  88.3206741  47.2600467  32.2630094  89.2701098  47.1912558
  32.1454909  87.9924980  46.3876537  31.5646438  85.5691666  23.8441144
  32.4265602  85.8946564  24.1036962  31.7496782  84.7823162  23.3314210
  23.5813854  93.6514005  36.1221333  22.8877325  93.2367958  35.6091288
  24.3286845  93.6934542  35.5254752  39.7179075  84.4420192  30.9876367
  39.1377744  85.1004996  30.6054420  39.4515007  83.6197537  30.5763785
  38.1682641  83.8425250  33.1897688  38.6682419  83.9541784  32.3812007
  38.8118249  83.5386303  33.8298496  32.2264637  91.7503879  46.0765529
  31.7431719  92.5504240  46.2829418  32.3125576  91.7611824  45.1232973
  25.4950597  93.5832259  33.9987348  25.4721285  93.6819946  33.0469231
  25.8051233  94.4297410  34.3204514  28.1537974  95.6408414  38.1133963
  29.1081228  95.6092356  38.0463894  27.9550498  95.1799038  38.9284188
  28.7437357  94.2109530  40.6804760  29.5630246  94.7053609  40.7039597
  29.0174164  93.2941498  40.6522328  38.5003953  86.6020283  30.0432716
  37.6129808  86.8869933  29.8252910  38.9157942  86.4414046  29.1959993
  41.8518489  86.6266803  33.7587055  42.6278879  87.1163256  34.0311672
  41.1266623  87.0524858  34.2158924  44.2891048  87.3394423  34.8160996
  44.8835538  87.0990159  34.1054304  44.3617631  86.6201553  35.4434532
  26.5088203 101.1828034  35.1304160  26.3742671 100.4228435  34.5642158
  26.0920265 101.9068934  34.6632949  37.6447166  96.3664957  24.1380736
  38.3483016  96.5714960  24.7538391  36.9209815  96.9341719  24.4029819
  38.4744977  92.1174818  30.2583006  38.4180178  92.5743370  29.4190638
  39.0273319  91.3565503  30.0805849  42.2849782  87.9064550  31.0833125
  42.0286717  87.5061186  31.9141333  41.6602650  88.6208344  30.9583265
  46.5962120  90.6460624  33.5904417  46.0361678  90.7153813  34.3635979
  45.9905624  90.4701608  32.8703913  29.6657329 102.0797351  35.3422603
  29.5489713 103.0242783  35.2401293  28.8449775 101.7770912  35.7308402
  39.5533864  96.8047486  26.1879196  40.3879468  96.3728685  26.0056671
  39.3918207  96.6329500  27.1156090  39.2079756  93.3079600  27.5535535
  39.1528560  93.1423871  26.6123979  38.5825811  94.0155633  27.7097725
  23.9972271  88.5447664  41.3796957  24.6431134  88.0346618  41.8684182
  23.7889422  89.2816346  41.9540382  36.5225663  95.6128512  46.8789098
  37.3916823  95.7869164  46.5175733  36.0432414  96.4322928  46.7564827
  32.5175881  82.8087709  27.1320853  32.5054551  83.7529549  27.2889124
  33.4099303  82.6257854  26.8380315  30.6911843 102.7325613  38.5578531
  31.5939090 102.7649223  38.8745026  30.4649213 101.8026064  38.5724867
  32.4465445 101.4856599  35.2188610  31.4961076 101.4858461  35.1052982
  32.7497931 100.7389334  34.7024645  36.3328001  79.4030485  31.3866790
  35.5660397  78.8488972  31.5323473  36.7438706  79.4752354  32.2480942
  28.3369762  85.6915281  45.4771971  29.2001223  85.3352086  45.6875296
  27.7635172  85.3529176  46.1647376  48.1818139 107.3217137  36.2834372
  48.8196549 107.2023885  35.5797713  48.0638982 108.2697981  36.3422325
  44.9907845 107.2744566  36.2195897  44.6526357 107.1585630  35.3316432
  45.8597613 106.8735731  36.1996903  40.8494661 109.1280042  32.2092788
  40.2859526 109.0369979  31.4409076  40.7347056 108.3079946  32.6895281
  45.4727628 108.4279417  42.1782103  45.4616269 108.0332216  41.3062606
  45.6348267 107.6945490  42.7715874  38.3959093 110.6231234  35.0477009
  39.1880385 110.2822058  34.6323308  38.6355743 110.7326209  35.9679162
  46.4294219 112.7951010  27.5207253  45.7782199 113.3805090  27.1341267
  47.2238582 113.3257205  27.5802290  40.3549847 109.8840147  27.9194387
  41.1280723 109.3369134  27.7807263  40.7075245 110.7484396  28.1308849
  42.1934889 111.2116529  41.1261287  41.9024755 112.1162160  41.0107953
  42.8291873 111.2533057  41.8405356  43.1191096 108.5893378  37.7162646
  43.7154668 108.3649400  37.0019609  43.1766068 107.8478123  38.3188094
  42.6916124 106.0432813  25.5512837  42.9441645 105.5214334  24.7896300
  41.7540683 105.8798958  25.6539521  47.7359407 105.0468591  33.3587581
  48.5222496 104.6288015  33.0077998  47.9998112 105.9514684  33.5269229
  47.9069485 110.4841442  28.0576237  47.2715318 110.5576068  28.7697142
  47.5766891 111.0735040  27.3795317  53.1367834 104.9843825  34.2620559
  53.8693006 104.4143041  34.4958389  52.3807190 104.5965425  34.7027065
  42.4112413 107.9460919  27.7537212  42.2948671 107.2705822  28.4218297
  42.5214673 107.4593293  26.9369365  44.7543954 107.4071066  31.4583901
  44.3902161 106.8801687  32.1696823  45.6111070 107.0169535  31.2850387
  50.6593255  98.6965399  38.7215168  50.3276579  99.5660810  38.4976383
  50.0638868  98.3801683  39.4009198  44.3949441 102.4360966  26.4545250
  44.5623843 103.3041202  26.8215721  44.2046610 102.5988247  25.5306539
  47.1524774 110.8977945  38.1211080  46.8525497 111.8002983  38.0126888
  46.8075834 110.6310128  38.9732233  40.6037256 107.3491741  34.1547785
  39.6787752 107.2167956  34.3625477  40.8521669 108.1285961  34.6517727
  50.5521918 103.4160485  35.8008518  49.6438795 103.3475893  35.5067279
  50.5009514 103.8932430  36.6290343  44.3738662 104.8918623  27.4391917
  44.2538287 105.3375674  28.2777397  43.6791250 105.2403941  26.8805455
  37.9646067 106.9925015  34.9891574  38.0938448 107.2459494  35.9030986
  37.2843518 107.5852723  34.6696229  42.1345554 117.6622265  31.0882048
  42.0569584 118.6130090  31.1670529  41.5307198 117.3168137  31.7456974
  44.6262784 104.8350130  43.7443415  43.8496118 105.3944051  43.7346280
  45.2653347 105.3206913  44.2658285  52.4183564 101.6176923  37.5786392
  51.7757945 101.9109456  36.9326186  51.9138493 101.5029844  38.3839588
  50.0723728 105.3640096  28.2672251  50.9841584 105.5967483  28.0919948
  49.5633375 105.9477141  27.7047329  42.8809156 107.6435584  43.3061382
  43.6223840 108.1820628  43.0296206  42.1746142 108.2701873  43.4632934
  48.3564496 109.7864724  41.9033543  48.7647852 109.3447135  41.1588176
  47.6341757 109.2117352  42.1567736  44.7095566 104.7237331  39.2767100
  45.5556761 105.1476745  39.4201749  44.6494203 104.0670955  39.9705664
  48.6793310 110.3465915  35.6585832  48.0502173 110.5111629  34.9561900
  48.2918972 110.7607524  36.4296796  52.5582542 111.2820353  33.0130196
  51.8733580 111.6619254  32.4627229  52.6426392 111.8915679  33.7462144
  47.8595011 102.3841699  40.9348274  47.6155943 103.1383760  40.3982550
  48.1354942 102.7627047  41.7695521  49.8133474 108.9280312  39.6125540
  50.0250369 109.5712072  38.9359921  49.7663222 108.0942628  39.1447470
  47.4159703 101.5398132  36.5162112  46.5544182 101.8379386  36.8078849
  47.4422137 101.7568531  35.5843144  44.2321272 110.0840323  32.9235917
  44.6959618 110.3628026  32.1340540  43.9678070 109.1823768  32.7409008
  41.1245353 109.6311804  35.8615681  41.6946710 110.0599073  35.2233165
  41.7153465 109.3494389  36.5599866  43.1690158 106.2063475  29.7325483
  43.8714202 106.6584519  30.1999409  42.8370787 105.5647294  30.3605376
  41.6170520 104.7975232  44.1076692  40.9869180 105.4791513  44.3412089
  41.5106608 104.6858314  43.1629830  36.9115492 104.4647028  35.0342616
  36.1214546 104.7204557  34.5582727  37.4026740 105.2795366  35.1394657
  50.9279302 111.8052267  37.7847897  51.7496746 111.4032454  37.5030579
  50.9241705 111.7020501  38.7364013  38.8630238 104.8291607  31.9926093
  38.0661401 104.9410301  32.5109589  38.6355830 105.1678259  31.1266983
  44.6935905 111.3536310  39.9408607  44.7580338 111.8156718  40.7766779
  43.9846829 110.7233675  40.0690917  35.1953195 104.7177518  37.4657607
  35.4461234 105.6024528  37.7315183  35.7312744 104.5382120  36.6932699
  59.0185295 108.1491016  34.1332868  58.2649003 107.5798414  33.9776873
  59.1532836 108.1153680  35.0803503  44.4083923 113.0204418  29.8087588
  44.2729598 113.8655954  30.2372436  44.9493735 113.2223696  29.0453522
  40.8951263  99.0995998  46.4701943  40.5018208  98.5462196  47.1449587
  41.7117403  99.4106576  46.8608461  37.8613320 110.5379856  30.3815513
  38.3737841 111.3323106  30.5321078  38.5136033 109.8406146  30.3149114
  39.6708205 113.6545612  32.4638266  39.8474833 114.5763577  32.2759250
  40.4665039 113.3404031  32.8932646  43.8119224 100.5153877  44.0622200
  44.5528937 101.1161030  43.9826662  44.0437146  99.7731515  43.5040242
  38.9560562 105.7010244  42.3400429  38.8414077 104.7995501  42.6407528
  38.1005079 105.9473941  41.9885246  46.0352399 113.6427984  43.9387930
  45.5916254 112.8564363  43.6208834  46.6969613 113.8307135  43.2731821
  40.7939520 115.1723786  38.4648608  41.3446946 115.0440849  37.6925602
  39.9550996 115.4718675  38.1143501  48.1333637 113.9230784  41.9669331
  48.1152113 114.7439665  41.4749600  49.0553557 113.7984860  42.1919472
  44.5906692 111.4374914  42.8092839  45.1235028 110.6763202  42.5792147
  44.0620773 111.1448566  43.5516994  47.7576387  96.5434980  38.3386481
  47.4140656  97.4336622  38.2625592  48.1255349  96.3536637  37.4756066
  35.8262237 108.8668510  31.1575083  36.6637459 109.2765519  30.9408791
  36.0040505 107.9267952  31.1275277  47.7226669 106.5343591  26.8458916
  47.2073293 107.3048196  27.0847304  47.4503978 105.8608727  27.4691978
  45.3073780 101.3793292  31.9044155  44.4515377 100.9900142  31.7249793
  45.7200732 101.4585253  31.0443940  46.8372927  98.9139635  36.3035714
  46.3337722  98.8769770  35.4903520  47.1303534  99.8232378  36.3632371
  43.0815813  98.9978365  35.3101896  43.9468810  98.8021173  34.9507786
  43.1493322  98.7688716  36.2371253  52.6960943 109.2875946  28.7812090
  51.9190386 108.9487105  28.3367252  53.3752424 109.2928569  28.1067055
  47.5112972 104.4070683  28.6718698  47.2063108 104.7216832  29.5228841
  48.4643415 104.4852103  28.7146031  45.9559404 110.5660906  30.3211652
  45.4280766 109.8313666  30.0084889  45.4546907 111.3435583  30.0751620
  50.9352250 108.7609927  35.4378698  50.2775925 109.4509188  35.5258826
  51.7392649 109.1506359  35.7812684  40.6878132 101.2280573  32.6818263
  41.2621884 101.0055754  31.9491456  41.2749114 101.2969267  33.4346864
  49.7457709 107.1154300  33.4882640  50.2589591 107.7484291  33.9904349
  50.3958933 106.5155495  33.1226000  41.0147719 103.2585034  26.7014148
  40.1785031 103.5959720  27.0223423  40.8752489 103.1234013  25.7641285
  42.9900800  98.1021822  31.4093332  42.3365212  97.7870839  30.7849947
  42.9481274  97.4797562  32.1353155  44.1012004 108.3841117  23.3246625
  43.1939066 108.1530370  23.5237774  44.5983036 107.5878736  23.5120606
  47.0080083 117.0938624  26.2443311  46.3341782 117.3970321  26.8528269
  47.3945905 117.8967704  25.8948768  46.2238540 104.5903755  35.7340980
  45.3061101 104.8118702  35.5762668  46.6398684 104.6650066  34.8752687
  47.0073588 105.9895171  30.8643660  47.7545407 106.5016568  30.5550782
  47.2765177 105.6679223  31.7248054  45.2800238 108.4853711  27.8470615
  44.3711457 108.2012744  27.9443084  45.3095322 108.9052790  26.9873921
  50.5119505 112.0960301  31.6161782  50.0581832 111.2551211  31.6726973
  49.8813472 112.7321699  31.9536562  49.4552425 103.0252287  32.8462450
  48.7175182 102.5129673  33.1772692  49.7079198 102.5852669  32.0345727
  48.9552445 113.9336798  32.5511600  49.2475419 114.4941855  31.8323966
  49.4651065 114.2265359  33.3064759  49.5564052  95.8028539  33.4404219
  49.8622929  94.9425902  33.1530134  50.2816657  96.3946159  33.2403213
  35.8488408 106.2059226  31.8285817  35.6512808 105.6128586  31.1036883
  35.2935072 105.9011436  32.5461756  43.8285132 106.0982332  33.9480410
  43.8833742 105.1456168  33.8722887  43.0176334 106.2541771  34.4321708
  44.9776326 110.0262455  25.1858693  44.5395756 109.3098314  24.7264331
  45.7186767 110.2538570  24.6243785  41.7677492 104.7159392  31.7070789
  40.9545357 105.0153562  32.1135981  42.2636486 104.3215081  32.4245271
  43.9186070 114.7117149  33.6405054  43.8762249 114.9377995  32.7113586
  44.8348769 114.4780523  33.7890855  47.3651704 105.1801216  40.5385683
  47.7201091 105.4072689  41.3980149  48.0123835 105.5119593  39.9162938
  53.0949440 108.3019652  31.2435012  52.9567339 108.4921248  30.3156201
  52.7385659 109.0639035  31.7003063  41.2591567 102.2877747  37.3232024
  41.8990946 102.1466506  36.6254987  40.4269097 102.0012261  36.9470626
  53.1218820 110.3696179  36.2546283  53.5555327 110.2771468  37.1029337
  53.8350401 110.3453680  35.6166299  42.0351870 111.5880178  33.4367016
  42.8292469 111.0930498  33.2349591  41.3243563 111.0598041  33.0734722
  46.8546715 113.9698273  37.7879384  46.9083737 114.5389210  38.5557100
  45.9861496 114.1400158  37.4233421  38.3434634 105.7323260  29.5126769
  37.4132222 105.6707715  29.7296731  38.4392106 105.2099212  28.7163410
  38.2620183 102.2578072  32.1005011  38.5227000 103.1723406  31.9914171
  39.0837355 101.7902515  32.2501623  39.7345108 103.6715830  39.2703835
  40.4068162 103.4633192  38.6216484  38.9074895 103.4737916  38.8309067
  53.9834370 110.4119880  38.7879169  54.1770260 111.3165690  39.0338444
  53.8834988 109.9527299  39.6217754  45.6370680 100.2977770  41.2869496
  44.9898595 100.9967720  41.1933972  46.4071696 100.7313914  41.6545744
  49.0449478 110.5626623  44.3620049  48.8934985 110.3337174  43.4450133
  49.0354158 111.5197224  44.3751394  45.8134815 108.1358535  39.3466316
  46.7426875 108.2869695  39.1735283  45.3925845 108.2242556  38.4914962
  44.6123146 112.1609200  37.1164853  44.4734232 111.7927984  37.9890791
  43.8237743 112.6756839  36.9448811  45.2071298 117.2618296  28.4590390
  45.3823054 116.7906339  29.2736013  44.5204086 117.8884062  28.6871651
  46.1628362 111.5390802  34.5053691  45.8278194 111.4991572  35.4011341
  45.6632307 110.8735518  34.0324101  40.1372606 106.9458432  40.0306272
  39.9992404 106.2138671  40.6317811  41.0477529 106.8567333  39.7490460
  49.0987553 108.8846837  24.7790751  48.4816724 108.1593665  24.6823803
  48.6304042 109.6456197  24.4357825  42.7654906 106.6578392  39.5189952
  43.4754525 106.0171584  39.4776570  42.7224214 106.9091287  40.4416133
  50.7541685 113.5945745  42.4396531  50.6954231 112.9104965  41.7727114
  51.1561203 114.3364735  41.9877157  41.4783840 103.6443610  41.3385591
  40.9421197 103.1934348  41.9907188  40.8900549 103.7789519  40.5956056
  40.8886099 103.1032261  23.9012055  40.0115566 102.9821062  23.5374302
  41.3643852 102.3118339  23.6490944  50.7559092 111.5585329  40.6710511
  49.8685871 111.2211251  40.7936910  51.3257643 110.8268360  40.9079276
  32.4088239 107.8909421  33.9953562  33.0959279 107.5771151  33.4074578
  32.2536368 108.7950785  33.7220814  37.2122961 102.7799617  38.4238586
  37.1281150 102.1725287  37.6888996  36.3905668 103.2708636  38.4248082
  44.2860246 116.2186781  37.6371754  44.2130417 117.0241753  38.1491059
  43.8437639 116.4178747  36.8119775  44.0750025 115.4558551  31.1474576
  43.2917547 115.9980232  31.2412800  44.7742770 115.9732531  31.5468817
  47.3846675 101.2653181  33.7908781  47.8815375 100.5123143  33.4709851
  46.6133657 101.3017498  33.2251990  55.2376433 106.9693546  35.4327072
  55.2266309 107.8518262  35.0621006  54.3693812 106.6165097  35.2381610
  46.7458929 116.1173615  39.7929913  47.4586901 116.7521080  39.7205814
  46.2548958 116.2137481  38.9769915  48.4676456 110.0224868  31.3647204
  47.5332735 110.1426331  31.1951909  48.6453124 109.1197335  31.1007214
  43.9681644 103.4070564  33.5180466  43.5979432 102.8541604  34.2061371
  44.4640737 102.8028697  32.9655466  51.8549007 105.8642187  31.8997239
  52.3209460 106.6970179  31.8257541  52.3056508 105.3987169  32.6042497
  41.7970843 113.8668059  40.6135484  42.4980302 114.5004542  40.7664878
  41.3265958 114.2082790  39.8531123  49.9225238 112.2086009  28.8983391
  50.1985082 112.0942603  29.8077265  49.0529737 111.8103494  28.8595564
  49.8265670  98.2322774  35.9388140  48.9128750  98.4627001  36.1070347
  50.2558772  98.3161218  36.7902172  49.5972129 106.4212666  38.4388034
  48.9443579 106.6688574  37.7840487  49.9752509 105.6076805  38.1050511
  46.5579302 116.4572360  32.5416204  46.7401697 115.6394015  33.0043957
  47.3812289 116.6740052  32.1041094  46.8921468 115.3840545  29.8031253
  47.4209234 114.8732999  29.1901415  47.1549688 115.0683075  30.6676786
  45.6459702 107.1632477  44.9254071  44.9700339 107.0626607  45.5956446
  46.4687336 107.0071691  45.3890068  37.3938561 113.4004414  37.5466586
  37.9791998 112.6548102  37.6794490  37.1963399 113.7108371  38.4303250
  40.2477216 116.4355661  32.5629029  39.5787591 116.9201789  32.0793069
  40.1090086 116.6824882  33.4772407  31.9856215 105.9710014  36.2671029
  32.0240315 105.4373605  37.0608147  31.4796508 105.4445220  35.6482007
  44.3882485 118.4699405  39.1611687  44.9400793 118.6331026  39.9260772
  44.7288678 119.0603843  38.4891712  39.3646978 100.8174555  39.7633572
  39.4288304 101.6789386  39.3510969  39.3014098 100.2048556  39.0305930
  38.8399250 102.8897687  43.4106606  39.4671289 102.5074765  44.0244130
  37.9827169 102.6711889  43.7762298  49.2393359 113.2960662  45.0160341
  49.7833263 113.9090621  44.5215296  48.6580204 113.8540241  45.5327354
  35.6164793 104.6974116  29.3424961  35.9118234 103.7884795  29.2892014
  34.7152829 104.6761856  29.0205963  47.5250872 116.4181380  36.1475369
  47.4002011 115.6171120  35.6386315  48.1829963 116.9127574  35.6589339
  39.1459040 102.7730113  35.3252509  38.4245626 103.3866081  35.1859983
  39.9352296 103.3087878  35.2469155  49.5885780 114.2190400  37.7754919
  48.6416116 114.0995752  37.7033246  49.9368553 113.3312899  37.8581181
  41.9485354 100.1084539  41.5993161  42.4719755 100.3546836  42.3619470
  41.7297687 100.9404574  41.1796298  37.3452635 102.3788214  29.4664286
  37.0165341 101.4985593  29.2839392  37.6992005 102.3235883  30.3540675
  46.5932213 114.0143117  33.9759271  46.4457176 113.0859824  34.1566841
  47.4185707 114.0363207  33.4916347  40.4594458 102.6661184  29.8339764
  40.7990530 103.1947105  29.1118372  40.9066578 103.0041590  30.6098330
  50.1966335 114.8371675  35.0624144  51.1212883 114.6314537  34.9248595
  50.0281639 114.5888077  35.9713486  43.1537899 101.0498235  39.2842832
  42.8134719 100.2506048  39.6863512  42.4476905 101.3499945  38.7119665
  43.8054370  98.1347547  37.7370155  44.6280440  97.6608025  37.6149045
  44.0492434  98.9138031  38.2368841  42.4462605 101.1635805  28.0333056
  43.1670967 101.5417058  27.5296773  41.8227909 101.8824682  28.1368034
  46.5893728 101.8680954  28.9691389  46.8057342 102.7505592  28.6680217
  46.1087795 101.4767168  28.2397031  41.3292949 104.8266668  35.5462133
  41.1837530 105.1406971  36.4386415  40.8518153 105.4451568  34.9933032
  43.1889332 101.8169216  35.5943023  43.1750901 100.9210309  35.2575321
  43.9061760 101.8239879  36.2281309  45.0415463 102.2506556  37.6396150
  44.7833241 103.1723626  37.6380481  44.5100503 101.8536990  38.3296614
  49.9861652 115.3557343  30.4186236  50.1598529 114.7903765  29.6660088
  50.4790543 116.1558238  30.2365726  35.8038611 107.3672012  38.4849794
  35.2592079 108.1431820  38.6170069  36.6817961 107.7142816  38.3268916
  42.5926228 100.6983596  30.8630593  42.7142139  99.7700242  31.0621480
  42.3028270 100.7122282  29.9508908  45.4617418  98.3838506  33.9997313
  45.4839115  98.4477839  33.0449292  45.8785477  97.5443015  34.1937819
  55.8401043 108.1193766  32.0376535  56.2832189 107.3701091  31.6395659
  54.9627553 108.1103902  31.6550267  50.9736824 114.6724107  27.5183134
  51.6687729 115.2930800  27.7370449  51.3159974 113.8219459  27.7935512
  36.5904633 106.4941908  41.3779951  35.8486369 106.6424544  41.9644582
  36.2697377 106.7550174  40.5146701  52.8728247 112.1223813  29.0470465
  53.3979571 112.4611086  28.3219785  52.7850600 111.1870828  28.8633599
  44.5348296 116.0357886  41.1760341  44.8435422 115.7907033  42.0483041
  45.3323778 116.2404525  40.6879212  44.5568908 118.1895796  33.4065718
  44.1173898 117.6972175  34.0998575  45.3077025 117.6468764  33.1657793
  37.0361247 114.3807337  33.4090346  37.8619267 114.0811109  33.0288989
  36.6855299 113.6114959  33.8580135  42.0042780 113.7333805  35.4788020
  41.3822789 113.0704510  35.1790247  42.6747647 113.7594937  34.7961667
  35.2369852 112.2993663  34.3679280  34.4001760 111.8715838  34.1863281
  35.2093497 112.4926107  35.3050071  42.0767308 102.2115593  45.0720526
  42.1255463 103.0877716  44.6898295  42.6189822 101.6692986  44.4992169
  52.5622153 112.7556716  44.3521663  51.7717697 112.7380855  43.8126162
  52.3255508 113.2945010  45.1070699  52.6820028 109.6049183  41.6654391
  52.7318033 109.4399190  42.6069914  52.5733952 108.7376442  41.2752272
  41.5656287 112.2837729  28.9546480  41.7144407 112.9673193  28.3013153
  42.3722730 112.2642819  29.4695936  49.9723791 105.5880111  42.9813698
  50.8733653 105.4486576  42.6897696  50.0471765 105.7534566  43.9211875
  44.3066596 102.9646966  41.8266884  43.4369905 103.2580532  41.5549473
  44.5426076 103.5487411  42.5474148  54.1838225 112.0246124  41.9096413
  53.8923033 112.3876105  42.7459874  53.5710356 111.3113133  41.7309745
  55.3833907 109.5899004  34.4298983  56.2180799 110.0288808  34.5936543
  55.5193036 109.1137657  33.6107229  52.4325413 107.1478739  40.3776471
  52.9079535 107.3406385  39.5695322  51.5090979 107.2037925  40.1319854
  39.3208920 108.3102906  29.9607549  39.0754962 107.4065236  30.1587759
  39.4904834 108.3120057  29.0187027  47.0105630  99.1826583  39.3432305
  47.5287574  99.9187609  39.0178793  46.6560763  99.4890576  40.1779064
  38.5904567 104.0431264  27.4593710  37.8973812 104.1175619  26.8033746
  38.3456319 103.2791607  27.9815227  47.2618224  95.6026865  34.8633201
  47.5419978  94.9350054  35.4893628  48.0468831  95.7955961  34.3507865
  45.0651692 114.7785859  26.4258228  44.4925660 115.3976046  25.9728699
  45.6384486 115.3285221  26.9598149  51.1327082 104.0244499  38.6104776
  52.0844505 104.1242597  38.6317000  50.9630533 103.2322768  39.1202861
  49.1541462 101.1100082  38.7964177  48.5591394 101.3905095  38.1010666
  48.8691158 101.5993983  39.5680918  48.2848952 115.0623009  27.5566810
  49.2179625 114.9968571  27.7599685  48.1972165 115.8979276  27.0981342
  50.9136969 114.3788879  24.5170757  50.8350600 114.0448743  25.4106515
  51.7346636 114.8710647  24.5162230  53.6115160 107.2450619  37.7247076
  53.5791480 106.3066619  37.9106760  54.2215784 107.3234655  36.9912901
  45.4498491 106.1146672  23.7674280  46.3957596 105.9852880  23.8362698
  45.0712736 105.3761334  24.2443708  53.7609649 104.0361662  37.7705359
  53.2448697 103.2520119  37.5835288  54.6449597 103.7080379  37.9351879
  51.4220376  97.7802678  33.7301172  51.2245197  97.4717766  34.6144504
  52.0320081  98.5064317  33.8599102  59.4291710 108.3066626  36.8653113
  60.1595098 108.0451914  37.4260816  58.8198655 107.5695348  36.9055181
  57.5107007 106.4474488  37.4627564  56.7840171 106.3130453  36.8544056
  57.0954294 106.7551317  38.2684282  45.3337184 110.1664418  45.2274937
  46.2540193 110.3443017  45.4214984  45.2986767 109.2220463  45.0754636
  43.6341408 104.0396648  23.7029165  42.7272864 103.7429761  23.7791879
  43.9117389 103.7426466  22.8363451  34.5519349 105.3603012  34.1528212
  34.2322133 104.5068320  33.8602586  34.0052777 105.5751590  34.9086179
  38.3299256 108.0765453  37.8697718  38.5485266 109.0082560  37.8885752
  38.7425030 107.7173427  38.6552522  45.2503474  98.5833538  29.8573407
  44.4404202  98.2380623  30.2328653  45.9387891  98.2741082  30.4461018
  47.1794022  97.6611585  31.4797703  47.7325061  98.0807038  32.1387726
  47.4164109  96.7347333  31.5220659  43.2027121 103.6498658  47.2600467
  43.1023848 104.5993015  47.1912558  42.9848663 103.3216897  46.3876537
  42.4040193 100.8983583  23.8441144  43.2659357 101.2238482  24.1036962
  42.5890537 100.1115079  23.3314210  34.4207609 108.9805923  36.1221333
  33.7271080 108.5659876  35.6091288  35.1680600 109.0226460  35.5254752
  50.5572829  99.7712110  30.9876367  49.9771498 100.4296914  30.6054420
  50.2908762  98.9489454  30.5763785  49.0076396  99.1717168  33.1897688
  49.5076174  99.2833702  32.3812007  49.6512004  98.8678220  33.8298496
  43.0658391 107.0795797  46.0765529  42.5825473 107.8796157  46.2829418
  43.1519330 107.0903742  45.1232973  36.3344351 108.9124177  33.9987348
  36.3115039 109.0111864  33.0469231  36.6444988 109.7589328  34.3204514
  38.9931729 110.9700332  38.1133963  39.9474982 110.9384274  38.0463894
  38.7944252 110.5090956  38.9284188  39.5831111 109.5401448  40.6804760
  40.4024000 110.0345527  40.7039597  39.8567919 108.6233416  40.6522328
  49.3397707 101.9312200  30.0432716  48.4523562 102.2161851  29.8252910
  49.7551696 101.7705964  29.1959993  52.6912243 101.9558721  33.7587055
  53.4672633 102.4455174  34.0311672  51.9660378 102.3816775  34.2158924
  55.1284802 102.6686340  34.8160996  55.7229293 102.4282076  34.1054304
  55.2011386 101.9493471  35.4434532  37.3481958 116.5119951  35.1304160
  37.2136426 115.7520352  34.5642158  36.9314020 117.2360851  34.6632949
  48.4840921 111.6956875  24.1380736  49.1876771 111.9006877  24.7538391
  47.7603569 112.2633637  24.4029819  49.3138731 107.4466736  30.2583006
  49.2573932 107.9035288  29.4190638  49.8667073 106.6857421  30.0805849
  53.1243537 103.2356468  31.0833125  52.8680471 102.8353104  31.9141333
  52.4996405 103.9500262  30.9583265  57.4355875 105.9752541  33.5904417
  56.8755433 106.0445731  34.3635979  56.8299378 105.7993526  32.8703913
  40.5051084 117.4089268  35.3422603  40.3883468 118.3534701  35.2401293
  39.6843530 117.1062830  35.7308402  50.3927618 112.1339404  26.1879196
  51.2273222 111.7020603  26.0056671  50.2311961 111.9621418  27.1156090
  50.0473510 108.6371517  27.5535535  49.9922314 108.4715789  26.6123979
  49.4219566 109.3447550  27.7097725  34.8366025 103.8739582  41.3796957
  35.4824889 103.3638536  41.8684182  34.6283176 104.6108263  41.9540382
  47.3619417 110.9420429  46.8789098  48.2310577 111.1161082  46.5175733
  46.8826169 111.7614846  46.7564827  43.3569636  98.1379626  27.1320853
  43.3448306  99.0821466  27.2889124  44.2493058  97.9549772  26.8380315
  41.5305598 118.0617530  38.5578531  42.4332844 118.0941141  38.8745026
  41.3042968 117.1317981  38.5724867  43.2859200 116.8148517  35.2188610
  42.3354831 116.8150378  35.1052982  43.5891686 116.0681251  34.7024645
  47.1721755  94.7322403  31.3866790  46.4054151  94.1780890  31.5323473
  47.5832460  94.8044272  32.2480942  39.1763516 101.0207199  45.4771971
  40.0394978 100.6644004  45.6875296  38.6028927 100.6821094  46.1647376
  59.0211893 122.6509055  36.2834372  59.6590303 122.5315803  35.5797713
  58.9032736 123.5989899  36.3422325  55.8301599 122.6036483  36.2195897
  55.4920111 122.4877548  35.3316432  56.6991368 122.2027648  36.1996903
  56.3121382 123.7571335  42.1782103  56.3010023 123.3624133  41.3062606
  56.4742022 123.0237408  42.7715874  53.5309879 121.3724731  25.5512837
  53.7835400 120.8506252  24.7896300  52.5934438 121.2090876  25.6539521
  58.5753162 120.3760509  33.3587581  59.3616251 119.9579932  33.0077998
  58.8391866 121.2806601  33.5269229  63.9761589 120.3135742  34.2620559
  64.7086761 119.7434959  34.4958389  63.2200945 119.9257343  34.7027065
  55.5937709 122.7362984  31.4583901  55.2295916 122.2093605  32.1696823
  56.4504824 122.3461453  31.2850387  61.4987009 114.0257316  38.7215168
  61.1670334 114.8952727  38.4976383  60.9032623 113.7093600  39.4009198
  55.2343196 117.7652883  26.4545250  55.4017598 118.6333120  26.8215721
  55.0440365 117.9280165  25.5306539  61.3915673 118.7452403  35.8008518
  60.4832550 118.6767811  35.5067279  61.3403268 119.2224347  36.6290343
  55.2132416 120.2210541  27.4391917  55.0932042 120.6667592  28.2777397
  54.5185005 120.5695859  26.8805455  55.4656538 120.1642048  43.7443415
  54.6889872 120.7235968  43.7346280  56.1047101 120.6498831  44.2658285
  63.2577319 116.9468841  37.5786392  62.6151699 117.2401374  36.9326186
  62.7532247 116.8321761  38.3839588  60.9117483 120.6932014  28.2672251
  61.8235339 120.9259401  28.0919948  60.4027130 121.2769058  27.7047329
  59.1958250 125.1156642  41.9033543  59.6041606 124.6739052  41.1588176
  58.4735512 124.5409269  42.1567736  55.5489320 120.0529249  39.2767100
  56.3950515 120.4768662  39.4201749  55.4887958 119.3962873  39.9705664
  58.6988766 117.7133617  40.9348274  58.4549697 118.4675678  40.3982550
  58.9748696 118.0918965  41.7695521  60.6527228 124.2572229  39.6125540
  60.8644124 124.9003989  38.9359921  60.6056977 123.4234546  39.1447470
  58.2553457 116.8690050  36.5162112  57.3937936 117.1671304  36.8078849
  58.2815892 117.0860449  35.5843144  54.0083913 121.5355393  29.7325483
  54.7107956 121.9876437  30.1999409  53.6764541 120.8939212  30.3605376
  52.4564274 120.1267150  44.1076692  51.8262935 120.8083430  44.3412089
  52.3500362 120.0150231  43.1629830  47.7509247 119.7938946  35.0342616
  46.9608301 120.0496474  34.5582727  48.2420494 120.6087284  35.1394657
  49.7023992 120.1583525  31.9926093  48.9055155 120.2702219  32.5109589
  49.4749584 120.4970177  31.1266983  69.8579049 123.4782933  34.1332868
  69.1042758 122.9090331  33.9776873  69.9926591 123.4445598  35.0803503
  51.7345017 114.4287915  46.4701943  51.3411963 113.8754114  47.1449587
  52.5511157 114.7398494  46.8608461  54.6512978 115.8445795  44.0622200
  55.3922691 116.4452948  43.9826662  54.8830901 115.1023432  43.5040242
  49.7954316 121.0302162  42.3400429  49.6807831 120.1287419  42.6407528
  48.9398834 121.2765859  41.9885246  58.5970141 111.8726898  38.3386481
  58.2534410 112.7628539  38.2625592  58.9649104 111.6828555  37.4756066
  58.5620424 121.8635509  26.8458916  58.0467047 122.6340113  27.0847304
  58.2897732 121.1900645  27.4691978  56.1467535 116.7085209  31.9044155
  55.2909131 116.3192060  31.7249793  56.5594487 116.7877170  31.0443940
  57.6766681 114.2431553  36.3035714  57.1731477 114.2061688  35.4903520
  57.9697288 115.1524295  36.3632371  53.9209567 114.3270282  35.3101896
  54.7862564 114.1313091  34.9507786  53.9887076 114.0980634  36.2371253
  63.5354698 124.6167863  28.7812090  62.7584141 124.2779023  28.3367252
  64.2146179 124.6220486  28.1067055  58.3506727 119.7362601  28.6718698
  58.0456862 120.0508750  29.5228841  59.3037169 119.8144021  28.7146031
  61.7746005 124.0901845  35.4378698  61.1169679 124.7801106  35.5258826
  62.5786404 124.4798276  35.7812684  51.5271886 116.5572490  32.6818263
  52.1015638 116.3347672  31.9491456  52.1142869 116.6261185  33.4346864
  60.5851464 122.4446217  33.4882640  61.0983345 123.0776209  33.9904349
  61.2352687 121.8447413  33.1226000  51.8541473 118.5876951  26.7014148
  51.0178786 118.9251638  27.0223423  51.7146243 118.4525931  25.7641285
  53.8294554 113.4313739  31.4093332  53.1758966 113.1162756  30.7849947
  53.7875028 112.8089480  32.1353155  54.9405759 123.7133034  23.3246625
  54.0332821 123.4822288  23.5237774  55.4376791 122.9170654  23.5120606
  57.0632294 119.9195673  35.7340980  56.1454856 120.1410620  35.5762668
  57.4792438 119.9941983  34.8752687  57.8467342 121.3187088  30.8643660
  58.5939161 121.8308486  30.5550782  58.1158932 120.9971141  31.7248054
  56.1193992 123.8145629  27.8470615  55.2105212 123.5304662  27.9443084
  56.1489076 124.2344708  26.9873921  60.2946179 118.3544205  32.8462450
  59.5568936 117.8421591  33.1772692  60.5472953 117.9144586  32.0345727
  60.3957807 111.1320457  33.4404219  60.7016683 110.2717820  33.1530134
  61.1210411 111.7238077  33.2403213  54.6678886 121.4274250  33.9480410
  54.7227496 120.4748086  33.8722887  53.8570088 121.5833689  34.4321708
  52.6071246 120.0451310  31.7070789  51.7939112 120.3445480  32.1135981
  53.1030240 119.6506998  32.4245271  58.2045458 120.5093134  40.5385683
  58.5594846 120.7364607  41.3980149  58.8517589 120.8411511  39.9162938
  63.9343195 123.6311570  31.2435012  63.7961094 123.8213166  30.3156201
  63.5779414 124.3930953  31.7003063  52.0985321 117.6169665  37.3232024
  52.7384700 117.4758424  36.6254987  51.2662852 117.3304178  36.9470626
  63.9612575 125.6988097  36.2546283  64.3949081 125.6063386  37.1029337
  64.6744155 125.6745597  35.6166299  49.1828388 121.0615177  29.5126769
  48.2525977 120.9999633  29.7296731  49.2785860 120.5391130  28.7163410
  49.1013937 117.5869990  32.1005011  49.3620755 118.5015323  31.9914171
  49.9231110 117.1194433  32.2501623  50.5738863 119.0007747  39.2703835
  51.2461916 118.7925109  38.6216484  49.7468649 118.8029833  38.8309067
  64.8228124 125.7411798  38.7879169  65.0164014 126.6457608  39.0338444
  64.7228742 125.2819217  39.6217754  56.4764435 115.6269688  41.2869496
  55.8292350 116.3259638  41.1933972  57.2465450 116.0605832  41.6545744
  56.6528569 123.4650453  39.3466316  57.5820629 123.6161613  39.1735283
  56.2319599 123.5534474  38.4914962  50.9766360 122.2750350  40.0306272
  50.8386158 121.5430589  40.6317811  51.8871284 122.1859250  39.7490460
  59.9381308 124.2138754  24.7790751  59.3210478 123.4885583  24.6823803
  59.4697796 124.9748115  24.4357825  53.6048661 121.9870309  39.5189952
  54.3148279 121.3463502  39.4776570  53.5617969 122.2383204  40.4416133
  52.3177595 118.9735527  41.3385591  51.7814952 118.5226266  41.9907188
  51.7294303 119.1081436  40.5956056  51.7279854 118.4324179  23.9012055
  50.8509320 118.3112980  23.5374302  52.2037607 117.6410257  23.6490944
  48.0516716 118.1091535  38.4238586  47.9674905 117.5017205  37.6888996
  47.2299422 118.6000553  38.4248082  58.2240430 116.5945099  33.7908781
  58.7209129 115.8415061  33.4709851  57.4527411 116.6309415  33.2251990
  66.0770187 122.2985464  35.4327072  66.0660063 123.1810180  35.0621006
  65.2087567 121.9457015  35.2381610  54.8075399 118.7362482  33.5180466
  54.4373186 118.1833522  34.2061371  55.3034491 118.1320615  32.9655466
  62.6942762 121.1934105  31.8997239  63.1603214 122.0262097  31.8257541
  63.1450262 120.7279087  32.6042497  60.6659425 113.5614692  35.9388140
  59.7522504 113.7918919  36.1070347  61.0952526 113.6453136  36.7902172
  60.4365883 121.7504584  38.4388034  59.7837333 121.9980492  37.7840487
  60.8146263 120.9368722  38.1050511  56.4853456 122.4924395  44.9254071
  55.8094093 122.3918524  45.5956446  57.3081090 122.3363609  45.3890068
  50.2040732 116.1466472  39.7633572  50.2682059 117.0081303  39.3510969
  50.1407852 115.5340474  39.0305930  49.6793005 118.2189605  43.4106606
  50.3065044 117.8366682  44.0244130  48.8220924 118.0003807  43.7762298
  46.4558548 120.0266034  29.3424961  46.7511989 119.1176712  29.2892014
  45.5546583 120.0053773  29.0205963  49.9852795 118.1022031  35.3252509
  49.2639380 118.7157998  35.1859983  50.7746050 118.6379795  35.2469155
  52.7879108 115.4376457  41.5993161  53.3113510 115.6838754  42.3619470
  52.5691441 116.2696492  41.1796298  48.1846389 117.7080132  29.4664286
  47.8559095 116.8277511  29.2839392  48.5385760 117.6527800  30.3540675
  51.2988212 117.9953101  29.8339764  51.6384285 118.5239023  29.1118372
  51.7460333 118.3333508  30.6098330  53.9931653 116.3790152  39.2842832
  53.6528473 115.5797965  39.6863512  53.2870659 116.6791863  38.7119665
  54.6448125 113.4639465  37.7370155  55.4674194 112.9899943  37.6149045
  54.8886188 114.2429948  38.2368841  53.2856359 116.4927723  28.0333056
  54.0064722 116.8708976  27.5296773  52.6621664 117.2116600  28.1368034
  57.4287482 117.1972872  28.9691389  57.6451097 118.0797510  28.6680217
  56.9481549 116.8059085  28.2397031  52.1686704 120.1558585  35.5462133
  52.0231284 120.4698888  36.4386415  51.6911907 120.7743486  34.9933032
  54.0283087 117.1461133  35.5943023  54.0144655 116.2502227  35.2575321
  54.7455515 117.1531797  36.2281309  55.8809217 117.5798473  37.6396150
  55.6226995 118.5015544  37.6380481  55.3494258 117.1828908  38.3296614
  53.4319982 116.0275514  30.8630593  53.5535894 115.0992160  31.0621480
  53.1422025 116.0414199  29.9508908  56.3011173 113.7130424  33.9997313
  56.3232870 113.7769757  33.0449292  56.7179232 112.8734933  34.1937819
  66.6794797 123.4485684  32.0376535  67.1225943 122.6993009  31.6395659
  65.8021307 123.4395820  31.6550267  52.9161062 117.5407511  45.0720526
  52.9649217 118.4169634  44.6898295  53.4583576 116.9984904  44.4992169
  63.5213783 124.9341101  41.6654391  63.5711788 124.7691108  42.6069914
  63.4127706 124.0668360  41.2752272  60.8117545 120.9172029  42.9813698
  61.7127408 120.7778493  42.6897696  60.8865520 121.0826483  43.9211875
  55.1460350 118.2938883  41.8266884  54.2763660 118.5872449  41.5549473
  55.3819831 118.8779328  42.5474148  66.2227662 124.9190922  34.4298983
  67.0574553 125.3580726  34.5936543  66.3586791 124.4429575  33.6107229
  63.2719168 122.4770657  40.3776471  63.7473289 122.6698303  39.5695322
  62.3484733 122.5329842  40.1319854  57.8499384 114.5118500  39.3432305
  58.3681328 115.2479527  39.0178793  57.4954517 114.8182494  40.1779064
  49.4298322 119.3723181  27.4593710  48.7367567 119.4467536  26.8033746
  49.1850074 118.6083525  27.9815227  58.1011978 110.9318783  34.8633201
  58.3813732 110.2641972  35.4893628  58.8862585 111.1247878  34.3507865
  61.9720837 119.3536417  38.6104776  62.9238260 119.4534514  38.6317000
  61.8024287 118.5614685  39.1202861  59.9935216 116.4392000  38.7964177
  59.3985148 116.7197013  38.1010666  59.7084913 116.9285901  39.5680918
  64.4508915 122.5742536  37.7247076  64.4185235 121.6358537  37.9106760
  65.0609538 122.6526573  36.9912901  56.2892245 121.4438589  23.7674280
  57.2351350 121.3144798  23.8362698  55.9106490 120.7053251  24.2443708
  64.6003403 119.3653580  37.7705359  64.0842452 118.5812037  37.5835288
  65.4843352 119.0372296  37.9351879  62.2614130 113.1094595  33.7301172
  62.0638951 112.8009684  34.6144504  62.8713836 113.8356234  33.8599102
  70.2685464 123.6358543  36.8653113  70.9988853 123.3743831  37.4260816
  69.6592410 122.8987265  36.9055181  68.3500762 121.7766406  37.4627564
  67.6233925 121.6422371  36.8544056  67.9348048 122.0843234  38.2684282
  54.4735163 119.3688566  23.7029165  53.5666618 119.0721679  23.7791879
  54.7511144 119.0718384  22.8363451  56.0897228 113.9125456  29.8573407
  55.2797957 113.5672540  30.2328653  56.7781645 113.6032999  30.4461018
  58.0187777 112.9903502  31.4797703  58.5718815 113.4098956  32.1387726
  58.2557863 112.0639250  31.5220659  54.0420876 118.9790576  47.2600467
  53.9417603 119.9284933  47.1912558  53.8242418 118.6508815  46.3876537
  53.2433947 116.2275501  23.8441144  54.1053111 116.5530399  24.1036962
  53.4284291 115.4406997  23.3314210  61.3966584 115.1004027  30.9876367
  60.8165253 115.7588832  30.6054420  61.1302516 114.2781372  30.5763785
  59.8470150 114.5009085  33.1897688  60.3469928 114.6125620  32.3812007
  60.4905758 114.1970138  33.8298496  53.9052146 122.4087715  46.0765529
  53.4219228 123.2088075  46.2829418  53.9913085 122.4195660  45.1232973
  60.1791462 117.2604118  30.0432716  59.2917317 117.5453768  29.8252910
  60.5945451 117.0997881  29.1959993  63.5305998 117.2850639  33.7587055
  64.3066388 117.7747091  34.0311672  62.8054132 117.7108693  34.2158924
  65.9678556 117.9978258  34.8160996  66.5623047 117.7573994  34.1054304
  66.0405140 117.2785389  35.4434532  60.1532485 122.7758654  30.2583006
  60.0967687 123.2327205  29.4190638  60.7060828 122.0149338  30.0805849
  63.9637291 118.5648386  31.0833125  63.7074226 118.1645021  31.9141333
  63.3390159 119.2792180  30.9583265  68.2749629 121.3044459  33.5904417
  67.7149187 121.3737648  34.3635979  67.6693133 121.1285444  32.8703913
  60.8867265 123.9663435  27.5535535  60.8316069 123.8007706  26.6123979
  60.2613320 124.6739468  27.7097725  45.6759780 119.2031499  41.3796957
  46.3218643 118.6930453  41.8684182  45.4676931 119.9400181  41.9540382
  54.1963390 113.4671544  27.1320853  54.1842060 114.4113384  27.2889124
  55.0886812 113.2841689  26.8380315  58.0115510 110.0614321  31.3866790
  57.2447906 109.5072807  31.5323473  58.4226215 110.1336189  32.2480942
  50.0157271 116.3499116  45.4771971  50.8788732 115.9935921  45.6875296
  49.4422681 116.0113011  46.1647376  69.4363895 127.2018815  38.3386481
  69.0928165 128.0920457  38.2625592  69.8042858 127.0120473  37.4756066
  71.2351561 126.4612374  33.4404219  71.5410438 125.6009738  33.1530134
  71.9604166 127.0529995  33.2403213  71.5053179 128.8906610  35.9388140
  70.5916259 129.1210837  36.1070347  71.9346281 128.9745054  36.7902172
  68.9405733 126.2610700  34.8633201  69.2207487 125.5933890  35.4893628
  69.7256340 126.4539796  34.3507865  73.1007884 128.4386513  33.7301172
  72.9032706 128.1301601  34.6144504  73.7107590 129.1648152  33.8599102
  68.8581531 128.3195420  31.4797703  69.4112570 128.7390873  32.1387726
  69.0951617 127.3931168  31.5220659  68.8509264 125.3906238  31.3866790
  68.0841660 124.8364725  31.5323473  69.2619969 125.4628107  32.2480942
   2.6777383  29.3322436  30.6633237   2.2341237  28.5458815  30.3454141
   3.3394596  29.5201587  29.9977127   4.7758621  29.6125236  28.6914638
   4.7577096  30.4334117  28.1994907   5.6978541  29.4879311  28.9164779
   5.6874462  26.2521074  31.0865356   5.5359968  26.0231626  30.1695440
   5.6779141  27.2091676  31.0996701   7.3966668  29.2840197  29.1641838
   7.3379214  28.5999417  28.4972421   7.7986187  30.0259187  28.7122464
   5.8818342  28.9855114  31.7405648   6.4258246  29.5985073  31.2460603
   5.3005187  29.5434693  32.2572661   9.2047137  28.4451168  31.0766969
   8.4142680  28.4275307  30.5371469   8.9680491  28.9839462  31.8316006
  10.8263208  27.7140576  28.6341719  10.5348017  28.0770557  29.4705180
  10.2135340  27.0007585  28.4555051   4.0044401  26.6314881  33.6034404
   4.8735560  26.8055533  33.2421039   3.5251152  27.4509298  33.4810134
  15.6636877  38.3403507  23.0079679  16.3015286  38.2210254  22.3043019
  15.5457719  39.2884351  23.0667631  12.4726583  38.2930935  22.9441204
  12.1345094  38.1772000  22.0561739  13.3416351  37.8922100  22.9242210
  12.9546366  39.4465787  28.9027409  12.9435007  39.0518585  28.0307913
  13.1167005  38.7131860  29.4961181   5.8777830  41.6417603  21.7722315
   6.6699122  41.3008428  21.3568615   6.1174481  41.7512578  22.6924469
   9.6753627  42.2302899  27.8506593   9.3843493  43.1348530  27.7353260
  10.3110611  42.2719426  28.5650663  10.6009834  39.6079747  24.4407953
  11.1973406  39.3835770  23.7264916  10.6584805  38.8664493  25.0433401
  20.6186572  36.0030194  20.9865866  21.3511744  35.4329411  21.2203695
  19.8625928  35.6151795  21.4272371  18.1411992  29.7151768  25.4460474
  17.8095317  30.5847179  25.2221689  17.5457606  29.3988052  26.1254505
  14.6343512  41.9164314  24.8456387  14.3344235  42.8189353  24.7372194
  14.2894572  41.6496497  25.6977540  18.0340656  34.4346854  22.5253824
  17.1257533  34.3662263  22.2312585  17.9828252  34.9118799  23.3535650
   9.6164292  48.6808635  17.8127355   9.5388321  49.6316460  17.8915835
   9.0125935  48.3354507  18.4702281  12.1081522  35.8536500  30.4688722
  11.3314856  36.4130420  30.4591586  12.7472085  36.3393283  30.9903592
  19.9002302  32.6363293  24.3031698  19.2576682  32.9295826  23.6571493
  19.3957231  32.5216213  25.1084895  10.3627894  38.6621953  30.0306689
  11.1042578  39.2006997  29.7541512   9.6564879  39.2888242  30.1878240
  15.8383234  40.8051094  28.6278850  16.2466590  40.3633504  27.8833482
  15.1160495  40.2303721  28.8813043  12.1914304  35.7423701  26.0012407
  13.0375499  36.1663114  26.1447056  12.1312941  35.0857325  26.6950970
  16.1612048  41.3652284  22.3831139  15.5320911  41.5297999  21.6807207
  15.7737710  41.7793894  23.1542103  20.0401280  42.3006722  19.7375503
  19.3552318  42.6805624  19.1872536  20.1245129  42.9102049  20.4707450
  15.3413749  33.4028069  27.6593581  15.0974681  34.1570129  27.1227856
  15.6173679  33.7813417  28.4940828  17.2952212  39.9466681  26.3370846
  17.5069107  40.5898441  25.6605227  17.2481960  39.1128998  25.8692776
  11.7140010  41.1026693  19.6481224  12.1778356  41.3814396  18.8585847
  11.4496808  40.2010137  19.4654315   8.6064091  40.6498174  22.5860987
   9.1765448  41.0785442  21.9478472   9.1972203  40.3680759  23.2845173
   9.0989258  35.8161602  30.8321999   8.4687918  36.4977882  31.0657395
   8.9925346  35.7044683  29.8875137  18.4098040  42.8238637  24.5093204
  19.2315483  42.4218824  24.2275885  18.4060442  42.7206871  25.4609319
  12.1754643  42.3722680  26.6653914  12.2399076  42.8343087  27.5012086
  11.4665567  41.7420045  26.7936224  26.5004033  39.1677385  20.8578175
  25.7467741  38.5984783  20.7022179  26.6351574  39.1340050  21.8048810
   8.3770000  30.1182367  33.1947250   7.9836946  29.5648566  33.8694894
   9.1936141  30.4292946  33.5853767   7.1526943  44.6731982  19.1883573
   7.3293571  45.5949947  19.0004557   7.9483776  44.3590401  19.6177952
  11.2937961  31.5340246  30.7867506  12.0347675  32.1347400  30.7071969
  11.5255884  30.7917884  30.2285549   6.4379299  36.7196614  29.0645736
   6.3232814  35.8181871  29.3652835   5.5823817  36.9660310  28.7130552
  13.5171137  44.6614354  30.6633237  13.0734991  43.8750733  30.3454141
  14.1788351  44.8493505  29.9977127   8.2758258  46.1910156  25.1893915
   8.8265683  46.0627219  24.4170909   7.4369734  46.4905045  24.8388808
  15.6152375  44.9417154  28.6914638  15.5970851  45.7626035  28.1994907
  16.5372295  44.8171229  28.9164779  12.0725429  42.4561283  29.5338146
  12.6053766  41.6949572  29.3037454  11.5439510  42.1634935  30.2762301
  18.4170988  39.7796296  22.1624004  17.7594662  40.4695558  22.2504133
  19.2211387  40.1692728  22.5057991  17.2276447  38.1340669  20.2127946
  17.7408329  38.7670661  20.7149656  17.8777671  37.5341865  19.8471306
  13.7057278  35.6090125  22.4586287  12.7879839  35.8305072  22.3007975
  14.1217421  35.6836435  21.5997994  17.9938243  43.1146671  18.3407089
  17.5400570  42.2737580  18.3972279  17.3632210  43.7508069  18.6781869
  16.4371182  44.9523167  19.2756907  16.7294157  45.5128224  18.5569273
  16.9469803  45.2451728  20.0310066  11.4004807  45.7303518  20.3650360
  11.3580986  45.9564365  19.4358892  12.3167506  45.4966893  20.5136161
  14.8470441  36.1987586  27.2630989  15.2019829  36.4259059  28.1225455
  15.4942573  36.5305963  26.6408245  20.5768178  39.3206022  17.9680318
  20.4386077  39.5107618  17.0401508  20.2204397  40.0825405  18.4248370
  20.6037558  41.3882549  22.9791590  21.0374065  41.2957838  23.8274644
  21.3169139  41.3640049  22.3411606   9.5170608  42.6066547  20.1612323
  10.3111207  42.1116867  19.9594898   8.8062301  42.0784410  19.7980028
  14.3365453  44.9884643  24.5124691  14.3902475  45.5575579  25.2802406
  13.4680234  45.1586528  24.1478728   7.2163846  34.6902199  25.9949142
   7.8886900  34.4819561  25.3461791   6.3893633  34.4924285  25.5554374
  21.4653107  41.4306249  25.5124475  21.6588997  42.3352060  25.7583750
  21.3653726  40.9713668  26.3463060  13.1189418  31.3164140  28.0114803
  12.4717333  32.0154090  27.9179279  13.8890434  31.7500284  28.3791051
  16.5268216  41.5812992  31.0865356  16.3753722  41.3523544  30.1695440
  16.5172896  42.5383594  31.0996701  13.2953552  39.1544905  26.0711622
  14.2245612  39.3056065  25.8980590  12.8744582  39.2428926  25.2160269
  12.0941884  43.1795569  23.8410160  11.9552970  42.8114354  24.7136098
  11.3056480  43.6943209  23.6694118  12.6890036  48.2804666  15.1835697
  12.8641792  47.8092709  15.9981319  12.0022824  48.9070432  15.4116957
  13.6447099  42.5577172  21.2298998  13.3096932  42.5177942  22.1256648
  13.1451045  41.8921888  20.7569408   7.6191343  37.9644802  26.7551579
   7.4811141  37.2325041  27.3563118   8.5296267  37.8753702  26.4735767
  10.2473644  37.6764761  26.2435259  10.9573263  37.0357954  26.2021877
  10.2042952  37.9277656  27.1661439  18.2360423  44.6132115  29.1641838
  18.1772969  43.9291335  28.4972421  18.6379941  45.3551105  28.7122464
   8.9602578  34.6629979  28.0630898   8.4239935  34.2120718  28.7152494
   8.3719286  34.7975888  27.3201362   7.2551122  51.4294029  21.9575557
   7.4947720  52.0612553  22.6354575   6.4120318  51.0782069  22.2440916
  18.2377830  42.5771699  27.3955817  17.3504609  42.2397620  27.5182216
  18.8076381  41.8454730  27.6324583  11.7678983  47.2373151  24.3617061
  11.6949155  48.0428123  24.8736365  11.3256376  47.4365117  23.5365082
  11.5568763  46.4744921  17.8719882  10.7736285  47.0166601  17.9658107
  12.2561508  46.9918901  18.2714123  22.7195171  37.9879916  22.1572379
  22.7085047  38.8704631  21.7866312  21.8512550  37.6351467  21.9626916
  14.2277667  47.1359985  26.5175219  14.9405639  47.7707450  26.4451121
  13.7367696  47.2323851  25.7015221  15.9495194  41.0411238  18.0892511
  15.0151473  41.1612700  17.9197215  16.1271862  40.1383704  17.8252521
  19.3367745  36.8828557  18.6242545  19.8028197  37.7156549  18.5502848
  19.7875246  36.4173539  19.3287804   9.2789580  44.8854429  27.3380790
   9.9799040  45.5190911  27.4910184   8.8084695  45.2269160  26.5776429
  17.0790866  37.4399036  25.1633341  16.4262317  37.6874943  24.5085793
  17.4571246  36.6263174  24.8295818  14.0398040  47.4758729  19.2661511
  14.2220435  46.6580385  19.7289263  14.8631026  47.6926421  18.8286401
  14.3740206  46.4026914  16.5276559  14.9027972  45.8919369  15.9146721
  14.6368425  46.0869444  17.3922092  13.1278439  38.1818847  31.6499378
  12.4519076  38.0812976  32.3201753  13.9506073  38.0258061  32.1135375
   4.8757298  44.4190784  24.2711893   5.4610735  43.6734471  24.4039797
   4.6782137  44.7294740  25.1548557   7.7295954  47.4542031  19.2874335
   7.0606329  47.9388159  18.8038375   7.5908823  47.7011251  20.2017714
  11.8701222  49.4885774  25.8856994  12.4219530  49.6517396  26.6506079
  12.2107416  50.0790212  25.2137018   6.3217988  33.9084057  30.1351913
   6.9490027  33.5261134  30.7489437   5.4645907  33.6898259  30.5007605
  16.7212097  44.3147032  31.7405648  17.2652001  44.9276990  31.2460603
  16.1398941  44.8726610  32.2572661  15.0069610  47.4367750  22.8720676
  14.8820749  46.6357490  22.3631621  15.6648701  47.9313943  22.3834646
  17.0704518  45.2376770  24.5000226  16.1234853  45.1182121  24.4278553
  17.4187291  44.3499268  24.5826487   9.4304091  31.1270909  28.3238468
   9.9538493  31.3733206  29.0864777   9.2116425  31.9590944  27.9041605
  14.0750951  45.0329486  20.7004578  13.9275914  44.1046194  20.8812148
  14.9004445  45.0549577  20.2161653  17.6785073  45.8558045  21.7869451
  18.6031621  45.6500906  21.6493902  17.5100376  45.6074446  22.6958792
  10.6356636  32.0684604  26.0088138  10.2953457  31.2692417  26.4108818
   9.9295643  32.3686315  25.4364971  12.5234201  33.2692925  24.3641457
  12.2651978  34.1909996  24.3625787  11.9919241  32.8723360  25.0541921
  17.4680389  46.3743712  17.1431542  17.6417267  45.8090135  16.3905395
  17.9609281  47.1744607  16.9611032   3.2857349  38.3858382  25.2095101
   2.7410817  39.1618190  25.3415375   4.1636699  38.7329186  25.0514223
  23.3219780  39.1380135  18.7621842  23.7650927  38.3887461  18.3640965
  22.4446291  39.1290272  18.3795574  18.4555562  45.6910477  14.2428441
  19.1506466  46.3117170  14.4615755  18.7978712  44.8405828  14.5180818
   4.0723371  37.5128278  28.1025258   3.3305107  37.6610913  28.6889888
   3.7516115  37.7736543  27.2392007  20.3546985  43.1410182  15.7715771
  20.8798309  43.4797455  15.0465091  20.2669337  42.2057198  15.5878906
  12.0167034  47.0544256  27.9005648  12.3254160  46.8093403  28.7728348
  12.8142516  47.2590895  27.4124518  12.0387646  49.2082166  20.1311025
  11.5992636  48.7158544  20.8243881  12.7895763  48.6655133  19.8903100
   4.5179985  45.3993707  20.1335653   5.3438005  45.0997478  19.7534296
   4.1674037  44.6301329  20.5825441   9.4861518  44.7520175  22.2033326
   8.8641527  44.0890880  21.9035554  10.1566385  44.7781307  21.5206974
   9.5586045  33.2301963  31.7965832   9.6074201  34.1064086  31.4143602
  10.1008560  32.6879356  31.2237475  20.0440891  43.7743086  31.0766969
  19.2536435  43.7567225  30.5371469  19.8074246  44.3131380  31.8316006
  20.1638766  40.6235552  28.3899698  20.2136771  40.4585560  29.3315221
  20.0552689  39.7562811  27.9997579  17.4542528  36.6066480  29.7059005
  18.3552391  36.4672945  29.4143002  17.5290503  36.7720935  30.6457182
  11.7885334  33.9833335  28.5512191  10.9188643  34.2766901  28.2794779
  12.0244814  34.5673780  29.2719454  21.6656963  43.0432494  28.6341719
  21.3741771  43.4062474  29.4705180  21.0529094  42.3299502  28.4555051
  22.8652645  40.6085374  21.1544290  23.6999537  41.0475178  21.3181850
  23.0011774  40.1324027  20.3352535  19.9144151  38.1665109  27.1021777
  20.3898273  38.3592755  26.2940629  18.9909716  38.2224294  26.8565161
  14.4924368  30.2012952  26.0677611  15.0106311  30.9373979  25.7424100
  14.1379500  30.5076945  26.9024370  18.6145820  35.0430869  25.3350083
  19.5663243  35.1428966  25.3562307  18.4449271  34.2509137  25.8448167
  16.6360200  32.1286452  25.5209484  16.0410132  32.4091465  24.8255972
  16.3509896  32.6180353  26.2926225  21.0933898  38.2636988  24.4492383
  21.0610218  37.3252989  24.6352066  21.7034522  38.3421025  23.7158207
  21.2428386  35.0548032  24.4950666  20.7267435  34.2706488  24.3080595
  22.1268335  34.7266748  24.6597185  26.9110448  39.3252995  23.5898419
  27.6413836  39.0638283  24.1506123  26.3017393  38.5881717  23.6300487
  24.9925745  37.4660858  24.1872871  24.2658908  37.3316823  23.5789362
  24.5773032  37.7737686  24.9929589  12.8155921  41.1850787  31.9520244
  13.7358931  41.3629386  32.1460290  12.7805504  40.2406833  31.7999943
   5.8117994  39.0951822  24.5943025   6.0304004  40.0268930  24.6131059
   6.2243768  38.7359797  25.3797829  10.6845859  34.6685028  33.9845774
  10.5842586  35.6179385  33.9157865  10.4667401  34.3403267  33.1121844
  10.5477129  38.0982167  32.8010835  10.0644211  38.8982527  33.0074724
  10.6338068  38.1090112  31.8478279   6.4750467  41.9886701  24.8379269
   7.4293720  41.9570644  24.7709201   6.2762990  41.5277325  25.6529495
   7.0649849  40.5587817  27.4050067   7.8842738  41.0531896  27.4284904
   7.3386657  39.6419786  27.3767634  20.1730981  32.9745091  20.4832362
  20.9491371  33.4641543  20.7556978  19.4479115  33.4003145  20.9404231
  22.6103540  33.6872710  21.5406302  23.2048031  33.4468446  20.8299610
  22.6830123  32.9679841  22.1679838   4.8300695  47.5306321  21.8549467
   4.6955163  46.7706722  21.2887465   4.4132758  48.2547221  21.3878256
  24.9174613  36.9938911  20.3149723  24.3574171  37.0632100  21.0881285
  24.3118116  36.8179895  19.5949220   7.9869821  48.4275638  22.0667910
   7.8702206  49.3721070  21.9646600   7.1662268  48.1249199  22.4553709
   2.3184763  34.8925951  28.1042264   2.9643627  34.3824905  28.5929489
   2.1101914  35.6294633  28.6785689  14.8438155  41.9606799  33.6034404
  15.7129315  42.1347451  33.2421039  14.3644907  42.7801216  33.4810134
   9.0124335  49.0803900  25.2823838   9.9151582  49.1127510  25.5990333
   8.7861706  48.1504351  25.2970174  10.7677938  47.8334886  21.9433917
   9.8173569  47.8336748  21.8298289  11.0710424  47.0867621  21.4269951
   6.6582254  32.0393568  32.2017278   7.5213716  31.6830373  32.4120603
   6.0847665  31.7007463  32.8892682  26.5030631  53.6695425  23.0079679
  27.1409041  53.5502172  22.3043019  26.3851474  54.6176269  23.0667631
  23.3120337  53.6222853  22.9441204  22.9738849  53.5063918  22.0561739
  24.1810105  53.2214018  22.9242210  19.1707153  55.4758329  18.9338095
  18.6072018  55.3848266  18.1654383  19.0559548  54.6558234  19.4140587
  23.7940120  54.7757705  28.9027409  23.7828761  54.3810503  28.0307913
  23.9560760  54.0423777  29.4961181  16.7171585  56.9709521  21.7722315
  17.5092877  56.6300345  21.3568615  16.9568235  57.0804496  22.6924469
  24.7506712  59.1429297  14.2452560  24.0994691  59.7283377  13.8586573
  25.5451074  59.6735492  14.3047597  18.6762339  56.2318434  14.6439694
  19.4493215  55.6847421  14.5052570  19.0287738  57.0962683  14.8554155
  20.5147381  57.5594816  27.8506593  20.2237247  58.4640447  27.7353260
  21.1504366  57.6011344  28.5650663  21.4403588  54.9371665  24.4407953
  22.0367161  54.7127687  23.7264916  21.4978560  54.1956410  25.0433401
  21.0128617  52.3911100  12.2758144  21.2654137  51.8692621  11.5141607
  20.0753176  52.2277246  12.3784828  26.0571899  51.3946879  20.0832887
  26.8434989  50.9766302  19.7323304  26.3210604  52.2992971  20.2514536
  26.2281977  56.8319729  14.7821544  25.5927810  56.9054355  15.4942449
  25.8979383  57.4213328  14.1040623  31.4580327  51.3322112  20.9865866
  32.1905499  50.7621329  21.2203695  30.7019682  50.9443712  21.4272371
  20.7324905  54.2939206  14.4782519  20.6161164  53.6184110  15.1463603
  20.8427165  53.8071580  13.6614672  23.0756446  53.7549353  18.1829208
  22.7114654  53.2279974  18.8942130  23.9323562  53.3647822  18.0095694
  28.9805747  45.0443686  25.4460474  28.6489072  45.9139097  25.2221689
  28.3851360  44.7279970  26.1254505  22.7161933  48.7839253  13.1790557
  22.8836336  49.6519489  13.5461028  22.5259102  48.9466535  12.2551846
  25.4737266  57.2456232  24.8456387  25.1737990  58.1481271  24.7372194
  25.1288326  56.9788415  25.6977540  18.9249748  53.6970029  20.8793091
  18.0000244  53.5646243  21.0870783  19.1734161  54.4764248  21.3763034
  28.8734410  49.7638772  22.5253824  27.9651288  49.6954181  22.2312585
  28.8222006  50.2410717  23.3535650  22.6951154  51.2396910  14.1637223
  22.5750779  51.6853961  15.0022704  22.0003743  51.5882228  13.6050762
  16.2858559  53.3403302  21.7136880  16.4150940  53.5937781  22.6276292
  15.6056010  53.9331010  21.3941536  20.4558046  64.0100552  17.8127355
  20.3782076  64.9608377  17.8915835  19.8519690  63.6646425  18.4702281
  22.9475276  51.1828418  30.4688722  22.1708610  51.7422338  30.4591586
  23.5865839  51.6685201  30.9903592  30.7396057  47.9655210  24.3031698
  30.0970437  48.2587744  23.6571493  30.2350985  47.8508131  25.1084895
  28.3936220  51.7118384  14.9917558  29.3054076  51.9445770  14.8165255
  27.8845867  52.2955428  14.4292636  21.2021648  53.9913871  30.0306689
  21.9436333  54.5298915  29.7541512  20.4958634  54.6180160  30.1878240
  26.6776988  56.1343011  28.6278850  27.0860344  55.6925422  27.8833482
  25.9554250  55.5595639  28.8813043  23.0308058  51.0715618  26.0012407
  23.8769253  51.4955032  26.1447056  22.9706696  50.4149243  26.6950970
  27.0005803  56.6944202  22.3831139  26.3714665  56.8589916  21.6807207
  26.6131465  57.1085812  23.1542103  30.8795035  57.6298640  19.7375503
  30.1946073  58.0097541  19.1872536  30.9638884  58.2393967  20.4707450
  26.1807503  48.7319987  27.6593581  25.9368435  49.4862047  27.1227856
  26.4567434  49.1105334  28.4940828  28.1345966  55.2758599  26.3370846
  28.3462861  55.9190359  25.6605227  28.0875714  54.4420916  25.8692776
  25.7372195  47.8876420  23.2407418  24.8756674  48.1857673  23.5324156
  25.7634630  48.1046819  22.3088451  22.5533765  56.4318610  19.6481224
  23.0172110  56.7106313  18.8585847  22.2890563  55.5302055  19.4654315
  19.4457846  55.9790092  22.5860987  20.0159203  56.4077360  21.9478472
  20.0365957  55.6972676  23.2845173  21.4902651  52.5541763  16.4570789
  22.1926694  53.0062806  16.9244716  21.1583279  51.9125581  17.0850682
  19.9383012  51.1453519  30.8321999  19.3081673  51.8269800  31.0657395
  19.8319100  51.0336601  29.8875137  15.2327985  50.8125315  21.7587923
  14.4427039  51.0682844  21.2828033  15.7239232  51.6273653  21.8639963
  29.2491794  58.1530554  24.5093204  30.0709238  57.7510742  24.2275885
  29.2454197  58.0498789  25.4609319  17.1842730  51.1769894  18.7171399
  16.3873893  51.2888589  19.2354895  16.9568322  51.5156547  17.8512290
  23.0148398  57.7014598  26.6653914  23.0792830  58.1635005  27.5012086
  22.3059321  57.0711963  26.7936224  13.5165688  51.0655806  24.1902914
  13.7673726  51.9502816  24.4560490  14.0525236  50.8860407  23.4178005
  37.3397787  54.4969303  20.8578175  36.5861496  53.9276701  20.7022179
  37.4745328  54.4631967  21.8048810  22.7296415  59.3682705  16.5332894
  22.5942090  60.2134241  16.9617742  23.2706228  59.5701983  15.7698828
  19.2163755  45.4474285  33.1947250  18.8230700  44.8940484  33.8694894
  20.0329895  45.7584864  33.5853767  16.1825813  56.8858143  17.1060820
  16.6950333  57.6801393  17.2566384  16.8348525  56.1884434  17.0394421
  17.9920697  60.0023900  19.1883573  18.1687326  60.9241864  19.0004557
  18.7877531  59.6882319  19.6177952  22.1331716  46.8632164  30.7867506
  22.8741429  47.4639317  30.7071969  22.3649639  46.1209802  30.2285549
  17.2773054  52.0488531  29.0645736  17.1626569  51.1473789  29.3652835
  16.4217572  52.2952228  28.7130552  24.3564892  59.9906272  30.6633237
  23.9128746  59.2042650  30.3454141  25.0182105  60.1785422  29.9977127
  19.1152013  61.5202073  25.1893915  19.6659438  61.3919137  24.4170909
  18.2763489  61.8196962  24.8388808  26.4546130  60.2709072  28.6914638
  26.4364605  61.0917953  28.1994907  27.3766050  60.1463147  28.9164779
  22.9119184  57.7853201  29.5338146  23.4447521  57.0241489  29.3037454
  22.3833265  57.4926853  30.2762301  26.0788879  42.8913267  25.0631788
  25.7353148  43.7814909  24.9870898  26.4467841  42.7014925  24.2001373
  14.1474729  55.2146798  17.8820390  14.9849951  55.6243806  17.6654098
  14.3252997  54.2746240  17.8520584  26.0439161  52.8821878  13.5704223
  25.5285785  53.6526483  13.8092610  25.7716470  52.2087014  14.1937284
  23.6286273  47.7271579  18.6289461  22.7727869  47.3378429  18.4495100
  24.0413224  47.8063540  17.7689247  25.1585419  45.2617922  23.0281021
  24.6550215  45.2248057  22.2148826  25.4516026  46.1710665  23.0877678
  21.4028305  45.3456652  22.0347203  22.2681302  45.1499461  21.6753092
  21.4705814  45.1167004  22.9616560  31.0173436  55.6354233  15.5057396
  30.2402878  55.2965392  15.0612559  31.6964917  55.6406856  14.8312362
  25.8325465  50.7548970  15.3964004  25.5275600  51.0695119  16.2474147
  26.7855907  50.8330390  15.4391337  24.2771897  56.9139194  17.0456958
  23.7493258  56.1791953  16.7330196  23.7759399  57.6913870  16.7996926
  29.2564743  55.1088214  22.1624004  28.5988417  55.7987475  22.2504133
  30.0605142  55.4984646  22.5057991  19.0090624  47.5758860  19.4063570
  19.5834376  47.3534041  18.6736763  19.5961607  47.6447554  20.1592171
  28.0670201  53.4632587  20.2127946  28.5802083  54.0962579  20.7149656
  28.7171425  52.8633782  19.8471306  19.3360211  49.6063321  13.4259455
  18.4997523  49.9438007  13.7468730  19.1964981  49.4712301  12.4886592
  21.3113292  44.4500109  18.1338639  20.6577704  44.1349126  17.5095254
  21.2693766  43.8275849  18.8598462  22.4224497  54.7319404  10.0491931
  21.5151558  54.5008657  10.2483080  22.9195529  53.9357023  10.2365913
  25.3292576  63.4416911  12.9688617  24.6554274  63.7448608  13.5773575
  25.7158398  64.2445991  12.6194074  24.5451032  50.9382042  22.4586287
  23.6273594  51.1596989  22.3007975  24.9611176  51.0128353  21.5997994
  25.3286080  52.3373458  17.5888967  26.0757899  52.8494855  17.2796089
  25.5977670  52.0157511  18.4493361  23.6012730  54.8331999  14.5715921
  22.6923949  54.5491032  14.6688391  23.6307814  55.2531077  13.7119228
  28.8331998  58.4438588  18.3407089  28.3794325  57.6029498  18.3972279
  28.2025964  59.0799987  18.6781869  27.7764917  49.3730574  19.5707756
  27.0387674  48.8607960  19.9017999  28.0291691  48.9330956  18.7591033
  27.2764937  60.2815085  19.2756907  27.5687911  60.8420142  18.5569273
  27.7863557  60.5743646  20.0310066  27.8776544  42.1506826  20.1649526
  28.1835421  41.2904190  19.8775441  28.6029149  42.7424446  19.9648519
  14.1700901  52.5537513  18.5531123  13.9725300  51.9606874  17.8282190
  13.6147565  52.2489723  19.2707062  22.1497624  52.4460619  20.6725717
  22.2046234  51.4934456  20.5968193  21.3388826  52.6020058  21.1567015
  23.2988818  56.3740742  11.9104000  22.8608248  55.6576601  11.4509637
  24.0399259  56.6016857  11.3489091  20.0889984  51.0637679  18.4316095
  19.2757850  51.3631850  18.8381288  20.5848978  50.6693368  19.1490578
  22.2398562  61.0595436  20.3650360  22.1974741  61.2856282  19.4358892
  23.1561261  60.8258811  20.5136161  25.6864196  51.5279504  27.2630989
  26.0413584  51.7550977  28.1225455  26.3336327  51.8597880  26.6408245
  31.4161933  54.6497939  17.9680318  31.2779831  54.8399535  17.0401508
  31.0598152  55.4117322  18.4248370  19.5804059  48.6356035  24.0477330
  20.2203438  48.4944794  23.3500294  18.7481589  48.3490548  23.6715932
  31.4431312  56.7174466  22.9791590  31.8767819  56.6249756  23.8274644
  32.1562893  56.6931967  22.3411606  20.3564363  57.9358465  20.1612323
  21.1504961  57.4408785  19.9594898  19.6456055  57.4076328  19.7980028
  25.1759207  60.3176561  24.5124691  25.2296230  60.8867497  25.2802406
  24.3073989  60.4878446  24.1478728  16.6647126  52.0801547  16.2372076
  15.7344714  52.0186002  16.4542038  16.7604598  51.5577500  15.4408717
  16.5832675  48.6056360  18.8250317  16.8439493  49.5201693  18.7159478
  17.4049848  48.1380802  18.9746930  18.0557601  50.0194117  25.9949142
  18.7280654  49.8111479  25.3461791  17.2287387  49.8216203  25.5554374
  32.3046862  56.7598167  25.5124475  32.4982752  57.6643978  25.7583750
  32.2047480  56.3005586  26.3463060  23.9583173  46.6456058  28.0114803
  23.3111088  47.3446007  27.9179279  24.7284188  47.0792202  28.3791051
  27.3661971  56.9104910  31.0865356  27.2147477  56.6815462  30.1695440
  27.3566650  57.8675511  31.0996701  24.1347307  54.4836823  26.0711622
  25.0639367  54.6347982  25.8980590  23.7138337  54.5720843  25.2160269
  22.9335639  58.5087487  23.8410160  22.7946724  58.1406271  24.7136098
  22.1450235  59.0235126  23.6694118  23.5283791  63.6096583  15.1835697
  23.7035546  63.1384627  15.9981319  22.8416579  64.2362350  15.4116957
  24.4840854  57.8869090  21.2298998  24.1490687  57.8469860  22.1256648
  23.9844800  57.2213806  20.7569408  18.4585098  53.2936720  26.7551579
  18.3204896  52.5616959  27.3563118  19.3690021  53.2045620  26.4735767
  27.4200046  55.2325124  11.5036057  26.8029216  54.5071952  11.4069110
  26.9516534  55.9934484  11.1603132  21.0867399  53.0056679  26.2435259
  21.7967017  52.3649871  26.2021877  21.0436707  53.2569574  27.1661439
  29.0754177  59.9424032  29.1641838  29.0166723  59.2583253  28.4972421
  29.4773696  60.6843022  28.7122464  19.7996333  49.9921897  28.0630898
  19.2633690  49.5412635  28.7152494  19.2113041  50.1267806  27.3201362
  18.0944876  66.7585946  21.9575557  18.3341474  67.3904470  22.6354575
  17.2514072  66.4073986  22.2440916  29.0771584  57.9063616  27.3955817
  28.1898363  57.5689538  27.5182216  29.6470136  57.1746648  27.6324583
  10.7300732  54.2387708  20.7198869  11.4171771  53.9249438  20.1319884
  10.5748860  55.1429073  20.4466120  15.5335454  49.1277905  25.1483893
  15.4493642  48.5203574  24.4134302  14.7118160  49.6186923  25.1493389
  22.6072738  62.5665069  24.3617061  22.5342909  63.3720040  24.8736365
  22.1650131  62.7657034  23.5365082  22.3962517  61.8036839  17.8719882
  21.6130039  62.3458519  17.9658107  23.0955263  62.3210818  18.2714123
  25.7059168  47.6131468  20.5154088  26.2027867  46.8601430  20.1955158
  24.9346149  47.6495785  19.9497297  33.5588925  53.3171834  22.1572379
  33.5478801  54.1996549  21.7866312  32.6906304  52.9643385  21.9626916
  25.0671421  62.4651903  26.5175219  25.7799394  63.0999368  26.4451121
  24.5761450  62.5615769  25.7015221  26.7888948  56.3703155  18.0892511
  25.8545227  56.4904618  17.9197215  26.9665617  55.4675622  17.8252521
  22.2894136  49.7548851  20.2425772  21.9191924  49.2019892  20.9306678
  22.7853229  49.1506985  19.6900772  30.1761500  52.2120475  18.6242545
  30.6421952  53.0448466  18.5502848  30.6269000  51.7465456  19.3287804
  20.1183335  60.2146346  27.3380790  20.8192794  60.8482829  27.4910184
  19.6478450  60.5561078  26.5776429  28.2437731  58.5564296  15.6228697
  28.5197575  58.4420891  16.5322571  27.3742229  58.1581781  15.5840870
  28.1478162  44.5801062  22.6633446  27.2341242  44.8105289  22.8315653
  28.5771264  44.6639506  23.5147479  27.9184621  52.7690954  25.1633341
  27.2656071  53.0166861  24.5085793  28.2965001  51.9555092  24.8295818
  24.8791795  62.8050647  19.2661511  25.0614189  61.9872303  19.7289263
  25.7024781  63.0218339  18.8286401  25.2133960  61.7318832  16.5276559
  25.7421727  61.2211287  15.9146721  25.4762180  61.4161362  17.3922092
  23.9672194  53.5110765  31.6499378  23.2912831  53.4104894  32.3201753
  24.7899828  53.3549978  32.1135375  15.7151053  59.7482701  24.2711893
  16.3004490  59.0026389  24.4039797  15.5175891  60.0586658  25.1548557
  18.5689708  62.7833949  19.2874335  17.9000083  63.2680076  18.8038375
  18.4302578  63.0303169  20.2017714  10.3068708  52.3188301  22.9916336
  10.3452807  51.7851892  23.7853454   9.8009001  51.7923507  22.3727313
  22.7094977  64.8177692  25.8856994  23.2613285  64.9809314  26.6506079
  23.0501170  65.4082130  25.2137018  17.6859470  47.1652842  26.4878878
  17.7500797  48.0267673  26.0756276  17.6226590  46.5526844  25.7551237
  17.1611743  49.2375974  30.1351913  17.7883781  48.8553052  30.7489437
  16.3039661  49.0190176  30.5007605  27.5605851  59.6438950  31.7405648
  28.1045755  60.2568908  31.2460603  26.9792696  60.2018528  32.2572661
  13.9377285  51.0452404  16.0670267  14.2330726  50.1363082  16.0137321
  13.0365321  51.0240143  15.7451270  25.8463364  62.7659668  22.8720676
  25.7214504  61.9649408  22.3631621  26.5042455  63.2605861  22.3834646
  17.4671532  49.1208400  22.0497816  16.7458118  49.7344368  21.9105289
  18.2564788  49.6566165  21.9714462  27.9098272  60.5668688  24.5000226
  26.9628608  60.4474039  24.4278553  28.2581046  59.6791186  24.5826487
  20.2697846  46.4562827  28.3238468  20.7932248  46.7025123  29.0864777
  20.0510179  47.2882861  27.9041605  15.6665127  48.7266501  16.1909593
  15.3377833  47.8463880  16.0084698  16.0204498  48.6714170  17.0785982
  24.9144706  60.3621404  20.7004578  24.7669668  59.4338111  20.8812148
  25.7398199  60.3841495  20.2161653  18.7806950  49.0139471  16.5585070
  19.1203023  49.5425392  15.8363679  19.2279071  49.3519877  17.3343637
  28.5178828  61.1849963  21.7869451  29.4425375  60.9792824  21.6493902
  28.3494131  60.9366364  22.6958792  21.4750391  47.3976522  26.0088138
  21.1347211  46.5984335  26.4108818  20.7689397  47.6978233  25.4364971
  22.1266863  44.4825834  24.4615461  22.9492932  44.0086312  24.3394352
  22.3704926  45.2616318  24.9614148  20.7675097  47.5114093  14.7578363
  21.4883460  47.8895345  14.2542080  20.1440401  48.2302969  14.8613341
  24.9106220  48.2159242  15.6936695  25.1269834  49.0983879  15.3925523
  24.4300287  47.8245455  14.9642337  19.6505441  51.1744955  22.2707440
  19.5050022  51.4885258  23.1631721  19.1730645  51.7929855  21.7178339
  21.5101824  48.1647503  22.3188329  21.4963393  47.2688596  21.9820627
  22.2274252  48.1718167  22.9526616  23.3627955  48.5984843  24.3641457
  23.1045733  49.5201914  24.3625787  22.8312995  48.2015278  25.0541921
  28.3074144  61.7035630  17.1431542  28.4811021  61.1382053  16.3905395
  28.8003035  62.5036525  16.9611032  14.1251104  53.7150299  25.2095101
  13.5804572  54.4910107  25.3415375  15.0030453  54.0621104  25.0514223
  20.9138720  47.0461883  17.5875900  21.0354631  46.1178529  17.7866787
  20.6240763  47.0600569  16.6754215  23.7829911  44.7316794  20.7242619
  23.8051607  44.7956127  19.7694599  24.1997970  43.8921302  20.9183126
  34.1613535  54.4672053  18.7621842  34.6044681  53.7179378  18.3640965
  33.2840045  54.4582189  18.3795574  29.2949316  61.0202395  14.2428441
  29.9900221  61.6409087  14.4615755  29.6372466  60.1697746  14.5180818
  14.9117125  52.8420195  28.1025258  14.1698862  52.9902831  28.6889888
  14.5909870  53.1028461  27.2392007  31.1940739  58.4702100  15.7715771
  31.7192064  58.8089373  15.0465091  31.1063092  57.5349115  15.5878906
  22.8560788  62.3836174  27.9005648  23.1647915  62.1385320  28.7728348
  23.6536270  62.5882812  27.4124518  22.8781400  64.5374083  20.1311025
  22.4386390  64.0450462  20.8243881  23.6289517  63.9947051  19.8903100
  15.3573739  60.7285624  20.1335653  16.1831759  60.4289396  19.7534296
  15.0067791  59.9593247  20.5825441  20.3255272  60.0812092  22.2033326
  19.7035282  59.4182797  21.9035554  20.9960139  60.1073224  21.5206974
  13.5582344  58.6471951  21.0924586  12.7214253  58.2194125  20.9108587
  13.5305990  58.8404394  22.0295377  20.3979800  48.5593880  31.7965832
  20.4467955  49.4356003  31.4143602  20.9402314  48.0171274  31.2237475
  30.8834645  59.1035004  31.0766969  30.0930189  59.0859143  30.5371469
  30.6468000  59.6423297  31.8316006  31.0032521  55.9527470  28.3899698
  31.0530525  55.7877478  29.3315221  30.8946444  55.0854729  27.9997579
  19.8868779  58.6316016  15.6791787  20.0356900  59.3151480  15.0258459
  20.6935223  58.6121106  16.1941242  28.2936283  51.9358398  29.7059005
  29.1946146  51.7964863  29.4143002  28.3684257  52.1012853  30.6457182
  22.6279088  49.3125253  28.5512191  21.7582398  49.6058819  28.2794779
  22.8638569  49.8965698  29.2719454  32.5050717  58.3724412  28.6341719
  32.2135526  58.7354392  29.4705180  31.8922849  57.6591420  28.4555051
  33.7046400  55.9377291  21.1544290  34.5393291  56.3767095  21.3181850
  33.8405528  55.4615945  20.3352535  30.7537906  53.4957026  27.1021777
  31.2292027  53.6884673  26.2940629  29.8303471  53.5516212  26.8565161
  17.6421412  54.6581193  16.6852856  17.3967454  53.7543523  16.8833066
  17.8117327  54.6598344  15.7432334  25.3318122  45.5304870  26.0677611
  25.8500066  46.2665897  25.7424100  24.9773255  45.8368863  26.9024370
  16.9117060  50.3909551  14.1839017  16.2186305  50.4653906  13.5279053
  16.6668812  49.6269895  14.7060534  25.5830716  41.9505152  21.5878508
  25.8632470  41.2828341  22.2138934  26.3681323  42.1434248  21.0753172
  23.3864185  61.1264146  13.1503534  22.8138152  61.7454333  12.6974006
  23.9596978  61.6763508  13.6843456  29.4539575  50.3722786  25.3350083
  30.4056997  50.4720884  25.3562307  29.2843025  49.5801055  25.8448167
  27.4753954  47.4578370  25.5209484  26.8803886  47.7383382  24.8255972
  27.1903651  47.9472270  26.2926225  26.6061445  61.4101296  14.2812116
  27.5392118  61.3446858  14.4844992  26.5184657  62.2457563  13.8226649
  29.2349461  60.7267167  11.2416064  29.1563093  60.3927030  12.1351822
  30.0559128  61.2188935  11.2407536  31.9327652  53.5928906  24.4492383
  31.9003972  52.6544907  24.6352066  32.5428276  53.6712943  23.7158207
  23.7710983  52.4624959  10.4919587  24.7170088  52.3331167  10.5608005
  23.3925228  51.7239621  10.9689015  32.0822141  50.3839949  24.4950666
  31.5661190  49.5998406  24.3080595  32.9662089  50.0558666  24.6597185
  29.7432868  44.1280965  20.4546478  29.5457689  43.8196053  21.3389810
  30.3532573  44.8542604  20.5844408  37.7504202  54.6544913  23.5898419
  38.4807591  54.3930201  24.1506123  37.1411148  53.9173635  23.6300487
  35.8319499  52.7952775  24.1872871  35.1052663  52.6608740  23.5789362
  35.4166786  53.1029604  24.9929589  23.6549676  56.5142705  31.9520244
  24.5752685  56.6921304  32.1460290  23.6199259  55.5698750  31.7999943
  21.9553900  50.3874935  10.4274472  21.0485356  50.0908048  10.5037185
  22.2329881  50.0904753   9.5608758  12.8731841  51.7081299  20.8773518
  12.5534625  50.8546607  20.5847892  12.3265269  51.9229877  21.6331486
  16.6511748  54.4243740  24.5943025  16.8697758  55.3560848  24.6131059
  17.0637522  54.0651714  25.3797829  23.5715966  44.9311825  16.5818713
  22.7616694  44.5858910  16.9573959  24.2600383  44.6219369  17.1706325
  25.5006514  44.0089872  18.2043010  26.0537553  44.4285325  18.8633033
  25.7376601  43.0825620  18.2465966  21.5239614  49.9976946  33.9845774
  21.4236341  50.9471302  33.9157865  21.3061156  49.6695184  33.1121844
  12.7420101  55.3284210  22.8466640  12.0483572  54.9138163  22.3336594
  13.4893092  55.3704747  22.2500059  28.8785321  46.1190397  17.7121674
  28.2983991  46.7775201  17.3299726  28.6121254  45.2967742  17.3009092
  27.3288888  45.5195455  19.9142994  27.8288666  45.6311989  19.1057313
  27.9724496  45.2156508  20.5543803  21.3870884  53.4274084  32.8010835
  20.9037965  54.2274444  33.0074724  21.4731823  53.4382029  31.8478279
  14.6556843  55.2602464  20.7232655  14.6327531  55.3590151  19.7714538
  14.9657480  56.1067615  21.0449821  17.3144221  57.3178619  24.8379269
  18.2687475  57.2862561  24.7709201  17.1156745  56.8569243  25.6529495
  17.9043603  55.8879735  27.4050067  18.7236492  56.3823814  27.4284904
  18.1780411  54.9711703  27.3767634  27.6610200  48.2790487  16.7678022
  26.7736055  48.5640138  16.5498217  28.0764189  48.1184251  15.9205299
  31.0124736  48.3037008  20.4832362  31.7885126  48.7933461  20.7556978
  30.2872870  48.7295063  20.9404231  33.4497294  49.0164628  21.5406302
  34.0441785  48.7760364  20.8299610  33.5223878  48.2971758  22.1679838
  15.6694450  62.8598239  21.8549467  15.5348918  62.0998639  21.2887465
  15.2526512  63.5839138  21.3878256  26.8053413  58.0435162  10.8626042
  27.5089263  58.2485165  11.4783698  26.0816062  58.6111924  11.1275126
  27.6351223  53.7945023  16.9828312  27.5786425  54.2513575  16.1435945
  28.1879566  53.0335708  16.8051155  31.4456029  49.5834755  17.8078432
  31.1892963  49.1831391  18.6386640  30.8208897  50.2978549  17.6828571
  35.7568367  52.3230828  20.3149723  35.1967925  52.3924018  21.0881285
  35.1511870  52.1471813  19.5949220  18.8263576  63.7567556  22.0667910
  18.7095960  64.7012988  21.9646600  18.0056022  63.4541117  22.4553709
  28.7140110  58.4817691  12.9124502  29.5485714  58.0498890  12.7301977
  28.5524453  58.3099705  13.8401397  28.3686003  54.9849805  14.2780842
  28.3134806  54.8194076  13.3369286  27.7432058  55.6925838  14.4343031
  13.1578518  50.2217869  28.1042264  13.8037381  49.7116823  28.5929489
  12.9495669  50.9586551  28.6785689  25.6831910  57.2898716  33.6034404
  26.5523069  57.4639369  33.2421039  25.2038661  58.1093133  33.4810134
  21.6782128  44.4857914  13.8566160  21.6660798  45.4299754  14.0134431
  22.5705550  44.3028059  13.5625621  19.8518090  64.4095817  25.2823838
  20.7545337  64.4419428  25.5990333  19.6255460  63.4796268  25.2970174
  21.6071692  63.1626804  21.9433917  20.6567323  63.1628666  21.8298289
  21.9104178  62.4159539  21.4269951  25.4934247  41.0800690  18.1112097
  24.7266643  40.5259177  18.2568779  25.9044952  41.1522559  18.9726248
  17.4976009  47.3685486  32.2017278  18.3607470  47.0122291  32.4120603
  16.9241419  47.0299381  32.8892682  37.3424385  68.9987342  23.0079679
  37.9802795  68.8794090  22.3043019  37.2245228  69.9468186  23.0667631
  34.1514092  68.9514771  22.9441204  33.8132603  68.8355835  22.0561739
  35.0203860  68.5505936  22.9242210  30.0100907  70.8050247  18.9338095
  29.4465773  70.7140184  18.1654383  29.8953303  69.9850151  19.4140587
  34.6333875  70.1049622  28.9027409  34.6222516  69.7102421  28.0307913
  34.7954514  69.3715695  29.4961181  27.5565339  72.3001439  21.7722315
  28.3486631  71.9592263  21.3568615  27.7961990  72.4096414  22.6924469
  35.5900466  74.4721215  14.2452560  34.9388446  75.0575295  13.8586573
  36.3844829  75.0027410  14.3047597  29.5156093  71.5610352  14.6439694
  30.2886969  71.0139339  14.5052570  29.8681492  72.4254601  14.8554155
  31.3541136  72.8886734  27.8506593  31.0631002  73.7932365  27.7353260
  31.9898120  72.9303262  28.5650663  32.2797343  70.2663583  24.4407953
  32.8760915  70.0419605  23.7264916  32.3372314  69.5248328  25.0433401
  31.8522371  67.7203018  12.2758144  32.1047892  67.1984539  11.5141607
  30.9146930  67.5569163  12.3784828  36.8965654  66.7238796  20.0832887
  37.6828743  66.3058219  19.7323304  37.1604358  67.6284888  20.2514536
  37.0675731  72.1611647  14.7821544  36.4321564  72.2346273  15.4942449
  36.7373138  72.7505245  14.1040623  42.2974081  66.6614029  20.9865866
  43.0299253  66.0913246  21.2203695  41.5413437  66.2735630  21.4272371
  31.5718660  69.6231124  14.4782519  31.4554918  68.9476027  15.1463603
  31.6820920  69.1363498  13.6614672  33.9150201  69.0841271  18.1829208
  33.5508408  68.5571892  18.8942130  34.7717317  68.6939740  18.0095694
  39.8199501  60.3735604  25.4460474  39.4882826  61.2431015  25.2221689
  39.2245115  60.0571888  26.1254505  33.5555688  64.1131171  13.1790557
  33.7230090  64.9811407  13.5461028  33.3652857  64.2758452  12.2551846
  36.3131021  72.5748150  24.8456387  36.0131744  73.4773188  24.7372194
  35.9682081  72.3080333  25.6977540  29.7643502  69.0261946  20.8793091
  28.8393999  68.8938161  21.0870783  30.0127916  69.8056166  21.3763034
  39.7128165  65.0930690  22.5253824  38.8045042  65.0246098  22.2312585
  39.6615761  65.5702635  23.3535650  33.5344909  66.5688828  14.1637223
  33.4144534  67.0145879  15.0022704  32.8397497  66.9174146  13.6050762
  27.1252314  68.6695220  21.7136880  27.2544695  68.9229699  22.6276292
  26.4449765  69.2622928  21.3941536  31.2951801  79.3392470  17.8127355
  31.2175830  80.2900295  17.8915835  30.6913444  78.9938342  18.4702281
  33.7869031  66.5120335  30.4688722  33.0102365  67.0714255  30.4591586
  34.4259594  66.9977118  30.9903592  41.5789811  63.2947128  24.3031698
  40.9364191  63.5879661  23.6571493  41.0744740  63.1800048  25.1084895
  39.2329975  67.0410301  14.9917558  40.1447831  67.2737688  14.8165255
  38.7239622  67.6247346  14.4292636  32.0415403  69.3205789  30.0306689
  32.7830087  69.8590833  29.7541512  31.3352388  69.9472077  30.1878240
  37.5170742  71.4634929  28.6278850  37.9254099  71.0217340  27.8833482
  36.7948004  70.8887557  28.8813043  33.8701813  66.4007536  26.0012407
  34.7163008  66.8246949  26.1447056  33.8100450  65.7441160  26.6950970
  37.8399557  72.0236120  22.3831139  37.2108420  72.1881834  21.6807207
  37.4525219  72.4377729  23.1542103  41.7188789  72.9590558  19.7375503
  41.0339827  73.3389459  19.1872536  41.8032638  73.5685884  20.4707450
  37.0201258  64.0611904  27.6593581  36.7762190  64.8153965  27.1227856
  37.2961188  64.4397252  28.4940828  38.9739721  70.6050517  26.3370846
  39.1856616  71.2482277  25.6605227  38.9269469  69.7712833  25.8692776
  36.5765950  63.2168337  23.2407418  35.7150429  63.5149591  23.5324156
  36.6028384  63.4338736  22.3088451  33.3927519  71.7610528  19.6481224
  33.8565865  72.0398231  18.8585847  33.1284317  70.8593972  19.4654315
  30.2851600  71.3082009  22.5860987  30.8552957  71.7369278  21.9478472
  30.8759712  71.0264594  23.2845173  32.3296405  67.8833680  16.4570789
  33.0320448  68.3354724  16.9244716  31.9977034  67.2417499  17.0850682
  30.7776767  66.4745437  30.8321999  30.1475427  67.1561718  31.0657395
  30.6712854  66.3628518  29.8875137  26.0721739  66.1417233  21.7587923
  25.2820793  66.3974761  21.2828033  26.5632986  66.9565571  21.8639963
  40.0885549  73.4822472  24.5093204  40.9102992  73.0802659  24.2275885
  40.0847951  73.3790706  25.4609319  28.0236484  66.5061812  18.7171399
  27.2267648  66.6180506  19.2354895  27.7962077  66.8448464  17.8512290
  33.8542152  73.0306515  26.6653914  33.9186585  73.4926923  27.5012086
  33.1453076  72.4003880  26.7936224  24.3559442  66.3947723  24.1902914
  24.6067480  67.2794733  24.4560490  24.8918990  66.2152325  23.4178005
  48.1791542  69.8261221  20.8578175  47.4255250  69.2568619  20.7022179
  48.3139083  69.7923885  21.8048810  33.5690170  74.6974623  16.5332894
  33.4335844  75.5426159  16.9617742  34.1099982  74.8993901  15.7698828
  30.0557509  60.7766203  33.1947250  29.6624455  60.2232401  33.8694894
  30.8723650  61.0876781  33.5853767  27.0219567  72.2150061  17.1060820
  27.5344088  73.0093311  17.2566384  27.6742280  71.5176351  17.0394421
  28.8314452  75.3315817  19.1883573  29.0081080  76.2533782  19.0004557
  29.6271285  75.0174236  19.6177952  32.9725470  62.1924082  30.7867506
  33.7135184  62.7931235  30.7071969  33.2043393  61.4501720  30.2285549
  28.1166808  67.3780449  29.0645736  28.0020323  66.4765706  29.3652835
  27.2611326  67.6244146  28.7130552  35.1958646  75.3198189  30.6633237
  34.7522500  74.5334568  30.3454141  35.8575860  75.5077340  29.9977127
  29.9545767  76.8493991  25.1893915  30.5053192  76.7211054  24.4170909
  29.1157243  77.1488880  24.8388808  37.2939884  75.6000989  28.6914638
  37.2758359  76.4209870  28.1994907  38.2159804  75.4755065  28.9164779
  33.7512938  73.1145119  29.5338146  34.2841275  72.3533407  29.3037454
  33.2227019  72.8218771  30.2762301  36.9182633  58.2205185  25.0631788
  36.5746903  59.1106826  24.9870898  37.2861596  58.0306842  24.2001373
  24.9868484  70.5438715  17.8820390  25.8243706  70.9535724  17.6654098
  25.1646752  69.6038157  17.8520584  36.8832916  68.2113796  13.5704223
  36.3679539  68.9818400  13.8092610  36.6110224  67.5378932  14.1937284
  34.4680027  63.0563497  18.6289461  33.6121623  62.6670347  18.4495100
  34.8806979  63.1355457  17.7689247  35.9979174  60.5909840  23.0281021
  35.4943969  60.5539975  22.2148826  36.2909781  61.5002583  23.0877678
  32.2422060  60.6748570  22.0347203  33.1075056  60.4791378  21.6753092
  32.3099568  60.4458921  22.9616560  41.8567190  70.9646151  15.5057396
  41.0796633  70.6257310  15.0612559  42.5358671  70.9698774  14.8312362
  36.6719219  66.0840888  15.3964004  36.3669355  66.3987037  16.2474147
  37.6249661  66.1622308  15.4391337  35.1165651  72.2431111  17.0456958
  34.5887013  71.5083871  16.7330196  34.6153154  73.0205788  16.7996926
  40.0958497  70.4380132  22.1624004  39.4382171  71.1279393  22.2504133
  40.8998896  70.8276564  22.5057991  29.8484379  62.9050778  19.4063570
  30.4228131  62.6825959  18.6736763  30.4355361  62.9739472  20.1592171
  38.9063956  68.7924504  20.2127946  39.4195838  69.4254496  20.7149656
  39.5565180  68.1925700  19.8471306  30.1753966  64.9355239  13.4259455
  29.3391278  65.2729925  13.7468730  30.0358735  64.8004218  12.4886592
  32.1507046  59.7792026  18.1338639  31.4971459  59.4641044  17.5095254
  32.1087520  59.1567767  18.8598462  33.2618251  70.0611322  10.0491931
  32.3545313  69.8300575  10.2483080  33.7589283  69.2648941  10.2365913
  36.1686330  78.7708829  12.9688617  35.4948029  79.0740525  13.5773575
  36.5552152  79.5737909  12.6194074  35.3844787  66.2673960  22.4586287
  34.4667348  66.4888907  22.3007975  35.8004930  66.3420270  21.5997994
  36.1679834  67.6665376  17.5888967  36.9151653  68.1786773  17.2796089
  36.4371424  67.3449428  18.4493361  34.4406485  70.1623916  14.5715921
  33.5317704  69.8782949  14.6688391  34.4701568  70.5822995  13.7119228
  39.6725752  73.7730506  18.3407089  39.2188079  72.9321416  18.3972279
  39.0419719  74.4091904  18.6781869  38.6158672  64.7022492  19.5707756
  37.8781428  64.1899878  19.9017999  38.8685445  64.2622874  18.7591033
  38.1158691  75.6107003  19.2756907  38.4081666  76.1712060  18.5569273
  38.6257312  75.9035564  20.0310066  38.7170299  57.4798744  20.1649526
  39.0229176  56.6196107  19.8775441  39.4422904  58.0716364  19.9648519
  25.0094655  67.8829431  18.5531123  24.8119055  67.2898791  17.8282190
  24.4541319  67.5781641  19.2707062  32.9891379  67.7752537  20.6725717
  33.0439988  66.8226373  20.5968193  32.1782581  67.9311976  21.1567015
  34.1382572  71.7032660  11.9104000  33.7002002  70.9868519  11.4509637
  34.8793013  71.9308775  11.3489091  30.9283739  66.3929597  18.4316095
  30.1151604  66.6923767  18.8381288  31.4242733  65.9985286  19.1490578
  33.0792316  76.3887354  20.3650360  33.0368495  76.6148200  19.4358892
  33.9955015  76.1550728  20.5136161  36.5257950  66.8571421  27.2630989
  36.8807338  67.0842894  28.1225455  37.1730081  67.1889798  26.6408245
  42.2555687  69.9789857  17.9680318  42.1173586  70.1691453  17.0401508
  41.8991906  70.7409240  18.4248370  30.4197813  63.9647952  24.0477330
  31.0597193  63.8236711  23.3500294  29.5875344  63.6782466  23.6715932
  42.2825067  72.0466384  22.9791590  42.7161573  71.9541673  23.8274644
  42.9956648  72.0223885  22.3411606  31.1958117  73.2650383  20.1612323
  31.9898716  72.7700703  19.9594898  30.4849810  72.7368246  19.7980028
  36.0152962  75.6468478  24.5124691  36.0689984  76.2159415  25.2802406
  35.1467743  75.8170363  24.1478728  27.5040881  67.4093464  16.2372076
  26.5738469  67.3477920  16.4542038  27.5998353  66.8869417  15.4408717
  27.4226430  63.9348277  18.8250317  27.6833247  64.8493611  18.7159478
  28.2443602  63.4672720  18.9746930  28.8951355  65.3486034  25.9949142
  29.5674409  65.1403397  25.3461791  28.0681142  65.1508120  25.5554374
  43.1440616  72.0890085  25.5124475  43.3376506  72.9935895  25.7583750
  43.0441235  71.6297504  26.3463060  34.7976927  61.9747975  28.0114803
  34.1504842  62.6737925  27.9179279  35.5677943  62.4084119  28.3791051
  38.2055725  72.2396828  31.0865356  38.0541231  72.0107379  30.1695440
  38.1960405  73.1967429  31.0996701  34.9741061  69.8128740  26.0711622
  35.9033121  69.9639900  25.8980590  34.5532091  69.9012761  25.2160269
  33.7729393  73.8379405  23.8410160  33.6340479  73.4698189  24.7136098
  32.9843989  74.3527044  23.6694118  34.3677545  78.9388501  15.1835697
  34.5429301  78.4676544  15.9981319  33.6810333  79.5654267  15.4116957
  35.3234608  73.2161007  21.2298998  34.9884441  73.1761777  22.1256648
  34.8238554  72.5505723  20.7569408  29.2978852  68.6228637  26.7551579
  29.1598650  67.8908876  27.3563118  30.2083776  68.5337538  26.4735767
  38.2593800  70.5617042  11.5036057  37.6422971  69.8363870  11.4069110
  37.7910289  71.3226402  11.1603132  31.9261153  68.3348597  26.2435259
  32.6360772  67.6941789  26.2021877  31.8830461  68.5861492  27.1661439
  39.9147932  75.2715950  29.1641838  39.8560478  74.5875170  28.4972421
  40.3167450  76.0134940  28.7122464  30.6390087  65.3213815  28.0630898
  30.1027444  64.8704553  28.7152494  30.0506795  65.4559723  27.3201362
  28.9338630  82.0877864  21.9575557  29.1735229  82.7196388  22.6354575
  28.0907827  81.7365904  22.2440916  30.0492346  64.7802466  10.6257362
  29.1721812  64.6591267  10.2619608  30.5250099  63.9888544  10.3736250
  39.9165339  73.2355534  27.3955817  39.0292118  72.8981456  27.5182216
  40.4863890  72.5038565  27.6324583  21.5694486  69.5679626  20.7198869
  22.2565526  69.2541356  20.1319884  21.4142615  70.4720990  20.4466120
  26.3729208  64.4569822  25.1483893  26.2887397  63.8495492  24.4134302
  25.5511915  64.9478841  25.1493389  33.4466492  77.8956986  24.3617061
  33.3736664  78.7011958  24.8736365  33.0043885  78.0948952  23.5365082
  33.2356272  77.1328756  17.8719882  32.4523794  77.6750437  17.9658107
  33.9349017  77.6502736  18.2714123  36.5452922  62.9423386  20.5154088
  37.0421622  62.1893348  20.1955158  35.7739904  62.9787702  19.9497297
  44.3982680  68.6463751  22.1572379  44.3872556  69.5288467  21.7866312
  43.5300059  68.2935302  21.9626916  35.9065176  77.7943820  26.5175219
  36.6193148  78.4291285  26.4451121  35.4155205  77.8907686  25.7015221
  37.6282703  71.6995073  18.0892511  36.6938982  71.8196536  17.9197215
  37.8059371  70.7967540  17.8252521  33.1287891  65.0840769  20.2425772
  32.7585678  64.5311809  20.9306678  33.6246983  64.4798902  19.6900772
  41.0155254  67.5412392  18.6242545  41.4815706  68.3740384  18.5502848
  41.4662755  67.0757374  19.3287804  30.9577089  75.5438264  27.3380790
  31.6586549  76.1774747  27.4910184  30.4872204  75.8852995  26.5776429
  39.0831485  73.8856214  15.6228697  39.3591329  73.7712808  16.5322571
  38.2135984  73.4873698  15.5840870  38.9871917  59.9092979  22.6633446
  38.0734997  60.1397206  22.8315653  39.4165018  59.9931423  23.5147479
  38.7578375  68.0982871  25.1633341  38.1049826  68.3458779  24.5085793
  39.1358755  67.2847009  24.8295818  35.7185549  78.1342564  19.2661511
  35.9007944  77.3164220  19.7289263  36.5418535  78.3510257  18.8286401
  36.0527715  77.0610750  16.5276559  36.5815481  76.5503204  15.9146721
  36.3155934  76.7453280  17.3922092  34.8065948  68.8402682  31.6499378
  34.1306585  68.7396812  32.3201753  35.6293582  68.6841896  32.1135375
  26.5544807  75.0774619  24.2711893  27.1398244  74.3318307  24.4039797
  26.3569646  75.3878576  25.1548557  29.4083463  78.1125866  19.2874335
  28.7393838  78.5971994  18.8038375  29.2696332  78.3595087  20.2017714
  21.1462462  67.6480219  22.9916336  21.1846562  67.1143810  23.7853454
  20.6402755  67.1215425  22.3727313  33.5488731  80.1469610  25.8856994
  34.1007039  80.3101231  26.6506079  33.8894925  80.7374048  25.2137018
  28.5253225  62.4944760  26.4878878  28.5894551  63.3559591  26.0756276
  28.4620345  61.8818761  25.7551237  28.0005497  64.5667892  30.1351913
  28.6277536  64.1844969  30.7489437  27.1433416  64.3482094  30.5007605
  38.3999606  74.9730867  31.7405648  38.9439510  75.5860826  31.2460603
  37.8186450  75.5310446  32.2572661  24.7771040  66.3744321  16.0670267
  25.0724481  65.4655000  16.0137321  23.8759076  66.3532061  15.7451270
  36.6857119  78.0951585  22.8720676  36.5608258  77.2941325  22.3631621
  37.3436210  78.5897779  22.3834646  28.3065287  64.4500318  22.0497816
  27.5851873  65.0636286  21.9105289  29.0958543  64.9858083  21.9714462
  38.7492027  75.8960605  24.5000226  37.8022362  75.7765957  24.4278553
  39.0974800  75.0083103  24.5826487  31.1091600  61.7854744  28.3238468
  31.6326002  62.0317041  29.0864777  30.8903934  62.6174779  27.9041605
  26.5058881  64.0558419  16.1909593  26.1771588  63.1755798  16.0084698
  26.8598252  64.0006088  17.0785982  35.7538460  75.6913322  20.7004578
  35.6063423  74.7630029  20.8812148  36.5791954  75.7133412  20.2161653
  29.6200705  64.3431389  16.5585070  29.9596777  64.8717310  15.8363679
  30.0672825  64.6811795  17.3343637  39.3572582  76.5141880  21.7869451
  40.2819130  76.3084742  21.6493902  39.1887885  76.2658282  22.6958792
  32.3144145  62.7268439  26.0088138  31.9740966  61.9276253  26.4108818
  31.6083152  63.0270150  25.4364971  32.9660617  59.8117752  24.4615461
  33.7886687  59.3378230  24.3394352  33.2098681  60.5908236  24.9614148
  31.6068852  62.8406010  14.7578363  32.3277214  63.2187263  14.2542080
  30.9834156  63.5594887  14.8613341  35.7499975  63.5451159  15.6936695
  35.9663589  64.4275797  15.3925523  35.2694042  63.1537373  14.9642337
  30.4899196  66.5036873  22.2707440  30.3443777  66.8177176  23.1631721
  30.0124400  67.1221773  21.7178339  32.3495579  63.4939420  22.3188329
  32.3357148  62.5980514  21.9820627  33.0668007  63.5010084  22.9526616
  34.2021710  63.9276761  24.3641457  33.9439487  64.8493831  24.3625787
  33.6706750  63.5307195  25.0541921  39.1467898  77.0327548  17.1431542
  39.3204776  76.4673970  16.3905395  39.6396790  77.8328443  16.9611032
  24.9644858  69.0442217  25.2095101  24.4198326  69.8202025  25.3415375
  25.8424208  69.3913021  25.0514223  31.7532475  62.3753801  17.5875900
  31.8748386  61.4470447  17.7866787  31.4634517  62.3892487  16.6754215
  34.6223665  60.0608711  20.7242619  34.6445362  60.1248044  19.7694599
  35.0391724  59.2213220  20.9183126  45.0007289  69.7963971  18.7621842
  45.4438436  69.0471296  18.3640965  44.1233800  69.7874107  18.3795574
  40.1343071  76.3494312  14.2428441  40.8293975  76.9701005  14.4615755
  40.4766221  75.4989663  14.5180818  25.7510880  68.1712113  28.1025258
  25.0092616  68.3194749  28.6889888  25.4303624  68.4320379  27.2392007
  42.0334494  73.7994018  15.7715771  42.5585818  74.1381291  15.0465091
  41.9456846  72.8641033  15.5878906  33.6954543  77.7128091  27.9005648
  34.0041669  77.4677238  28.7728348  34.4930025  77.9174730  27.4124518
  33.7175155  79.8666001  20.1311025  33.2780145  79.3742380  20.8243881
  34.4683272  79.3238969  19.8903100  26.1967494  76.0577542  20.1335653
  27.0225514  75.7581314  19.7534296  25.8461546  75.2885164  20.5825441
  31.1649027  75.4104010  22.2033326  30.5429036  74.7474715  21.9035554
  31.8353894  75.4365142  21.5206974  24.3976099  73.9763868  21.0924586
  23.5608007  73.5486043  20.9108587  24.3699744  74.1696312  22.0295377
  31.2373554  63.8885798  31.7965832  31.2861710  64.7647921  31.4143602
  31.7796069  63.3463191  31.2237475  41.7228400  74.4326921  31.0766969
  40.9323944  74.4151060  30.5371469  41.4861755  74.9715215  31.8316006
  41.8426275  71.2819388  28.3899698  41.8924280  71.1169395  29.3315221
  41.7340198  70.4146647  27.9997579  30.7262534  73.9607933  15.6791787
  30.8750654  74.6443398  15.0258459  31.5328977  73.9413024  16.1941242
  39.1330037  67.2650316  29.7059005  40.0339900  67.1256781  29.4143002
  39.2078012  67.4304771  30.6457182  33.4672843  64.6417171  28.5512191
  32.5976152  64.9350737  28.2794779  33.7032323  65.2257616  29.2719454
  43.3444472  73.7016329  28.6341719  43.0529280  74.0646310  29.4705180
  42.7316603  72.9883338  28.4555051  44.5440154  71.2669209  21.1544290
  45.3787046  71.7059013  21.3181850  44.6799283  70.7907862  20.3352535
  41.5931660  68.8248944  27.1021777  42.0685782  69.0176590  26.2940629
  40.6697225  68.8808130  26.8565161  28.4815167  69.9873111  16.6852856
  28.2361209  69.0835441  16.8833066  28.6511081  69.9890262  15.7432334
  36.1711877  60.8596787  26.0677611  36.6893820  61.5957814  25.7424100
  35.8167009  61.1660781  26.9024370  27.7510814  65.7201469  14.1839017
  27.0580059  65.7945824  13.5279053  27.5062566  64.9561812  14.7060534
  36.4224471  57.2797070  21.5878508  36.7026225  56.6120259  22.2138934
  37.2075078  57.4726166  21.0753172  34.2257939  76.4556064  13.1503534
  33.6531906  77.0746251  12.6974006  34.7990733  77.0055426  13.6843456
  40.2933329  65.7014704  25.3350083  41.2450752  65.8012802  25.3562307
  40.1236780  64.9092973  25.8448167  38.3147709  62.7870287  25.5209484
  37.7197641  63.0675300  24.8255972  38.0297405  63.2764188  26.2926225
  37.4455199  76.7393214  14.2812116  38.3785872  76.6738776  14.4844992
  37.3578412  77.5749481  13.8226649  40.0743216  76.0559084  11.2416064
  39.9956847  75.7218948  12.1351822  40.8952882  76.5480852  11.2407536
  42.7721407  68.9220824  24.4492383  42.7397727  67.9836824  24.6352066
  43.3822031  69.0004860  23.7158207  34.6104738  67.7916877  10.4919587
  35.5563842  67.6623085  10.5608005  34.2318983  67.0531539  10.9689015
  42.9215895  65.7131867  24.4950666  42.4054944  64.9290324  24.3080595
  43.8055844  65.3850584  24.6597185  40.5826622  59.4572883  20.4546478
  40.3851443  59.1487971  21.3389810  41.1926328  60.1834522  20.5844408
  48.5897957  69.9836831  23.5898419  49.3201345  69.7222119  24.1506123
  47.9804902  69.2465552  23.6300487  46.6713254  68.1244693  24.1872871
  45.9446417  67.9900658  23.5789362  46.2560541  68.4321522  24.9929589
  34.4943430  71.8434623  31.9520244  35.4146440  72.0213222  32.1460290
  34.4593013  70.8990668  31.7999943  32.7947655  65.7166853  10.4274472
  31.8879110  65.4199966  10.5037185  33.0723636  65.4196671   9.5608758
  23.7125595  67.0373216  20.8773518  23.3928380  66.1838525  20.5847892
  23.1659023  67.2521795  21.6331486  27.4905503  69.7535657  24.5943025
  27.7091513  70.6852765  24.6131059  27.9031277  69.3943632  25.3797829
  34.4109721  60.2603743  16.5818713  33.6010449  59.9150828  16.9573959
  35.0994138  59.9511286  17.1706325  36.3400269  59.3381790  18.2043010
  36.8931308  59.7577243  18.8633033  36.5770355  58.4117538  18.2465966
  32.3633368  65.3268863  33.9845774  32.2630095  66.2763220  33.9157865
  32.1454910  64.9987102  33.1121844  31.5646440  62.5753788  10.5686451
  32.4265604  62.9008687  10.8282268  31.7496784  61.7885284  10.0559517
  23.5813855  70.6576128  22.8466640  22.8877327  70.2430081  22.3336594
  24.3286846  70.6996664  22.2500059  39.7179076  61.4482315  17.7121674
  39.1377745  62.1067119  17.3299726  39.4515009  60.6259659  17.3009092
  38.1682642  60.8487372  19.9142994  38.6682421  60.9603907  19.1057313
  38.8118250  60.5448425  20.5543803  32.2264638  68.7566002  32.8010835
  31.7431720  69.5566362  33.0074724  32.3125577  68.7673947  31.8478279
  25.4950598  70.5894382  20.7232655  25.4721286  70.6882069  19.7714538
  25.8051234  71.4359533  21.0449821  28.1537976  72.6470537  24.8379269
  29.1081229  72.6154479  24.7709201  27.9550499  72.1861160  25.6529495
  28.7437358  71.2171653  27.4050067  29.5630247  71.7115731  27.4284904
  29.0174166  70.3003621  27.3767634  38.5003954  63.6082405  16.7678022
  37.6129809  63.8932056  16.5498217  38.9157943  63.4476168  15.9205299
  41.8518490  63.6328926  20.4832362  42.6278880  64.1225379  20.7556978
  41.1266624  64.0586980  20.9404231  44.2891049  64.3456545  21.5406302
  44.8835540  64.1052281  20.8299610  44.3617632  63.6263676  22.1679838
  26.5088204  78.1890156  21.8549467  26.3742672  77.4290557  21.2887465
  26.0920267  78.9131056  21.3878256  37.6447167  73.3727080  10.8626042
  38.3483018  73.5777082  11.4783698  36.9209816  73.9403842  11.1275126
  38.4744978  69.1236941  16.9828312  38.4180179  69.5805492  16.1435945
  39.0273320  68.3627626  16.8051155  42.2849784  64.9126673  17.8078432
  42.0286718  64.5123309  18.6386640  41.6602652  65.6270467  17.6828571
  46.5962122  67.6522746  20.3149723  46.0361680  67.7215935  21.0881285
  45.9905625  67.4763731  19.5949220  29.6657330  79.0859473  22.0667910
  29.5489714  80.0304906  21.9646600  28.8449777  78.7833035  22.4553709
  39.5533865  73.8109609  12.9124502  40.3879469  73.3790807  12.7301977
  39.3918208  73.6391623  13.8401397  39.2079757  70.3141722  14.2780842
  39.1528561  70.1485994  13.3369286  38.5825812  71.0217755  14.4343031
  23.9972272  65.5509787  28.1042264  24.6431136  65.0408741  28.5929489
  23.7889423  66.2878468  28.6785689  36.5225664  72.6190634  33.6034404
  37.3916824  72.7931286  33.2421039  36.0432416  73.4385051  33.4810134
  32.5175883  59.8149831  13.8566160  32.5054552  60.7591671  14.0134431
  33.4099304  59.6319977  13.5625621  30.6911844  79.7387735  25.2823838
  31.5939091  79.7711345  25.5990333  30.4649215  78.8088186  25.2970174
  32.4465446  78.4918722  21.9433917  31.4961078  78.4920583  21.8298289
  32.7497933  77.7451456  21.4269951  36.3328002  56.4092608  18.1112097
  35.5660398  55.8551095  18.2568779  36.7438707  56.4814477  18.9726248
  28.3369763  62.6977404  32.2017278  29.2001225  62.3414209  32.4120603
  27.7635174  62.3591299  32.8892682  48.1818140  84.3279260  23.0079679
  48.8196550  84.2086007  22.3043019  48.0638983  85.2760104  23.0667631
  44.9907846  84.2806688  22.9441204  44.6526358  84.1647753  22.0561739
  45.8597614  83.8797853  22.9242210  40.8494662  86.1342165  18.9338095
  40.2859527  86.0432102  18.1654383  40.7347057  85.3142069  19.4140587
  45.4727629  85.4341540  28.9027409  45.4616270  85.0394338  28.0307913
  45.6348269  84.7007613  29.4961181  38.3959094  87.6293356  21.7722315
  39.1880386  87.2884181  21.3568615  38.6355744  87.7388331  22.6924469
  46.4294221  89.8013132  14.2452560  45.7782200  90.3867213  13.8586573
  47.2238583  90.3319327  14.3047597  40.3549848  86.8902269  14.6439694
  41.1280724  86.3431257  14.5052570  40.7075247  87.7546519  14.8554155
  42.1934890  88.2178652  27.8506593  41.9024756  89.1224283  27.7353260
  42.8291875  88.2595179  28.5650663  43.1191097  85.5955500  24.4407953
  43.7154669  85.3711523  23.7264916  43.1766069  84.8540246  25.0433401
  42.6916126  83.0494936  12.2758144  42.9441646  82.5276457  11.5141607
  41.7540685  82.8861081  12.3784828  47.7359408  82.0530714  20.0832887
  48.5222498  81.6350137  19.7323304  47.9998113  82.9576806  20.2514536
  47.9069486  87.4903564  14.7821544  47.2715319  87.5638191  15.4942449
  47.5766892  88.0797163  14.1040623  53.1367836  81.9905947  20.9865866
  53.8693008  81.4205164  21.2203695  52.3807191  81.6027548  21.4272371
  42.4112414  84.9523042  14.4782519  42.2948672  84.2767945  15.1463603
  42.5214674  84.4655415  13.6614672  44.7543955  84.4133189  18.1829208
  44.3902163  83.8863810  18.8942130  45.6111071  84.0231658  18.0095694
  50.6593256  75.7027521  25.4460474  50.3276581  76.5722932  25.2221689
  50.0638869  75.3863805  26.1254505  44.3949442  79.4423088  13.1790557
  44.5623845  80.3103325  13.5461028  44.2046611  79.6050370  12.2551846
  47.1524775  87.9040067  24.8456387  46.8525499  88.8065106  24.7372194
  46.8075835  87.6372250  25.6977540  40.6037257  84.3553864  20.8793091
  39.6787753  84.2230078  21.0870783  40.8521670  85.1348083  21.3763034
  50.5521919  80.4222607  22.5253824  49.6438797  80.3538016  22.2312585
  50.5009515  80.8994552  23.3535650  44.3738663  81.8980746  14.1637223
  44.2538288  82.3437797  15.0022704  43.6791252  82.2466064  13.6050762
  37.9646068  83.9987138  21.7136880  38.0938449  84.2521617  22.6276292
  37.2843519  84.5914846  21.3941536  42.1345555  94.6684388  17.8127355
  42.0569585  95.6192213  17.8915835  41.5307199  94.3230260  18.4702281
  44.6262785  81.8412253  30.4688722  43.8496119  82.4006173  30.4591586
  45.2653348  82.3269036  30.9903592  52.4183566  78.6239046  24.3031698
  51.7757946  78.9171579  23.6571493  51.9138494  78.5091966  25.1084895
  50.0723729  82.3702219  14.9917558  50.9841585  82.6029606  14.8165255
  49.5633376  82.9539263  14.4292636  42.8809157  84.6497706  30.0306689
  43.6223842  85.1882750  29.7541512  42.1746143  85.2763995  30.1878240
  48.3564497  86.7926847  28.6278850  48.7647853  86.3509257  27.8833482
  47.6341758  86.2179474  28.8813043  44.7095567  81.7299454  26.0012407
  45.5556762  82.1538867  26.1447056  44.6494205  81.0733078  26.6950970
  48.6793312  87.3528037  22.3831139  48.0502174  87.5173752  21.6807207
  48.2918974  87.7669647  23.1542103  52.5582544  88.2882475  19.7375503
  51.8733582  88.6681377  19.1872536  52.6426393  88.8977802  20.4707450
  47.8595012  79.3903822  27.6593581  47.6155944  80.1445883  27.1227856
  48.1354943  79.7689170  28.4940828  49.8133475  85.9342434  26.3370846
  50.0250370  86.5774194  25.6605227  49.7663223  85.1004751  25.8692776
  47.4159704  78.5460255  23.2407418  46.5544183  78.8441509  23.5324156
  47.4422139  78.7630654  22.3088451  44.2321274  87.0902446  19.6481224
  44.6959619  87.3690149  18.8585847  43.9678072  86.1885890  19.4654315
  41.1245355  86.6373927  22.5860987  41.6946712  87.0661195  21.9478472
  41.7153466  86.3556512  23.2845173  43.1690160  83.2125598  16.4570789
  43.8714203  83.6646642  16.9244716  42.8370788  82.5709417  17.0850682
  41.6170521  81.8037355  30.8321999  40.9869182  82.4853635  31.0657395
  41.5106609  81.6920436  29.8875137  36.9115494  81.4709151  21.7587923
  36.1214548  81.7266679  21.2828033  37.4026741  82.2857488  21.8639963
  50.9279303  88.8114390  24.5093204  51.7496747  88.4094577  24.2275885
  50.9241706  88.7082624  25.4609319  38.8630239  81.8353730  18.7171399
  38.0661402  81.9472424  19.2354895  38.6355831  82.1740382  17.8512290
  44.6935907  88.3598433  26.6653914  44.7580339  88.8218840  27.5012086
  43.9846830  87.7295798  26.7936224  35.1953197  81.7239641  24.1902914
  35.4461235  82.6086651  24.4560490  35.7312745  81.5444243  23.4178005
  59.0185296  85.1553138  20.8578175  58.2649005  84.5860536  20.7022179
  59.1532837  85.1215803  21.8048810  44.4083924  90.0266541  16.5332894
  44.2729599  90.8718076  16.9617742  44.9493737  90.2285818  15.7698828
  40.8951264  76.1058120  33.1947250  40.5018209  75.5524319  33.8694894
  41.7117404  76.4168699  33.5853767  37.8613322  87.5441979  17.1060820
  38.3737842  88.3385229  17.2566384  38.5136034  86.8468269  17.0394421
  39.6708206  90.6607735  19.1883573  39.8474835  91.5825700  19.0004557
  40.4665040  90.3466154  19.6177952  43.8119225  77.5215999  30.7867506
  44.5528938  78.1223153  30.7071969  44.0437148  76.7793637  30.2285549
  38.9560563  82.7072367  29.0645736  38.8414078  81.8057624  29.3652835
  38.1005081  82.9536064  28.7130552  46.0352401  90.6490107  30.6633237
  45.5916255  89.8626486  30.3454141  46.6969614  90.8369258  29.9977127
  40.7939522  92.1785909  25.1893915  41.3446947  92.0502972  24.4170909
  39.9550998  92.4780798  24.8388808  48.1333639  90.9292907  28.6914638
  48.1152114  91.7501788  28.1994907  49.0553559  90.8046982  28.9164779
  44.5906693  88.4437036  29.5338146  45.1235030  87.6825325  29.3037454
  44.0620774  88.1510688  30.2762301  47.7576388  73.5497102  25.0631788
  47.4140657  74.4398744  24.9870898  48.1255350  73.3598760  24.2001373
  35.8262238  85.8730633  17.8820390  36.6637460  86.2827641  17.6654098
  36.0040506  84.9330075  17.8520584  47.7226670  83.5405714  13.5704223
  47.2073294  84.3110318  13.8092610  47.4503979  82.8670850  14.1937284
  45.3073782  78.3855414  18.6289461  44.4515378  77.9962265  18.4495100
  45.7200733  78.4647375  17.7689247  46.8372928  75.9201758  23.0281021
  46.3337724  75.8831893  22.2148826  47.1303535  76.8294500  23.0877678
  43.0815814  76.0040487  22.0347203  43.9468811  75.8083296  21.6753092
  43.1493323  75.7750839  22.9616560  52.6960945  86.2938068  15.5057396
  51.9190387  85.9549228  15.0612559  53.3752426  86.2990691  14.8312362
  47.5112974  81.4132806  15.3964004  47.2063109  81.7278955  16.2474147
  48.4643416  81.4914226  15.4391337  45.9559406  87.5723029  17.0456958
  45.4280767  86.8375789  16.7330196  45.4546908  88.3497705  16.7996926
  50.9352252  85.7672049  22.1624004  50.2775926  86.4571311  22.2504133
  51.7392651  86.1568481  22.5057991  40.6878133  78.2342695  19.4063570
  41.2621885  78.0117877  18.6736763  41.2749116  78.3031390  20.1592171
  49.7457710  84.1216422  20.2127946  50.2589592  84.7546414  20.7149656
  50.3958934  83.5217618  19.8471306  41.0147720  80.2647156  13.4259455
  40.1785032  80.6021843  13.7468730  40.8752490  80.1296136  12.4886592
  42.9900801  75.1083944  18.1338639  42.3365213  74.7932961  17.5095254
  42.9481275  74.4859685  18.8598462  44.1012006  85.3903239  10.0491931
  43.1939067  85.1592493  10.2483080  44.5983038  84.5940858  10.2365913
  47.0080085  94.1000746  12.9688617  46.3341783  94.4032443  13.5773575
  47.3945907  94.9029827  12.6194074  46.2238541  81.5965878  22.4586287
  45.3061103  81.8180825  22.3007975  46.6398685  81.6712188  21.5997994
  47.0073589  82.9957293  17.5888967  47.7545408  83.5078691  17.2796089
  47.2765178  82.6741346  18.4493361  45.2800239  85.4915834  14.5715921
  44.3711458  85.2074867  14.6688391  45.3095323  85.9114913  13.7119228
  50.5119507  89.1022424  18.3407089  50.0581834  88.2613333  18.3972279
  49.8813473  89.7383822  18.6781869  49.4552426  80.0314410  19.5707756
  48.7175183  79.5191796  19.9017999  49.7079200  79.5914791  18.7591033
  48.9552446  90.9398920  19.2756907  49.2475420  91.5003977  18.5569273
  49.4651066  91.2327481  20.0310066  49.5564053  72.8090662  20.1649526
  49.8622930  71.9488025  19.8775441  50.2816658  73.4008282  19.9648519
  35.8488409  83.2121348  18.5531123  35.6512809  82.6190709  17.8282190
  35.2935073  82.9073558  19.2707062  43.8285133  83.1044455  20.6725717
  43.8833743  82.1518291  20.5968193  43.0176335  83.2603894  21.1567015
  44.9776327  87.0324578  11.9104000  44.5395757  86.3160437  11.4509637
  45.7186768  87.2600693  11.3489091  41.7677493  81.7221514  18.4316095
  40.9545359  82.0215685  18.8381288  42.2636487  81.3277203  19.1490578
  43.9186071  91.7179271  20.3650360  43.8762250  91.9440118  19.4358892
  44.8348770  91.4842646  20.5136161  47.3651705  82.1863339  27.2630989
  47.7201092  82.4134812  28.1225455  48.0123836  82.5181716  26.6408245
  53.0949442  85.3081775  17.9680318  52.9567340  85.4983371  17.0401508
  52.7385661  86.0701158  18.4248370  41.2591568  79.2939870  24.0477330
  41.8990947  79.1528629  23.3500294  40.4269098  79.0074383  23.6715932
  53.1218821  87.3758302  22.9791590  53.5555328  87.2833591  23.8274644
  53.8350402  87.3515802  22.3411606  42.0351872  88.5942300  20.1612323
  42.8292470  88.0992621  19.9594898  41.3243564  88.0660164  19.7980028
  46.8546716  90.9760396  24.5124691  46.9083738  91.5451332  25.2802406
  45.9861498  91.1462281  24.1478728  38.3434635  82.7385382  16.2372076
  37.4132223  82.6769838  16.4542038  38.4392107  82.2161335  15.4408717
  38.2620184  79.2640195  18.8250317  38.5227002  80.1785528  18.7159478
  39.0837357  78.7964638  18.9746930  39.7345110  80.6777952  25.9949142
  40.4068163  80.4695314  25.3461791  38.9074896  80.4800038  25.5554374
  53.9834371  87.4182002  25.5124475  54.1770261  88.3227813  25.7583750
  53.8834989  86.9589422  26.3463060  45.6370682  77.3039893  28.0114803
  44.9898597  78.0029843  27.9179279  46.4071697  77.7376037  28.3791051
  49.0449480  87.5688745  31.0865356  48.8934986  87.3399297  30.1695440
  49.0354159  88.5259347  31.0996701  45.8134816  85.1420658  26.0711622
  46.7426876  85.2931818  25.8980590  45.3925846  85.2304679  25.2160269
  44.6123148  89.1671322  23.8410160  44.4734233  88.7990107  24.7136098
  43.8237744  89.6818962  23.6694118  45.2071300  94.2680419  15.1835697
  45.3823055  93.7968462  15.9981319  44.5204088  94.8946185  15.4116957
  46.1628363  88.5452925  21.2298998  45.8278195  88.5053695  22.1256648
  45.6632309  87.8797641  20.7569408  40.1372607  83.9520555  26.7551579
  39.9992405  83.2200794  27.3563118  41.0477530  83.8629455  26.4735767
  49.0987555  85.8908959  11.5036057  48.4816725  85.1655788  11.4069110
  48.6304043  86.6518320  11.1603132  42.7654908  83.6640514  26.2435259
  43.4754526  83.0233707  26.2021877  42.7224216  83.9153409  27.1661439
  50.7541686  90.6007868  29.1641838  50.6954232  89.9167088  28.4972421
  51.1561205  91.3426858  28.7122464  41.4783841  80.6505732  28.0630898
  40.9421199  80.1996471  28.7152494  40.8900550  80.7851641  27.3201362
  39.7732385  97.4169782  21.9575557  40.0128983  98.0488306  22.6354575
  38.9301581  97.0657822  22.2440916  40.8886100  80.1094384  10.6257362
  40.0115567  79.9883184  10.2619608  41.3643854  79.3180462  10.3736250
  50.7559093  88.5647452  27.3955817  49.8685872  88.2273373  27.5182216
  51.3257645  87.8330483  27.6324583  32.4088241  84.8971543  20.7198869
  33.0959280  84.5833273  20.1319884  32.2536369  85.8012908  20.4466120
  37.2122963  79.7861740  25.1483893  37.1281151  79.1787410  24.4134302
  36.3905669  80.2770758  25.1493389  44.2860247  93.2248904  24.3617061
  44.2130418  94.0303876  24.8736365  43.8437640  93.4240870  23.5365082
  44.0750026  92.4620674  17.8719882  43.2917548  93.0042354  17.9658107
  44.7742772  92.9794654  18.2714123  47.3846677  78.2715304  20.5154088
  47.8815376  77.5185266  20.1955158  46.6133658  78.3079620  19.9497297
  55.2376434  83.9755669  22.1572379  55.2266310  84.8580384  21.7866312
  54.3693813  83.6227220  21.9626916  46.7458930  93.1235738  26.5175219
  47.4586903  93.7583203  26.4451121  46.2548959  93.2199604  25.7015221
  48.4676457  87.0286991  18.0892511  47.5332736  87.1488453  17.9197215
  48.6453126  86.1259458  17.8252521  43.9681645  80.4132687  20.2425772
  43.5979433  79.8603727  20.9306678  44.4640738  79.8090820  19.6900772
  51.8549009  82.8704310  18.6242545  52.3209461  83.7032302  18.5502848
  52.3056509  82.4049292  19.3287804  41.7970844  90.8730182  27.3380790
  42.4980303  91.5066664  27.4910184  41.3265959  91.2144913  26.5776429
  49.9225240  89.2148131  15.6228697  50.1985084  89.1004726  16.5322571
  49.0529738  88.8165616  15.5840870  49.8265671  75.2384897  22.6633446
  48.9128751  75.4689124  22.8315653  50.2558773  75.3223341  23.5147479
  49.5972130  83.4274789  25.1633341  48.9443580  83.6750696  24.5085793
  49.9752510  82.6138927  24.8295818  46.5579304  93.4634482  19.2661511
  46.7401698  92.6456138  19.7289263  47.3812290  93.6802174  18.8286401
  46.8921469  92.3902667  16.5276559  47.4209236  91.8795122  15.9146721
  47.1549689  92.0745197  17.3922092  45.6459703  84.1694600  31.6499378
  44.9700340  84.0688729  32.3201753  46.4687337  84.0133814  32.1135375
  37.3938562  90.4066537  24.2711893  37.9791999  89.6610224  24.4039797
  37.1963400  90.7170493  25.1548557  40.2477217  93.4417784  19.2874335
  39.5787592  93.9263912  18.8038375  40.1090087  93.6887004  20.2017714
  31.9856217  82.9772137  22.9916336  32.0240316  82.4435727  23.7853454
  31.4796510  82.4507342  22.3727313  44.3882486  95.4761527  25.8856994
  44.9400794  95.6393149  26.6506079  44.7288679  96.0665965  25.2137018
  39.3646979  77.8236677  26.4878878  39.4288305  78.6851508  26.0756276
  39.3014099  77.2110679  25.7551237  38.8399252  79.8959810  30.1351913
  39.4671290  79.5136887  30.7489437  37.9827170  79.6774012  30.5007605
  49.2393360  90.3022785  31.7405648  49.7833264  90.9152743  31.2460603
  48.6580205  90.8602363  32.2572661  35.6164794  81.7036239  16.0670267
  35.9118235  80.7946917  16.0137321  34.7152830  81.6823978  15.7451270
  47.5250873  93.4243503  22.8720676  47.4002013  92.6233243  22.3631621
  48.1829964  93.9189696  22.3834646  39.1459041  79.7792236  22.0497816
  38.4245627  80.3928203  21.9105289  39.9352297  80.3150000  21.9714462
  49.5885781  91.2252523  24.5000226  48.6416117  91.1057874  24.4278553
  49.9368555  90.3375021  24.5826487  41.9485355  77.1146662  28.3238468
  42.4719757  77.3608959  29.0864777  41.7297688  77.9466697  27.9041605
  37.3452636  79.3850337  16.1909593  37.0165342  78.5047716  16.0084698
  37.6992007  79.3298005  17.0785982  46.5932215  91.0205239  20.7004578
  46.4457177  90.0921947  20.8812148  47.4185708  91.0425330  20.2161653
  40.4594459  79.6723306  16.5585070  40.7990532  80.2009228  15.8363679
  40.9066580  80.0103713  17.3343637  50.1966337  91.8433798  21.7869451
  51.1212884  91.6376659  21.6493902  50.0281640  91.5950199  22.6958792
  43.1537900  78.0560357  26.0088138  42.8134720  77.2568170  26.4108818
  42.4476906  78.3562068  25.4364971  43.8054372  75.1409670  24.4615461
  44.6280441  74.6670148  24.3394352  44.0492435  75.9200153  24.9614148
  42.4462606  78.1697928  14.7578363  43.1670969  78.5479181  14.2542080
  41.8227910  78.8886805  14.8613341  46.5893729  78.8743077  15.6936695
  46.8057343  79.7567715  15.3925523  46.1087796  78.4829290  14.9642337
  41.3292950  81.8328790  22.2707440  41.1837531  82.1469093  23.1631721
  40.8518154  82.4513691  21.7178339  43.1889333  78.8231338  22.3188329
  43.1750902  77.9272431  21.9820627  43.9061761  78.8302002  22.9526616
  45.0415464  79.2568678  24.3641457  44.7833242  80.1785749  24.3625787
  44.5100504  78.8599113  25.0541921  49.9861653  92.3619465  17.1431542
  50.1598530  91.7965888  16.3905395  50.4790544  93.1620360  16.9611032
  35.8038613  84.3734135  25.2095101  35.2592081  85.1493943  25.3415375
  36.6817962  84.7204939  25.0514223  42.5926229  77.7045718  17.5875900
  42.7142140  76.7762365  17.7866787  42.3028272  77.7184404  16.6754215
  45.4617420  75.3900629  20.7242619  45.4839116  75.4539962  19.7694599
  45.8785479  74.5505138  20.9183126  55.8401044  85.1255888  18.7621842
  56.2832190  84.3763214  18.3640965  54.9627554  85.1166025  18.3795574
  50.9736825  91.6786230  14.2428441  51.6687730  92.2992923  14.4615755
  51.3159975  90.8281581  14.5180818  36.5904634  83.5004031  28.1025258
  35.8486370  83.6486666  28.6889888  36.2697379  83.7612296  27.2392007
  52.8728248  89.1285935  15.7715771  53.3979572  89.4673208  15.0465091
  52.7850601  88.1932951  15.5878906  44.5348297  93.0420009  27.9005648
  44.8435424  92.7969156  28.7728348  45.3323779  93.2466648  27.4124518
  44.5568909  95.1957919  20.1311025  44.1173899  94.7034297  20.8243881
  45.3077026  94.6530886  19.8903100  37.0361248  91.3869460  20.1335653
  37.8619268  91.0873231  19.7534296  36.6855300  90.6177082  20.5825441
  42.0042781  90.7395928  22.2033326  41.3822791  90.0766633  21.9035554
  42.6747648  90.7657060  21.5206974  35.2369853  89.3055786  21.0924586
  34.4001761  88.8777960  20.9108587  35.2093499  89.4988229  22.0295377
  42.0767309  79.2177716  31.7965832  42.1255464  80.0939839  31.4143602
  42.6189823  78.6755109  31.2237475  52.5622154  89.7618839  31.0766969
  51.7717698  89.7442978  30.5371469  52.3255509  90.3007133  31.8316006
  52.6820030  86.6111305  28.3899698  52.7318034  86.4461313  29.3315221
  52.5733953  85.7438564  27.9997579  41.5656288  89.2899851  15.6791787
  41.7144409  89.9735316  15.0258459  42.3722732  89.2704941  16.1941242
  49.9723792  82.5942233  29.7059005  50.8733655  82.4548698  29.4143002
  50.0471766  82.7596688  30.6457182  44.3066597  79.9709088  28.5512191
  43.4369907  80.2642654  28.2794779  44.5426078  80.5549533  29.2719454
  54.1838226  89.0308247  28.6341719  53.8923035  89.3938228  29.4705180
  53.5710358  88.3175255  28.4555051  55.3833909  86.5961127  21.1544290
  56.2180800  87.0350931  21.3181850  55.5193037  86.1199780  20.3352535
  52.4325415  84.1540862  27.1021777  52.9079536  84.3468508  26.2940629
  51.5090980  84.2100047  26.8565161  39.3208921  85.3165029  16.6852856
  39.0754963  84.4127359  16.8833066  39.4904836  85.3182179  15.7432334
  47.0105631  76.1888705  26.0677611  47.5287575  76.9249732  25.7424100
  46.6560764  76.4952698  26.9024370  38.5904569  81.0493386  14.1839017
  37.8973814  81.1237741  13.5279053  38.3456321  80.2853730  14.7060534
  47.2618225  72.6088988  21.5878508  47.5419979  71.9412177  22.2138934
  48.0468832  72.8018083  21.0753172  45.0651694  91.7847982  13.1503534
  44.4925661  92.4038169  12.6974006  45.6384487  92.3347343  13.6843456
  51.1327084  81.0306622  25.3350083  52.0844506  81.1304719  25.3562307
  50.9630534  80.2384890  25.8448167  49.1541463  78.1162205  25.5209484
  48.5591395  78.3967218  24.8255972  48.8691160  78.6056106  26.2926225
  48.2848954  92.0685132  14.2812116  49.2179627  92.0030693  14.4844992
  48.1972166  92.9041399  13.8226649  50.9136970  91.3851002  11.2416064
  50.8350602  91.0510866  12.1351822  51.7346637  91.8772770  11.2407536
  53.6115161  84.2512741  24.4492383  53.5791481  83.3128742  24.6352066
  54.2215785  84.3296778  23.7158207  45.4498492  83.1208794  10.4919587
  46.3957597  82.9915002  10.5608005  45.0712737  82.3823456  10.9689015
  53.7609650  81.0423785  24.4950666  53.2448699  80.2582241  24.3080595
  54.6449598  80.7142501  24.6597185  51.4220377  74.7864800  20.4546478
  51.2245198  74.4779889  21.3389810  52.0320082  75.5126439  20.5844408
  59.4291711  85.3128748  23.5898419  60.1595100  85.0514036  24.1506123
  58.8198657  84.5757470  23.6300487  57.5107008  83.4536611  24.1872871
  56.7840172  83.3192576  23.5789362  57.0954295  83.7613439  24.9929589
  45.3337185  87.1726540  31.9520244  46.2540194  87.3505139  32.1460290
  45.2986768  86.2282586  31.7999943  43.6341409  81.0458771  10.4274472
  42.7272865  80.7491883  10.5037185  43.9117390  80.7488589   9.5608758
  34.5519350  82.3665134  20.8773518  34.2322134  81.5130442  20.5847892
  34.0052778  82.5813712  21.6331486  38.3299257  85.0827575  24.5943025
  38.5485267  86.0144683  24.6131059  38.7425031  84.7235550  25.3797829
  45.2503475  75.5895660  16.5818713  44.4404203  75.2442745  16.9573959
  45.9387892  75.2803204  17.1706325  47.1794023  74.6673707  18.2043010
  47.7325062  75.0869161  18.8633033  47.4164110  73.7409455  18.2465966
  43.2027123  80.6560781  33.9845774  43.1023850  81.6055138  33.9157865
  42.9848665  80.3279020  33.1121844  42.4040194  77.9045706  10.5686451
  43.2659358  78.2300604  10.8282268  42.5890538  77.1177202  10.0559517
  34.4207610  85.9868046  22.8466640  33.7271081  85.5721998  22.3336594
  35.1680601  86.0288582  22.2500059  50.5572830  76.7774232  17.7121674
  49.9771500  77.4359036  17.3299726  50.2908763  75.9551577  17.3009092
  49.0076397  76.1779290  19.9142994  49.5076175  76.2895825  19.1057313
  49.6512005  75.8740343  20.5543803  43.0658393  84.0857920  32.8010835
  42.5825474  84.8858280  33.0074724  43.1519332  84.0965865  31.8478279
  36.3344352  85.9186299  20.7232655  36.3115040  86.0173987  19.7714538
  36.6444989  86.7651450  21.0449821  38.9931730  87.9762454  24.8379269
  39.9474984  87.9446397  24.7709201  38.7944254  87.5153078  25.6529495
  39.5831112  86.5463570  27.4050067  40.4024001  87.0407649  27.4284904
  39.8567920  85.6295539  27.3767634  49.3397709  78.9374323  16.7678022
  48.4523564  79.2223973  16.5498217  49.7551698  78.7768086  15.9205299
  52.6912245  78.9620844  20.4832362  53.4672635  79.4517296  20.7556978
  51.9660379  79.3878898  20.9404231  55.1284803  79.6748463  21.5406302
  55.7229294  79.4344199  20.8299610  55.2011387  78.9555594  22.1679838
  37.3481959  93.5182074  21.8549467  37.2136427  92.7582475  21.2887465
  36.9314021  94.2422974  21.3878256  48.4840922  88.7018997  10.8626042
  49.1876772  88.9069000  11.4783698  47.7603571  89.2695759  11.1275126
  49.3138732  84.4528859  16.9828312  49.2573934  84.9097410  16.1435945
  49.8667075  83.6919543  16.8051155  53.1243538  80.2418591  17.8078432
  52.8680472  79.8415226  18.6386640  52.4996406  80.9562385  17.6828571
  57.4355876  82.9814664  20.3149723  56.8755434  83.0507853  21.0881285
  56.8299379  82.8055648  19.5949220  40.5051085  94.4151391  22.0667910
  40.3883469  95.3596823  21.9646600  39.6843531  94.1124952  22.4553709
  50.3927619  89.1401527  12.9124502  51.2273223  88.7082725  12.7301977
  50.2311962  88.9683540  13.8401397  50.0473512  85.6433640  14.2780842
  49.9922315  85.4777911  13.3369286  49.4219567  86.3509673  14.4343031
  34.8366027  80.8801704  28.1042264  35.4824890  80.3700658  28.5929489
  34.6283178  81.6170386  28.6785689  47.3619419  87.9482552  33.6034404
  48.2310578  88.1223204  33.2421039  46.8826170  88.7676969  33.4810134
  43.3569637  75.1441749  13.8566160  43.3448307  76.0883589  14.0134431
  44.2493059  74.9611894  13.5625621  41.5305599  95.0679653  25.2823838
  42.4332846  95.1003263  25.5990333  41.3042969  94.1380104  25.2970174
  43.2859201  93.8210639  21.9433917  42.3354832  93.8212501  21.8298289
  43.5891687  93.0743374  21.4269951  47.1721756  71.7384526  18.1112097
  46.4054152  71.1843012  18.2568779  47.5832461  71.8106394  18.9726248
  39.1763518  78.0269321  32.2017278  40.0394979  77.6706126  32.4120603
  38.6028928  77.6883216  32.8892682  59.0211894  99.6571178  23.0079679
  59.6590304  99.5377925  22.3043019  58.9032737 100.6052022  23.0667631
  55.8301601  99.6098606  22.9441204  55.4920112  99.4939671  22.0561739
  56.6991369  99.2089771  22.9242210  51.6888416 101.4634082  18.9338095
  51.1253282 101.3724019  18.1654383  51.5740811 100.6433987  19.4140587
  56.3121384 100.7633458  28.9027409  56.3010025 100.3686256  28.0307913
  56.4742023 100.0299530  29.4961181  49.2352848 102.9585274  21.7722315
  50.0274140 102.6176099  21.3568615  49.4749499 103.0680249  22.6924469
  57.2687975 105.1305050  14.2452560  56.6175955 105.7159130  13.8586573
  58.0632338 105.6611245  14.3047597  51.1943602 102.2194187  14.6439694
  51.9674478 101.6723174  14.5052570  51.5469001 103.0838436  14.8554155
  53.0328645 103.5470569  27.8506593  52.7418511 104.4516200  27.7353260
  53.6685629 103.5887097  28.5650663  53.9584852 100.9247418  24.4407953
  54.5548424 100.7003440  23.7264916  54.0159823 100.1832163  25.0433401
  53.5309880  98.3786853  12.2758144  53.7835401  97.8568375  11.5141607
  52.5934439  98.2152999  12.3784828  58.5753163  97.3822632  20.0832887
  59.3616252  96.9642055  19.7323304  58.8391867  98.2868724  20.2514536
  58.7463240 102.8195482  14.7821544  58.1109073 102.8930108  15.4942449
  58.4160647 103.4089081  14.1040623  63.9761590  97.3197865  20.9865866
  64.7086762  96.7497082  21.2203695  63.2200946  96.9319465  21.4272371
  53.2506169 100.2814959  14.4782519  53.1342427  99.6059863  15.1463603
  53.3608429  99.7947333  13.6614672  55.5937710  99.7425106  18.1829208
  55.2295917  99.2155727  18.8942130  56.4504826  99.3523575  18.0095694
  61.4987010  91.0319439  25.4460474  61.1670335  91.9014850  25.2221689
  60.9032624  90.7155723  26.1254505  55.2343197  94.7715006  13.1790557
  55.4017599  95.6395242  13.5461028  55.0440366  94.9342288  12.2551846
  57.9918530 103.2331985  24.8456387  57.6919253 104.1357024  24.7372194
  57.6469589 102.9664168  25.6977540  51.4431011  99.6845782  20.8793091
  50.5181508  99.5521996  21.0870783  51.6915425 100.4640001  21.3763034
  61.3915674  95.7514525  22.5253824  60.4832551  95.6829934  22.2312585
  61.3403270  96.2286470  23.3535650  55.2132418  97.2272664  14.1637223
  55.0932043  97.6729714  15.0022704  54.5185006  97.5757981  13.6050762
  48.8039822  99.3279055  21.7136880  48.9332204  99.5813534  22.6276292
  48.1237274  99.9206763  21.3941536  52.9739310 109.9976305  17.8127355
  52.8963339 110.9484130  17.8915835  52.3700953 109.6522178  18.4702281
  55.4656540  97.1704171  30.4688722  54.6889874  97.7298091  30.4591586
  56.1047103  97.6560954  30.9903592  63.2577320  93.9530963  24.3031698
  62.6151700  94.2463497  23.6571493  62.7532249  93.8383884  25.1084895
  60.9117484  97.6994137  14.9917558  61.8235340  97.9321523  14.8165255
  60.4027131  98.2831181  14.4292636  53.7202912  99.9789624  30.0306689
  54.4617596 100.5174668  29.7541512  53.0139897 100.6055913  30.1878240
  59.1958251 102.1218765  28.6278850  59.6041608 101.6801175  27.8833482
  58.4735513 101.5471392  28.8813043  55.5489322  97.0591371  26.0012407
  56.3950517  97.4830785  26.1447056  55.4887959  96.4024996  26.6950970
  59.5187066 102.6819955  22.3831139  58.8895929 102.8465669  21.6807207
  59.1312728 103.0961565  23.1542103  63.3976298 103.6174393  19.7375503
  62.7127336 103.9973294  19.1872536  63.4820147 104.2269720  20.4707450
  58.6988767  94.7195740  27.6593581  58.4549699  95.4737800  27.1227856
  58.9748697  95.0981087  28.4940828  60.6527230 101.2634352  26.3370846
  60.8644125 101.9066112  25.6605227  60.6056978 100.4296669  25.8692776
  58.2553459  93.8752173  23.2407418  57.3937938  94.1733426  23.5324156
  58.2815893  94.0922572  22.3088451  55.0715028 102.4194363  19.6481224
  55.5353374 102.6982066  18.8585847  54.8071826 101.5177808  19.4654315
  51.9639109 101.9665845  22.5860987  52.5340466 102.3953113  21.9478472
  52.5547221 101.6848429  23.2845173  54.0083914  98.5417516  16.4570789
  54.7107957  98.9938559  16.9244716  53.6764543  97.9001334  17.0850682
  52.4564276  97.1329272  30.8321999  51.8262936  97.8145553  31.0657395
  52.3500363  97.0212354  29.8875137  47.7509248  96.8001068  21.7587923
  46.9608302  97.0558597  21.2828033  48.2420495  97.6149406  21.8639963
  61.7673058 104.1406307  24.5093204  62.5890501 103.7386495  24.2275885
  61.7635460 104.0374542  25.4609319  49.7023993  97.1645648  18.7171399
  48.9055157  97.2764342  19.2354895  49.4749586  97.5032300  17.8512290
  55.5329661 103.6890351  26.6653914  55.5974094 104.1510758  27.5012086
  54.8240585 103.0587716  26.7936224  46.0346951  97.0531559  24.1902914
  46.2854989  97.9378569  24.4560490  46.5706499  96.8736160  23.4178005
  69.8579051 100.4845056  20.8578175  69.1042759  99.9152454  20.7022179
  69.9926592 100.4507720  21.8048810  55.2477679 105.3558458  16.5332894
  55.1123353 106.2009994  16.9617742  55.7887491 105.5577736  15.7698828
  51.7345018  91.4350038  33.1947250  51.3411964  90.8816237  33.8694894
  52.5511159  91.7460617  33.5853767  48.7007076 102.8733896  17.1060820
  49.2131597 103.6677147  17.2566384  49.3529789 102.1760187  17.0394421
  50.5101961 105.9899653  19.1883573  50.6868589 106.9117617  19.0004557
  51.3058794 105.6758072  19.6177952  54.6512979  92.8507917  30.7867506
  55.3922693  93.4515070  30.7071969  54.8830902  92.1085555  30.2285549
  49.7954317  98.0364284  29.0645736  49.6807832  97.1349542  29.3652835
  48.9398835  98.2827981  28.7130552  56.8746155 105.9782025  30.6633237
  56.4310009 105.1918403  30.3454141  57.5363369 106.1661175  29.9977127
  51.6333276 107.5077826  25.1893915  52.1840701 107.3794890  24.4170909
  50.7944752 107.8072715  24.8388808  58.9727393 106.2584825  28.6914638
  58.9545868 107.0793706  28.1994907  59.8947313 106.1338900  28.9164779
  55.4300447 103.7728954  29.5338146  55.9628784 103.0117242  29.3037454
  54.9014528 103.4802606  30.2762301  58.5970142  88.8789020  25.0631788
  58.2534412  89.7690662  24.9870898  58.9649105  88.6890678  24.2001373
  46.6655993 101.2022551  17.8820390  47.5031215 101.6119559  17.6654098
  46.8434261 100.2621993  17.8520584  58.5620425  98.8697631  13.5704223
  58.0467048  99.6402236  13.8092610  58.2897733  98.1962767  14.1937284
  56.1467536  93.7147332  18.6289461  55.2909132  93.3254182  18.4495100
  56.5594488  93.7939293  17.7689247  57.6766683  91.2493675  23.0281021
  57.1731478  91.2123810  22.2148826  57.9697290  92.1586418  23.0877678
  53.9209569  91.3332405  22.0347203  54.7862565  91.1375214  21.6753092
  53.9887077  91.1042757  22.9616560  63.5354699 101.6229986  15.5057396
  62.7584142 101.2841145  15.0612559  64.2146180 101.6282609  14.8312362
  58.3506728  96.7424723  15.3964004  58.0456864  97.0570872  16.2474147
  59.3037170  96.8206143  15.4391337  56.7953160 102.9014947  17.0456958
  56.2674522 102.1667706  16.7330196  56.2940663 103.6789623  16.7996926
  61.7746006 101.0963967  22.1624004  61.1169680 101.7863229  22.2504133
  62.5786405 101.4860399  22.5057991  51.5271888  93.5634613  19.4063570
  52.1015640  93.3409794  18.6736763  52.1142870  93.6323307  20.1592171
  60.5851465  99.4508340  20.2127946  61.0983347 100.0838332  20.7149656
  61.2352689  98.8509535  19.8471306  51.8541475  95.5939074  13.4259455
  51.0178787  95.9313760  13.7468730  51.7146244  95.4588054  12.4886592
  53.8294555  90.4375862  18.1338639  53.1758968  90.1224879  17.5095254
  53.7875029  89.8151602  18.8598462  54.9405760 100.7195157  10.0491931
  54.0332822 100.4884410  10.2483080  55.4376792  99.9232776  10.2365913
  57.0632296  96.9257795  22.4586287  56.1454857  97.1472742  22.3007975
  57.4792439  97.0004106  21.5997994  57.8467343  98.3249211  17.5888967
  58.5939162  98.8370608  17.2796089  58.1158933  98.0033264  18.4493361
  56.1193994 100.8207752  14.5715921  55.2105213 100.5366785  14.6688391
  56.1489077 101.2406830  13.7119228  61.3513261 104.4314341  18.3407089
  60.8975588 103.5905251  18.3972279  60.7207228 105.0675740  18.6781869
  60.2946181  95.3606327  19.5707756  59.5568937  94.8483713  19.9017999
  60.5472954  94.9206709  18.7591033  59.7946200 106.2690838  19.2756907
  60.0869175 106.8295895  18.5569273  60.3044821 106.5619399  20.0310066
  60.3957808  88.1382579  20.1649526  60.7016685  87.2779943  19.8775441
  61.1210413  88.7300199  19.9648519  46.6882164  98.5413266  18.5531123
  46.4906564  97.9482627  17.8282190  46.1328828  98.2365476  19.2707062
  54.6678888  98.4336372  20.6725717  54.7227497  97.4810209  20.5968193
  53.8570090  98.5895811  21.1567015  55.8170081 102.3616495  11.9104000
  55.3789511 101.6452354  11.4509637  56.5580522 102.5892610  11.3489091
  52.6071248  97.0513432  18.4316095  51.7939113  97.3507603  18.8381288
  53.1030242  96.6569121  19.1490578  54.7579825 107.0471189  20.3650360
  54.7156004 107.2732035  19.4358892  55.6742524 106.8134564  20.5136161
  58.2045459  97.5155257  27.2630989  58.5594847  97.7426730  28.1225455
  58.8517590  97.8473633  26.6408245  63.9343196 100.6373692  17.9680318
  63.7961095 100.8275288  17.0401508  63.5779415 101.3993075  18.4248370
  52.0985322  94.6231788  24.0477330  52.7384702  94.4820547  23.3500294
  51.2662853  94.3366301  23.6715932  63.9612576 102.7050219  22.9791590
  64.3949082 102.6125509  23.8274644  64.6744156 102.6807720  22.3411606
  52.8745626 103.9234218  20.1612323  53.6686225 103.4284538  19.9594898
  52.1637319 103.3952081  19.7980028  57.6940471 106.3052314  24.5124691
  57.7477493 106.8743250  25.2802406  56.8255252 106.4754199  24.1478728
  49.1828390  98.0677300  16.2372076  48.2525978  98.0061755  16.4542038
  49.2785862  97.5453253  15.4408717  49.1013939  94.5932113  18.8250317
  49.3620756  95.5077446  18.7159478  49.9231111  94.1256555  18.9746930
  50.5738864  96.0069870  25.9949142  51.2461918  95.7987232  25.3461791
  49.7468651  95.8091956  25.5554374  64.8228125 102.7473920  25.5124475
  65.0164015 103.6519731  25.7583750  64.7228744 102.2881339  26.3463060
  56.4764436  92.6331811  28.0114803  55.8292351  93.3321760  27.9179279
  57.2465451  93.0667955  28.3791051  59.8843234 102.8980663  31.0865356
  59.7328740 102.6691215  30.1695440  59.8747914 103.8551264  31.0996701
  56.6528570 100.4712576  26.0711622  57.5820630 100.6223735  25.8980590
  56.2319600 100.5596596  25.2160269  55.4516902 104.4963240  23.8410160
  55.3127988 104.1282024  24.7136098  54.6631498 105.0110879  23.6694118
  56.0465054 109.5972336  15.1835697  56.2216810 109.1260380  15.9981319
  55.3597842 110.2238103  15.4116957  57.0022117 103.8744843  21.2298998
  56.6671950 103.8345613  22.1256648  56.5026063 103.2089559  20.7569408
  50.9766361  99.2812473  26.7551579  50.8386159  98.5492712  27.3563118
  51.8871285  99.1921373  26.4735767  59.9381309 101.2200877  11.5036057
  59.3210480 100.4947705  11.4069110  59.4697797 101.9810237  11.1603132
  53.6048662  98.9932432  26.2435259  54.3148281  98.3525624  26.2021877
  53.5617970  99.2445327  27.1661439  61.5935441 105.9299785  29.1641838
  61.5347987 105.2459006  28.4972421  61.9954959 106.6718775  28.7122464
  52.3177596  95.9797650  28.0630898  51.7814953  95.5288388  28.7152494
  51.7294304  96.1143559  27.3201362  50.6126139 112.7461699  21.9575557
  50.8522738 113.3780223  22.6354575  49.7695336 112.3949739  22.2440916
  51.7279855  95.4386301  10.6257362  50.8509321  95.3175102  10.2619608
  52.2037608  94.6472380  10.3736250  61.5952848 103.8939369  27.3955817
  60.7079627 103.5565291  27.5182216  62.1651399 103.1622401  27.6324583
  43.2481995 100.2263461  20.7198869  43.9353035  99.9125191  20.1319884
  43.0930124 101.1304826  20.4466120  48.0516717  95.1153658  25.1483893
  47.9674906  94.5079327  24.4134302  47.2299424  95.6062676  25.1493389
  55.1254001 108.5540822  24.3617061  55.0524173 109.3595793  24.8736365
  54.6831394 108.7532788  23.5365082  54.9143781 107.7912592  17.8719882
  54.1311303 108.3334272  17.9658107  55.6136526 108.3086571  18.2714123
  58.2240431  93.6007221  20.5154088  58.7209131  92.8477184  20.1955158
  57.4527413  93.6371538  19.9497297  66.0770188  99.3047587  22.1572379
  66.0660065 100.1872302  21.7866312  65.2087568  98.9519138  21.9626916
  57.5852685 108.4527656  26.5175219  58.2980657 109.0875121  26.4451121
  57.0942714 108.5491522  25.7015221  59.3070212 102.3578908  18.0892511
  58.3726491 102.4780371  17.9197215  59.4846880 101.4551375  17.8252521
  54.8075400  95.7424604  20.2425772  54.4373187  95.1895645  20.9306678
  55.3034492  95.1382738  19.6900772  62.6942763  98.1996228  18.6242545
  63.1603215  99.0324219  18.5502848  63.1450264  97.7341209  19.3287804
  52.6364598 106.2022099  27.3380790  53.3374058 106.8358582  27.4910184
  52.1659713 106.5436831  26.5776429  60.7618994 104.5440049  15.6228697
  61.0378838 104.4296644  16.5322571  59.8923493 104.1457534  15.5840870
  60.6659426  90.5676815  22.6633446  59.7522506  90.7981042  22.8315653
  61.0952527  90.6515259  23.5147479  60.4365884  98.7566707  25.1633341
  59.7837335  99.0042614  24.5085793  60.8146264  97.9430845  24.8295818
  57.3973058 108.7926400  19.2661511  57.5795453 107.9748056  19.7289263
  58.2206044 109.0094092  18.8286401  57.7315224 107.7194585  16.5276559
  58.2602990 107.2087040  15.9146721  57.9943443 107.4037115  17.3922092
  56.4853457  99.4986518  31.6499378  55.8094094  99.3980647  32.3201753
  57.3081091  99.3425731  32.1135375  48.2332316 105.7358454  24.2711893
  48.8185753 104.9902142  24.4039797  48.0357155 106.0462411  25.1548557
  51.0870972 108.7709702  19.2874335  50.4181347 109.2555829  18.8038375
  50.9483841 109.0178922  20.2017714  42.8249971  98.3064054  22.9916336
  42.8634071  97.7727645  23.7853454  42.3190264  97.7799260  22.3727313
  55.2276240 110.8053445  25.8856994  55.7794548 110.9685067  26.6506079
  55.5682434 111.3957883  25.2137018  50.2040733  93.1528595  26.4878878
  50.2682060  94.0143426  26.0756276  50.1407854  92.5402597  25.7551237
  49.6793006  95.2251728  30.1351913  50.3065045  94.8428805  30.7489437
  48.8220925  95.0065929  30.5007605  60.0787115 105.6314703  31.7405648
  60.6227019 106.2444661  31.2460603  59.4973959 106.1894281  32.2572661
  46.4558549  97.0328157  16.0670267  46.7511990  96.1238835  16.0137321
  45.5546585  97.0115896  15.7451270  58.3644628 108.7535421  22.8720676
  58.2395767 107.9525161  22.3631621  59.0223719 109.2481614  22.3834646
  49.9852796  95.1084153  22.0497816  49.2639382  95.7220121  21.9105289
  50.7746052  95.6441918  21.9714462  60.4279536 106.5544441  24.5000226
  59.4809871 106.4349792  24.4278553  60.7762309 105.6666939  24.5826487
  52.7879109  92.4438580  28.3238468  53.3113511  92.6900876  29.0864777
  52.5691443  93.2758614  27.9041605  48.1846390  94.7142254  16.1909593
  47.8559097  93.8339633  16.0084698  48.5385761  94.6589923  17.0785982
  57.4325969 106.3497157  20.7004578  57.2850932 105.4213864  20.8812148
  58.2579463 106.3717248  20.2161653  51.2988214  95.0015224  16.5585070
  51.6384286  95.5301145  15.8363679  51.7460334  95.3395630  17.3343637
  61.0360091 107.1725716  21.7869451  61.9606639 106.9668577  21.6493902
  60.8675394 106.9242117  22.6958792  53.9931654  93.3852275  26.0088138
  53.6528475  92.5860088  26.4108818  53.2870661  93.6853986  25.4364971
  54.6448126  90.4701587  24.4615461  55.4674195  89.9962065  24.3394352
  54.8886190  91.2492071  24.9614148  53.2856361  93.4989846  14.7578363
  54.0064723  93.8771098  14.2542080  52.6621665  94.2178722  14.8613341
  57.4287484  94.2034995  15.6936695  57.6451098  95.0859633  15.3925523
  56.9481551  93.8121208  14.9642337  52.1686705  97.1620708  22.2707440
  52.0231286  97.4761011  23.1631721  51.6911909  97.7805608  21.7178339
  54.0283088  94.1523256  22.3188329  54.0144657  93.2564349  21.9820627
  54.7455516  94.1593920  22.9526616  55.8809219  94.5860596  24.3641457
  55.6226996  95.5077667  24.3625787  55.3494259  94.1891031  25.0541921
  60.8255407 107.6911383  17.1431542  60.9992285 107.1257806  16.3905395
  61.3184299 108.4912278  16.9611032  46.6432367  99.7026052  25.2095101
  46.0985835 100.4785860  25.3415375  47.5211717 100.0496857  25.0514223
  53.4319984  93.0337636  17.5875900  53.5535895  92.1054282  17.7866787
  53.1422026  93.0476322  16.6754215  56.3011174  90.7192547  20.7242619
  56.3232871  90.7831880  19.7694599  56.7179233  89.8797055  20.9183126
  66.6794798 100.4547806  18.7621842  67.1225944  99.7055131  18.3640965
  65.8021309 100.4457942  18.3795574  61.8130580 107.0078148  14.2428441
  62.5081484 107.6284840  14.4615755  62.1553730 106.1573499  14.5180818
  47.4298389  98.8295949  28.1025258  46.6880125  98.9778584  28.6889888
  47.1091133  99.0904214  27.2392007  63.7122003 104.4577853  15.7715771
  64.2373327 104.7965126  15.0465091  63.6244355 103.5224868  15.5878906
  55.3742052 108.3711927  27.9005648  55.6829178 108.1261074  28.7728348
  56.1717534 108.5758565  27.4124518  55.3962664 110.5249836  20.1311025
  54.9567654 110.0326215  20.8243881  56.1470781 109.9822804  19.8903100
  47.8755003 106.7161377  20.1335653  48.7013023 106.4165149  19.7534296
  47.5249055 105.9469000  20.5825441  52.8436536 106.0687845  22.2033326
  52.2216545 105.4058550  21.9035554  53.5141403 106.0948977  21.5206974
  46.0763608 104.6347704  21.0924586  45.2395516 104.2069878  20.9108587
  46.0487253 104.8280147  22.0295377  52.9161063  94.5469633  31.7965832
  52.9649219  95.4231756  31.4143602  53.4583577  94.0047027  31.2237475
  63.4015909 105.0910757  31.0766969  62.6111453 105.0734896  30.5371469
  63.1649264 105.6299050  31.8316006  63.5213784 101.9403223  28.3899698
  63.5711789 101.7753231  29.3315221  63.4127707 101.0730482  27.9997579
  52.4050043 104.6191769  15.6791787  52.5538163 105.3027233  15.0258459
  53.2116486 104.5996859  16.1941242  60.8117546  97.9234151  29.7059005
  61.7127409  97.7840616  29.4143002  60.8865521  98.0888606  30.6457182
  55.1460352  95.3001006  28.5512191  54.2763661  95.5934572  28.2794779
  55.3819832  95.8841451  29.2719454  65.0231981 104.3600165  28.6341719
  64.7316789 104.7230145  29.4705180  64.4104112 103.6467173  28.4555051
  66.2227663 101.9253044  21.1544290  67.0574555 102.3642848  21.3181850
  66.3586792 101.4491698  20.3352535  63.2719169  99.4832779  27.1021777
  63.7473291  99.6760426  26.2940629  62.3484734  99.5391965  26.8565161
  50.1602676 100.6456946  16.6852856  49.9148718  99.7419276  16.8833066
  50.3298590 100.6474097  15.7432334  57.8499386  91.5180623  26.0677611
  58.3681329  92.2541650  25.7424100  57.4954518  91.8244616  26.9024370
  49.4298323  96.3785304  14.1839017  48.7367568  96.4529659  13.5279053
  49.1850075  95.6145648  14.7060534  58.1011980  87.9380905  21.5878508
  58.3813733  87.2704094  22.2138934  58.8862587  88.1310001  21.0753172
  55.9045448 107.1139899  13.1503534  55.3319415 107.7330086  12.6974006
  56.4778242 107.6639261  13.6843456  61.9720838  96.3598539  25.3350083
  62.9238261  96.4596637  25.3562307  61.8024288  95.5676808  25.8448167
  59.9935218  93.4454123  25.5209484  59.3985150  93.7259135  24.8255972
  59.7084914  93.9348023  26.2926225  59.1242708 107.3977049  14.2812116
  60.0573381 107.3322611  14.4844992  59.0365921 108.2333316  13.8226649
  64.4508916  99.5804659  24.4492383  64.4185236  98.6420660  24.6352066
  65.0609540  99.6588696  23.7158207  56.2892247  98.4500712  10.4919587
  57.2351351  98.3206920  10.5608005  55.9106492  97.7115374  10.9689015
  64.6003404  96.3715702  24.4950666  64.0842453  95.5874159  24.3080595
  65.4843353  96.0434419  24.6597185  62.2614131  90.1156718  20.4546478
  62.0638952  89.8071806  21.3389810  62.8713837  90.8418357  20.5844408
  70.2685466 100.6420666  23.5898419  70.9988854 100.3805954  24.1506123
  69.6592411  99.9049388  23.6300487  68.3500763  98.7828528  24.1872871
  67.6233926  98.6484493  23.5789362  67.9348050  99.0905357  24.9929589
  56.1730939 102.5018458  31.9520244  57.0933949 102.6797057  32.1460290
  56.1380522 101.5574503  31.7999943  54.4735164  96.3750688  10.4274472
  53.5666619  96.0783801  10.5037185  54.7511145  96.0780506   9.5608758
  45.3913104  97.6957052  20.8773518  45.0715889  96.8422360  20.5847892
  44.8446532  97.9105630  21.6331486  49.1693012 100.4119493  24.5943025
  49.3879022 101.3436601  24.6131059  49.5818786 100.0527467  25.3797829
  56.0897230  90.9187578  16.5818713  55.2797958  90.5734663  16.9573959
  56.7781647  90.6095122  17.1706325  58.0187778  89.9965625  18.2043010
  58.5718816  90.4161078  18.8633033  58.2557864  89.0701373  18.2465966
  54.0420877  95.9852699  33.9845774  53.9417604  96.9347056  33.9157865
  53.8242419  95.6570937  33.1121844  53.2433949  93.2337624  10.5686451
  54.1053112  93.5592522  10.8282268  53.4284293  92.4469120  10.0559517
  45.2601364 101.3159963  22.8466640  44.5664836 100.9013916  22.3336594
  46.0074355 101.3580500  22.2500059  61.3966585  92.1066150  17.7121674
  60.8165254  92.7650954  17.3299726  61.1302518  91.2843495  17.3009092
  59.8470151  91.5071208  19.9142994  60.3469930  91.6187742  19.1057313
  60.4905759  91.2032261  20.5543803  53.9052147  99.4149837  32.8010835
  53.4219229 100.2150198  33.0074724  53.9913086  99.4257782  31.8478279
  47.1738107 101.2478217  20.7232655  47.1508795 101.3465904  19.7714538
  47.4838743 102.0943368  21.0449821  49.8325485 103.3054372  24.8379269
  50.7868738 103.2738314  24.7709201  49.6338008 102.8444996  25.6529495
  50.4224867 101.8755488  27.4050067  51.2417756 102.3699567  27.4284904
  50.6961675 100.9587456  27.3767634  60.1791463  94.2666240  16.7678022
  59.2917318  94.5515891  16.5498217  60.5945452  94.1060004  15.9205299
  63.5305999  94.2912761  20.4832362  64.3066389  94.7809214  20.7556978
  62.8054133  94.7170816  20.9404231  65.9678558  95.0040381  21.5406302
  66.5623049  94.7636117  20.8299610  66.0405141  94.2847511  22.1679838
  48.1875713 108.8473992  21.8549467  48.0530181 108.0874392  21.2887465
  47.7707776 109.5714891  21.3878256  59.3234676 104.0310915  10.8626042
  60.0270527 104.2360918  11.4783698  58.5997325 104.5987677  11.1275126
  60.1532487  99.7820776  16.9828312  60.0967688 100.2389328  16.1435945
  60.7060829  99.0211461  16.8051155  63.9637293  95.5710508  17.8078432
  63.7074227  95.1707144  18.6386640  63.3390161  96.2854302  17.6828571
  68.2749631  98.3106582  20.3149723  67.7149188  98.3799771  21.0881285
  67.6693134  98.1347566  19.5949220  51.3444839 109.7443309  22.0667910
  51.2277223 110.6888741  21.9646600  50.5237286 109.4416870  22.4553709
  61.2321374 104.4693444  12.9124502  62.0666978 104.0374643  12.7301977
  61.0705717 104.2975458  13.8401397  60.8867266 100.9725558  14.2780842
  60.8316070 100.8069829  13.3369286  60.2613321 101.6801591  14.4343031
  45.6759781  96.2093622  28.1042264  46.3218645  95.6992576  28.5929489
  45.4676932  96.9462304  28.6785689  58.2013173 103.2774469  33.6034404
  59.0704333 103.4515122  33.2421039  57.7219925 104.0968886  33.4810134
  54.1963392  90.4733667  13.8566160  54.1842061  91.4175507  14.0134431
  55.0886813  90.2903812  13.5625621  52.3699353 110.3971571  25.2823838
  53.2726600 110.4295181  25.5990333  52.1436724 109.4672021  25.2970174
  54.1252955 109.1502557  21.9433917  53.1748586 109.1504419  21.8298289
  54.4285442 108.4035292  21.4269951  58.0115511  87.0676443  18.1112097
  57.2447907  86.5134930  18.2568779  58.4226216  87.1398312  18.9726248
  50.0157272  93.3561239  32.2017278  50.8788734  92.9998044  32.4120603
  49.4422683  93.0175134  32.8892682  69.8605649 114.9863095  23.0079679
  70.4984059 114.8669843  22.3043019  69.7426492 115.9343939  23.0667631
  66.6695355 114.9390524  22.9441204  66.3313867 114.8231588  22.0561739
  67.5385123 114.5381689  22.9242210  67.1515138 116.0925375  28.9027409
  67.1403779 115.6978174  28.0307913  67.3135778 115.3591448  29.4961181
  60.0746603 118.2877192  21.7722315  60.8667895 117.9468016  21.3568615
  60.3143253 118.3972167  22.6924469  63.8722399 118.8762487  27.8506593
  63.5812265 119.7808118  27.7353260  64.5079384 118.9179015  28.5650663
  64.7978606 116.2539336  24.4407953  65.3942178 116.0295358  23.7264916
  64.8553578 115.5124081  25.0433401  69.4146917 112.7114549  20.0832887
  70.2010007 112.2933972  19.7323304  69.6785622 113.6160641  20.2514536
  72.3380765 106.3611357  25.4460474  72.0064090 107.2306768  25.2221689
  71.7426378 106.0447641  26.1254505  68.8312284 118.5623903  24.8456387
  68.5313008 119.4648941  24.7372194  68.4863344 118.2956086  25.6977540
  62.2824766 115.0137699  20.8793091  61.3575262 114.8813914  21.0870783
  62.5309179 115.7931919  21.3763034  72.2309428 111.0806443  22.5253824
  71.3226306 111.0121851  22.2312585  72.1797024 111.5578388  23.3535650
  59.6433577 114.6570973  21.7136880  59.7725958 114.9105452  22.6276292
  58.9631028 115.2498681  21.3941536  66.3050294 112.4996088  30.4688722
  65.5283628 113.0590009  30.4591586  66.9440857 112.9852871  30.9903592
  74.0971075 109.2822881  24.3031698  73.4545455 109.5755414  23.6571493
  73.5926003 109.1675802  25.1084895  64.5596666 115.3081542  30.0306689
  65.3011351 115.8466586  29.7541512  63.8533652 115.9347830  30.1878240
  70.0352006 117.4510682  28.6278850  70.4435362 117.0093093  27.8833482
  69.3129267 116.8763310  28.8813043  66.3883076 112.3883289  26.0012407
  67.2344271 112.8122703  26.1447056  66.3281714 111.7316913  26.6950970
  69.5382521 110.0487657  27.6593581  69.2943453 110.8029718  27.1227856
  69.8142452 110.4273005  28.4940828  71.4920984 116.5926270  26.3370846
  71.7037879 117.2358030  25.6605227  71.4450732 115.7588586  25.8692776
  69.0947213 109.2044090  23.2407418  68.2331692 109.5025344  23.5324156
  69.1209648 109.4214489  22.3088451  62.8032864 117.2957762  22.5860987
  63.3734221 117.7245031  21.9478472  63.3940975 117.0140347  23.2845173
  63.2958030 112.4621190  30.8321999  62.6656691 113.1437471  31.0657395
  63.1894118 112.3504272  29.8875137  58.5903003 112.1292986  21.7587923
  57.8002056 112.3850514  21.2828033  59.0814250 112.9441324  21.8639963
  60.5417748 112.4937565  18.7171399  59.7448911 112.6056259  19.2354895
  60.3143340 112.8324217  17.8512290  66.3723416 119.0182268  26.6653914
  66.4367848 119.4802676  27.5012086  65.6634339 118.3879633  26.7936224
  56.8740705 112.3823476  24.1902914  57.1248744 113.2670486  24.4560490
  57.4100254 112.2028078  23.4178005  62.5738773 106.7641956  33.1947250
  62.1805718 106.2108154  33.8694894  63.3904913 107.0752534  33.5853767
  65.4906734 108.1799835  30.7867506  66.2316447 108.7806988  30.7071969
  65.7224657 107.4377473  30.2285549  60.6348072 113.3656202  29.0645736
  60.5201587 112.4641459  29.3652835  59.7792590 113.6119899  28.7130552
  67.7139910 121.3073942  30.6633237  67.2703764 120.5210321  30.3454141
  68.3757123 121.4953093  29.9977127  62.4727031 122.8369744  25.1893915
  63.0234456 122.7086807  24.4170909  61.6338507 123.1364633  24.8388808
  69.8121148 121.5876742  28.6914638  69.7939623 122.4085623  28.1994907
  70.7341068 121.4630818  28.9164779  66.2694202 119.1020872  29.5338146
  66.8022539 118.3409160  29.3037454  65.7408283 118.8094524  30.2762301
  69.4363897 104.2080938  25.0631788  69.0928166 105.0982579  24.9870898
  69.8042859 104.0182595  24.2001373  57.5049747 116.5314468  17.8820390
  58.3424969 116.9411477  17.6654098  57.6828015 115.5913910  17.8520584
  66.9861290 109.0439250  18.6289461  66.1302887 108.6546100  18.4495100
  67.3988242 109.1231210  17.7689247  68.5160437 106.5785593  23.0281021
  68.0125233 106.5415728  22.2148826  68.8091044 107.4878336  23.0877678
  64.7603323 106.6624323  22.0347203  65.6256320 106.4667131  21.6753092
  64.8280832 106.4334674  22.9616560  62.3665642 108.8926531  19.4063570
  62.9409394 108.6701712  18.6736763  62.9536625 108.9615225  20.1592171
  64.6688310 105.7667779  18.1338639  64.0152722 105.4516797  17.5095254
  64.6268784 105.1443520  18.8598462  67.9026050 112.2549713  22.4586287
  66.9848612 112.4764660  22.3007975  68.3186194 112.3296024  21.5997994
  71.2351562 103.4674497  20.1649526  71.5410439 102.6071860  19.8775441
  71.9604167 104.0592117  19.9648519  57.5275918 113.8705184  18.5531123
  57.3300318 113.2774544  17.8282190  56.9722582 113.5657394  19.2707062
  65.5072642 113.7628290  20.6725717  65.5621252 112.8102126  20.5968193
  64.6963844 113.9187729  21.1567015  63.4465002 112.3805350  18.4316095
  62.6332868 112.6799520  18.8381288  63.9423996 111.9861039  19.1490578
  69.0439214 112.8447174  27.2630989  69.3988601 113.0718647  28.1225455
  69.6911345 113.1765551  26.6408245  62.9379077 109.9523705  24.0477330
  63.5778456 109.8112464  23.3500294  62.1056607 109.6658219  23.6715932
  68.5334225 121.6344231  24.5124691  68.5871247 122.2035168  25.2802406
  67.6649007 121.8046116  24.1478728  59.9407693 109.9224030  18.8250317
  60.2014511 110.8369364  18.7159478  60.7624866 109.4548473  18.9746930
  61.4132619 111.3361787  25.9949142  62.0855672 111.1279150  25.3461791
  60.5862405 111.1383873  25.5554374  67.3158191 107.9623728  28.0114803
  66.6686106 108.6613678  27.9179279  68.0859206 108.3959872  28.3791051
  70.7236989 118.2272581  31.0865356  70.5722495 117.9983132  30.1695440
  70.7141668 119.1843182  31.0996701  67.4922325 115.8004493  26.0711622
  68.4214385 115.9515653  25.8980590  67.0713355 115.8888514  25.2160269
  66.2910657 119.8255158  23.8410160  66.1521742 119.4573942  24.7136098
  65.5025253 120.3402797  23.6694118  61.8160116 114.6104390  26.7551579
  61.6779914 113.8784629  27.3563118  62.7265039 114.5213291  26.4735767
  64.4442416 114.3224350  26.2435259  65.1542035 113.6817542  26.2021877
  64.4011725 114.5737245  27.1661439  72.4329195 121.2591703  29.1641838
  72.3741741 120.5750923  28.4972421  72.8348714 122.0010693  28.7122464
  63.1571350 111.3089568  28.0630898  62.6208707 110.8580306  28.7152494
  62.5688059 111.4435476  27.3201362  72.4346602 119.2231287  27.3955817
  71.5473381 118.8857209  27.5182216  73.0045154 118.4914318  27.6324583
  54.0875750 115.5555379  20.7198869  54.7746789 115.2417109  20.1319884
  53.9323878 116.4596743  20.4466120  58.8910472 110.4445575  25.1483893
  58.8068660 109.8371245  24.4134302  58.0693178 110.9354594  25.1493389
  69.0634186 108.9299139  20.5154088  69.5602885 108.1769101  20.1955158
  68.2921167 108.9663456  19.9497297  68.4246439 123.7819573  26.5175219
  69.1374412 124.4167038  26.4451121  67.9336468 123.8783439  25.7015221
  65.6469154 111.0716522  20.2425772  65.2766942 110.5187562  20.9306678
  66.1428247 110.4674655  19.6900772  63.4758353 121.5314017  27.3380790
  64.1767812 122.1650500  27.4910184  63.0053468 121.8728748  26.5776429
  71.5053180 105.8968732  22.6633446  70.5916260 106.1272959  22.8315653
  71.9346282 105.9807176  23.5147479  71.2759639 114.0858624  25.1633341
  70.6231089 114.3334532  24.5085793  71.6540019 113.2722763  24.8295818
  67.3247212 114.8278435  31.6499378  66.6487849 114.7272565  32.3201753
  68.1474846 114.6717649  32.1135375  59.0726071 121.0650372  24.2711893
  59.6579508 120.3194060  24.4039797  58.8750909 121.3754329  25.1548557
  53.6643726 113.6355972  22.9916336  53.7027825 113.1019563  23.7853454
  53.1584019 113.1091178  22.3727313  61.0434488 108.4820513  26.4878878
  61.1075814 109.3435344  26.0756276  60.9801608 107.8694514  25.7551237
  60.5186761 110.5543645  30.1351913  61.1458799 110.1720723  30.7489437
  59.6614679 110.3357847  30.5007605  70.9180869 120.9606620  31.7405648
  71.4620773 121.5736579  31.2460603  70.3367714 121.5186199  32.2572661
  57.2952303 112.3620074  16.0670267  57.5905744 111.4530753  16.0137321
  56.3940339 112.3407814  15.7451270  60.8246550 110.4376071  22.0497816
  60.1033136 111.0512039  21.9105289  61.6139806 110.9733836  21.9714462
  63.6272864 107.7730497  28.3238468  64.1507266 108.0192794  29.0864777
  63.4085197 108.6050532  27.9041605  59.0240145 110.0434172  16.1909593
  58.6952851 109.1631551  16.0084698  59.3779516 109.9881841  17.0785982
  62.1381968 110.3307142  16.5585070  62.4778041 110.8593063  15.8363679
  62.5854088 110.6687548  17.3343637  64.8325409 108.7144192  26.0088138
  64.4922229 107.9152006  26.4108818  64.1264415 109.0145903  25.4364971
  65.4841881 105.7993505  24.4615461  66.3067950 105.3253983  24.3394352
  65.7279944 106.5783989  24.9614148  63.0080459 112.4912626  22.2707440
  62.8625040 112.8052929  23.1631721  62.5305663 113.1097526  21.7178339
  64.8676842 109.4815174  22.3188329  64.8538411 108.5856267  21.9820627
  65.5849270 109.4885837  22.9526616  66.7202973 109.9152514  24.3641457
  66.4620751 110.8369584  24.3625787  66.1888013 109.5182948  25.0541921
  57.4826122 115.0317970  25.2095101  56.9379590 115.8077778  25.3415375
  58.3605471 115.3788774  25.0514223  64.2713738 108.3629554  17.5875900
  64.3929649 107.4346200  17.7866787  63.9815781 108.3768240  16.6754215
  67.1404929 106.0484464  20.7242619  67.1626625 106.1123797  19.7694599
  67.5572988 105.2088973  20.9183126  58.2692143 114.1587866  28.1025258
  57.5273879 114.3070502  28.6889888  57.9484888 114.4196132  27.2392007
  66.2135806 123.7003844  27.9005648  66.5222933 123.4552991  28.7728348
  67.0111288 123.9050483  27.4124518  56.9157362 119.9639621  21.0924586
  56.0789270 119.5361796  20.9108587  56.8881008 120.1572065  22.0295377
  63.7554818 109.8761551  31.7965832  63.8042973 110.7523674  31.4143602
  64.2977332 109.3338944  31.2237475  74.2409663 120.4202674  31.0766969
  73.4505207 120.4026813  30.5371469  74.0043018 120.9590968  31.8316006
  74.3607538 117.2695141  28.3899698  74.4105543 117.1045148  29.3315221
  74.2521462 116.4022400  27.9997579  71.6511301 113.2526069  29.7059005
  72.5521164 113.1132534  29.4143002  71.7259275 113.4180524  30.6457182
  65.9854106 110.6292924  28.5512191  65.1157416 110.9226490  28.2794779
  66.2213587 111.2133369  29.2719454  75.8625735 119.6892082  28.6341719
  75.5710544 120.0522063  29.4705180  75.2497867 118.9759091  28.4555051
  74.1112924 114.8124697  27.1021777  74.5867045 115.0052343  26.2940629
  73.1878489 114.8683883  26.8565161  68.6893140 106.8472541  26.0677611
  69.2075084 107.5833567  25.7424100  68.3348273 107.1536534  26.9024370
  68.9405734 103.2672823  21.5878508  69.2207488 102.5996012  22.2138934
  69.7256341 103.4601919  21.0753172  72.8114593 111.6890457  25.3350083
  73.7632015 111.7888555  25.3562307  72.6418043 110.8968726  25.8448167
  70.8328972 108.7746040  25.5209484  70.2378904 109.0551053  24.8255972
  70.5478669 109.2639941  26.2926225  75.2902670 114.9096577  24.4492383
  75.2578990 113.9712577  24.6352066  75.9003294 114.9880613  23.7158207
  75.4397159 111.7007620  24.4950666  74.9236207 110.9166077  24.3080595
  76.3237107 111.3726337  24.6597185  73.1007886 105.4448636  20.4546478
  72.9032707 105.1363724  21.3389810  73.7107591 106.1710275  20.5844408
  67.0124694 117.8310376  31.9520244  67.9327703 118.0088975  32.1460290
  66.9774277 116.8866421  31.7999943  56.2306859 113.0248969  20.8773518
  55.9109643 112.1714278  20.5847892  55.6840287 113.2397548  21.6331486
  60.0086766 115.7411410  24.5943025  60.2272776 116.6728518  24.6131059
  60.4212540 115.3819385  25.3797829  66.9290984 106.2479496  16.5818713
  66.1191712 105.9026581  16.9573959  67.6175401 105.9387040  17.1706325
  68.8581532 105.3257543  18.2043010  69.4112571 105.7452996  18.8633033
  69.0951619 104.3993291  18.2465966  64.8814632 111.3144616  33.9845774
  64.7811359 112.2638973  33.9157865  64.6636174 110.9862855  33.1121844
  56.0995119 116.6451881  22.8466640  55.4058590 116.2305834  22.3336594
  56.8468110 116.6872417  22.2500059  70.6863906 106.8363125  19.9142994
  71.1863684 106.9479660  19.1057313  71.3299514 106.5324178  20.5543803
  64.7445902 114.7441755  32.8010835  64.2612983 115.5442115  33.0074724
  64.8306841 114.7549700  31.8478279  58.0131861 116.5770135  20.7232655
  57.9902549 116.6757822  19.7714538  58.3232498 117.4235286  21.0449821
  60.6719239 118.6346290  24.8379269  61.6262493 118.6030232  24.7709201
  60.4731763 118.1736914  25.6529495  61.2618621 117.2047406  27.4050067
  62.0811510 117.6991485  27.4284904  61.5355429 116.2879374  27.3767634
  74.3699754 109.6204679  20.4832362  75.1460144 110.1101132  20.7556978
  73.6447888 110.0462733  20.9404231  56.5153536 111.5385540  28.1042264
  57.1612399 111.0284494  28.5929489  56.3070687 112.2754221  28.6785689
  69.0406928 118.6066387  33.6034404  69.9098087 118.7807039  33.2421039
  68.5613679 119.4260804  33.4810134  63.2093108 125.7263488  25.2823838
  64.1120355 125.7587098  25.5990333  62.9830478 124.7963939  25.2970174
  68.8509265 102.3968361  18.1112097  68.0841661 101.8426848  18.2568779
  69.2619970 102.4690230  18.9726248  60.8551027 108.6853157  32.2017278
  61.7182488 108.3289962  32.4120603  60.2816437 108.3467052  32.8892682
  73.4132527 122.0933873  33.1947250  73.0199473 121.5400072  33.8694894
  74.2298668 122.4044452  33.5853767  76.3300488 123.5091753  30.7867506
  77.0710202 124.1098906  30.7071969  76.5618411 122.7669390  30.2285549
  71.3580515 125.8835563  30.1351913  71.9852554 125.5012640  30.7489437
  70.5008434 125.6649765  30.5007605  74.5948572 125.2053469  31.7965832
  74.6436728 126.0815592  31.4143602  75.1371086 124.6630862  31.2237475
  75.7208386 126.6436534  33.9845774  75.6205113 127.5930891  33.9157865
  75.5029928 126.3154773  33.1121844  67.3547290 126.8677457  28.1042264
  68.0006154 126.3576411  28.5929489  67.1464441 127.6046139  28.6785689
  71.6944781 124.0145074  32.2017278  72.5576243 123.6581879  32.4120603
  71.1210192 123.6758969  32.8892682  24.3564893  36.9968394  17.3878543
  23.9128747  36.2104773  17.0699448  25.0182106  37.1847545  16.7222434
  26.4546131  37.2771194  15.4159944  26.4364606  38.0980075  14.9240214
  27.3766051  37.1525269  15.6410086  27.3661972  33.9167032  17.8110663
  27.2147478  33.6877584  16.8940746  27.3566651  34.8737634  17.8242008
  29.0754178  36.9486155  15.8887144  29.0166725  36.2645375  15.2217727
  29.4773697  37.6905145  15.4367770  27.5605852  36.6501072  18.4650955
  28.1045756  37.2631031  17.9705909  26.9792697  37.2080651  18.9817968
  30.8834647  36.1097126  17.8012276  30.0930190  36.0921265  17.2616775
  30.6468001  36.6485420  18.5561313  32.5050719  35.3786534  15.3587026
  32.2135527  35.7416515  16.1950487  31.8922850  34.6653542  15.1800358
  25.6831911  34.2960839  20.3279711  26.5523071  34.4701491  19.9666346
  25.2038662  35.1155256  20.2055440  37.3424387  46.0049465   9.7324986
  37.9802797  45.8856212   9.0288326  37.2245230  46.9530309   9.7912938
  34.1514093  45.9576893   9.6686510  33.8132605  45.8417958   8.7807045
  35.0203861  45.5568058   9.6487517  34.6333876  47.1111745  15.6272716
  34.6222517  46.7164543  14.7553220  34.7954515  46.3777817  16.2206487
  27.5565341  49.3063561   8.4967622  28.3486633  48.9654386   8.0813921
  27.7961991  49.4158536   9.4169775  31.3541137  49.8948857  14.5751900
  31.0631003  50.7994487  14.4598566  31.9898122  49.9365384  15.2895970
  32.2797344  47.2725705  11.1653260  32.8760916  47.0481728  10.4510223
  32.3372316  46.5310451  11.7678707  42.2974082  43.6676152   7.7111172
  43.0299254  43.0975369   7.9449002  41.5413438  43.2797753   8.1517678
  39.8199503  37.3797726  12.1705781  39.4882827  38.2493137  11.9466996
  39.2245116  37.0634010  12.8499811  36.3131022  49.5810272  11.5701694
  36.0131745  50.4835311  11.4617501  35.9682082  49.3142455  12.4222847
  39.7128166  42.0992812   9.2499131  38.8045043  42.0308221   8.9557892
  39.6615762  42.5764757  10.0780956  31.2951802  56.3454593   4.5372661
  31.2175832  57.2962418   4.6161142  30.6913446  56.0000465   5.1947588
  33.7869032  43.5182458  17.1934028  33.0102366  44.0776378  17.1836893
  34.4259595  44.0039241  17.7148898  41.5789812  40.3009251  11.0277005
  40.9364193  40.5941784  10.3816799  41.0744741  40.1862171  11.8330202
  32.0415404  46.3267911  16.7551995  32.7830088  46.8652955  16.4786819
  31.3352390  46.9534200  16.9123547  37.5170744  48.4697052  15.3524157
  37.9254100  48.0279462  14.6078789  36.7948005  47.8949679  15.6058350
  33.8701814  43.4069659  12.7257714  34.7163009  43.8309072  12.8692363
  33.8100451  42.7503283  13.4196277  37.8399558  49.0298242   9.1076446
  37.2108421  49.1943957   8.4052513  37.4525220  49.4439852   9.8787410
  41.7188790  49.9652680   6.4620809  41.0339828  50.3451582   5.9117843
  41.8032640  50.5748007   7.1952757  37.0201259  41.0674027  14.3838887
  36.7762191  41.8216087  13.8473163  37.2961190  41.4459374  15.2186134
  38.9739722  47.6112639  13.0616153  39.1856617  48.2544399  12.3850534
  38.9269470  46.7774956  12.5938083  33.3927520  48.7672650   6.3726531
  33.8565866  49.0460353   5.5831153  33.1284318  47.8656095   6.1899621
  30.2851601  48.3144132   9.3106294  30.8552958  48.7431400   8.6723778
  30.8759713  48.0326717  10.0090480  30.7776768  43.4807559  17.5567305
  30.1475428  44.1623840  17.7902702  30.6712856  43.3690641  16.6120443
  40.0885550  50.4884595  11.2338510  40.9102994  50.0864782  10.9521192
  40.0847953  50.3852829  12.1854626  33.8542153  50.0368638  13.3899221
  33.9186586  50.4989045  14.2257393  33.1453077  49.4066003  13.5181531
  48.1791543  46.8323343   7.5823482  47.4255251  46.2630741   7.4267486
  48.3139084  46.7986008   8.5294116  30.0557511  37.7828325  19.9192556
  29.6624456  37.2294524  20.5940201  30.8723651  38.0938904  20.3099074
  28.8314453  52.3377940   5.9128879  29.0081081  53.2595904   5.7249863
  29.6271287  52.0236359   6.3423259  32.9725472  39.1986204  17.5112813
  33.7135185  39.7993358  17.4317275  33.2043394  38.4563842  16.9530855
  28.1166810  44.3842572  15.7891043  28.0020325  43.4827829  16.0898141
  27.2611327  44.6306268  15.4375859  35.1958647  52.3260312  17.3878543
  34.7522502  51.5396691  17.0699448  35.8575861  52.5139462  16.7222434
  29.9545769  53.8556114  11.9139222  30.5053194  53.7273177  11.1416216
  29.1157244  54.1551003  11.5634114  37.2939885  52.6063112  15.4159944
  37.2758361  53.4271993  14.9240214  38.2159805  52.4817187  15.6410086
  33.7512940  50.1207241  16.2583453  34.2841276  49.3595530  16.0282761
  33.2227021  49.8280893  17.0007607  40.0958498  47.4442254   8.8869311
  39.4382173  48.1341516   8.9749440  40.8998897  47.8338686   9.2303297
  38.9063957  45.7986627   6.9373253  39.4195839  46.4316619   7.4394963
  39.5565181  45.1987823   6.5716613  35.3844788  43.2736083   9.1831593
  34.4667349  43.4951030   9.0253281  35.8004932  43.3482393   8.3243301
  39.6725753  50.7792628   5.0652395  39.2188080  49.9383538   5.1217586
  39.0419720  51.4154027   5.4027176  38.1158693  52.6169125   6.0002214
  38.4081667  53.1774182   5.2814579  38.6257313  52.9097686   6.7555373
  33.0792318  53.3949476   7.0895667  33.0368497  53.6210323   6.1604199
  33.9955017  53.1612851   7.2381468  36.5257952  43.8633544  13.9876296
  36.8807339  44.0905017  14.8470762  37.1730083  44.1951921  13.3653551
  42.2555688  46.9851980   4.6925625  42.1173587  47.1753576   3.7646814
  41.8991907  47.7471363   5.1493676  42.2825068  49.0528507   9.7036897
  42.7161575  48.9603796  10.5519951  42.9956649  49.0286007   9.0656913
  31.1958119  50.2712505   6.8857630  31.9898717  49.7762825   6.6840205
  30.4849811  49.7430368   6.5225335  36.0152963  52.6530601  11.2369997
  36.0689985  53.2221537  12.0047713  35.1467744  52.8232486  10.8724034
  28.8951356  42.3548157  12.7194448  29.5674410  42.1465519  12.0707097
  28.0681143  42.1570243  12.2799681  43.1440618  49.0952207  12.2369782
  43.3376508  49.9998018  12.4829057  43.0441236  48.6359626  13.0708367
  34.7976928  38.9810098  14.7360109  34.1504843  39.6800048  14.6424586
  35.5677944  39.4146242  15.1036357  38.2055726  49.2458950  17.8110663
  38.0541233  49.0169502  16.8940746  38.1960406  50.2029552  17.8242008
  34.9741063  46.8190863  12.7956929  35.9033123  46.9702022  12.6225896
  34.5532093  46.9074884  11.9405576  33.7729395  50.8441527  10.5655467
  33.6340480  50.4760312  11.4381405  32.9843991  51.3589167  10.3939424
  34.3677546  55.9450624   1.9081003  34.5429302  55.4738667   2.7226626
  33.6810335  56.5716390   2.1362264  35.3234610  50.2223130   7.9544304
  34.9884442  50.1823900   8.8501954  34.8238555  49.5567846   7.4814715
  29.2978854  45.6290760  13.4796886  29.1598652  44.8970999  14.0808425
  30.2083777  45.5399660  13.1981073  31.9261154  45.3410719  12.9680565
  32.6360773  44.7003912  12.9267184  31.8830462  45.5923614  13.8906746
  39.9147933  52.2778073  15.8887144  39.8560479  51.5937293  15.2217727
  40.3167451  53.0197063  15.4367770  30.6390088  42.3275937  14.7876205
  30.1027445  41.8766676  15.4397801  30.0506797  42.4621846  14.0446669
  28.9338632  59.0939987   8.6820863  29.1735230  59.7258511   9.3599882
  28.0907828  58.7428027   8.9686223  39.9165340  50.2417657  14.1201124
  39.0292119  49.9043578  14.2427523  40.4863891  49.5100688  14.3569890
  33.4466494  54.9019109  11.0862367  33.3736665  55.7074080  11.5981672
  33.0043887  55.1011075  10.2610389  33.2356273  54.1390879   4.5965189
  32.4523795  54.6812559   4.6903413  33.9349018  54.6564859   4.9959430
  44.3982681  45.6525874   8.8817686  44.3872557  46.5350589   8.5111619
  43.5300060  45.2997425   8.6872223  35.9065177  54.8005943  13.2420526
  36.6193149  55.4353408  13.1696427  35.4155206  54.8969809  12.4260528
  37.6282704  48.7057196   4.8137818  36.6938983  48.8258658   4.6442522
  37.8059373  47.8029662   4.5497827  41.0155255  44.5474515   5.3487852
  41.4815708  45.3802507   5.2748154  41.4662756  44.0819497   6.0533110
  30.9577091  52.5500386  14.0626097  31.6586550  53.1836869  14.2155491
  30.4872206  52.8915118  13.3021736  38.7578377  45.1044994  11.8878647
  38.1049827  45.3520901  11.2331100  39.1358757  44.2909132  11.5541124
  35.7185551  55.1404687   5.9906817  35.9007945  54.3226343   6.4534570
  36.5418537  55.3572379   5.5531707  36.0527716  54.0672872   3.2521866
  36.5815482  53.5565327   2.6392028  36.3155936  53.7515402   4.1167399
  34.8065950  45.8464805  18.3744684  34.1306587  45.7458934  19.0447059
  35.6293584  45.6904019  18.8380681  26.5544809  52.0836741  10.9957199
  27.1398246  51.3380429  11.1285104  26.3569647  52.3940698  11.8793863
  29.4083464  55.1187989   6.0119642  28.7393839  55.6034117   5.5283682
  29.2696334  55.3657209   6.9263020  33.5488733  57.1531732  12.6102300
  34.1007041  57.3163354  13.3751385  33.8894926  57.7436170  11.9382325
  28.0005498  41.5730015  16.8597219  28.6277537  41.1907092  17.4734744
  27.1433417  41.3544217  17.2252912  38.3999607  51.9792990  18.4650955
  38.9439511  52.5922948  17.9705909  37.8186452  52.5372568  18.9817968
  36.6857120  55.1013708   9.5965982  36.5608259  54.3003448   9.0876928
  37.3436211  55.5959901   9.1079952  38.7492028  52.9022728  11.2245532
  37.8022364  52.7828079  11.1523859  39.0974801  52.0145226  11.3071794
  31.1091602  38.7916867  15.0483774  31.6326003  39.0379163  15.8110084
  30.8903935  39.6236902  14.6286912  35.7538462  52.6975444   7.4249885
  35.6063424  51.7692152   7.6057455  36.5791955  52.7195535   6.9406960
  39.3572583  53.5204003   8.5114757  40.2819131  53.3146864   8.3739209
  39.1887887  53.2720404   9.4204099  32.3144147  39.7330562  12.7333445
  31.9740967  38.9338375  13.1354125  31.6083153  40.0332273  12.1610278
  34.2021711  40.9338883  11.0886764  33.9439489  41.8555954  11.0871094
  33.6706751  40.5369318  11.7787228  39.1467900  54.0389670   3.8676849
  39.3204777  53.4736093   3.1150701  39.6396791  54.8390565   3.6856339
  24.9644859  46.0504339  11.9340408  24.4198327  46.8264147  12.0660682
  25.8424209  46.3975144  11.7759529  45.0007291  46.8026093   5.4867149
  45.4438437  46.0533419   5.0886272  44.1233801  46.7936230   5.1040881
  40.1343072  53.3556435   0.9673747  40.8293977  53.9763127   1.1861062
  40.4766222  52.5051786   1.2426125  25.7510881  45.1774236  14.8270565
  25.0092617  45.3256871  15.4135195  25.4303626  45.4382501  13.9637314
  42.0334495  50.8056140   2.4961078  42.5585819  51.1443413   1.7710398
  41.9456848  49.8703156   2.3124213  33.6954544  54.7190214  14.6250955
  34.0041670  54.4739361  15.4973654  34.4930026  54.9236852  14.1369825
  33.7175156  56.8728124   6.8556331  33.2780146  56.3804502   7.5489188
  34.4683273  56.3301091   6.6148406  26.1967495  53.0639664   6.8580959
  27.0225515  52.7643436   6.4779603  25.8461547  52.2947287   7.3070748
  31.1649028  52.4166133   8.9278633  30.5429037  51.7536838   8.6280861
  31.8353895  52.4427265   8.2452281  31.2373556  40.8947921  18.5211139
  31.2861711  41.7710044  18.1388908  31.7796070  40.3525314  17.9482782
  41.7228401  51.4389044  17.8012276  40.9323945  51.4213183  17.2616775
  41.4861756  51.9777338  18.5561313  41.8426276  48.2881510  15.1145004
  41.8924281  48.1231518  16.0560527  41.7340200  47.4208769  14.7242885
  39.1330039  44.2712438  16.4304311  40.0339901  44.1318903  16.1388309
  39.2078013  44.4366893  17.3702489  33.4672844  41.6479293  15.2757497
  32.5976153  41.9412859  15.0040086  33.7032324  42.2319738  15.9964761
  43.3444473  50.7078452  15.3587026  43.0529281  51.0708432  16.1950487
  42.7316604  49.9945460  15.1800358  44.5440155  48.2731332   7.8789596
  45.3787047  48.7121136   8.0427157  44.6799284  47.7969985   7.0597842
  41.5931661  45.8311067  13.8267084  42.0685783  46.0238713  13.0185935
  40.6697227  45.8870252  13.5810468  36.1711878  37.8658910  12.7922918
  36.6893822  38.6019937  12.4669406  35.8167011  38.1722903  13.6269677
  40.2933330  42.7076827  12.0595390  41.2450753  42.8074924  12.0807614
  40.1236781  41.9155095  12.5693474  38.3147710  39.7932410  12.2454791
  37.7197642  40.0737423  11.5501279  38.0297407  40.2826311  13.0171532
  42.7721408  45.9282946  11.1737689  42.7397728  44.9898947  11.3597373
  43.3822032  46.0066983  10.4403514  42.9215897  42.7193990  11.2195972
  42.4054945  41.9352446  11.0325901  43.8055845  42.3912706  11.3842492
  48.5897958  46.9898953  10.3143726  49.3201346  46.7284241  10.8751429
  47.9804903  46.2527675  10.3545794  46.6713255  45.1306816  10.9118177
  45.9446419  44.9962781  10.3034669  46.2560542  45.4383644  11.7174895
  34.4943432  48.8496745  18.6765550  35.4146441  49.0275344  18.8705597
  34.4593015  47.9052791  18.5245250  27.4905504  46.7597780  11.3188331
  27.7091514  47.6914888  11.3376365  27.9031278  46.4005754  12.1043135
  32.3633369  42.3330986  20.7091080  32.2630096  43.2825343  20.6403171
  32.1454911  42.0049225  19.8367150  32.2264639  45.7628125  19.5256142
  31.7431721  46.5628485  19.7320031  32.3125578  45.7736070  18.5723586
  28.1537977  49.6532659  11.5624576  29.1081230  49.6216602  11.4954507
  27.9550501  49.1923283  12.3774802  28.7437359  48.2233775  14.1295373
  29.5630248  48.7177854  14.1530211  29.0174167  47.3065744  14.1012941
  41.8518491  40.6391049   7.2077668  42.6278882  41.1287501   7.4802285
  41.1266626  41.0649103   7.6649538  44.2891050  41.3518668   8.2651609
  44.8835541  41.1114404   7.5544917  44.3617634  40.6325798   8.8925145
  26.5088206  55.1952279   8.5794774  26.3742674  54.4352680   8.0132772
  26.0920268  55.9193179   8.1123563  46.5962123  44.6584869   7.0395030
  46.0361681  44.7278058   7.8126592  45.9905626  44.4825853   6.3194526
  29.6657332  56.0921596   8.7913216  29.5489716  57.0367028   8.6891907
  28.8449778  55.7895157   9.1799016  23.9972273  42.5571909  14.8287571
  24.6431137  42.0470863  15.3174796  23.7889424  43.2940591  15.4030996
  36.5225666  49.6252757  20.3279711  37.3916825  49.7993409  19.9666346
  36.0432417  50.4447174  20.2055440  30.6911846  56.7449858  12.0069145
  31.5939092  56.7773468  12.3235640  30.4649216  55.8150309  12.0215481
  32.4465448  55.4980844   8.6679223  31.4961079  55.4982706   8.5543596
  32.7497934  54.7513579   8.1515258  28.3369764  39.7039526  18.9262585
  29.2001226  39.3476331  19.1365909  27.7635175  39.3653421  19.6137989
  48.1818141  61.3341383   9.7324986  48.8196551  61.2148130   9.0288326
  48.0638984  62.2822227   9.7912938  44.9907848  61.2868811   9.6686510
  44.6526359  61.1709875   8.7807045  45.8597616  60.8859976   9.6487517
  40.8494663  63.1404287   5.6583401  40.2859528  63.0494224   4.8899689
  40.7347058  62.3204192   6.1385894  45.4727631  62.4403663  15.6272716
  45.4616271  62.0456461  14.7553220  45.6348270  61.7069735  16.2206487
  38.3959095  64.6355479   8.4967622  39.1880387  64.2946303   8.0813921
  38.6355745  64.7450454   9.4169775  46.4294222  66.8075255   0.9697866
  45.7782202  67.3929335   0.5831880  47.2238585  67.3381450   1.0292904
  40.3549849  63.8964392   1.3685001  41.1280725  63.3493379   1.2297876
  40.7075248  64.7608641   1.5799462  42.1934892  65.2240774  14.5751900
  41.9024758  66.1286405  14.4598566  42.8291876  65.2657302  15.2895970
  43.1191099  62.6017623  11.1653260  43.7154671  62.3773645  10.4510223
  43.1766070  61.8602368  11.7678707  42.6916127  60.0557058  -0.9996549
  42.9441648  59.5338579  -1.7613086  41.7540686  59.8923204  -0.8969866
  47.7359410  59.0592837   6.8078194  48.5222499  58.6412260   6.4568611
  47.9998114  59.9638929   6.9759842  47.9069487  64.4965687   1.5066851
  47.2715320  64.5700313   2.2187755  47.5766893  65.0859286   0.8285930
  53.1367837  58.9968070   7.7111172  53.8693009  58.4267287   7.9449002
  52.3807193  58.6089670   8.1517678  42.4112416  61.9585164   1.2027826
  42.2948674  61.2830068   1.8708910  42.5214676  61.4717538   0.3859979
  44.7543957  61.4195311   4.9074515  44.3902164  60.8925932   5.6187436
  45.6111072  61.0293780   4.7341000  50.6593257  52.7089644  12.1705781
  50.3276582  53.5785055  11.9466996  50.0638871  52.3925928  12.8499811
  44.3949444  56.4485211  -0.0964137  44.5623846  57.3165447   0.2706334
  44.2046613  56.6112493  -1.0202847  47.1524777  64.9102190  11.5701694
  46.8525500  65.8127229  11.4617501  46.8075836  64.6434373  12.4222847
  40.6037258  61.3615987   7.6038398  39.6787755  61.2292201   7.8116090
  40.8521671  62.1410206   8.1008340  50.5521921  57.4284730   9.2499131
  49.6438798  57.3600138   8.9557892  50.5009516  57.9056675  10.0780956
  44.3738664  58.9042868   0.8882530  44.2538290  59.3499919   1.7268010
  43.6791253  59.2528186   0.3296068  37.9646069  61.0049260   8.4382187
  38.0938450  61.2583739   9.3521599  37.2843521  61.5976968   8.1186842
  42.1345557  71.6746510   4.5372661  42.0569586  72.6254335   4.6161142
  41.5307200  71.3292383   5.1947588  44.6262786  58.8474376  17.1934028
  43.8496120  59.4068296  17.1836893  45.2653349  59.3331159  17.7148898
  52.4183567  55.6301168  11.0277005  51.7757947  55.9233702  10.3816799
  51.9138495  55.5154089  11.8330202  50.0723731  59.3764342   1.7162864
  50.9841587  59.6091728   1.5410562  49.5633378  59.9601386   1.1537943
  42.8809159  61.6559829  16.7551995  43.6223843  62.1944873  16.4786819
  42.1746144  62.2826118  16.9123547  48.3564498  63.7988969  15.3524157
  48.7647854  63.3571380  14.6078789  47.6341760  63.2241597  15.6058350
  44.7095568  58.7361576  12.7257714  45.5556763  59.1600990  12.8692363
  44.6494206  58.0795201  13.4196277  48.6793313  64.3590160   9.1076446
  48.0502175  64.5235874   8.4052513  48.2918975  64.7731770   9.8787410
  52.5582545  65.2944598   6.4620809  51.8733583  65.6743499   5.9117843
  52.6426394  65.9039925   7.1952757  47.8595014  56.3965945  14.3838887
  47.6155946  57.1508005  13.8473163  48.1354944  56.7751292  15.2186134
  49.8133476  62.9404557  13.0616153  50.0250372  63.5836317  12.3850534
  49.7663225  62.1066873  12.5938083  47.4159705  55.5522378   9.9652725
  46.5544184  55.8503631  10.2569463  47.4422140  55.7692776   9.0333758
  44.2321275  64.0964568   6.3726531  44.6959620  64.3752271   5.5831153
  43.9678073  63.1948013   6.1899621  41.1245356  63.6436050   9.3106294
  41.6946713  64.0723318   8.6723778  41.7153468  63.3618634  10.0090480
  43.1690161  60.2187721   3.1816096  43.8714204  60.6708764   3.6490022
  42.8370789  59.5771539   3.8095989  41.6170522  58.8099477  17.5567305
  40.9869183  59.4915758  17.7902702  41.5106610  58.6982559  16.6120443
  36.9115495  58.4771273   8.4833229  36.1214549  58.7328802   8.0073340
  37.4026742  59.2919611   8.5885270  50.9279304  65.8176512  11.2338510
  51.7496748  65.4156700  10.9521192  50.9241707  65.7144747  12.1854626
  38.8630240  58.8415852   5.4416706  38.0661403  58.9534547   5.9600202
  38.6355832  59.1802505   4.5757597  44.6935908  65.3660556  13.3899221
  44.7580340  65.8280963  14.2257393  43.9846832  64.7357921  13.5181531
  35.1953198  58.7301764  10.9148220  35.4461236  59.6148774  11.1805796
  35.7312746  58.5506365  10.1423312  59.0185297  62.1615261   7.5823482
  58.2649006  61.5922659   7.4267486  59.1532839  62.1277925   8.5294116
  44.4083925  67.0328663   3.2578201  44.2729600  67.8780199   3.6863049
  44.9493738  67.2347941   2.4944135  40.8951265  53.1120243  19.9192556
  40.5018211  52.5586442  20.5940201  41.7117405  53.4230821  20.3099074
  37.8613323  64.5504101   3.8306126  38.3737843  65.3447351   3.9811691
  38.5136036  63.8530392   3.7639728  39.6708208  67.6669857   5.9128879
  39.8474836  68.5887822   5.7249863  40.4665041  67.3528277   6.3423259
  43.8119226  54.5278122  17.5112813  44.5528939  55.1285275  17.4317275
  44.0437149  53.7855760  16.9530855  38.9560564  59.7134489  15.7891043
  38.8414079  58.8119747  16.0898141  38.1005082  59.9598186  15.4375859
  46.0352402  67.6552230  17.3878543  45.5916256  66.8688608  17.0699448
  46.6969615  67.8431380  16.7222434  40.7939523  69.1848031  11.9139222
  41.3446948  69.0565095  11.1416216  39.9550999  69.4842920  11.5634114
  48.1333640  67.9355030  15.4159944  48.1152115  68.7563911  14.9240214
  49.0553560  67.8109105  15.6410086  44.5906694  65.4499159  16.2583453
  45.1235031  64.6887447  16.0282761  44.0620775  65.1572811  17.0007607
  47.7576389  50.5559225  11.7877095  47.4140658  51.4460867  11.7116205
  48.1255352  50.3660883  10.9246680  35.8262240  62.8792755   4.6065697
  36.6637462  63.2889764   4.3899404  36.0040507  61.9392198   4.5765891
  47.7226672  60.5467836   0.2949530  47.2073295  61.3172441   0.5337917
  47.4503980  59.8732972   0.9182591  45.3073783  55.3917537   5.3534768
  44.4515379  55.0024387   5.1740407  45.7200735  55.4709498   4.4934554
  46.8372929  52.9263880   9.7526328  46.3337725  52.8894015   8.9394133
  47.1303536  53.8356623   9.8122984  43.0815815  53.0102610   8.7592510
  43.9468812  52.8145419   8.3998399  43.1493324  52.7812962   9.6861866
  52.6960946  63.3000191   2.2302703  51.9190389  62.9611350   1.7857865
  53.3752427  63.3052814   1.5557668  47.5112975  58.4194928   2.1209311
  47.2063110  58.7341077   2.9719454  48.4643417  58.4976348   2.1636644
  45.9559407  64.5785152   3.7702265  45.4280768  63.8437911   3.4575502
  45.4546909  65.3559828   3.5242233  50.9352253  62.7734172   8.8869311
  50.2775927  63.4633433   8.9749440  51.7392652  63.1630604   9.2303297
  40.6878134  55.2404818   6.1308876  41.2621886  55.0179999   5.3982069
  41.2749117  55.3093512   6.8837478  49.7457712  61.1278545   6.9373253
  50.2589593  61.7608537   7.4394963  50.3958935  60.5279740   6.5716613
  41.0147721  57.2709279   0.1504762  40.1785034  57.6083965   0.4714036
  40.8752491  57.1358259  -0.7868101  42.9900802  52.1146067   4.8583946
  42.3365214  51.7995084   4.2340561  42.9481276  51.4921807   5.5843769
  44.1012007  62.3965362  -3.2262762  43.1939069  62.1654615  -3.0271613
  44.5983039  61.6002981  -3.0388781  47.0080086  71.1062869  -0.3066076
  46.3341785  71.4094566   0.3018882  47.3945908  71.9091949  -0.6560619
  46.2238542  58.6028000   9.1831593  45.3061104  58.8242947   9.0253281
  46.6398686  58.6774311   8.3243301  47.0073590  60.0019416   4.3134274
  47.7545409  60.5140813   4.0041396  47.2765180  59.6803469   5.1738667
  45.2800240  62.4977957   1.2961228  44.3711460  62.2136989   1.3933698
  45.3095324  62.9177035   0.4364535  50.5119508  66.1084546   5.0652395
  50.0581835  65.2675456   5.1217586  49.8813474  66.7445945   5.4027176
  49.4552427  57.0376532   6.2953063  48.7175184  56.5253918   6.6263306
  49.7079201  56.5976914   5.4836340  48.9552447  67.9461043   6.0002214
  49.2475421  68.5066100   5.2814579  49.4651068  68.2389604   6.7555373
  49.5564055  49.8152784   6.8894832  49.8622931  48.9550148   6.6020747
  50.2816659  50.4070404   6.6893826  35.8488411  60.2183471   5.2776430
  35.6512811  59.6252832   4.5527497  35.2935075  59.9135681   5.9952369
  43.8285134  60.1106577   7.3971023  43.8833744  59.1580414   7.3213500
  43.0176336  60.2666016   7.8812322  44.9776328  64.0386700  -1.3650694
  44.5395758  63.3222559  -1.8245056  45.7186769  64.2662815  -1.9265602
  41.7677494  58.7283637   5.1561402  40.9545360  59.0277808   5.5626594
  42.2636489  58.3339326   5.8735884  43.9186072  68.7241394   7.0895667
  43.8762251  68.9502240   6.1604199  44.8348771  68.4904769   7.2381468
  47.3651706  59.1925461  13.9876296  47.7201094  59.4196935  14.8470762
  48.0123837  59.5243838  13.3653551  53.0949443  62.3143897   4.6925625
  52.9567342  62.5045493   3.7646814  52.7385662  63.0763280   5.1493676
  41.2591569  56.3001993  10.7722637  41.8990948  56.1590752  10.0745600
  40.4269100  56.0136506  10.3961239  53.1218823  64.3820424   9.7036897
  53.5555329  64.2895713  10.5519951  53.8350403  64.3577925   9.0656913
  42.0351873  65.6004423   6.8857630  42.8292471  65.1054743   6.6840205
  41.3243565  65.0722286   6.5225335  46.8546717  67.9822518  11.2369997
  46.9083740  68.5513455  12.0047713  45.9861499  68.1524404  10.8724034
  38.3434636  59.7447505   2.9617382  37.4132225  59.6831960   3.1787344
  38.4392108  59.2223457   2.1654023  38.2620186  56.2702318   5.5495624
  38.5227003  57.1847651   5.4404784  39.0837358  55.8026760   5.6992237
  39.7345111  57.6840075  12.7194448  40.4068164  57.4757437  12.0707097
  38.9074897  57.4862161  12.2799681  53.9834372  64.4244125  12.2369782
  54.1770262  65.3289936  12.4829057  53.8834990  63.9651544  13.0708367
  45.6370683  54.3102016  14.7360109  44.9898598  55.0091965  14.6424586
  46.4071698  54.7438160  15.1036357  49.0449481  64.5750868  17.8110663
  48.8934987  64.3461419  16.8940746  49.0354160  65.5321469  17.8242008
  45.8134817  62.1482781  12.7956929  46.7426877  62.2993940  12.6225896
  45.3925847  62.2366801  11.9405576  44.6123149  66.1733445  10.5655467
  44.4734235  65.8052229  11.4381405  43.8237745  66.6881084  10.3939424
  45.2071301  71.2742541   1.9081003  45.3823057  70.8030585   2.7226626
  44.5204089  71.9008308   2.1362264  46.1628364  65.5515048   7.9544304
  45.8278197  65.5115818   8.8501954  45.6632310  64.8859764   7.4814715
  40.1372608  60.9582678  13.4796886  39.9992406  60.2262917  14.0808425
  41.0477532  60.8691578  13.1981073  49.0987556  62.8971082  -1.7718636
  48.4816726  62.1717910  -1.8685583  48.6304044  63.6580442  -2.1151562
  42.7654909  60.6702637  12.9680565  43.4754527  60.0295829  12.9267184
  42.7224217  60.9215532  13.8906746  50.7541687  67.6069990  15.8887144
  50.6954234  66.9229210  15.2217727  51.1561206  68.3488980  15.4367770
  41.4783843  57.6567855  14.7876205  40.9421200  57.2058593  15.4397801
  40.8900551  57.7913764  14.0446669  39.7732386  74.4231904   8.6820863
  40.0128984  75.0550428   9.3599882  38.9301583  74.0719944   8.9686223
  50.7559095  65.5709574  14.1201124  49.8685873  65.2335496  14.2427523
  51.3257646  64.8392606  14.3569890  32.4088242  61.9033666   7.4444176
  33.0959282  61.5895396   6.8565191  32.2536371  62.8075031   7.1711427
  37.2122964  56.7923863  11.8729199  37.1281153  56.1849532  11.1379609
  36.3905670  57.2832881  11.8738696  44.2860248  70.2311027  11.0862367
  44.2130420  71.0365998  11.5981672  43.8437641  70.4302992  10.2610389
  44.0750028  69.4682797   4.5965189  43.2917550  70.0104477   4.6903413
  44.7742773  69.9856776   4.9959430  47.3846678  55.2777426   7.2399394
  47.8815377  54.5247388   6.9200464  46.6133659  55.3141743   6.6742604
  55.2376435  60.9817792   8.8817686  55.2266311  61.8642507   8.5111619
  54.3693815  60.6289342   8.6872223  46.7458932  70.1297861  13.2420526
  47.4586904  70.7645325  13.1696427  46.2548960  70.2261727  12.4260528
  48.4676459  64.0349113   4.8137818  47.5332737  64.1550576   4.6442522
  48.6453127  63.1321580   4.5497827  43.9681647  57.4194809   6.9671079
  43.5979434  56.8665849   7.6551984  44.4640739  56.8152943   6.4146079
  51.8549010  59.8766433   5.3487852  52.3209462  60.7094424   5.2748154
  52.3056510  59.4111414   6.0533110  41.7970845  67.8792304  14.0626097
  42.4980305  68.5128787  14.2155491  41.3265960  68.2207036  13.3021736
  49.9225241  66.2210254   2.3474004  50.1985085  66.1066848   3.2567878
  49.0529740  65.8227739   2.3086177  49.8265673  52.2447020   9.3878753
  48.9128752  52.4751246   9.5560960  50.2558774  52.3285464  10.2392785
  49.5972131  60.4336912  11.8878647  48.9443581  60.6812819  11.2331100
  49.9752511  59.6201050  11.5541124  46.5579305  70.4696605   5.9906817
  46.7401700  69.6518261   6.4534570  47.3812291  70.6864297   5.5531707
  46.8921471  69.3964790   3.2521866  47.4209237  68.8857244   2.6392028
  47.1549690  69.0807320   4.1167399  45.6459704  61.1756723  18.3744684
  44.9700341  61.0750852  19.0447059  46.4687338  61.0195936  18.8380681
  37.3938563  67.4128659  10.9957199  37.9792000  66.6672347  11.1285104
  37.1963402  67.7232616  11.8793863  40.2477218  70.4479907   6.0119642
  39.5787594  70.9326034   5.5283682  40.1090088  70.6949127   6.9263020
  31.9856218  59.9834259   9.7161643  32.0240317  59.4497850  10.5098761
  31.4796511  59.4569465   9.0972620  44.3882487  72.4823650  12.6102300
  44.9400795  72.6455272  13.3751385  44.7288680  73.0728088  11.9382325
  39.3646980  54.8298800  13.2124185  39.4288307  55.6913631  12.8001583
  39.3014101  54.2172802  12.4796543  38.8399253  56.9021932  16.8597219
  39.4671292  56.5199010  17.4734744  37.9827172  56.6836134  17.2252912
  49.2393361  67.3084908  18.4650955  49.7833265  67.9214866  17.9705909
  48.6580206  67.8664486  18.9817968  35.6164796  58.7098362   2.7915574
  35.9118237  57.8009040   2.7382628  34.7152831  58.6886101   2.4696576
  47.5250874  70.4305626   9.5965982  47.4002014  69.6295365   9.0876928
  48.1829965  70.9251819   9.1079952  39.1459043  56.7854358   8.7743123
  38.4245628  57.3990326   8.6350596  39.9352298  57.3212123   8.6959769
  49.5885783  68.2314646  11.2245532  48.6416118  68.1119997  11.1523859
  49.9368556  67.3437144  11.3071794  41.9485356  54.1208785  15.0483774
  42.4719758  54.3671081  15.8110084  41.7297689  54.9528819  14.6286912
  37.3452637  56.3912459   2.9154899  37.0165343  55.5109838   2.7330005
  37.6992008  56.3360128   3.8031288  46.5932216  68.0267362   7.4249885
  46.4457178  67.0984069   7.6057455  47.4185710  68.0487453   6.9406960
  40.4594460  56.6785429   3.2830377  40.7990533  57.2071350   2.5608985
  40.9066581  57.0165835   4.0588943  50.1966338  68.8495921   8.5114757
  51.1212885  68.6438782   8.3739209  50.0281641  68.6012322   9.4204099
  43.1537901  55.0622480  12.7333445  42.8134721  54.2630293  13.1354125
  42.4476907  55.3624191  12.1610278  43.8054373  52.1471792  11.1860768
  44.6280442  51.6732270  11.0639658  44.0492436  52.9262276  11.6859454
  42.4462607  55.1760051   1.4823670  43.1670970  55.5541303   0.9787386
  41.8227912  55.8948927   1.5858648  46.5893730  55.8805200   2.4182002
  46.8057345  56.7629837   2.1170830  46.1087797  55.4891413   1.6887644
  41.3292952  58.8390913   8.9952747  41.1837532  59.1531216   9.8877028
  40.8518155  59.4575813   8.4423645  43.1889335  55.8293461   9.0433636
  43.1750903  54.9334554   8.7065934  43.9061763  55.8364125   9.6771922
  45.0415465  56.2630801  11.0886764  44.7833243  57.1847872  11.0871094
  44.5100506  55.8661236  11.7787228  49.9861654  69.3681588   3.8676849
  50.1598532  68.8028011   3.1150701  50.4790545  70.1682483   3.6856339
  35.8038614  61.3796257  11.9340408  35.2592082  62.1556065  12.0660682
  36.6817964  61.7267062  11.7759529  42.5926231  54.7107841   4.3121206
  42.7142142  53.7824487   4.5112094  42.3028273  54.7246527   3.3999522
  45.4617421  52.3962751   7.4487926  45.4839118  52.4602085   6.4939906
  45.8785480  51.5567260   7.6428432  55.8401045  62.1318011   5.4867149
  56.2832191  61.3825336   5.0886272  54.9627556  62.1228147   5.1040881
  50.9736827  68.6848352   0.9673747  51.6687731  69.3055045   1.1861062
  51.3159977  67.8343704   1.2426125  36.5904636  60.5066153  14.8270565
  35.8486372  60.6548789  15.4135195  36.2697380  60.7674419  13.9637314
  52.8728250  66.1348058   2.4961078  53.3979574  66.4735331   1.7710398
  52.7850602  65.1995073   2.3124213  44.5348298  70.0482132  14.6250955
  44.8435425  69.8031278  15.4973654  45.3323780  70.2528770  14.1369825
  44.5568910  72.2020041   6.8556331  44.1173901  71.7096420   7.5489188
  45.3077027  71.6593009   6.6148406  37.0361249  68.3931582   6.8580959
  37.8619269  68.0935354   6.4779603  36.6855301  67.6239205   7.3070748
  42.0042783  67.7458050   8.9278633  41.3822792  67.0828755   8.6280861
  42.6747649  67.7719182   8.2452281  35.2369854  66.3117909   7.8169893
  34.4001763  65.8840083   7.6353894  35.2093500  66.5050352   8.7540684
  42.0767310  56.2239838  18.5211139  42.1255466  57.1001961  18.1388908
  42.6189824  55.6817231  17.9482782  52.5622156  66.7680962  17.8012276
  51.7717699  66.7505101  17.2616775  52.3255510  67.3069255  18.5561313
  52.6820031  63.6173428  15.1145004  52.7318036  63.4523435  16.0560527
  52.5733954  62.7500687  14.7242885  41.5656289  66.2961974   2.4037093
  41.7144410  66.9797438   1.7503766  42.3722733  66.2767064   2.9186549
  49.9723793  59.6004356  16.4304311  50.8733656  59.4610821  16.1388309
  50.0471768  59.7658811  17.3702489  44.3066598  56.9771211  15.2757497
  43.4369908  57.2704777  15.0040086  44.5426079  57.5611656  15.9964761
  54.1838228  66.0370370  15.3587026  53.8923036  66.4000350  16.1950487
  53.5710359  65.3237378  15.1800358  55.3833910  63.6023249   7.8789596
  56.2180801  64.0413053   8.0427157  55.5193039  63.1261903   7.0597842
  52.4325416  61.1602984  13.8267084  52.9079537  61.3530630  13.0185935
  51.5090981  61.2162170  13.5810468  39.3208922  62.3227151   3.4098162
  39.0754964  61.4189481   3.6078372  39.4904837  62.3244302   2.4677640
  47.0105632  53.1950828  12.7922918  47.5287576  53.9311855  12.4669406
  46.6560765  53.5014821  13.6269677  38.5904570  58.0555509   0.9084324
  37.8973815  58.1299864   0.2524360  38.3456322  57.2915853   1.4305841
  47.2618226  49.6151110   8.3123814  47.5419980  48.9474299   8.9384241
  48.0468833  49.8080206   7.7998478  45.0651695  68.7910104  -0.1251159
  44.4925662  69.4100291  -0.5780687  45.6384489  69.3409466   0.4088763
  51.1327085  58.0368744  12.0595390  52.0844508  58.1366842  12.0807614
  50.9630535  57.2447013  12.5693474  49.1541464  55.1224327  12.2454791
  48.5591396  55.4029340  11.5501279  48.8691161  55.6118228  13.0171532
  48.2848955  69.0747254   1.0057423  49.2179628  69.0092816   1.2090299
  48.1972168  69.9103521   0.5471956  50.9136971  68.3913125  -2.0338629
  50.8350603  68.0572988  -1.1402871  51.7346638  68.8834893  -2.0347157
  53.6115163  61.2574864  11.1737689  53.5791483  60.3190865  11.3597373
  54.2215786  61.3358901  10.4403514  45.4498493  60.1270917  -2.7835107
  46.3957598  59.9977125  -2.7146689  45.0712738  59.3885579  -2.3065679
  53.7609651  58.0485907  11.2195972  53.2448700  57.2644364  11.0325901
  54.6449600  57.7204624  11.3842492  51.4220378  51.7926923   7.1791785
  51.2245199  51.4842011   8.0635117  52.0320084  52.5188562   7.3089715
  59.4291712  62.3190871  10.3143726  60.1595101  62.0576159  10.8751429
  58.8198658  61.5819593  10.3545794  57.5107010  60.4598733  10.9118177
  56.7840173  60.3254698  10.3034669  57.0954296  60.7675562  11.7174895
  45.3337186  64.1788663  18.6765550  46.2540195  64.3567262  18.8705597
  45.2986769  63.2344708  18.5245250  43.6341411  58.0520893  -2.8480221
  42.7272866  57.7554006  -2.7717508  43.9117392  57.7550711  -3.7145935
  34.5519351  59.3727257   7.6018825  34.2322135  58.5192565   7.3093199
  34.0052779  59.5875835   8.3576792  38.3299259  62.0889698  11.3188331
  38.5485268  63.0206806  11.3376365  38.7425032  61.7297672  12.1043135
  45.2503476  52.5957783   3.3064020  44.4404205  52.2504868   3.6819266
  45.9387893  52.2865327   3.8951631  47.1794025  51.6735830   4.9288316
  47.7325063  52.0931283   5.5878340  47.4164111  50.7471578   4.9711272
  43.2027124  57.6622903  20.7091080  43.1023851  58.6117260  20.6403171
  42.9848666  57.3341142  19.8367150  34.4207611  62.9930168   9.5711946
  33.7271082  62.5784121   9.0581901  35.1680602  63.0350705   8.9745365
  50.5572832  53.7836355   4.4366981  49.9771501  54.4421159   4.0545033
  50.2908764  52.9613700   4.0254398  49.0076398  53.1841413   6.6388301
  49.5076176  53.2957947   5.8302620  49.6512006  52.8802466   7.2789109
  43.0658394  61.0920042  19.5256142  42.5825476  61.8920402  19.7320031
  43.1519333  61.1027987  18.5723586  36.3344354  62.9248422   7.4477961
  36.3115042  63.0236109   6.4959844  36.6444990  63.7713573   7.7695127
  38.9931731  64.9824577  11.5624576  39.9474985  64.9508519  11.4954507
  38.7944255  64.5215201  12.3774802  39.5831114  63.5525693  14.1295373
  40.4024003  64.0469772  14.1530211  39.8567921  62.6357661  14.1012941
  49.3397710  55.9436445   3.4923329  48.4523565  56.2286096   3.2743524
  49.7551699  55.7830209   2.6450606  52.6912246  55.9682966   7.2077668
  53.4672636  56.4579419   7.4802285  51.9660380  56.3941021   7.6649538
  55.1284805  56.6810586   8.2651609  55.7229295  56.4406322   7.5544917
  55.2011388  55.9617716   8.8925145  37.3481960  70.5244197   8.5794774
  37.2136428  69.7644597   8.0132772  36.9314022  71.2485096   8.1123563
  48.4840923  65.7081120  -2.4128651  49.1876773  65.9131123  -1.7970995
  47.7603572  66.2757882  -2.1479568  49.3138734  61.4590981   3.7073619
  49.2573935  61.9159533   2.8681252  49.8667076  60.6981666   3.5296462
  53.1243539  57.2480713   4.5323739  52.8680474  56.8477349   5.3631946
  52.4996407  57.9624507   4.4073878  57.4355877  59.9876786   7.0395030
  56.8755435  60.0569976   7.8126592  56.8299381  59.8117771   6.3194526
  40.5051086  71.4213514   8.7913216  40.3883470  72.3658946   8.6891907
  39.6843532  71.1187075   9.1799016  50.3927621  66.1463649  -0.3630191
  51.2273225  65.7144848  -0.5452716  50.2311964  65.9745663   0.5646703
  50.0473513  62.6495763   1.0026148  49.9922317  62.4840034   0.0614592
  49.4219568  63.3571795   1.1588338  34.8366028  57.8863827  14.8287571
  35.4824891  57.3762781  15.3174796  34.6283179  58.6232509  15.4030996
  47.3619420  64.9544674  20.3279711  48.2310580  65.1285327  19.9666346
  46.8826171  65.7739091  20.2055440  43.3569638  52.1503872   0.5811467
  43.3448308  53.0945711   0.7379738  44.2493060  51.9674017   0.2870928
  41.5305600  72.0741775  12.0069145  42.4332847  72.1065386  12.3235640
  41.3042970  71.1442226  12.0215481  43.2859202  70.8272762   8.6679223
  42.3354833  70.8274624   8.5543596  43.5891688  70.0805497   8.1515258
  47.1721758  48.7446648   4.8357403  46.4054154  48.1905135   4.9814086
  47.5832463  48.8168517   5.6971555  39.1763519  55.0331444  18.9262585
  40.0394980  54.6768249  19.1365909  38.6028929  54.6945339  19.6137989
  59.0211896  76.6633300   9.7324986  59.6590306  76.5440048   9.0288326
  58.9032739  77.6114144   9.7912938  55.8301602  76.6160728   9.6686510
  55.4920114  76.5001793   8.7807045  56.6991370  76.2151894   9.6487517
  51.6888418  78.4696205   5.6583401  51.1253283  78.3786142   4.8899689
  51.5740813  77.6496109   6.1385894  56.3121385  77.7695580  15.6272716
  56.3010026  77.3748378  14.7553220  56.4742024  77.0361653  16.2206487
  49.2352850  79.9647396   8.4967622  50.0274142  79.6238221   8.0813921
  49.4749500  80.0742372   9.4169775  57.2687976  82.1367173   0.9697866
  56.6175956  82.7221253   0.5831880  58.0632339  82.6673367   1.0292904
  51.1943604  79.2256310   1.3685001  51.9674480  78.6785297   1.2297876
  51.5469002  80.0900559   1.5799462  53.0328646  80.5532692  14.5751900
  52.7418512  81.4578323  14.4598566  53.6685630  80.5949220  15.2895970
  53.9584853  77.9309541  11.1653260  54.5548425  77.7065563  10.4510223
  54.0159825  77.1894286  11.7678707  53.5309881  75.3848976  -0.9996549
  53.7835402  74.8630497  -1.7613086  52.5934440  75.2215121  -0.8969866
  58.5753164  74.3884754   6.8078194  59.3616253  73.9704177   6.4568611
  58.8391869  75.2930846   6.9759842  58.7463242  79.8257605   1.5066851
  58.1109075  79.8992231   2.2187755  58.4160648  80.4151203   0.8285930
  63.9761591  74.3259987   7.7111172  64.7086763  73.7559204   7.9449002
  63.2200947  73.9381588   8.1517678  53.2506170  77.2877082   1.2027826
  53.1342428  76.6121985   1.8708910  53.3608430  76.8009456   0.3859979
  55.5937711  76.7487229   4.9074515  55.2295918  76.2217850   5.6187436
  56.4504827  76.3585698   4.7341000  61.4987012  68.0381562  12.1705781
  61.1670336  68.9076972  11.9466996  60.9032625  67.7217846  12.8499811
  55.2343198  71.7777129  -0.0964137  55.4017600  72.6457365   0.2706334
  55.0440367  71.9404410  -1.0202847  57.9918531  80.2394108  11.5701694
  57.6919254  81.1419146  11.4617501  57.6469591  79.9726291  12.4222847
  51.4431013  76.6907904   7.6038398  50.5181509  76.5584118   7.8116090
  51.6915426  77.4702124   8.1008340  61.3915675  72.7576648   9.2499131
  60.4832552  72.6892056   8.9557892  61.3403271  73.2348593  10.0780956
  55.2132419  74.2334786   0.8882530  55.0932044  74.6791837   1.7268010
  54.5185007  74.5820104   0.3296068  48.8039824  76.3341178   8.4382187
  48.9332205  76.5875657   9.3521599  48.1237275  76.9268886   8.1186842
  52.9739311  87.0038428   4.5372661  52.8963341  87.9546253   4.6161142
  52.3700955  86.6584300   5.1947588  55.4656541  74.1766293  17.1934028
  54.6889875  74.7360213  17.1836893  56.1047104  74.6623076  17.7148898
  63.2577321  70.9593086  11.0277005  62.6151702  71.2525619  10.3816799
  62.7532250  70.8446006  11.8330202  60.9117485  74.7056259   1.7162864
  61.8235341  74.9383646   1.5410562  60.4027132  75.2893303   1.1537943
  53.7202913  76.9851747  16.7551995  54.4617597  77.5236791  16.4786819
  53.0139899  77.6118035  16.9123547  59.1958253  79.1280887  15.3524157
  59.6041609  78.6863298  14.6078789  58.4735514  78.5533515  15.6058350
  55.5489323  74.0653494  12.7257714  56.3950518  74.4892907  12.8692363
  55.4887960  73.4087118  13.4196277  59.5187067  79.6882078   9.1076446
  58.8895930  79.8527792   8.4052513  59.1312729  80.1023687   9.8787410
  63.3976299  80.6236516   6.4620809  62.7127337  81.0035417   5.9117843
  63.4820149  81.2331842   7.1952757  58.6988768  71.7257862  14.3838887
  58.4549700  72.4799923  13.8473163  58.9748699  72.1043210  15.2186134
  60.6527231  78.2696475  13.0616153  60.8644126  78.9128235  12.3850534
  60.6056979  77.4358791  12.5938083  58.2553460  70.8814295   9.9652725
  57.3937939  71.1795549  10.2569463  58.2815895  71.0984694   9.0333758
  55.0715029  79.4256486   6.3726531  55.5353375  79.7044189   5.5831153
  54.8071827  78.5239930   6.1899621  51.9639110  78.9727967   9.3106294
  52.5340467  79.4015236   8.6723778  52.5547222  78.6910552  10.0090480
  54.0083915  75.5479638   3.1816096  54.7107959  76.0000682   3.6490022
  53.6764544  74.9063457   3.8095989  52.4564277  74.1391395  17.5567305
  51.8262937  74.8207676  17.7902702  52.3500365  74.0274476  16.6120443
  47.7509249  73.8063191   8.4833229  46.9608303  74.0620719   8.0073340
  48.2420497  74.6211529   8.5885270  61.7673059  81.1468430  11.2338510
  62.5890503  80.7448617  10.9521192  61.7635462  81.0436664  12.1854626
  49.7023995  74.1707770   5.4416706  48.9055158  74.2826464   5.9600202
  49.4749587  74.5094422   4.5757597  55.5329662  80.6952473  13.3899221
  55.5974095  81.1572881  14.2257393  54.8240586  80.0649838  13.5181531
  46.0346952  74.0593681  10.9148220  46.2854991  74.9440691  11.1805796
  46.5706501  73.8798283  10.1423312  69.8579052  77.4907179   7.5823482
  69.1042760  76.9214577   7.4267486  69.9926593  77.4569843   8.5294116
  55.2477680  82.3620581   3.2578201  55.1123355  83.2072117   3.6863049
  55.7887492  82.5639858   2.4944135  51.7345020  68.4412161  19.9192556
  51.3411965  67.8878359  20.5940201  52.5511160  68.7522739  20.3099074
  48.7007077  79.8796019   3.8306126  49.2131598  80.6739269   3.9811691
  49.3529790  79.1822309   3.7639728  50.5101962  82.9961775   5.9128879
  50.6868590  83.9179740   5.7249863  51.3058796  82.6820194   6.3423259
  54.6512981  69.8570040  17.5112813  55.3922694  70.4577193  17.4317275
  54.8830903  69.1147678  16.9530855  49.7954319  75.0426407  15.7891043
  49.6807834  74.1411664  16.0898141  48.9398836  75.2890104  15.4375859
  56.8746156  82.9844147  17.3878543  56.4310011  82.1980526  17.0699448
  57.5363370  83.1723298  16.7222434  51.6333277  84.5139949  11.9139222
  52.1840703  84.3857012  11.1416216  50.7944753  84.8134838  11.5634114
  58.9727394  83.2646947  15.4159944  58.9545870  84.0855828  14.9240214
  59.8947314  83.1401022  15.6410086  55.4300449  80.7791077  16.2583453
  55.9628785  80.0179365  16.0282761  54.9014530  80.4864729  17.0007607
  58.5970144  65.8851143  11.7877095  58.2534413  66.7752784  11.7116205
  58.9649106  65.6952800  10.9246680  46.6655994  78.2084673   4.6065697
  47.5031216  78.6181682   4.3899404  46.8434262  77.2684115   4.5765891
  58.5620426  75.8759754   0.2949530  58.0467050  76.6464358   0.5337917
  58.2897735  75.2024890   0.9182591  56.1467537  70.7209455   5.3534768
  55.2909134  70.3316305   5.1740407  56.5594489  70.8001415   4.4934554
  57.6766684  68.2555798   9.7526328  57.1731479  68.2185933   8.9394133
  57.9697291  69.1648541   9.8122984  53.9209570  68.3394528   8.7592510
  54.7862567  68.1437336   8.3998399  53.9887079  68.1104879   9.6861866
  63.5354700  78.6292108   2.2302703  62.7584143  78.2903268   1.7857865
  64.2146181  78.6344732   1.5557668  58.3506729  73.7486846   2.1209311
  58.0456865  74.0632995   2.9719454  59.3037172  73.8268266   2.1636644
  56.7953161  79.9077069   3.7702265  56.2674523  79.1729829   3.4575502
  56.2940664  80.6851746   3.5242233  61.7746007  78.1026090   8.8869311
  61.1169682  78.7925351   8.9749440  62.5786406  78.4922522   9.2303297
  51.5271889  70.5696736   6.1308876  52.1015641  70.3471917   5.3982069
  52.1142871  70.6385430   6.8837478  60.5851466  76.4570462   6.9373253
  61.0983348  77.0900454   7.4394963  61.2352690  75.8571658   6.5716613
  51.8541476  72.6001197   0.1504762  51.0178788  72.9375883   0.4714036
  51.7146246  72.4650176  -0.7868101  53.8294557  67.4437984   4.8583946
  53.1758969  67.1287002   4.2340561  53.7875031  66.8213725   5.5843769
  54.9405761  77.7257279  -3.2262762  54.0332823  77.4946533  -3.0271613
  55.4376793  76.9294899  -3.0388781  57.0632297  73.9319918   9.1831593
  56.1454858  74.1534865   9.0253281  57.4792441  74.0066228   8.3243301
  57.8467345  75.3311334   4.3134274  58.5939164  75.8432731   4.0041396
  58.1158934  75.0095386   5.1738667  56.1193995  77.8269874   1.2961228
  55.2105214  77.5428907   1.3933698  56.1489079  78.2468953   0.4364535
  61.3513262  81.4376464   5.0652395  60.8975589  80.5967374   5.1217586
  60.7207229  82.0737862   5.4027176  60.2946182  72.3668450   6.2953063
  59.5568939  71.8545836   6.6263306  60.5472955  71.9268831   5.4836340
  59.7946202  83.2752961   6.0002214  60.0869176  83.8358018   5.2814579
  60.3044822  83.5681522   6.7555373  60.3957809  65.1444702   6.8894832
  60.7016686  64.2842065   6.6020747  61.1210414  65.7362322   6.6893826
  46.6882165  75.5475388   5.2776430  46.4906565  74.9544749   4.5527497
  46.1328829  75.2427599   5.9952369  54.6678889  75.4398495   7.3971023
  54.7227499  74.4872331   7.3213500  53.8570091  75.5957934   7.8812322
  55.8170083  79.3678618  -1.3650694  55.3789513  78.6514477  -1.8245056
  56.5580524  79.5954733  -1.9265602  52.6071249  74.0575555   5.1561402
  51.7939114  74.3569725   5.5626594  53.1030243  73.6631243   5.8735884
  54.7579827  84.0533312   7.0895667  54.7156006  84.2794158   6.1604199
  55.6742526  83.8196686   7.2381468  58.2045461  74.5217379  13.9876296
  58.5594848  74.7488852  14.8470762  58.8517592  74.8535756  13.3653551
  63.9343197  77.6435815   4.6925625  63.7961096  77.8337411   3.7646814
  63.5779416  78.4055198   5.1493676  52.0985324  71.6293910  10.7722637
  52.7384703  71.4882669  10.0745600  51.2662854  71.3428424  10.3961239
  63.9612577  79.7112342   9.7036897  64.3949084  79.6187631  10.5519951
  64.6744158  79.6869843   9.0656913  52.8745627  80.9296341   6.8857630
  53.6686226  80.4346661   6.6840205  52.1637320  80.4014204   6.5225335
  57.6940472  83.3114436  11.2369997  57.7477494  83.8805372  12.0047713
  56.8255253  83.4816321  10.8724034  49.1828391  75.0739422   2.9617382
  48.2525979  75.0123878   3.1787344  49.2785863  74.5515375   2.1654023
  49.1013940  71.5994235   5.5495624  49.3620757  72.5139568   5.4404784
  49.9231112  71.1318678   5.6992237  50.5738865  73.0131992  12.7194448
  51.2461919  72.8049355  12.0707097  49.7468652  72.8154078  12.2799681
  64.8228127  79.7536043  12.2369782  65.0164017  80.6581853  12.4829057
  64.7228745  79.2943462  13.0708367  56.4764437  69.6393933  14.7360109
  55.8292352  70.3383883  14.6424586  57.2465453  70.0730077  15.1036357
  59.8843235  79.9042785  17.8110663  59.7328742  79.6753337  16.8940746
  59.8747915  80.8613387  17.8242008  56.6528572  77.4774698  12.7956929
  57.5820632  77.6285858  12.6225896  56.2319602  77.5658719  11.9405576
  55.4516903  81.5025363  10.5655467  55.3127989  81.1344147  11.4381405
  54.6631500  82.0173002  10.3939424  56.0465055  86.6034459   1.9081003
  56.2216811  86.1322502   2.7226626  55.3597843  87.2300225   2.1362264
  57.0022119  80.8806965   7.9544304  56.6671951  80.8407735   8.8501954
  56.5026064  80.2151681   7.4814715  50.9766363  76.2874595  13.4796886
  50.8386161  75.5554834  14.0808425  51.8871286  76.1983495  13.1981073
  59.9381310  78.2263000  -1.7718636  59.3210481  77.5009828  -1.8685583
  59.4697799  78.9872360  -2.1151562  53.6048663  75.9994555  12.9680565
  54.3148282  75.3587747  12.9267184  53.5617971  76.2507450  13.8906746
  61.5935442  82.9361908  15.8887144  61.5347988  82.2521128  15.2217727
  61.9954960  83.6780898  15.4367770  52.3177597  72.9859773  14.7876205
  51.7814954  72.5350511  15.4397801  51.7294306  73.1205681  14.0446669
  50.6126141  89.7523822   8.6820863  50.8522739  90.3842346   9.3599882
  49.7695337  89.4011862   8.9686223  51.7279856  72.4448424  -2.6497332
  50.8509323  72.3237225  -3.0135085  52.2037609  71.6534502  -2.9018443
  61.5952849  80.9001492  14.1201124  60.7079628  80.5627414  14.2427523
  62.1651400  80.1684523  14.3569890  43.2481996  77.2325584   7.4444176
  43.9353036  76.9187314   6.8565191  43.0930125  78.1366948   7.1711427
  48.0516718  72.1215780  11.8729199  47.9674907  71.5141450  11.1379609
  47.2299425  72.6124799  11.8738696  55.1254003  85.5602944  11.0862367
  55.0524174  86.3657916  11.5981672  54.6831396  85.7594910  10.2610389
  54.9143782  84.7974714   4.5965189  54.1311304  85.3396395   4.6903413
  55.6136527  85.3148694   4.9959430  58.2240432  70.6069344   7.2399394
  58.7209132  69.8539306   6.9200464  57.4527414  70.6433660   6.6742604
  66.0770190  76.3109709   8.8817686  66.0660066  77.1934425   8.5111619
  65.2087569  75.9581260   8.6872223  57.5852686  85.4589778  13.2420526
  58.2980658  86.0937243  13.1696427  57.0942715  85.5553644  12.4260528
  59.3070213  79.3641031   4.8137818  58.3726492  79.4842493   4.6442522
  59.4846881  78.4613498   4.5497827  54.8075401  72.7486727   6.9671079
  54.4373189  72.1957767   7.6551984  55.3034494  72.1444860   6.4146079
  62.6942764  75.2058350   5.3487852  63.1603217  76.0386342   5.2748154
  63.1450265  74.7403332   6.0533110  52.6364600  83.2084222  14.0626097
  53.3374059  83.8420705  14.2155491  52.1659715  83.5498953  13.3021736
  60.7618995  81.5502172   2.3474004  61.0378839  81.4358766   3.2567878
  59.8923494  81.1519656   2.3086177  60.6659427  67.5738937   9.3878753
  59.7522507  67.8043164   9.5560960  61.0952529  67.6577381  10.2392785
  60.4365886  75.7628829  11.8878647  59.7837336  76.0104737  11.2331100
  60.8146266  74.9492967  11.5541124  57.3973060  85.7988522   5.9906817
  57.5795454  84.9810178   6.4534570  58.2206046  86.0156215   5.5531707
  57.7315225  84.7256708   3.2521866  58.2602991  84.2149162   2.6392028
  57.9943445  84.4099238   4.1167399  56.4853459  76.5048640  18.3744684
  55.8094096  76.4042770  19.0447059  57.3081093  76.3487854  18.8380681
  48.2332318  82.7420577  10.9957199  48.8185755  81.9964265  11.1285104
  48.0357156  83.0524534  11.8793863  51.0870973  85.7771824   6.0119642
  50.4181348  86.2617952   5.5283682  50.9483843  86.0241045   6.9263020
  42.8249972  75.3126177   9.7161643  42.8634072  74.7789768  10.5098761
  42.3190265  74.7861383   9.0972620  55.2276242  87.8115568  12.6102300
  55.7794550  87.9747189  13.3751385  55.5682435  88.4020006  11.9382325
  50.2040735  70.1590718  13.2124185  50.2682061  71.0205548  12.8001583
  50.1407855  69.5464719  12.4796543  49.6793007  72.2313850  16.8597219
  50.3065046  71.8490927  17.4734744  48.8220926  72.0128052  17.2252912
  60.0787116  82.6376825  18.4650955  60.6227020  83.2506784  17.9705909
  59.4973961  83.1956404  18.9817968  46.4558550  74.0390279   2.7915574
  46.7511991  73.1300958   2.7382628  45.5546586  74.0178019   2.4696576
  58.3644629  85.7597543   9.5965982  58.2395768  84.9587283   9.0876928
  59.0223720  86.2543737   9.1079952  49.9852797  72.1146276   8.7743123
  49.2639383  72.7282243   8.6350596  50.7746053  72.6504041   8.6959769
  60.4279537  83.5606563  11.2245532  59.4809873  83.4411915  11.1523859
  60.7762310  82.6729061  11.3071794  52.7879111  69.4500702  15.0483774
  53.3113512  69.6962999  15.8110084  52.5691444  70.2820737  14.6286912
  48.1846392  71.7204377   2.9154899  47.8559098  70.8401756   2.7330005
  48.5385762  71.6652046   3.8031288  57.4325970  83.3559280   7.4249885
  57.2850933  82.4275987   7.6057455  58.2579464  83.3779370   6.9406960
  51.2988215  72.0077347   3.2830377  51.6384287  72.5363268   2.5608985
  51.7460335  72.3457753   4.0588943  61.0360092  84.1787838   8.5114757
  61.9606640  83.9730700   8.3739209  60.8675396  83.9304239   9.4204099
  53.9931656  70.3914397  12.7333445  53.6528476  69.5922210  13.1354125
  53.2870662  70.6916108  12.1610278  54.6448127  67.4763710  11.1860768
  55.4674197  67.0024188  11.0639658  54.8886191  68.2554194  11.6859454
  53.2856362  70.5051968   1.4823670  54.0064724  70.8833221   0.9787386
  52.6621666  71.2240845   1.5858648  57.4287485  71.2097117   2.4182002
  57.6451099  72.0921755   2.1170830  56.9481552  70.8183331   1.6887644
  52.1686706  74.1682830   8.9952747  52.0231287  74.4823134   9.8877028
  51.6911910  74.7867731   8.4423645  54.0283089  71.1585378   9.0433636
  54.0144658  70.2626472   8.7065934  54.7455517  71.1656042   9.6771922
  55.8809220  71.5922719  11.0886764  55.6226998  72.5139789  11.0871094
  55.3494260  71.1953153  11.7787228  60.8255409  84.6973506   3.8676849
  60.9992286  84.1319928   3.1150701  61.3184300  85.4974401   3.6856339
  46.6432368  76.7088175  11.9340408  46.0985836  77.4847983  12.0660682
  47.5211718  77.0558979  11.7759529  53.4319985  70.0399759   4.3121206
  53.5535896  69.1116405   4.5112094  53.1422027  70.0538445   3.3999522
  56.3011175  67.7254669   7.4487926  56.3232872  67.7894002   6.4939906
  56.7179234  66.8859178   7.6428432  66.6794800  77.4609929   5.4867149
  67.1225946  76.7117254   5.0886272  65.8021310  77.4520065   5.1040881
  61.8130581  84.0140270   0.9673747  62.5081486  84.6346963   1.1861062
  62.1553731  83.1635621   1.2426125  47.4298390  75.8358071  14.8270565
  46.6880126  75.9840706  15.4135195  47.1091134  76.0966337  13.9637314
  63.7122004  81.4639976   2.4961078  64.2373328  81.8027248   1.7710398
  63.6244357  80.5286991   2.3124213  55.3742053  85.3774049  14.6250955
  55.6829179  85.1323196  15.4973654  56.1717535  85.5820688  14.1369825
  55.3962665  87.5311959   6.8556331  54.9567655  87.0388338   7.5489188
  56.1470782  86.9884927   6.6148406  47.8755004  83.7223500   6.8580959
  48.7013024  83.4227272   6.4779603  47.5249056  82.9531122   7.3070748
  52.8436537  83.0749968   8.9278633  52.2216546  82.4120673   8.6280861
  53.5141404  83.1011100   8.2452281  46.0763609  81.6409826   7.8169893
  45.2395517  81.2132001   7.6353894  46.0487254  81.8342270   8.7540684
  52.9161065  71.5531756  18.5211139  52.9649220  72.4293879  18.1388908
  53.4583579  71.0109149  17.9482782  63.4015910  82.0972879  17.8012276
  62.6111454  82.0797018  17.2616775  63.1649265  82.6361173  18.5561313
  63.5213785  78.9465346  15.1145004  63.5711790  78.7815353  16.0560527
  63.4127709  78.0792605  14.7242885  52.4050044  81.6253891   2.4037093
  52.5538164  82.3089356   1.7503766  53.2116487  81.6058981   2.9186549
  60.8117548  74.9296274  16.4304311  61.7127410  74.7902739  16.1388309
  60.8865522  75.0950729  17.3702489  55.1460353  72.3063128  15.2757497
  54.2763662  72.5996695  15.0040086  55.3819833  72.8903573  15.9964761
  65.0231982  81.3662287  15.3587026  64.7316790  81.7292268  16.1950487
  64.4104113  80.6529296  15.1800358  66.2227664  78.9315167   7.8789596
  67.0574556  79.3704971   8.0427157  66.3586793  78.4553820   7.0597842
  63.2719170  76.4894902  13.8267084  63.7473292  76.6822548  13.0185935
  62.3484736  76.5454088  13.5810468  50.1602677  77.6519069   3.4098162
  49.9148719  76.7481399   3.6078372  50.3298591  77.6536219   2.4677640
  57.8499387  68.5242745  12.7922918  58.3681331  69.2603772  12.4669406
  57.4954520  68.8306739  13.6269677  49.4298324  73.3847427   0.9084324
  48.7367569  73.4591782   0.2524360  49.1850076  72.6207770   1.4305841
  58.1011981  64.9443028   8.3123814  58.3813735  64.2766217   8.9384241
  58.8862588  65.1372124   7.7998478  55.9045449  84.1202022  -0.1251159
  55.3319417  84.7392209  -0.5780687  56.4778243  84.6701384   0.4088763
  61.9720839  73.3660662  12.0595390  62.9238262  73.4658760  12.0807614
  61.8024290  72.5738930  12.5693474  59.9935219  70.4516245  12.2454791
  59.3985151  70.7321258  11.5501279  59.7084916  70.9410146  13.0171532
  59.1242709  84.4039172   1.0057423  60.0573382  84.3384734   1.2090299
  59.0365922  85.2395439   0.5471956  64.4508917  76.5866782  11.1737689
  64.4185237  75.6482782  11.3597373  65.0609541  76.6650818  10.4403514
  56.2892248  75.4562835  -2.7835107  57.2351353  75.3269043  -2.7146689
  55.9106493  74.7177497  -2.3065679  64.6003406  73.3777825  11.2195972
  64.0842454  72.5936282  11.0325901  65.4843354  73.0496542  11.3842492
  62.2614133  67.1218841   7.1791785  62.0638954  66.8133929   8.0635117
  62.8713838  67.8480480   7.3089715  70.2685467  77.6482788  10.3143726
  70.9988855  77.3868077  10.8751429  69.6592412  76.9111510  10.3545794
  68.3500764  75.7890651  10.9118177  67.6233928  75.6546616  10.3034669
  67.9348051  76.0967480  11.7174895  56.1730941  79.5080581  18.6765550
  57.0933950  79.6859180  18.8705597  56.1380524  78.5636626  18.5245250
  54.4735165  73.3812811  -2.8480221  53.5666621  73.0845924  -2.7717508
  54.7511146  73.0842629  -3.7145935  45.3913106  74.7019174   7.6018825
  45.0715890  73.8484483   7.3093199  44.8446534  74.9167753   8.3576792
  49.1693013  77.4181615  11.3188331  49.3879023  78.3498723  11.3376365
  49.5818787  77.0589590  12.1043135  56.0897231  67.9249701   3.3064020
  55.2797959  67.5796786   3.6819266  56.7781648  67.6157244   3.8951631
  58.0187779  67.0027748   4.9288316  58.5718818  67.4223201   5.5878340
  58.2557866  66.0763496   4.9711272  54.0420878  72.9914821  20.7091080
  53.9417605  73.9409178  20.6403171  53.8242420  72.6633060  19.8367150
  53.2433950  70.2399746  -2.7068242  54.1053114  70.5654645  -2.4472425
  53.4284294  69.4531242  -3.2195177  45.2601366  78.3222086   9.5711946
  44.5664837  77.9076039   9.0581901  46.0074357  78.3642622   8.9745365
  61.3966586  69.1128273   4.4366981  60.8165255  69.7713077   4.0545033
  61.1302519  68.2905617   4.0254398  59.8470153  68.5133330   6.6388301
  60.3469931  68.6249865   5.8302620  60.4905761  68.2094383   7.2789109
  53.9052148  76.4211960  19.5256142  53.4219230  77.2212320  19.7320031
  53.9913087  76.4319905  18.5723586  47.1738108  78.2540340   7.4477961
  47.1508796  78.3528027   6.4959844  47.4838745  79.1005490   7.7695127
  49.8325486  80.3116495  11.5624576  50.7868739  80.2800437  11.4954507
  49.6338010  79.8507118  12.3774802  50.4224868  78.8817611  14.1295373
  51.2417757  79.3761689  14.1530211  50.6961676  77.9649579  14.1012941
  60.1791464  71.2728363   3.4923329  59.2917319  71.5578014   3.2743524
  60.5945453  71.1122126   2.6450606  63.5306000  71.2974884   7.2077668
  64.3066391  71.7871336   7.4802285  62.8054135  71.7232938   7.6649538
  65.9678559  72.0102503   8.2651609  66.5623050  71.7698239   7.5544917
  66.0405143  71.2909634   8.8925145  48.1875715  85.8536114   8.5794774
  48.0530183  85.0936515   8.0132772  47.7707777  86.5777014   8.1123563
  59.3234678  81.0373038  -2.4128651  60.0270528  81.2423040  -1.7970995
  58.5997326  81.6049800  -2.1479568  60.1532488  76.7882899   3.7073619
  60.0967689  77.2451450   2.8681252  60.7060830  76.0273584   3.5296462
  63.9637294  72.5772631   4.5323739  63.7074228  72.1769267   5.3631946
  63.3390162  73.2916425   4.4073878  68.2749632  75.3168704   7.0395030
  67.7149190  75.3861893   7.8126592  67.6693135  75.1409689   6.3194526
  51.3444841  86.7505431   8.7913216  51.2277225  87.6950864   8.6891907
  50.5237287  86.4478993   9.1799016  61.2321375  81.4755567  -0.3630191
  62.0666979  81.0436765  -0.5452716  61.0705718  81.3037581   0.5646703
  60.8867267  77.9787680   1.0026148  60.8316071  77.8131952   0.0614592
  60.2613323  78.6863713   1.1588338  45.6759782  73.2155745  14.8287571
  46.3218646  72.7054699  15.3174796  45.4676933  73.9524426  15.4030996
  58.2013174  80.2836592  20.3279711  59.0704334  80.4577244  19.9666346
  57.7219926  81.1031009  20.2055440  54.1963393  67.4795789   0.5811467
  54.1842063  68.4237629   0.7379738  55.0886815  67.2965935   0.2870928
  52.3699355  87.4033693  12.0069145  53.2726601  87.4357303  12.3235640
  52.1436725  86.4734144  12.0215481  54.1252957  86.1564680   8.6679223
  53.1748588  86.1566541   8.5543596  54.4285443  85.4097414   8.1515258
  58.0115512  64.0738566   4.8357403  57.2447908  63.5197053   4.9814086
  58.4226217  64.1460435   5.6971555  50.0157273  70.3623362  18.9262585
  50.8788735  70.0060167  19.1365909  49.4422684  70.0237257  19.6137989
  69.8605650  91.9925218   9.7324986  70.4984060  91.8731965   9.0288326
  69.7426493  92.9406062   9.7912938  66.6695357  91.9452646   9.6686510
  66.3313868  91.8293711   8.7807045  67.5385125  91.5443811   9.6487517
  67.1515139  93.0987498  15.6272716  67.1403780  92.7040296  14.7553220
  67.3135779  92.3653570  16.2206487  60.0746604  95.2939314   8.4967622
  60.8667896  94.9530139   8.0813921  60.3143254  95.4034289   9.4169775
  63.8722401  95.8824610  14.5751900  63.5812267  96.7870241  14.4598566
  64.5079385  95.9241137  15.2895970  64.7978607  93.2601458  11.1653260
  65.3942180  93.0357481  10.4510223  64.8553579  92.5186204  11.7678707
  69.4146919  89.7176672   6.8078194  70.2010008  89.2996095   6.4568611
  69.6785623  90.6222764   6.9759842  72.3380766  83.3673479  12.1705781
  72.0064091  84.2368890  11.9466996  71.7426380  83.0509763  12.8499811
  68.8312286  95.5686025  11.5701694  68.5313009  96.4711064  11.4617501
  68.4863345  95.3018208  12.4222847  62.2824767  92.0199822   7.6038398
  61.3575264  91.8876036   7.8116090  62.5309180  92.7994041   8.1008340
  72.2309430  88.0868565   9.2499131  71.3226307  88.0183974   8.9557892
  72.1797025  88.5640510  10.0780956  59.6433578  91.6633096   8.4382187
  59.7725959  91.9167575   9.3521599  58.9631030  92.2560804   8.1186842
  66.3050295  89.5058211  17.1934028  65.5283629  90.0652131  17.1836893
  66.9440858  89.9914994  17.7148898  74.0971076  86.2885004  11.0277005
  73.4545456  86.5817537  10.3816799  73.5926004  86.1737924  11.8330202
  64.5596668  92.3143664  16.7551995  65.3011352  92.8528708  16.4786819
  63.8533653  92.9409953  16.9123547  70.0352007  94.4572805  15.3524157
  70.4435363  94.0155215  14.6078789  69.3129269  93.8825432  15.6058350
  66.3883077  89.3945412  12.7257714  67.2344272  89.8184825  12.8692363
  66.3281715  88.7379036  13.4196277  69.5382523  87.0549780  14.3838887
  69.2943454  87.8091840  13.8473163  69.8142453  87.4335128  15.2186134
  71.4920985  93.5988392  13.0616153  71.7037881  94.2420152  12.3850534
  71.4450734  92.7650709  12.5938083  69.0947214  86.2106213   9.9652725
  68.2331693  86.5087467  10.2569463  69.1209649  86.4276612   9.0333758
  62.8032865  94.3019885   9.3106294  63.3734222  94.7307153   8.6723778
  63.3940977  94.0202470  10.0090480  63.2958031  89.4683313  17.5567305
  62.6656692  90.1499593  17.7902702  63.1894119  89.3566394  16.6120443
  58.5903004  89.1355109   8.4833229  57.8002058  89.3912637   8.0073340
  59.0814251  89.9503446   8.5885270  60.5417749  89.4999688   5.4416706
  59.7448912  89.6118382   5.9600202  60.3143341  89.8386340   4.5757597
  66.3723417  96.0244391  13.3899221  66.4367849  96.4864798  14.2257393
  65.6634341  95.3941756  13.5181531  56.8740707  89.3885599  10.9148220
  57.1248745  90.2732609  11.1805796  57.4100255  89.2090201  10.1423312
  62.5738774  83.7704078  19.9192556  62.1805720  83.2170277  20.5940201
  63.3904914  84.0814657  20.3099074  65.4906735  85.1861957  17.5112813
  66.2316448  85.7869111  17.4317275  65.7224658  84.4439595  16.9530855
  60.6348073  90.3718325  15.7891043  60.5201588  89.4703582  16.0898141
  59.7792591  90.6182021  15.4375859  67.7139911  98.3136065  17.3878543
  67.2703765  97.5272444  17.0699448  68.3757124  98.5015216  16.7222434
  62.4727032  99.8431867  11.9139222  63.0234457  99.7148930  11.1416216
  61.6338508 100.1426756  11.5634114  69.8121149  98.5938865  15.4159944
  69.7939624  99.4147746  14.9240214  70.7341069  98.4692940  15.6410086
  66.2694203  96.1082994  16.2583453  66.8022540  95.3471283  16.0282761
  65.7408284  95.8156646  17.0007607  69.4363898  81.2143060  11.7877095
  69.0928167  82.1044702  11.7116205  69.8042861  81.0244718  10.9246680
  57.5049749  93.5376591   4.6065697  58.3424971  93.9473599   4.3899404
  57.6828016  92.5976033   4.5765891  66.9861292  86.0501372   5.3534768
  66.1302888  85.6608223   5.1740407  67.3988244  86.1293333   4.4934554
  68.5160438  83.5847716   9.7526328  68.0125234  83.5477851   8.9394133
  68.8091045  84.4940458   9.8122984  64.7603324  83.6686445   8.7592510
  65.6256321  83.4729254   8.3998399  64.8280833  83.4396797   9.6861866
  62.3665643  85.8988653   6.1308876  62.9409395  85.6763835   5.3982069
  62.9536626  85.9677348   6.8837478  64.6688311  82.7729902   4.8583946
  64.0152723  82.4578919   4.2340561  64.6268785  82.1505643   5.5843769
  67.9026051  89.2611836   9.1831593  66.9848613  89.4826783   9.0253281
  68.3186195  89.3358146   8.3243301  71.2351564  80.4736620   6.8894832
  71.5410440  79.6133983   6.6020747  71.9604168  81.0654240   6.6893826
  57.5275920  90.8767306   5.2776430  57.3300320  90.2836667   4.5527497
  56.9722584  90.5719516   5.9952369  65.5072643  90.7690413   7.3971023
  65.5621253  89.8164249   7.3213500  64.6963845  90.9249852   7.8812322
  63.4465003  89.3867472   5.1561402  62.6332869  89.6861643   5.5626594
  63.9423998  88.9923161   5.8735884  69.0439215  89.8509297  13.9876296
  69.3988603  90.0780770  14.8470762  69.6911346  90.1827674  13.3653551
  62.9379078  86.9585828  10.7722637  63.5778457  86.8174587  10.0745600
  62.1056609  86.6720341  10.3961239  68.5334226  98.6406354  11.2369997
  68.5871249  99.2097290  12.0047713  67.6649008  98.8108239  10.8724034
  59.9407694  86.9286153   5.5495624  60.2014512  87.8431486   5.4404784
  60.7624867  86.4610595   5.6992237  61.4132620  88.3423910  12.7194448
  62.0855673  88.1341272  12.0707097  60.5862406  88.1445996  12.2799681
  67.3158192  84.9685851  14.7360109  66.6686107  85.6675801  14.6424586
  68.0859207  85.4021995  15.1036357  70.7236990  95.2334703  17.8110663
  70.5722496  95.0045255  16.8940746  70.7141669  96.1905305  17.8242008
  67.4922326  92.8066616  12.7956929  68.4214386  92.9577775  12.6225896
  67.0713356  92.8950637  11.9405576  66.2910658  96.8317280  10.5655467
  66.1521744  96.4636065  11.4381405  65.5025254  97.3464920  10.3939424
  61.8160117  91.6166513  13.4796886  61.6779915  90.8846752  14.0808425
  62.7265041  91.5275413  13.1981073  64.4442418  91.3286472  12.9680565
  65.1542036  90.6879665  12.9267184  64.4011726  91.5799367  13.8906746
  72.4329196  98.2653826  15.8887144  72.3741743  97.5813046  15.2217727
  72.8348715  99.0072816  15.4367770  63.1571352  88.3151690  14.7876205
  62.6208709  87.8642429  15.4397801  62.5688060  88.4497599  14.0446669
  72.4346604  96.2293410  14.1201124  71.5473382  95.8919331  14.2427523
  73.0045155  95.4976441  14.3569890  54.0875751  92.5617501   7.4444176
  54.7746791  92.2479231   6.8565191  53.9323880  93.4658866   7.1711427
  58.8910473  87.4507698  11.8729199  58.8068662  86.8433367  11.1379609
  58.0693179  87.9416716  11.8738696  69.0634187  85.9361261   7.2399394
  69.5602886  85.1831224   6.9200464  68.2921168  85.9725578   6.6742604
  68.4246441 100.7881696  13.2420526  69.1374413 101.4229161  13.1696427
  67.9336469 100.8845562  12.4260528  65.6469156  88.0778644   6.9671079
  65.2766943  87.5249685   7.6551984  66.1428248  87.4736778   6.4146079
  63.4758354  98.5376139  14.0626097  64.1767814  99.1712622  14.2155491
  63.0053469  98.8790871  13.3021736  71.5053182  82.9030855   9.3878753
  70.5916261  83.1335082   9.5560960  71.9346283  82.9869299  10.2392785
  71.2759640  91.0920747  11.8878647  70.6231090  91.3396654  11.2331100
  71.6540020  90.2784885  11.5541124  67.3247213  91.8340558  18.3744684
  66.6487850  91.7334687  19.0447059  68.1474847  91.6779772  18.8380681
  59.0726072  98.0712495  10.9957199  59.6579509  97.3256182  11.1285104
  58.8750911  98.3816451  11.8793863  53.6643727  90.6418095   9.7161643
  53.7027826  90.1081685  10.5098761  53.1584020  90.1153300   9.0972620
  61.0434489  85.4882635  13.2124185  61.1075816  86.3497466  12.8001583
  60.9801609  84.8756637  12.4796543  60.5186762  87.5605768  16.8597219
  61.1458801  87.1782845  17.4734744  59.6614681  87.3419970  17.2252912
  70.9180870  97.9668743  18.4650955  71.4620774  98.5798701  17.9705909
  70.3367715  98.5248321  18.9817968  57.2952305  89.3682197   2.7915574
  57.5905746  88.4592875   2.7382628  56.3940340  89.3469936   2.4696576
  60.8246552  87.4438193   8.7743123  60.1033137  88.0574161   8.6350596
  61.6139807  87.9795958   8.6959769  63.6272865  84.7792620  15.0483774
  64.1507267  85.0254917  15.8110084  63.4085198  85.6112655  14.6286912
  59.0240146  87.0496295   2.9154899  58.6952852  86.1693673   2.7330005
  59.3779517  86.9943963   3.8031288  62.1381969  87.3369264   3.2830377
  62.4778042  87.8655186   2.5608985  62.5854090  87.6749670   4.0588943
  64.8325410  85.7206315  12.7333445  64.4922230  84.9214128  13.1354125
  64.1264416  86.0208026  12.1610278  65.4841882  82.8055627  11.1860768
  66.3067951  82.3316106  11.0639658  65.7279945  83.5846111  11.6859454
  63.0080461  89.4974748   8.9952747  62.8625041  89.8115051   9.8877028
  62.5305664  90.1159648   8.4423645  64.8676844  86.4877296   9.0433636
  64.8538412  85.5918389   8.7065934  65.5849272  86.4947960   9.6771922
  66.7202974  86.9214636  11.0886764  66.4620752  87.8431707  11.0871094
  66.1888015  86.5245071  11.7787228  57.4826123  92.0380093  11.9340408
  56.9379591  92.8139900  12.0660682  58.3605473  92.3850897  11.7759529
  64.2713739  85.3691676   4.3121206  64.3929651  84.4408323   4.5112094
  63.9815782  85.3830362   3.3999522  67.1404930  83.0546587   7.4487926
  67.1626627  83.1185920   6.4939906  67.5572989  82.2151095   7.6428432
  58.2692145  91.1649989  14.8270565  57.5273881  91.3132624  15.4135195
  57.9484889  91.4258254  13.9637314  66.2135807 100.7065967  14.6250955
  66.5222934 100.4615114  15.4973654  67.0111289 100.9112605  14.1369825
  56.9157363  96.9701744   7.8169893  56.0789272  96.5423918   7.6353894
  56.8881009  97.1634187   8.7540684  63.7554819  86.8823674  18.5211139
  63.8042974  87.7585797  18.1388908  64.2977333  86.3401067  17.9482782
  74.2409665  97.4264797  17.8012276  73.4505208  97.4088936  17.2616775
  74.0043019  97.9653091  18.5561313  74.3607540  94.2757263  15.1145004
  74.4105545  94.1107271  16.0560527  74.2521463  93.4084522  14.7242885
  71.6511302  90.2588191  16.4304311  72.5521165  90.1194656  16.1388309
  71.7259277  90.4242646  17.3702489  65.9854107  87.6355046  15.2757497
  65.1157417  87.9288612  15.0040086  66.2213588  88.2195491  15.9964761
  75.8625737  96.6954205  15.3587026  75.5710545  97.0584185  16.1950487
  75.2497868  95.9821213  15.1800358  74.1112925  91.8186820  13.8267084
  74.5867046  92.0114466  13.0185935  73.1878490  91.8746005  13.5810468
  68.6893141  83.8534663  12.7922918  69.2075085  84.5895690  12.4669406
  68.3348274  84.1598656  13.6269677  68.9405735  80.2734946   8.3123814
  69.2207489  79.6058135   8.9384241  69.7256342  80.4664041   7.7998478
  72.8114594  88.6952580  12.0595390  73.7632017  88.7950677  12.0807614
  72.6418044  87.9030848  12.5693474  70.8328973  85.7808163  12.2454791
  70.2378905  86.0613176  11.5501279  70.5478670  86.2702064  13.0171532
  75.2902672  91.9158699  11.1737689  75.2578992  90.9774700  11.3597373
  75.9003295  91.9942736  10.4403514  75.4397160  88.7069743  11.2195972
  74.9236209  87.9228199  11.0325901  76.3237109  88.3788459  11.3842492
  73.1007887  82.4510758   7.1791785  72.9032708  82.1425846   8.0635117
  73.7107593  83.1772397   7.3089715  67.0124695  94.8372498  18.6765550
  67.9327704  95.0151097  18.8705597  66.9774278  93.8928544  18.5245250
  56.2306860  90.0311092   7.6018825  55.9109644  89.1776400   7.3093199
  55.6840288  90.2459670   8.3576792  60.0086768  92.7473533  11.3188331
  60.2272777  93.6790641  11.3376365  60.4212541  92.3881507  12.1043135
  66.9290985  83.2541618   3.3064020  66.1191714  82.9088703   3.6819266
  67.6175402  82.9449162   3.8951631  68.8581534  82.3319665   4.9288316
  69.4112572  82.7515119   5.5878340  69.0951620  81.4055413   4.9711272
  64.8814633  88.3206739  20.7091080  64.7811360  89.2701096  20.6403171
  64.6636175  87.9924978  19.8367150  56.0995120  93.6514004   9.5711946
  55.4058591  93.2367956   9.0581901  56.8468111  93.6934540   8.9745365
  70.6863907  83.8425248   6.6388301  71.1863685  83.9541783   5.8302620
  71.3299515  83.5386301   7.2789109  64.7445903  91.7503878  19.5256142
  64.2612985  92.5504238  19.7320031  64.8306842  91.7611823  18.5723586
  58.0131863  93.5832257   7.4477961  57.9902551  93.6819945   6.4959844
  58.3232499  94.4297408   7.7695127  60.6719240  95.6408412  11.5624576
  61.6262494  95.6092355  11.4954507  60.4731764  95.1799036  12.3774802
  61.2618623  94.2109528  14.1295373  62.0811512  94.7053607  14.1530211
  61.5355430  93.2941497  14.1012941  74.3699755  86.6266802   7.2077668
  75.1460145  87.1163254   7.4802285  73.6447889  87.0524856   7.6649538
  56.5153537  88.5447662  14.8287571  57.1612400  88.0346616  15.3174796
  56.3070688  89.2816344  15.4030996  69.0406929  95.6128510  20.3279711
  69.9098089  95.7869162  19.9666346  68.5613680  96.4322927  20.2055440
  63.2093109 102.7325611  12.0069145  64.1120356 102.7649221  12.3235640
  62.9830479 101.8026062  12.0215481  68.8509267  79.4030484   4.8357403
  68.0841663  78.8488970   4.9814086  69.2619972  79.4752352   5.6971555
  60.8551028  85.6915279  18.9262585  61.7182489  85.3352084  19.1365909
  60.2816438  85.3529174  19.6137989  73.4132529  99.0995996  19.9192556
  73.0199474  98.5462195  20.5940201  74.2298669  99.4106574  20.3099074
  76.3300490 100.5153875  17.5112813  77.0710203 101.1161028  17.4317275
  76.5618412  99.7731513  16.9530855  71.3580516 102.8897685  16.8597219
  71.9852555 102.5074763  17.4734744  70.5008435 102.6711887  17.2252912
  74.5948574 102.2115591  18.5211139  74.6436729 103.0877714  18.1388908
  75.1371088 101.6692984  17.9482782  75.7208387 103.6498657  20.7091080
  75.6205114 104.5993013  20.6403171  75.5029929 103.3216895  19.8367150
  67.3547291 103.8739580  14.8287571  68.0006155 103.3638534  15.3174796
  67.1464442 104.6108262  15.4030996  71.6944782 101.0207197  18.9262585
  72.5576244 100.6644002  19.1365909  71.1210193 100.6821092  19.6137989
  46.0352403  44.6614352   4.1123850  45.5916257  43.8750731   3.7944754
  46.6969617  44.8493503   3.4467741  48.1333641  44.9417152   2.1405251
  48.1152117  45.7626033   1.6485520  49.0553561  44.8171227   2.3655392
  49.0449482  41.5812990   4.5355969  48.8934988  41.3523542   3.6186053
  49.0354162  42.5383592   4.5487314  50.7541689  44.6132113   2.6132451
  50.6954235  43.9291333   1.9463034  51.1561207  45.3551103   2.1613077
  49.2393363  44.3147030   5.1896261  49.7833267  44.9276988   4.6951216
  48.6580207  44.8726609   5.7063274  52.5622157  43.7743084   4.5257583
  51.7717701  43.7567223   3.9862082  52.3255512  44.3131378   5.2806619
  54.1838229  43.0432492   2.0832333  53.8923037  43.4062473   2.9195794
  53.5710360  42.3299500   1.9045665  47.3619421  41.9606797   7.0525018
  48.2310581  42.1347449   6.6911653  46.8826173  42.7801214   6.9300747
  59.0211897  53.6695423  -3.5429708  59.6590307  53.5502170  -4.2466368
  58.9032740  54.6176267  -3.4841755  55.8301603  53.6222851  -3.6068183
  55.4920115  53.5063916  -4.4947648  56.6991371  53.2214016  -3.6267177
  56.3121386  54.7757703   2.3518023  56.3010027  54.3810501   1.4798526
  56.4742026  54.0423775   2.9451794  49.2352851  56.9709519  -4.7787072
  50.0274143  56.6300344  -5.1940772  49.4749501  57.0804494  -3.8584918
  53.0328647  57.5594815   1.2997207  52.7418513  58.4640445   1.1843873
  53.6685632  57.6011342   2.0141276  53.9584854  54.9371663  -2.1101434
  54.5548426  54.7127686  -2.8244471  54.0159826  54.1956409  -1.5075986
  63.9761593  51.3322110  -5.5643521  64.7086765  50.7621327  -5.3305692
  63.2200948  50.9443710  -5.1237015  61.4987013  45.0443684  -1.1048912
  61.1670338  45.9139095  -1.3287697  60.9032626  44.7279968  -0.4254882
  57.9918532  57.2456230  -1.7053000  57.6919256  58.1481269  -1.8137193
  57.6469592  56.9788413  -0.8531847  61.3915676  49.7638770  -4.0255562
  60.4832554  49.6954179  -4.3196801  61.3403272  50.2410715  -3.1973737
  52.9739312  64.0100550  -8.7382032  52.8963342  64.9608376  -8.6593551
  52.3700956  63.6646423  -8.0807106  55.4656542  51.1828416   3.9179335
  54.6889876  51.7422336   3.9082200  56.1047105  51.6685199   4.4394205
  63.2577323  47.9655209  -2.2477688  62.6151703  48.2587742  -2.8937894
  62.7532251  47.8508129  -1.4424492  53.7202914  53.9913869   3.4797302
  54.4617599  54.5298913   3.2032125  53.0139900  54.6180158   3.6368854
  59.1958254  56.1343010   2.0769463  59.6041610  55.6925420   1.3324096
  58.4735516  55.5595637   2.3303656  55.5489324  51.0715616  -0.5496980
  56.3950519  51.4955030  -0.4062331  55.4887962  50.4149241   0.1441583
  59.5187069  56.6944200  -4.1678248  58.8895931  56.8589914  -4.8702180
  59.1312731  57.1085810  -3.3967284  63.3976301  57.6298638  -6.8133884
  62.7127339  58.0097540  -7.3636851  63.4820150  58.2393965  -6.0801936
  58.6988769  48.7319985   1.1084194  58.4549701  49.4862045   0.5718470
  58.9748700  49.1105332   1.9431441  60.6527232  55.2758597  -0.2138540
  60.8644127  55.9190357  -0.8904159  60.6056980  54.4420914  -0.6816610
  55.0715031  56.4318608  -6.9028163  55.5353376  56.7106311  -7.6923540
  54.8071829  55.5302053  -7.0855072  51.9639112  55.9790090  -3.9648399
  52.5340469  56.4077358  -4.6030915  52.5547223  55.6972675  -3.2664214
  52.4564278  51.1453517   4.2812612  51.8262939  51.8269798   4.5148009
  52.3500366  51.0336599   3.3365750  61.7673060  58.1530553  -2.0416183
  62.5890504  57.7510740  -2.3233502  61.7635463  58.0498787  -1.0900067
  55.5329664  57.7014596   0.1144527  55.5974096  58.1635003   0.9502699
  54.8240587  57.0711961   0.2426837  69.8579053  54.4969301  -5.6931212
  69.1042762  53.9276699  -5.8487207  69.9926594  54.4631966  -4.7460577
  51.7345021  45.4474283   6.6437863  51.3411966  44.8940482   7.3185507
  52.5511161  45.7584862   7.0344380  50.5101963  60.0023898  -7.3625814
  50.6868592  60.9241862  -7.5504830  51.3058797  59.6882317  -6.9331434
  54.6512982  46.8632162   4.2358119  55.3922695  47.4639315   4.1562582
  54.8830905  46.1209800   3.6776162  49.7954320  52.0488530   2.5136349
  49.6807835  51.1473787   2.8143448  48.9398838  52.2952226   2.1621166
  56.8746158  59.9906270   4.1123850  56.4310012  59.2042648   3.7944754
  57.5363371  60.1785420   3.4467741  51.6333279  61.5202072  -1.3615472
  52.1840704  61.3919135  -2.1338478  50.7944755  61.8196961  -1.7120579
  58.9727396  60.2709070   2.1405251  58.9545871  61.0917951   1.6485520
  59.8947316  60.1463145   2.3655392  55.4300450  57.7853199   2.9828759
  55.9628787  57.0241488   2.7528067  54.9014531  57.4926851   3.7252914
  61.7746009  55.1088212  -4.3885382  61.1169683  55.7987474  -4.3005254
  62.5786408  55.4984644  -4.0451396  60.5851467  53.4632585  -6.3381441
  61.0983349  54.0962577  -5.8359731  61.2352691  52.8633781  -6.7038081
  57.0632298  50.9382041  -4.0923100  56.1454860  51.1596988  -4.2501412
  57.4792442  51.0128351  -4.9511393  61.3513264  58.4438586  -8.2102298
  60.8975591  57.6029496  -8.1537107  60.7207230  59.0799985  -7.8727518
  59.7946203  60.2815083  -7.2752480  60.0869177  60.8420140  -7.9940114
  60.3044823  60.5743644  -6.5199321  54.7579828  61.0595434  -6.1859027
  54.7156007  61.2856281  -7.1150495  55.6742527  60.8258809  -6.0373225
  58.2045462  51.5279502   0.7121603  58.5594849  51.7550975   1.5716068
  58.8517593  51.8597879   0.0898858  63.9343199  54.6497938  -8.5829068
  63.7961097  54.8399534  -9.5107879  63.5779418  55.4117320  -8.1261017
  63.9612578  56.7174465  -3.5717797  64.3949085  56.6249754  -2.7234743
  64.6744159  56.6931965  -4.2097781  52.8745629  57.9358463  -6.3897064
  53.6686227  57.4408783  -6.5914489  52.1637321  57.4076326  -6.7529358
  57.6940473  60.3176559  -2.0384696  57.7477495  60.8867495  -1.2706980
  56.8255255  60.4878444  -2.4030659  50.5738867  50.0194115  -0.5560245
  51.2461920  49.8111477  -1.2047596  49.7468653  49.8216201  -0.9955013
  64.8228128  56.7598165  -1.0384911  65.0164018  57.6643976  -0.7925636
  64.7228746  56.3005584  -0.2046326  56.4764439  46.6456056   1.4605416
  55.8292354  47.3446006   1.3669892  57.2465454  47.0792200   1.8281664
  59.8843237  56.9104908   4.5355969  59.7328743  56.6815460   3.6186053
  59.8747916  57.8675509   4.5487314  56.6528573  54.4836821  -0.4797764
  57.5820633  54.6347980  -0.6528797  56.2319603  54.5720842  -1.3349118
  55.4516905  58.5087485  -2.7099227  55.3127990  58.1406270  -1.8373289
  54.6631501  59.0235125  -2.8815269  56.0465057  63.6096582 -11.3673690
  56.2216812  63.1384625 -10.5528068  55.3597845  64.2362348 -11.1392429
  57.0022120  57.8869088  -5.3210389  56.6671952  57.8469858  -4.4252739
  56.5026066  57.2213804  -5.7939979  50.9766364  53.2936718   0.2042192
  50.8386162  52.5616957   0.8053731  51.8871287  53.2045618  -0.0773620
  53.6048665  53.0056677  -0.3074128  54.3148283  52.3649869  -0.3487510
  53.5617973  53.2569572   0.6152053  61.5935443  59.9424031   2.6132451
  61.5347989  59.2583251   1.9463034  61.9954962  60.6843021   2.1613077
  52.3177598  49.9921895   1.5121511  51.7814956  49.5412634   2.1643108
  51.7294307  50.1267804   0.7691976  50.6126142  66.7585944  -4.5933830
  50.8522740  67.3904469  -3.9154811  49.7695338  66.4073984  -4.3068471
  61.5952850  57.9063615   0.8446431  60.7079629  57.5689536   0.9672830
  62.1651402  57.1746646   1.0815196  55.1254004  62.5665067  -2.1892326
  55.0524175  63.3720038  -1.6773021  54.6831397  62.7657033  -3.0144305
  54.9143783  61.8036837  -8.6789505  54.1311305  62.3458517  -8.5851280
  55.6136529  62.3210817  -8.2795263  66.0770191  53.3171832  -4.3937008
  66.0660067  54.1996547  -4.7643075  65.2087570  52.9643383  -4.5882471
  57.5852687  62.4651901  -0.0334167  58.2980660  63.0999366  -0.1058266
  57.0942716  62.5615767  -0.8494166  59.3070214  56.3703154  -8.4616876
  58.3726493  56.4904616  -8.6312171  59.4846883  55.4675620  -8.7256866
  62.6942766  52.2120473  -7.9266842  63.1603218  53.0448464  -8.0006539
  63.1450266  51.7465454  -7.2221583  52.6364601  60.2146344   0.7871403
  53.3374060  60.8482827   0.9400798  52.1659716  60.5561076   0.0267043
  60.4365887  52.7690952  -1.3876046  59.7837337  53.0166859  -2.0423593
  60.8146267  51.9555090  -1.7213569  57.3973061  62.8050645  -7.2847876
  57.5795455  61.9872301  -6.8220124  58.2206047  63.0218337  -7.7222986
  57.7315226  61.7318830 -10.0232827  58.2602993  61.2211285 -10.6362665
  57.9943446  61.4161360  -9.1587294  56.4853460  53.5110763   5.0989991
  55.8094097  53.4104892   5.7692366  57.3081094  53.3549977   5.5625988
  48.2332319  59.7482699  -2.2797494  48.8185756  59.0026387  -2.1469590
  48.0357157  60.0586656  -1.3960830  51.0870974  62.7833947  -7.2635052
  50.4181349  63.2680074  -7.7471011  50.9483844  63.0303167  -6.3491673
  55.2276243  64.8177690  -0.6652393  55.7794551  64.9809312   0.0996692
  55.5682436  65.4082128  -1.3372368  49.6793009  49.2375973   3.5842526
  50.3065047  48.8553050   4.1980050  48.8220927  49.0190175   3.9498218
  60.0787117  59.6438948   5.1896261  60.6227021  60.2568906   4.6951216
  59.4973962  60.2018526   5.7063274  58.3644630  62.7659666  -3.6788711
  58.2395770  61.9649406  -4.1877765  59.0223721  63.2605859  -4.1674741
  60.4279538  60.5668686  -2.0509161  59.4809874  60.4474037  -2.1230834
  60.7762312  59.6791184  -1.9682899  52.7879112  46.4562825   1.7729081
  53.3113514  46.7025121   2.5355390  52.5691445  47.2882860   1.3532218
  57.4325972  60.3621402  -5.8504809  57.2850934  59.4338110  -5.6697239
  58.2579465  60.3841493  -6.3347733  61.0360094  61.1849961  -4.7639936
  61.9606641  60.9792822  -4.9015485  60.8675397  60.9366362  -3.8550594
  53.9931657  47.3976520  -0.5421248  53.6528477  46.5984333  -0.1400569
  53.2870663  47.6978231  -1.1144415  55.8809221  48.5984841  -2.1867930
  55.6226999  49.5201912  -2.1883599  55.3494261  48.2015276  -1.4967466
  60.8255410  61.7035628  -9.4077844  60.9992287  61.1382051 -10.1603992
  61.3184301  62.5036523  -9.5898355  46.6432370  53.7150297  -1.3414286
  46.0985838  54.4910105  -1.2094011  47.5211719  54.0621102  -1.4995164
  66.6794801  54.4672051  -7.7887545  67.1225947  53.7179377  -8.1868421
  65.8021311  54.4582188  -8.1713813  61.8130582  61.0202393 -12.3080946
  62.5081487  61.6409085 -12.0893632  62.1553732  60.1697744 -12.0328568
  47.4298391  52.8420194   1.5515871  46.6880127  52.9902829   2.1380502
  47.1091136  53.1028459   0.6882621  63.7122005  58.4702098 -10.7793615
  64.2373329  58.8089371 -11.5044295  63.6244358  57.5349114 -10.9630481
  55.3742054  62.3836172   1.3496261  55.6829181  62.1385319   2.2218961
  56.1717536  62.5882810   0.8615131  55.3962666  64.5374082  -6.4198362
  54.9567656  64.0450460  -5.7265506  56.1470783  63.9947049  -6.6606287
  47.8755005  60.7285622  -6.4173734  48.7013025  60.4289394  -6.7975091
  47.5249057  59.9593245  -5.9683945  52.8436538  60.0812091  -4.3476061
  52.2216548  59.4182796  -4.6473833  53.5141405  60.1073223  -5.0302413
  52.9161066  48.5593879   5.2456445  52.9649221  49.4356001   4.8634215
  53.4583580  48.0171272   4.6728089  63.4015911  59.1035002   4.5257583
  62.6111455  59.0859141   3.9862082  63.1649266  59.6423296   5.2806619
  63.5213787  55.9527468   1.8390311  63.5711791  55.7877476   2.7805834
  63.4127710  55.0854727   1.4488192  60.8117549  51.9358396   3.1549618
  61.7127412  51.7964861   2.8633616  60.8865523  52.1012851   4.0947795
  55.1460354  49.3125251   2.0002804  54.2763664  49.6058817   1.7285393
  55.3819835  49.8965696   2.7210068  65.0231983  58.3724410   2.0832333
  64.7316792  58.7354390   2.9195794  64.4104115  57.6591418   1.9045665
  66.2227666  55.9377290  -5.3965097  67.0574557  56.3767094  -5.2327537
  66.3586794  55.4615943  -6.2156851  63.2719172  53.4957024   0.5512391
  63.7473293  53.6884671  -0.2568758  62.3484737  53.5516210   0.3055774
  57.8499388  45.5304868  -0.4831775  58.3681332  46.2665895  -0.8085287
  57.4954521  45.8368861   0.3514984  61.9720841  50.3722785  -1.2159304
  62.9238263  50.4720882  -1.1947080  61.8024291  49.5801053  -0.7061219
  59.9935220  47.4578368  -1.0299903  59.3985152  47.7383380  -1.7253414
  59.7084917  47.9472269  -0.2583162  64.4508918  53.5928904  -2.1017004
  64.4185238  52.6544905  -1.9157320  65.0609542  53.6712941  -2.8351179
  64.6003407  50.3839948  -2.0558721  64.0842456  49.5998404  -2.2428792
  65.4843355  50.0558664  -1.8912201  70.2685468  54.6544911  -2.9610967
  70.9988857  54.3930199  -2.4003264  69.6592414  53.9173633  -2.9208899
  68.3500765  52.7952774  -2.3636516  67.6233929  52.6608739  -2.9720025
  67.9348052  53.1029602  -1.5579798  56.1730942  56.5142703   5.4010857
  57.0933951  56.6921302   5.5950903  56.1380525  55.5698749   5.2490556
  49.1693014  54.4243738  -1.9566362  49.3879024  55.3560846  -1.9378328
  49.5818788  54.0651712  -1.1711558  54.0420880  49.9976944   7.4336387
  53.9417607  50.9471301   7.3648478  53.8242422  49.6695183   6.5612457
  53.9052150  53.4274083   6.2501449  53.4219231  54.2274443   6.4565338
  53.9913089  53.4382027   5.2968893  49.8325487  57.3178617  -1.7130118
  50.7868741  57.2862560  -1.7800186  49.6338011  56.8569241  -0.8979892
  50.4224869  55.8879733   0.8540680  51.2417758  56.3823812   0.8775517
  50.6961677  54.9711701   0.8258248  63.5306002  48.3037007  -6.0677025
  64.3066392  48.7933459  -5.7952408  62.8054136  48.7295061  -5.6105156
  65.9678560  49.0164626  -5.0103085  66.5623051  48.7760362  -5.7209776
  66.0405144  48.2971756  -4.3829548  48.1875716  62.8598237  -4.6959920
  48.0530184  62.0998638  -5.2621922  47.7707778  63.5839137  -5.1631131
  68.2749633  52.3230827  -6.2359663  67.7149191  52.3924016  -5.4628101
  67.6693136  52.1471811  -6.9560167  51.3444842  63.7567554  -4.4841477
  51.2277226  64.7012986  -4.5862787  50.5237288  63.4541115  -4.0955678
  45.6759784  50.2217867   1.5532877  46.3218647  49.7116821   2.0420102
  45.4676935  50.9586549   2.1276302  58.2013176  57.2898715   7.0525018
  59.0704335  57.4639367   6.6911653  57.7219927  58.1093132   6.9300747
  52.3699356  64.4095816  -1.2685549  53.2726603  64.4419426  -0.9519054
  52.1436726  63.4796267  -1.2539213  54.1252958  63.1626802  -4.6075470
  53.1748589  63.1628664  -4.7211098  54.4285444  62.4159537  -5.1239435
  50.0157275  47.3685484   5.6507891  50.8788736  47.0122289   5.8611216
  49.4422685  47.0299379   6.3383296  69.8605651  68.9987341  -3.5429708
  70.4984061  68.8794088  -4.2466368  69.7426494  69.9468185  -3.4841755
  66.6695358  68.9514769  -3.6068183  66.3313869  68.8355833  -4.4947648
  67.5385126  68.5505934  -3.6267177  67.1515141  70.1049620   2.3518023
  67.1403782  69.7102419   1.4798526  67.3135780  69.3715693   2.9451794
  60.0746605  72.3001437  -4.7787072  60.8667897  71.9592261  -5.1940772
  60.3143256  72.4096412  -3.8584918  63.8722402  72.8886732   1.2997207
  63.5812268  73.7932363   1.1843873  64.5079386  72.9303260   2.0141276
  64.7978609  70.2663581  -2.1101434  65.3942181  70.0419603  -2.8244471
  64.8553580  69.5248326  -1.5075986  69.4146920  66.7238794  -6.4676500
  70.2010009  66.3058218  -6.8186083  69.6785624  67.6284887  -6.2994851
  72.3380767  60.3735602  -1.1048912  72.0064092  61.2431013  -1.3287697
  71.7426381  60.0571886  -0.4254882  68.8312287  72.5748148  -1.7053000
  68.5313010  73.4773187  -1.8137193  68.4863346  72.3080331  -0.8531847
  62.2824768  69.0261945  -5.6716295  61.3575265  68.8938159  -5.4638604
  62.5309182  69.8056164  -5.1746353  72.2309431  65.0930688  -4.0255562
  71.3226308  65.0246096  -4.3196801  72.1797027  65.5702633  -3.1973737
  59.6433579  68.6695218  -4.8372506  59.7725961  68.9229697  -3.9233095
  58.9631031  69.2622926  -5.1567851  66.3050297  66.5120334   3.9179335
  65.5283631  67.0714254   3.9082200  66.9440860  66.9977117   4.4394205
  74.0971077  63.2947126  -2.2477688  73.4545457  63.5879660  -2.8937894
  73.5926006  63.1800047  -1.4424492  64.5596669  69.3205787   3.4797302
  65.3011353  69.8590831   3.2032125  63.8533654  69.9472076   3.6368854
  70.0352008  71.4634927   2.0769463  70.4435365  71.0217338   1.3324096
  69.3129270  70.8887555   2.3303656  66.3883079  66.4007534  -0.5496980
  67.2344274  66.8246948  -0.4062331  66.3281716  65.7441158   0.1441583
  69.5382524  64.0611903   1.1084194  69.2943456  64.8153963   0.5718470
  69.8142454  64.4397250   1.9431441  71.4920987  70.6050515  -0.2138540
  71.7037882  71.2482275  -0.8904159  71.4450735  69.7712831  -0.6816610
  69.0947216  63.2168336  -3.3101968  68.2331695  63.5149589  -3.0185231
  69.1209650  63.4338734  -4.2420936  62.8032866  71.3082008  -3.9648399
  63.3734223  71.7369276  -4.6030915  63.3940978  71.0264592  -3.2664214
  63.2958033  66.4745435   4.2812612  62.6656693  67.1561716   4.5148009
  63.1894120  66.3628517   3.3365750  58.5903005  66.1417231  -4.7921464
  57.8002059  66.3974760  -5.2681353  59.0814252  66.9565569  -4.6869423
  60.5417750  66.5061810  -7.8337987  59.7448914  66.6180505  -7.3154492
  60.3143343  66.8448463  -8.6997097  66.3723418  73.0306514   0.1144527
  66.4367851  73.4926921   0.9502699  65.6634342  72.4003879   0.2426837
  56.8740708  66.3947722  -2.3606473  57.1248746  67.2794731  -2.0948897
  57.4100256  66.2152323  -3.1331381  62.5738775  60.7766201   6.6437863
  62.1805721  60.2232399   7.3185507  63.3904916  61.0876779   7.0344380
  65.4906736  62.1924080   4.2358119  66.2316450  62.7931233   4.1562582
  65.7224659  61.4501718   3.6776162  60.6348074  67.3780447   2.5136349
  60.5201589  66.4765705   2.8143448  59.7792592  67.6244144   2.1621166
  67.7139912  75.3198188   4.1123850  67.2703766  74.5334566   3.7944754
  68.3757126  75.5077338   3.4467741  62.4727033  76.8493989  -1.3615472
  63.0234458  76.7211053  -2.1338478  61.6338509  77.1488878  -1.7120579
  69.8121150  75.6000988   2.1405251  69.7939625  76.4209869   1.6485520
  70.7341070  75.4755063   2.3655392  66.2694204  73.1145117   2.9828759
  66.8022541  72.3533405   2.7528067  65.7408285  72.8218769   3.7252914
  69.4363899  58.2205183  -1.4877599  69.0928169  59.1106825  -1.5638488
  69.8042862  58.0306841  -2.3508014  57.5049750  70.5438713  -8.6688997
  58.3424972  70.9535722  -8.8855289  57.6828018  69.6038156  -8.6988803
  66.9861293  63.0563495  -7.9219925  66.1302889  62.6670345  -8.1014287
  67.3988245  63.1355456  -8.7820140  68.5160440  60.5909838  -3.5228366
  68.0125235  60.5539973  -4.3360560  68.8091047  61.5002581  -3.4631709
  64.7603326  60.6748568  -4.5162184  65.6256322  60.4791377  -4.8756294
  64.8280834  60.4458920  -3.5892827  62.3665645  62.9050776  -7.1445817
  62.9409397  62.6825957  -7.8772624  62.9536627  62.9739470  -6.3917216
  64.6688312  59.7792025  -8.4170748  64.0152725  59.4641042  -9.0414133
  64.6268786  59.1567765  -7.6910925  67.9026053  66.2673958  -4.0923100
  66.9848614  66.4888905  -4.2501412  68.3186196  66.3420269  -4.9511393
  71.2351565  57.4798742  -6.3859861  71.5410442  56.6196106  -6.6733946
  71.9604170  58.0716362  -6.5860867  57.5275921  67.8829429  -7.9978263
  57.3300321  67.2898789  -8.7227197  56.9722585  67.5781639  -7.2802324
  65.5072645  67.7752535  -5.8783670  65.5621254  66.8226372  -5.9541194
  64.6963847  67.9311974  -5.3942372  63.4465005  66.3929595  -8.1193291
  62.6332870  66.6923766  -7.7128099  63.9423999  65.9985284  -7.4018809
  69.0439216  66.8571419   0.7121603  69.3988604  67.0842893   1.5716068
  69.6911347  67.1889796   0.0898858  62.9379079  63.9647950  -2.5032056
  63.5778459  63.8236710  -3.2009093  62.1056610  63.6782464  -2.8793454
  68.5334228  75.6468476  -2.0384696  68.5871250  76.2159413  -1.2706980
  67.6649009  75.8170361  -2.4030659  59.9407696  63.9348275  -7.7259069
  60.2014513  64.8493609  -7.8349909  60.7624868  63.4672718  -7.5762457
  61.4132621  65.3486033  -0.5560245  62.0855675  65.1403395  -1.2047596
  60.5862408  65.1508119  -0.9955013  67.3158193  61.9747974   1.4605416
  66.6686108  62.6737923   1.3669892  68.0859208  62.4084117   1.8281664
  70.7236991  72.2396826   4.5355969  70.5722497  72.0107377   3.6186053
  70.7141671  73.1967427   4.5487314  67.4922327  69.8128738  -0.4797764
  68.4214387  69.9639898  -0.6528797  67.0713357  69.9012759  -1.3349118
  66.2910659  73.8379403  -2.7099227  66.1521745  73.4698187  -1.8373289
  65.5025255  74.3527042  -2.8815269  61.8160118  68.6228636   0.2042192
  61.6779916  67.8908874   0.8053731  62.7265042  68.5337536  -0.0773620
  64.4442419  68.3348595  -0.3074128  65.1542038  67.6941787  -0.3487510
  64.4011727  68.5861490   0.6152053  72.4329198  75.2715948   2.6132451
  72.3741744  74.5875168   1.9463034  72.8348716  76.0134938   2.1613077
  63.1571353  65.3213813   1.5121511  62.6208710  64.8704551   2.1643108
  62.5688061  65.4559722   0.7691976  72.4346605  73.2355532   0.8446431
  71.5473384  72.8981454   0.9672830  73.0045156  72.5038563   1.0815196
  54.0875752  69.5679624  -5.8310518  54.7746792  69.2541354  -6.4189503
  53.9323881  70.4720989  -6.1043266  58.8910474  64.4569821  -1.4025494
  58.8068663  63.8495490  -2.1375084  58.0693181  64.9478839  -1.4015998
  69.0634188  62.9423384  -6.0355299  69.5602888  62.1893346  -6.3554229
  68.2921170  62.9787701  -6.6012090  68.4246442  77.7943819  -0.0334167
  69.1374414  78.4291283  -0.1058266  67.9336471  77.8907685  -0.8494166
  65.6469157  65.0840767  -6.3083615  65.2766944  64.5311807  -5.6202709
  66.1428249  64.4798901  -6.8608614  63.4758355  75.5438262   0.7871403
  64.1767815  76.1774745   0.9400798  63.0053470  75.8852994   0.0267043
  71.5053183  59.9092978  -3.8875940  70.5916263  60.1397204  -3.7193733
  71.9346284  59.9931422  -3.0361908  71.2759641  68.0982870  -1.3876046
  70.6231092  68.3458777  -2.0423593  71.6540021  67.2847008  -1.7213569
  67.3247214  68.8402681   5.0989991  66.6487851  68.7396810   5.7692366
  68.1474848  68.6841894   5.5625988  59.0726073  75.0774617  -2.2797494
  59.6579510  74.3318305  -2.1469590  58.8750912  75.3878574  -1.3960830
  53.6643728  67.6480217  -3.5593051  53.7027828  67.1143808  -2.7655933
  53.1584021  67.1215423  -4.1782074  61.0434490  62.4944758  -0.0630508
  61.1075817  63.3559589  -0.4753111  60.9801611  61.8818759  -0.7958150
  60.5186763  64.5667890   3.5842526  61.1458802  64.1844968   4.1980050
  59.6614682  64.3482092   3.9498218  70.9180872  74.9730866   5.1896261
  71.4620776  75.5860824   4.6951216  70.3367716  75.5310444   5.7063274
  57.2952306  66.3744319 -10.4839119  57.5905747  65.4654998 -10.5372066
  56.3940342  66.3532059 -10.8058117  60.8246553  64.4500316  -4.5011571
  60.1033139  65.0636284  -4.6404097  61.6139809  64.9858081  -4.5794925
  63.6272866  61.7854743   1.7729081  64.1507268  62.0317039   2.5355390
  63.4085200  62.6174777   1.3532218  59.0240147  64.0558417 -10.3599794
  58.6952854  63.1755796 -10.5424688  59.3779518  64.0006086  -9.4723405
  62.1381971  64.3431387  -9.9924317  62.4778043  64.8717308 -10.7145708
  62.5854091  64.6811793  -9.2165750  64.8325411  62.7268438  -0.5421248
  64.4922232  61.9276251  -0.1400569  64.1264418  63.0270149  -1.1144415
  65.4841883  59.8117750  -2.0893925  66.3067952  59.3378228  -2.2115035
  65.7279947  60.5908234  -1.5895239  63.0080462  66.5036871  -4.2801947
  62.8625043  66.8177174  -3.3877665  62.5305666  67.1221771  -4.8331048
  64.8676845  63.4939419  -4.2321057  64.8538414  62.5980512  -4.5688759
  65.5849273  63.5010082  -3.5982771  66.7202976  63.9276759  -2.1867930
  66.4620753  64.8493830  -2.1883599  66.1888016  63.5307193  -1.4967466
  57.4826124  69.0442215  -1.3414286  56.9379592  69.8202023  -1.2094011
  58.3605474  69.3913020  -1.4995164  64.2713741  62.3753799  -8.9633487
  64.3929652  61.4470445  -8.7642600  63.9815783  62.3892485  -9.8755172
  67.1404931  60.0608709  -5.8266767  67.1626628  60.1248043  -6.7814788
  67.5572990  59.2213218  -5.6326261  58.2692146  68.1712111   1.5515871
  57.5273882  68.3194747   2.1380502  57.9484890  68.4320377   0.6882621
  66.2135809  77.7128090   1.3496261  66.5222935  77.4677236   2.2218961
  67.0111291  77.9174728   0.8615131  56.9157365  73.9763867  -5.4584801
  56.0789273  73.5486041  -5.6400799  56.8881010  74.1696310  -4.5214009
  63.7554820  63.8885796   5.2456445  63.8042976  64.7647919   4.8634215
  64.2977334  63.3463189   4.6728089  74.2409666  74.4326920   4.5257583
  73.4505210  74.4151058   3.9862082  74.0043021  74.9715213   5.2806619
  74.3607541  71.2819386   1.8390311  74.4105546  71.1169393   2.7805834
  74.2521464  70.4146645   1.4488192  71.6511303  67.2650314   3.1549618
  72.5521166  67.1256779   2.8633616  71.7259278  67.4304769   4.0947795
  65.9854109  64.6417169   2.0002804  65.1157418  64.9350735   1.7285393
  66.2213589  65.2257614   2.7210068  75.8625738  73.7016327   2.0832333
  75.5710546  74.0646308   2.9195794  75.2497869  72.9883336   1.9045665
  74.1112926  68.8248942   0.5512391  74.5867048  69.0176588  -0.2568758
  73.1878491  68.8808128   0.3055774  68.6893143  60.8596786  -0.4831775
  69.2075086  61.5957813  -0.8085287  68.3348275  61.1660779   0.3514984
  68.9405737  57.2797068  -4.9630879  69.2207491  56.6120257  -4.3370452
  69.7256344  57.4726164  -5.4756215  72.8114595  65.7014702  -1.2159304
  73.7632018  65.8012800  -1.1947080  72.6418045  64.9092971  -0.7061219
  70.8328975  62.7870285  -1.0299903  70.2378907  63.0675298  -1.7253414
  70.5478671  63.2764186  -0.2583162  75.2902673  68.9220822  -2.1017004
  75.2578993  67.9836823  -1.9157320  75.9003297  69.0004859  -2.8351179
  75.4397161  65.7131865  -2.0558721  74.9236210  64.9290322  -2.2428792
  76.3237110  65.3850582  -1.8912201  73.1007888  59.4572881  -6.0962908
  72.9032709  59.1487969  -5.2119576  73.7107594  60.1834520  -5.9664978
  67.0124696  71.8434621   5.4010857  67.9327706  72.0213220   5.5950903
  66.9774279  70.8990666   5.2490556  56.2306861  67.0373215  -5.6735868
  55.9109646  66.1838523  -5.9661494  55.6840289  67.2521793  -4.9177901
  60.0086769  69.7535656  -1.9566362  60.2272779  70.6852763  -1.9378328
  60.4212543  69.3943630  -1.1711558  66.9290987  60.2603741  -9.9690674
  66.1191715  59.9150826  -9.5935427  67.6175404  59.9511285  -9.3803062
  68.8581535  59.3381788  -8.3466377  69.4112574  59.7577241  -7.6876354
  69.0951621  58.4117536  -8.3043421  64.8814634  65.3268861   7.4336387
  64.7811361  66.2763218   7.3648478  64.6636176  64.9987100   6.5612457
  56.0995121  70.6576126  -3.7042747  55.4058593  70.2430079  -4.2172792
  56.8468112  70.6996663  -4.3009328  70.6863908  60.8487371  -6.6366392
  71.1863687  60.9603905  -7.4452073  71.3299516  60.5448423  -5.9965584
  64.7445904  68.7566000   6.2501449  64.2612986  69.5566360   6.4565338
  64.8306843  68.7673945   5.2968893  58.0131864  70.5894380  -5.8276732
  57.9902552  70.6882067  -6.7794849  58.3232500  71.4359531  -5.5059566
  60.6719242  72.6470535  -1.7130118  61.6262495  72.6154477  -1.7800186
  60.4731765  72.1861159  -0.8979892  61.2618624  71.2171651   0.8540680
  62.0811513  71.7115730   0.8775517  61.5355432  70.3003619   0.8258248
  74.3699756  63.6328924  -6.0677025  75.1460146  64.1225377  -5.7952408
  73.6447890  64.0586979  -5.6105156  56.5153538  65.5509785   1.5532877
  57.1612402  65.0408739   2.0420102  56.3070689  66.2878467   2.1276302
  69.0406930  72.6190632   7.0525018  69.9098090  72.7931285   6.6911653
  68.5613682  73.4385049   6.9300747  63.2093110  79.7387733  -1.2685549
  64.1120357  79.7711344  -0.9519054  62.9830481  78.8088184  -1.2539213
  68.8509268  56.4092606  -8.4397290  68.0841664  55.8551093  -8.2940608
  69.2619973  56.4814475  -7.5783138  60.8551029  62.6977402   5.6507891
  61.7182491  62.3414207   5.8611216  60.2816440  62.3591297   6.3383296
  73.4132530  76.1058119   6.6437863  73.0199475  75.5524317   7.3185507
  74.2298670  76.4168697   7.0344380  76.3300491  77.5215998   4.2358119
  77.0710204  78.1223151   4.1562582  76.5618414  76.7793636   3.6776162
  71.3580518  79.8959808   3.5842526  71.9852556  79.5136885   4.1980050
  70.5008436  79.6774010   3.9498218  74.5948575  79.2177714   5.2456445
  74.6436730  80.0939837   4.8634215  75.1371089  78.6755107   4.6728089
  75.7208389  80.6560779   7.4336387  75.6205116  81.6055136   7.3648478
  75.5029931  80.3279018   6.5612457  67.3547293  80.8801703   1.5532877
  68.0006156  80.3700657   2.0420102  67.1464444  81.6170384   2.1276302
  71.6944784  78.0269320   5.6507891  72.5576245  77.6706124   5.8611216
  71.1210194  77.6883214   6.3383296  67.7139913  52.3260310  -9.1630844
  67.2703768  51.5396689  -9.4809939  68.3757127  52.5139461  -9.8286953
  69.8121151  52.6063110 -11.1349442  69.7939627  53.4271991 -11.6269173
  70.7341071  52.4817185 -10.9099301  70.7236992  49.2458948  -8.7398724
  70.5722499  49.0169500  -9.6568640  70.7141672  50.2029550  -8.7267379
  72.4329199  52.2778071 -10.6622242  72.3741745  51.5937291 -11.3291659
  72.8348717  53.0197061 -11.1141616  70.9180873  51.9792988  -8.0858432
  71.4620777  52.5922946  -8.5803477  70.3367718  52.5372567  -7.5691419
  74.2409667  51.4389042  -8.7497111  73.4505211  51.4213181  -9.2892611
  74.0043022  51.9777336  -7.9948074  75.8625739  50.7078450 -11.1922361
  75.5710547  51.0708431 -10.3558900  75.2497870  49.9945458 -11.3709029
  69.0406931  49.6252755  -6.2229676  69.9098091  49.7993407  -6.5843041
  68.5613683  50.4447172  -6.3453946  73.4132531  53.1120241  -6.6316830
  73.0199477  52.5586440  -5.9569186  74.2298671  53.4230820  -6.2410313
  76.3300492  54.5278120  -9.0396574  77.0710205  55.1285273  -9.1192111
  76.5618415  53.7855758  -9.5978531  71.3580519  56.9021931  -9.6912168
  71.9852558  56.5199008  -9.0774643  70.5008438  56.6836133  -9.3256475
  74.5948576  56.2239837  -8.0298248  74.6436732  57.1001959  -8.4120478
  75.1371090  55.6817230  -8.6026605  75.7208390  57.6622902  -5.8418306
  75.6205117  58.6117259  -5.9106215  75.5029932  57.3341141  -6.7142236
  67.3547294  57.8863825 -11.7221816  68.0006157  57.3762779 -11.2334591
  67.1464445  58.6232507 -11.1478391  71.6944785  55.0331442  -7.6246802
  72.5576246  54.6768247  -7.4143477  71.1210195  54.6945337  -6.9371398
   4.8216521 100.4845058  47.4087559   4.0680230  99.9152456  47.2531563
   4.9564062 100.4507722  48.3558193   1.6432269 100.4547808  45.3131226
   2.0863415  99.7055133  44.9150349   0.7658779 100.4457944  44.9304958
   1.1865134 101.9253046  47.7053673   2.0212025 102.3642850  47.8691234
   1.3224262 101.4491699  46.8861919   5.2322936 100.6420668  50.1407803
   5.9626325 100.3805956  50.7015506   4.6229882  99.9049390  50.1809871
   3.3138233  98.7828530  50.7382254   2.5871397  98.6484495  50.1298746
   2.8985520  99.0905359  51.5438972   0.9316028  95.0040382  48.0915686
   1.5260519  94.7636118  47.3808994   1.0042612  94.2847513  48.7189222
   3.2387101  98.3106583  46.8659107   2.6786659  98.3799773  47.6390669
   2.6330604  98.1347568  46.1458603   4.4001367 104.2080940  51.6141172
   4.0565637 105.0982581  51.5380282   4.7680330 104.0182597  50.7510757
   6.1989033 103.4674499  46.7158909   6.5047910 102.6071862  46.4284824
   6.9241638 104.0592119  46.5157903   6.4690651 105.8968734  49.2142830
   5.5553731 106.1272961  49.3825037   6.8983752 105.9807178  50.0656862
   3.9043205 103.2672825  48.1387891   4.1844959 102.5996014  48.7648318
   4.6893812 103.4601920  47.6262555   8.0645356 105.4448637  47.0055862
   7.8670177 105.1363726  47.8899194   8.6745062 106.1710276  47.1353792
   3.8219003 105.3257544  44.7552393   4.3750042 105.7452998  45.4142417
   4.0589089 104.3993292  44.7975349   3.8146736 102.3968363  44.6621480
   3.0479132 101.8426849  44.8078163   4.2257441 102.4690232  45.5235632
   4.8216522  77.4907180  34.1332865   4.0680231  76.9214578  33.9776870
   4.9564064  77.4569845  35.0803500   1.6432270  77.4609930  32.0376532
   2.0863416  76.7117256  31.6395656   0.7658781  77.4520067  31.6550264
   1.1865135  78.9315169  34.4298980   2.0212026  79.3704973  34.5936540
   1.3224264  78.4553822  33.6107226   5.2322938  77.6482790  36.8653110
   5.9626326  77.3868078  37.4260813   4.6229883  76.9111512  36.9055178
   3.3138235  75.7890653  37.4627561   2.5871398  75.6546618  36.8544052
   2.8985522  76.0967481  38.2684279   0.9316030  72.0102505  34.8160992
   1.5260520  71.7698241  34.1054301   1.0042613  71.2909636  35.4434529
   3.2387102  75.3168706  33.5904414   2.6786660  75.3861895  34.3635976
   2.6330606  75.1409691  32.8703910   4.8243121  91.9925220  36.2834369
   5.4621531  91.8731967  35.5797709   4.7063964  92.9406064  36.3422322
   1.6332827  91.9452648  36.2195894   1.2951339  91.8293713  35.3316429
   2.5022595  91.5443813  36.1996900   2.1152610  93.0987500  42.1782100
   2.1041251  92.7040298  41.3062603   2.2773250  92.3653572  42.7715871
   4.3784389  89.7176674  33.3587577   5.1647478  89.2996097  33.0077994
   4.6423094  90.6222766  33.5269226   9.7792816  89.6551907  34.2620556
  10.5117988  89.0851124  34.4958385   9.0232172  89.2673507  34.7027062
   1.3968936  92.0779148  31.4583898   1.0327143  91.5509769  32.1696820
   2.2536052  91.6877617  31.2850384   7.3018237  83.3673481  38.7215165
   6.9701562  84.2368892  38.4976380   6.7063850  83.0509765  39.4009195
   3.7949756  95.5686027  38.1211077   3.4950479  96.4711066  38.0126885
   3.4500816  95.3018210  38.9732230   7.1946900  88.0868567  35.8008515
   6.2863777  88.0183976  35.5067276   7.1434496  88.5640512  36.6290340
   1.2687766  89.5058213  43.7443412   0.4921100  90.0652133  43.7346277
   1.9078329  89.9914996  44.2658282   9.0608546  86.2885006  37.5786389
   8.4182927  86.5817539  36.9326183   8.5563475  86.1737926  38.3839585
   6.7148710  90.0348179  28.2672248   7.6266566  90.2675565  28.0919945
   6.2058357  90.6185223  27.7047326   4.9989478  94.4572807  41.9033540
   5.4072834  94.0155217  41.1588173   4.2766739  93.8825434  42.1567733
   1.3520548  89.3945413  39.2767097   2.1981743  89.8184827  39.4201746
   1.2919185  88.7379038  39.9705660   5.3218292  95.0173997  35.6585829
   4.6927155  95.1819711  34.9561897   4.9343955  95.4315607  36.4296793
   9.2007524  95.9528435  33.0130193   8.5158562  96.3327336  32.4627226
   9.2851374  96.5623762  33.7462141   4.5019993  87.0549782  40.9348271
   4.2580925  87.8091842  40.3982547   4.7779924  87.4335129  41.7695518
   6.4558456  93.5988394  39.6125537   6.6675351  94.2420154  38.9359918
   6.4088204  92.7650711  39.1447467   4.0584685  86.2106215  36.5162109
   3.1969164  86.5087468  36.8078846   4.0847120  86.4276614  35.5843141
   0.8746254  94.7548405  32.9235914   1.3384600  95.0336108  32.1340537
   0.6103052  93.8531850  32.7409005   7.5704284  96.4760349  37.7847894
   8.3921728  96.0740537  37.5030576   7.5666687  96.3728584  38.7364010
   1.3360887  96.0244393  39.9408604   1.4005320  96.4864800  40.7766776
   0.6271811  95.3941758  40.0690914  15.6610277  92.8199098  34.1332865
  14.9073985  92.2506496  33.9776870  15.7957818  92.7861762  35.0803500
   2.6777381  98.3136067  43.9387927   2.2341236  97.5272445  43.6208831
   3.3394595  98.5015217  43.2731818   4.7758619  98.5938867  41.9669328
   4.7577095  99.4147748  41.4749597   5.6978539  98.4692942  42.1919469
   1.2331674  96.1082996  42.8092836   1.7660010  95.3471284  42.5792144
   0.7045755  95.8156648  43.5516991   4.4001369  81.2143062  38.3386478
   4.0565638  82.1044704  38.2625589   4.7680331  81.0244720  37.4756063
   4.3651651  91.2051673  26.8458913   3.8498275  91.9756278  27.0847301
   4.0928960  90.5316809  27.4691975   1.9498762  86.0501374  31.9044152
   1.0940359  85.6608224  31.7249790   2.3625714  86.1293335  31.0443937
   3.4797909  83.5847717  36.3035711   2.9762705  83.5477852  35.4903517
   3.7728516  84.4940460  36.3632368   9.3385925  93.9584028  28.7812087
   8.5615368  93.6195187  28.3367249  10.0177406  93.9636651  28.1067052
   4.1537954  89.0778765  28.6718694   3.8488090  89.3924915  29.5228838
   5.1068397  89.1560185  28.7146027   7.5777232  93.4318009  35.4378695
   6.9200907  94.1217271  35.5258823   8.3817632  93.8214441  35.7812681
   6.3882691  91.7862382  33.4882636   6.9014573  92.4192374  33.9904346
   7.0383915  91.1863577  33.1225996   2.8663522  89.2611837  35.7340977
   1.9486083  89.4826784  35.5762665   3.2823666  89.3358148  34.8752684
   3.6498570  90.6603253  30.8643657   4.3970389  91.1724650  30.5550779
   3.9190159  90.3387306  31.7248051   7.1544487  96.7668383  31.6161779
   6.7006814  95.9259293  31.6726970   6.5238454  97.4029782  31.9536559
   6.0977407  87.6960369  32.8462447   5.3600164  87.1837756  33.1772689
   6.3504180  87.2560751  32.0345723   5.5977427  98.6044880  32.5511597
   5.8900401  99.1649937  31.8323963   6.1076047  98.8973441  33.3064756
   6.1989034  80.4736621  33.4404216   6.5047911  79.6133985  33.1530131
   6.9241639  81.0654242  33.2403210   4.0076686  89.8509299  40.5385680
   4.3626073  90.0780772  41.3980145   4.6548817  90.1827675  39.9162935
   9.7374422  92.9727735  31.2435009   9.5992321  93.1629330  30.3156198
   9.3810641  93.7347117  31.7003060   9.7643802  95.0404262  36.2546280
  10.1980309  94.9479551  37.1029334  10.4775383  95.0161762  35.6166296
   3.4971697  98.6406356  37.7879381   3.5508719  99.2097292  38.5557097
   2.6286478  98.8108241  37.4233418  10.6259352  95.0827962  38.7879166
  10.8195242  95.9873773  39.0338441  10.5259970  94.6235381  39.6217751
   2.2795662  84.9685853  41.2869493   1.6323577  85.6675802  41.1933969
   3.0496678  85.4021997  41.6545741   5.6874460  95.2334705  44.3620046
   5.5359967  95.0045257  43.4450130   5.6779140  96.1905306  44.3751391
   2.4559797  92.8066618  39.3466313   3.3851857  92.9577777  39.1735280
   2.0350827  92.8950638  38.4914959   2.8053344  96.2098885  34.5053688
   2.4703176  96.1699655  35.4011338   2.3057289  95.5443601  34.0324098
   7.3966667  98.2653827  42.4396528   7.3379213  97.5813048  41.7727111
   7.7986185  99.0072817  41.9877154   7.3984074  96.2293411  40.6710508
   6.5110853  95.8919333  40.7936907   7.9682625  95.4976443  40.9079273
   0.9285228 100.8894864  37.6371751   0.8555399 101.6949835  38.1491056
   0.4862621 101.0886830  36.8119772   4.0271657  85.9361263  33.7908778
   4.5240357  85.1831226  33.4709848   3.2558639  85.9725580  33.2251987
  11.8801415  91.6401629  35.4327069  11.8691291  92.5226344  35.0621002
  11.0118794  91.2873180  35.2381606   3.3883911 100.7881698  39.7929910
   4.1011883 101.4229163  39.7205811   2.8973940 100.8845564  38.9769911
   5.1101438  94.6932950  31.3647201   4.1757717  94.8134413  31.1951906
   5.2878107  93.7905417  31.1007211   8.4973989  90.5350270  31.8997235
   8.9634442  91.3678261  31.8257538   8.9481490  90.0695251  32.6042494
   6.5650221  96.8794091  28.8983387   6.8410064  96.7650686  29.8077262
   5.6954719  96.4811576  28.8595561   6.4690652  82.9030857  35.9388137
   5.5553732  83.1335084  36.1070344   6.8983754  82.9869301  36.7902169
   6.2397111  91.0920749  38.4388031   5.5868561  91.3396656  37.7840484
   6.6177491  90.2784887  38.1050508   3.2004285 101.1280442  32.5416201
   3.3826679 100.3102098  33.0043953   4.0237271 101.3448134  32.1041091
   2.2884684  91.8340560  44.9254068   1.6125321  91.7334689  45.5956443
   3.1112318  91.6779773  45.3890065   1.0307467 103.1407487  39.1611684
   1.5825775 103.3039109  39.9260769   1.3713660 103.7311925  38.4891709
   5.8818341  97.9668745  45.0160338   6.4258245  98.5798703  44.5215293
   5.3005186  98.5248323  45.5327351   4.1675854 101.0889463  36.1475366
   4.0426993 100.2879203  35.6386312   4.8254945 101.5835656  35.6589336
   6.2310762  98.8898483  37.7754916   5.2841098  98.7703834  37.7033243
   6.5793535  98.0020981  37.8581178   3.2357196  98.6851199  33.9759268
   3.0882158  97.7567906  34.1566838   4.0610689  98.7071290  33.4916344
   6.8391317  99.5079758  35.0624141   7.7637865  99.3022619  34.9248592
   6.6706621  99.2596159  35.9713483   3.2318710  86.5389037  28.9691386
   3.4482324  87.4213675  28.6680214   2.7512777  86.1475250  28.2397028
   1.6840445  86.9214638  37.6396147   1.4258223  87.8431709  37.6380478
   1.1525485  86.5245073  38.3296611   6.6286634 100.0265425  30.4186233
   6.8023511  99.4611848  29.6660085   7.1215525 100.8266320  30.2365723
   2.1042400  83.0546589  33.9997310   2.1264097  83.1185922  33.0449289
   2.5210459  82.2151097  34.1937816  12.4826025  92.7901848  32.0376532
  12.9257171  92.0409173  31.6395656  11.6052535  92.7811985  31.6550264
   9.5153229  96.7931895  29.0470462  10.0404553  97.1319168  28.3219782
   9.4275582  95.8578910  28.8633596   1.1773278 100.7065969  41.1760338
   1.4860404 100.4615116  42.0483038   1.9748760 100.9112607  40.6879208
   9.2047135  97.4264799  44.3521660   8.4142679  97.4088938  43.8126159
   8.9680490  97.9653092  45.1070696   9.3245010  94.2757265  41.6654388
   9.3743015  94.1107273  42.6069911   9.2158934  93.4084524  41.2752269
   6.6148773  90.2588193  42.9813695   7.5158635  90.1194658  42.6897693
   6.6896747  90.4242648  43.9211872  10.8263207  96.6954207  41.9096410
  10.5348015  97.0584187  42.7459871  10.2135338  95.9821215  41.7309742
  12.0258889  94.2607086  34.4298980  12.8605781  94.6996891  34.5936540
  12.1618018  93.7845740  33.6107226   9.0750395  91.8186821  40.3776468
   9.5504517  92.0114468  39.5695319   8.1515961  91.8746007  40.1319851
   3.6530612  83.8534665  39.3432302   4.1712556  84.5895692  39.0178790
   3.2985745  84.1598658  40.1779061   3.9043206  80.2734947  34.8633198
   4.1844960  79.6058136  35.4893625   4.6893813  80.4664043  34.3507862
   7.7752064  88.6952581  38.6104773   8.7269487  88.7950679  38.6316997
   7.6055515  87.9030850  39.1202858   5.7966444  85.7808165  38.7964174
   5.2016376  86.0613177  38.1010663   5.5116141  86.2702066  39.5680915
  10.2540142  91.9158701  37.7247073  10.2216462  90.9774702  37.9106757
  10.8640766  91.9942738  36.9912898  10.4034631  88.7069745  37.7705356
   9.8873679  87.9228201  37.5835285  11.2874579  88.3788461  37.9351876
   8.0645358  82.4510760  33.7301169   7.8670179  82.1425848  34.6144501
   8.6745063  83.1772399  33.8599099  16.0716692  92.9774708  36.8653110
  16.8020080  92.7159996  37.4260813  15.4623637  92.2403430  36.9055178
  14.1531989  91.1182571  37.4627561  13.4265153  90.9838535  36.8544052
  13.7379276  91.4259399  38.2684279   1.9762166  94.8372500  45.2274934
   2.8965175  95.0151099  45.4214980   1.9411749  93.8928546  45.0754633
   1.8928456  83.2541620  29.8573403   1.0829184  82.9088705  30.2328650
   2.5812873  82.9449164  30.4461015   3.8219004  82.3319667  31.4797700
   4.3750043  82.7515120  32.1387723   4.0589091  81.4055415  31.5220656
   7.1997811  84.4420192  30.9876364   6.6196480  85.1004996  30.6054417
   6.9333744  83.6197537  30.5763782   5.6501378  83.8425250  33.1897685
   6.1501156  83.9541784  32.3812004   6.2936986  83.5386303  33.8298493
   5.9822689  86.6020283  30.0432713   5.0948544  86.8869933  29.8252907
   6.3976678  86.4414046  29.1959990   9.3337225  86.6266803  33.7587052
  10.1097616  87.1163256  34.0311669   8.6085360  87.0524858  34.2158921
  11.7709784  87.3394423  34.8160992  12.3654275  87.0990159  34.1054301
  11.8436368  86.6201553  35.4434529   5.9563713  92.1174818  30.2583003
   5.8998914  92.5743370  29.4190635   6.5092055  91.3565503  30.0805846
   9.7668519  87.9064550  31.0833122   9.5105453  87.5061186  31.9141330
   9.1421387  88.6208344  30.9583261  14.0780857  90.6460624  33.5904414
  13.5180415  90.7153813  34.3635976  13.4724360  90.4701608  32.8703910
   6.6898492  93.3079600  27.5535532   6.6347296  93.1423871  26.6123976
   6.0644548  94.0155633  27.7097722   4.0044400  95.6128512  46.8789095
   4.8735559  95.7869164  46.5175730   3.5251151  96.4322928  46.7564824
   3.8146737  79.4030485  31.3866787   3.0479133  78.8488972  31.5323469
   4.2257442  79.4752354  32.2480939  15.6636875 107.3217137  36.2834369
  16.3015285 107.2023885  35.5797709  15.5457718 108.2697981  36.3422322
  12.4726582 107.2744566  36.2195894  12.1345093 107.1585630  35.3316429
  13.3416350 106.8735731  36.1996900  12.9546365 108.4279417  42.1782100
  12.9435005 108.0332216  41.3062603  13.1167004 107.6945490  42.7715871
  15.2178144 105.0468591  33.3587577  16.0041233 104.6288015  33.0077994
  15.4816848 105.9514684  33.5269226  20.6186571 104.9843825  34.2620556
  21.3511743 104.4143041  34.4958385  19.8625927 104.5965425  34.7027062
  12.2362691 107.4071066  31.4583898  11.8720898 106.8801687  32.1696820
  13.0929807 107.0169535  31.2850384  18.1411991  98.6965399  38.7215165
  17.8095316  99.5660810  38.4976380  17.5457605  98.3801683  39.4009195
  18.0340655 103.4160485  35.8008515  17.1257532 103.3475893  35.5067276
  17.9828250 103.8932430  36.6290340  12.1081520 104.8350130  43.7443412
  11.3314854 105.3944051  43.7346277  12.7472083 105.3206913  44.2658282
  19.9002301 101.6176923  37.5786389  19.2576681 101.9109456  36.9326183
  19.3957229 101.5029844  38.3839585  17.5542465 105.3640096  28.2672248
  18.4660321 105.5967483  28.0919945  17.0452112 105.9477141  27.7047326
  15.8383232 109.7864724  41.9033540  16.2466588 109.3447135  41.1588173
  15.1160494 109.2117352  42.1567733  12.1914302 104.7237331  39.2767097
  13.0375498 105.1476745  39.4201746  12.1312940 104.0670955  39.9705660
  15.3413748 102.3841699  40.9348271  15.0974680 103.1383760  40.3982547
  15.6173678 102.7627047  41.7695518  17.2952210 108.9280312  39.6125537
  17.5069106 109.5712072  38.9359918  17.2481959 108.0942628  39.1447467
  14.8978439 101.5398132  36.5162109  14.0362918 101.8379386  36.8078846
  14.9240874 101.7568531  35.5843141  10.6508895 106.2063475  29.7325479
  11.3532938 106.6584519  30.1999406  10.3189523 105.5647294  30.3605373
   9.0989256 104.7975232  44.1076689   8.4687917 105.4791513  44.3412086
   8.9925344 104.6858314  43.1629827   4.3934229 104.4647028  35.0342613
   3.6033283 104.7204557  34.5582724   4.8845476 105.2795366  35.1394654
  26.5004031 108.1491016  34.1332865  25.7467740 107.5798414  33.9776870
  26.6351573 108.1153680  35.0803500   8.3769999  99.0995998  46.4701940
   7.9836945  98.5462196  47.1449584   9.1936139  99.4106576  46.8608457
  11.2937960 100.5153877  44.0622196  12.0347673 101.1161030  43.9826659
  11.5255883  99.7731515  43.5040239   6.4379298 105.7010244  42.3400426
   6.3232813 104.7995501  42.6407525   5.5823816 105.9473941  41.9885243
  15.2395123  96.5434980  38.3386478  14.8959392  97.4336622  38.2625589
  15.6074086  96.3536637  37.4756063  15.2045406 106.5343591  26.8458913
  14.6892029 107.3048196  27.0847301  14.9322714 105.8608727  27.4691975
  12.7892517 101.3793292  31.9044152  11.9334113 100.9900142  31.7249790
  13.2019469 101.4585253  31.0443937  14.3191663  98.9139635  36.3035711
  13.8156459  98.8769770  35.4903517  14.6122270  99.8232378  36.3632368
  10.5634549  98.9978365  35.3101893  11.4287546  98.8021173  34.9507783
  10.6312058  98.7688716  36.2371250  20.1779680 109.2875946  28.7812087
  19.4009123 108.9487105  28.3367249  20.8571161 109.2928569  28.1067052
  14.9931709 104.4070683  28.6718694  14.6881844 104.7216832  29.5228838
  15.9462151 104.4852103  28.7146027  18.4170987 108.7609927  35.4378695
  17.7594661 109.4509188  35.5258823  19.2211386 109.1506359  35.7812681
   8.1696868 101.2280573  32.6818260   8.7440620 101.0055754  31.9491453
   8.7567851 101.2969267  33.4346861  17.2276446 107.1154300  33.4882636
  17.7408327 107.7484291  33.9904346  17.8777669 106.5155495  33.1225996
  10.4719536  98.1021822  31.4093329   9.8183948  97.7870839  30.7849944
  10.4300010  97.4797562  32.1353152  13.7057276 104.5903755  35.7340977
  12.7879838 104.8118702  35.5762665  14.1217420 104.6650066  34.8752684
  14.4892324 105.9895171  30.8643657  15.2364143 106.5016568  30.5550779
  14.7583914 105.6679223  31.7248051  16.9371161 103.0252287  32.8462447
  16.1993918 102.5129673  33.1772689  17.1897935 102.5852669  32.0345723
  17.0382789  95.8028539  33.4404216  17.3441665  94.9425902  33.1530131
  17.7635394  96.3946159  33.2403210  11.3103868 106.0982332  33.9480407
  11.3652478 105.1456168  33.8722883  10.4995070 106.2541771  34.4321705
   9.2496228 104.7159392  31.7070786   8.4364094 105.0153562  32.1135978
   9.7455223 104.3215081  32.4245268  14.8470440 105.1801216  40.5385680
  15.2019828 105.4072689  41.3980145  15.4942571 105.5119593  39.9162935
  20.5768177 108.3019652  31.2435009  20.4386076 108.4921248  30.3156198
  20.2204396 109.0639035  31.7003060   8.7410303 102.2877747  37.3232021
   9.3809682 102.1466506  36.6254984   7.9087834 102.0012261  36.9470623
  20.6037557 110.3696179  36.2546280  21.0374063 110.2771468  37.1029334
  21.3169137 110.3453680  35.6166296   5.7438920 102.2578072  32.1005008
   6.0045737 103.1723406  31.9914168   6.5656092 101.7902515  32.2501620
   7.2163845 103.6715830  39.2703832   7.8886898 103.4633192  38.6216481
   6.3893631 103.4737916  38.8309064  21.4653106 110.4119880  38.7879166
  21.6588996 111.3165690  39.0338441  21.3653724 109.9527299  39.6217751
  13.1189417 100.2977770  41.2869493  12.4717332 100.9967720  41.1933969
  13.8890432 100.7313914  41.6545741  13.2953551 108.1358535  39.3466313
  14.2245611 108.2869695  39.1735280  12.8744581 108.2242556  38.4914959
   7.6191342 106.9458432  40.0306269   7.4811140 106.2138671  40.6317808
   8.5296266 106.8567333  39.7490457  10.2473643 106.6578392  39.5189949
  10.9573261 106.0171584  39.4776567  10.2042951 106.9091287  40.4416130
   8.9602577 103.6443610  41.3385588   8.4239934 103.1934348  41.9907185
   8.3719285 103.7789519  40.5956053   4.6941698 102.7799617  38.4238583
   4.6099887 102.1725287  37.6888993   3.8724404 103.2708636  38.4248079
  14.8665412 101.2653181  33.7908778  15.3634111 100.5123143  33.4709848
  14.0952393 101.3017498  33.2251987  22.7195169 106.9693546  35.4327069
  22.7085046 107.8518262  35.0621002  21.8512549 106.6165097  35.2381606
  11.4500381 103.4070564  33.5180462  11.0798168 102.8541604  34.2061368
  11.9459473 102.8028697  32.9655463  19.3367744 105.8642187  31.8997235
  19.8028196 106.6970179  31.8257538  19.7875244 105.3987169  32.6042494
  17.3084407  98.2322774  35.9388137  16.3947486  98.4627001  36.1070344
  17.7377508  98.3161218  36.7902169  17.0790865 106.4212666  38.4388031
  16.4262315 106.6688574  37.7840484  17.4571245 105.6076805  38.1050508
  13.1278438 107.1632477  44.9254068  12.4519075 107.0626607  45.5956443
  13.9506072 107.0071691  45.3890065   6.8465714 100.8174555  39.7633569
   6.9107041 101.6789386  39.3510966   6.7832835 100.2048556  39.0305927
   6.3217987 102.8897687  43.4106603   6.9490026 102.5074765  44.0244127
   5.4645906 102.6711889  43.7762295   6.6277777 102.7730113  35.3252506
   5.9064362 103.3866081  35.1859980   7.4171032 103.3087878  35.2469152
   9.4304090 100.1084539  41.5993158   9.9538492 100.3546836  42.3619467
   9.2116423 100.9404574  41.1796295  10.6356635 101.0498235  39.2842829
  10.2953455 100.2506048  39.6863508   9.9295641 101.3499945  38.7119662
  11.2873107  98.1347547  37.7370152  12.1099176  97.6608025  37.6149042
  11.5311170  98.9138031  38.2368838   9.9281341 101.1635805  28.0333053
  10.6489704 101.5417058  27.5296770   9.3046646 101.8824682  28.1368031
  14.0712464 101.8680954  28.9691386  14.2876079 102.7505592  28.6680214
  13.5906531 101.4767168  28.2397028   8.8111686 104.8266668  35.5462130
   8.6656266 105.1406971  36.4386412   8.3336889 105.4451568  34.9933029
  10.6708069 101.8169216  35.5943020  10.6569637 100.9210309  35.2575318
  11.3880497 101.8239879  36.2281306  12.5234199 102.2506556  37.6396147
  12.2651977 103.1723626  37.6380478  11.9919240 101.8536990  38.3296611
  10.0744965 100.6983596  30.8630590  10.1960876  99.7700242  31.0621477
   9.7847007 100.7122282  29.9508905  12.9436155  98.3838506  33.9997310
  12.9657852  98.4477839  33.0449289  13.3604214  97.5443015  34.1937816
  23.3219779 108.1193766  32.0376532  23.7650925 107.3701091  31.6395656
  22.4446290 108.1103902  31.6550264   9.5586044 102.2115593  45.0720522
   9.6074200 103.0877716  44.6898292  10.1008558 101.6692986  44.4992166
  20.1638765 109.6049183  41.6654388  20.2136770 109.4399190  42.6069911
  20.0552688 108.7376442  41.2752269  17.4542527 105.5880111  42.9813695
  18.3552390 105.4486576  42.6897693  17.5290502 105.7534566  43.9211872
  11.7885332 102.9646966  41.8266881  10.9188642 103.2580532  41.5549470
  12.0244813 103.5487411  42.5474145  22.8652644 109.5899004  34.4298980
  23.6999535 110.0288808  34.5936540  23.0011773 109.1137657  33.6107226
  19.9144150 107.1478739  40.3776468  20.3898271 107.3406385  39.5695319
  18.9909715 107.2037925  40.1319851  14.4924366  99.1826583  39.3432302
  15.0106310  99.9187609  39.0178790  14.1379499  99.4890576  40.1779061
  14.7436960  95.6026865  34.8633198  15.0238714  94.9350054  35.4893625
  15.5287567  95.7955961  34.3507862  18.6145819 104.0244499  38.6104773
  19.5663242 104.1242597  38.6316997  18.4449269 103.2322768  39.1202858
  16.6360198 101.1100082  38.7964174  16.0410130 101.3905095  38.1010663
  16.3509895 101.5993983  39.5680915  21.0933897 107.2450619  37.7247073
  21.0610217 106.3066619  37.9106757  21.7034520 107.3234655  36.9912898
  21.2428385 104.0361662  37.7705356  20.7267434 103.2520119  37.5835285
  22.1268334 103.7080379  37.9351876  18.9039112  97.7802678  33.7301169
  18.7063933  97.4717766  34.6144501  19.5138818  98.5064317  33.8599099
  26.9110446 108.3066626  36.8653110  27.6413835 108.0451914  37.4260813
  26.3017392 107.5695348  36.9055178  24.9925744 106.4474488  37.4627561
  24.2658907 106.3130453  36.8544052  24.5773030 106.7551317  38.2684279
  12.7322210  98.5833538  29.8573403  11.9222939  98.2380623  30.2328650
  13.4206627  98.2741082  30.4461015  14.6612759  97.6611585  31.4797700
  15.2143797  98.0807038  32.1387723  14.8982845  96.7347333  31.5220656
  10.6845858 103.6498658  47.2600464  10.5842585 104.5993015  47.1912555
  10.4667400 103.3216897  46.3876534  18.0391566  99.7712110  30.9876364
  17.4590235 100.4296914  30.6054417  17.7727498  98.9489454  30.5763782
  16.4895132  99.1717168  33.1897685  16.9894910  99.2833702  32.3812004
  17.1330740  98.8678220  33.8298493  10.5477128 107.0795797  46.0765526
  10.0644210 107.8796157  46.2829415  10.6338067 107.0903742  45.1232970
  16.8216444 101.9312200  30.0432713  15.9342299 102.2161851  29.8252907
  17.2370433 101.7705964  29.1959990  20.1730980 101.9558721  33.7587052
  20.9491370 102.4455174  34.0311669  19.4479114 102.3816775  34.2158921
  22.6103539 102.6686340  34.8160992  23.2048029 102.4282076  34.1054301
  22.6830122 101.9493471  35.4434529  16.7957468 107.4466736  30.2583003
  16.7392669 107.9035288  29.4190635  17.3485810 106.6857421  30.0805846
  20.6062273 103.2356468  31.0833122  20.3499208 102.8353104  31.9141330
  19.9815141 103.9500262  30.9583261  24.9174611 105.9752541  33.5904414
  24.3574169 106.0445731  34.3635976  24.3118115 105.7993526  32.8703910
  17.5292247 108.6371517  27.5535532  17.4741051 108.4715789  26.6123976
  16.9038302 109.3447550  27.7097722   2.3184762 103.8739582  41.3796954
   2.9643625 103.3638536  41.8684179   2.1101913 104.6108263  41.9540379
  10.8388372  98.1379626  27.1320850  10.8267042  99.0821466  27.2889121
  11.7311794  97.9549772  26.8380312  14.6540492  94.7322403  31.3866787
  13.8872888  94.1780890  31.5323469  15.0651197  94.8044272  32.2480939
   6.6582253 101.0207199  45.4771968   7.5213714 100.6644004  45.6875293
   6.0847663 100.6821094  46.1647373  26.0788878 111.8726898  38.3386478
  25.7353147 112.7628539  38.2625589  26.4467840 111.6828555  37.4756063
  27.8776543 111.1320457  33.4404216  28.1835420 110.2717820  33.1530131
  28.6029148 111.7238077  33.2403210  28.1478161 113.5614692  35.9388137
  27.2341241 113.7918919  36.1070344  28.5771263 113.6453136  36.7902169
  25.5830715 110.9318783  34.8633198  25.8632469 110.2641972  35.4893625
  26.3681322 111.1247878  34.3507862  29.7432867 113.1094595  33.7301169
  29.5457688 112.8009684  34.6144501  30.3532572 113.8356234  33.8599099
  25.5006513 112.9903502  31.4797700  26.0537552 113.4098956  32.1387723
  25.7376600 112.0639250  31.5220656  25.4934246 110.0614321  31.3866787
  24.7266642 109.5072807  31.5323469  25.9044951 110.1336189  32.2480939
   4.8216524  54.4969303  20.8578172   4.0680232  53.9276701  20.7022176
   4.9564065  54.4631967  21.8048807   1.6432272  54.4672053  18.7621839
   2.0863418  53.7179378  18.3640962   0.7658782  54.4582189  18.3795571
   1.1865136  55.9377291  21.1544287   2.0212028  56.3767095  21.3181847
   1.3224265  55.4615945  20.3352532   5.2322939  54.6544913  23.5898416
   5.9626327  54.3930201  24.1506120   4.6229884  53.9173635  23.6300484
   3.3138236  52.7952775  24.1872868   2.5871399  52.6608740  23.5789359
   2.8985523  53.1029604  24.9929586   0.9316031  49.0164628  21.5406299
   1.5260522  48.7760364  20.8299607   1.0042615  48.2971758  22.1679835
   3.2387104  52.3230828  20.3149720   2.6786662  52.3924018  21.0881282
   2.6330607  52.1471813  19.5949217   4.8243122  68.9987342  23.0079676
   5.4621532  68.8794090  22.3043016   4.7063965  69.9468186  23.0667628
   1.6332828  68.9514771  22.9441201   1.2951340  68.8355835  22.0561736
   2.5022596  68.5505936  22.9242207   2.1152611  70.1049622  28.9027406
   2.1041252  69.7102421  28.0307910   2.2773251  69.3715695  29.4961178
   4.3784391  66.7238796  20.0832884   5.1647480  66.3058219  19.7323301
   4.6423095  67.6284888  20.2514532   9.7792818  66.6614029  20.9865863
  10.5117990  66.0913246  21.2203692   9.0232173  66.2735630  21.4272368
   1.3968937  69.0841271  18.1829205   1.0327145  68.5571892  18.8942126
   2.2536053  68.6939740  18.0095690   7.3018238  60.3735604  25.4460471
   6.9701563  61.2431015  25.2221686   6.7063851  60.0571888  26.1254502
   3.7949758  72.5748150  24.8456384   3.4950481  73.4773188  24.7372191
   3.4500817  72.3080333  25.6977537   7.1946901  65.0930690  22.5253821
   6.2863779  65.0246098  22.2312582   7.1434497  65.5702635  23.3535647
   1.2687767  66.5120335  30.4688719   0.4921101  67.0714255  30.4591583
   1.9078330  66.9977118  30.9903589   9.0608548  63.2947128  24.3031695
   8.4182928  63.5879661  23.6571490   8.5563476  63.1800048  25.1084892
   6.7148711  67.0410301  14.9917554   7.6266567  67.2737688  14.8165252
   6.2058358  67.6247346  14.4292633   4.9989479  71.4634929  28.6278847
   5.4072835  71.0217340  27.8833479   4.2766741  70.8887557  28.8813040
   1.3520549  66.4007536  26.0012404   2.1981744  66.8246949  26.1447053
   1.2919187  65.7441160  26.6950967   5.3218294  72.0236120  22.3831136
   4.6927156  72.1881834  21.6807204   4.9343956  72.4377729  23.1542100
   9.2007526  72.9590558  19.7375500   8.5158564  73.3389459  19.1872533
   9.2851375  73.5685884  20.4707447   4.5019994  64.0611904  27.6593578
   4.2580926  64.8153965  27.1227853   4.7779925  64.4397252  28.4940825
   6.4558457  70.6050517  26.3370843   6.6675352  71.2482277  25.6605224
   6.4088205  69.7712833  25.8692773   4.0584686  63.2168337  23.2407415
   3.1969165  63.5149591  23.5324153   4.0847121  63.4338736  22.3088448
   0.8746256  71.7610528  19.6481221   1.3384601  72.0398231  18.8585843
   0.6103054  70.8593972  19.4654312   7.5704285  73.4822472  24.5093201
   8.3921729  73.0802659  24.2275882   7.5666688  73.3790706  25.4609316
   1.3360889  73.0306515  26.6653911   1.4005321  73.4926923  27.5012083
   0.6271812  72.4003880  26.7936221  15.6610278  69.8261221  20.8578172
  14.9073987  69.2568619  20.7022176  15.7957819  69.7923885  21.8048807
   2.6777383  75.3198189  30.6633233   2.2341237  74.5334568  30.3454138
   3.3394596  75.5077340  29.9977124   4.7758621  75.6000989  28.6914635
   4.7577096  76.4209870  28.1994904   5.6978541  75.4755065  28.9164776
   1.2331675  73.1145119  29.5338143   1.7660012  72.3533407  29.3037451
   0.7045756  72.8218771  30.2762298   4.4001370  58.2205185  25.0631785
   4.0565639  59.1106826  24.9870895   4.7680332  58.0306842  24.2001370
   4.3651653  68.2113796  13.5704220   3.8498276  68.9818400  13.8092607
   4.0928961  67.5378932  14.1937281   1.9498764  63.0563497  18.6289458
   1.0940360  62.6670347  18.4495097   2.3625715  63.1355457  17.7689244
   3.4797910  60.5909840  23.0281018   2.9762706  60.5539975  22.2148823
   3.7728517  61.5002583  23.0877675   9.3385927  70.9646151  15.5057393
   8.5615369  70.6257310  15.0612555  10.0177408  70.9698774  14.8312358
   4.1537956  66.0840888  15.3964001   3.8488091  66.3987037  16.2474144
   5.1068398  66.1622308  15.4391334   7.5777234  70.4380132  22.1624001
   6.9200908  71.1279393  22.2504130   8.3817633  70.8276564  22.5057988
   6.3882692  68.7924504  20.2127943   6.9014574  69.4254496  20.7149653
   7.0383916  68.1925700  19.8471303   2.8663523  66.2673960  22.4586284
   1.9486085  66.4888907  22.3007972   3.2823667  66.3420270  21.5997991
   3.6498571  67.6665376  17.5888964   4.3970390  68.1786773  17.2796086
   3.9190161  67.3449428  18.4493357   7.1544489  73.7730506  18.3407086
   6.7006816  72.9321416  18.3972276   6.5238455  74.4091904  18.6781866
   6.0977408  64.7022492  19.5707753   5.3600165  64.1899878  19.9017996
   6.3504182  64.2622874  18.7591030   5.5977428  75.6107003  19.2756904
   5.8900402  76.1712060  18.5569270   6.1076048  75.9035564  20.0310063
   6.1989035  57.4798744  20.1649522   6.5047912  56.6196107  19.8775438
   6.9241640  58.0716364  19.9648516   4.0076687  66.8571421  27.2630986
   4.3626075  67.0842894  28.1225452   4.6548818  67.1889798  26.6408242
   9.7374424  69.9789857  17.9680315   9.5992322  70.1691453  17.0401505
   9.3810643  70.7409240  18.4248366   9.7643803  72.0466384  22.9791587
  10.1980310  71.9541673  23.8274641  10.4775384  72.0223885  22.3411603
   3.4971698  75.6468478  24.5124687   3.5508721  76.2159415  25.2802403
   2.6286480  75.8170363  24.1478725  10.6259353  72.0890085  25.5124472
  10.8195243  72.9935895  25.7583747  10.5259971  71.6297504  26.3463057
   2.2795664  61.9747975  28.0114800   1.6323579  62.6737925  27.9179276
   3.0496679  62.4084119  28.3791048   5.6874462  72.2396828  31.0865353
   5.5359968  72.0107379  30.1695437   5.6779141  73.1967429  31.0996698
   2.4559798  69.8128740  26.0711619   3.3851858  69.9639900  25.8980587
   2.0350828  69.9012761  25.2160266   2.8053345  73.2161007  21.2298995
   2.4703178  73.1761777  22.1256645   2.3057291  72.5505723  20.7569405
   7.3966668  75.2715950  29.1641835   7.3379214  74.5875170  28.4972418
   7.7986187  76.0134940  28.7122461   7.3984076  73.2355534  27.3955814
   6.5110854  72.8981456  27.5182213   7.9682627  72.5038565  27.6324580
   0.9285229  77.8956986  24.3617058   0.8555400  78.7011958  24.8736362
   0.4862622  78.0948952  23.5365079   4.0271659  62.9423386  20.5154085
   4.5240358  62.1893348  20.1955155   3.2558640  62.9787702  19.9497294
  11.8801416  68.6463751  22.1572376  11.8691292  69.5288467  21.7866309
  11.0118795  68.2935302  21.9626913   3.3883912  77.7943820  26.5175216
   4.1011885  78.4291285  26.4451118   2.8973941  77.8907686  25.7015218
   5.1101439  71.6995073  18.0892508   4.1757718  71.8196536  17.9197212
   5.2878108  70.7967540  17.8252518   8.4973991  67.5412392  18.6242542
   8.9634443  68.3740384  18.5502845   8.9481491  67.0757374  19.3287801
   6.5650222  73.8856214  15.6228694   6.8410066  73.7712808  16.5322568
   5.6954721  73.4873698  15.5840867   6.4690653  59.9092979  22.6633443
   5.5553733  60.1397206  22.8315650   6.8983755  59.9931423  23.5147476
   6.2397112  68.0982871  25.1633337   5.5868562  68.3458779  24.5085790
   6.6177492  67.2847009  24.8295815   3.2004286  78.1342564  19.2661508
   3.3826680  77.3164220  19.7289260   4.0237272  78.3510257  18.8286398
   2.2884685  68.8402682  31.6499375   1.6125322  68.7396812  32.3201750
   3.1112319  68.6841896  32.1135372   1.0307468  80.1469610  25.8856991
   1.5825776  80.3101231  26.6506076   1.3713661  80.7374048  25.2137015
   5.8818342  74.9730867  31.7405645   6.4258246  75.5860826  31.2460600
   5.3005187  75.5310446  32.2572658   4.1675855  78.0951585  22.8720673
   4.0426995  77.2941325  22.3631618   4.8254946  78.5897779  22.3834643
   6.2310763  75.8960605  24.5000223   5.2841099  75.7765957  24.4278549
   6.5793537  75.0083103  24.5826484   3.2357197  75.6913322  20.7004575
   3.0882159  74.7630029  20.8812145   4.0610690  75.7133412  20.2161650
   6.8391319  76.5141880  21.7869448   7.7637866  76.3084742  21.6493899
   6.6706622  76.2658282  22.6958789   3.2318711  63.5451159  15.6936692
   3.4482325  64.4275797  15.3925520   2.7512778  63.1537373  14.9642334
   1.6840446  63.9276761  24.3641454   1.4258224  64.8493831  24.3625784
   1.1525486  63.5307195  25.0541918   6.6286635  77.0327548  17.1431539
   6.8023512  76.4673970  16.3905392   7.1215526  77.8328443  16.9611029
   2.1042402  60.0608711  20.7242616   2.1264098  60.1248044  19.7694596
   2.5210461  59.2213220  20.9183123  12.4826026  69.7963971  18.7621839
  12.9257172  69.0471296  18.3640962  11.6052536  69.7874107  18.3795571
   9.5153230  73.7994018  15.7715768  10.0404555  74.1381291  15.0465088
   9.4275583  72.8641033  15.5878903   1.1773279  77.7128091  27.9005645
   1.4860406  77.4677238  28.7728344   1.9748761  77.9174730  27.4124515
   9.2047137  74.4326921  31.0766966   8.4142680  74.4151060  30.5371466
   8.9680491  74.9715215  31.8316003   9.3245012  71.2819388  28.3899695
   9.3743016  71.1169395  29.3315218   9.2158935  70.4146647  27.9997576
   6.6148774  67.2650316  29.7059001   7.5158637  67.1256781  29.4142999
   6.6896748  67.4304771  30.6457179  10.8263208  73.7016329  28.6341716
  10.5348017  74.0646310  29.4705177  10.2135340  72.9883338  28.4555048
  12.0258891  71.2669209  21.1544287  12.8605782  71.7059013  21.3181847
  12.1618019  70.7907862  20.3352532   9.0750397  68.8248944  27.1021774
   9.5504518  69.0176590  26.2940626   8.1515962  68.8808130  26.8565158
   3.6530613  60.8596787  26.0677608   4.1712557  61.5957814  25.7424097
   3.2985746  61.1660781  26.9024367   3.9043207  57.2797070  21.5878505
   4.1844961  56.6120259  22.2138931   4.6893814  57.4726166  21.0753169
   7.7752066  65.7014704  25.3350080   8.7269489  65.8012802  25.3562304
   7.6055516  64.9092973  25.8448164   5.7966445  62.7870287  25.5209481
   5.2016377  63.0675300  24.8255969   5.5116142  63.2764188  26.2926222
  10.2540143  68.9220824  24.4492380  10.2216464  67.9836824  24.6352063
  10.8640767  69.0004860  23.7158204  10.4034632  65.7131867  24.4950663
   9.8873681  64.9290324  24.3080592  11.2874580  65.3850584  24.6597182
   8.0645359  59.4572883  20.4546475   7.8670180  59.1487971  21.3389807
   8.6745064  60.1834522  20.5844405  16.0716693  69.9836831  23.5898416
  16.8020082  69.7222119  24.1506120  15.4623639  69.2465552  23.6300484
  14.1531990  68.1244693  24.1872868  13.4265154  67.9900658  23.5789359
  13.7379277  68.4321522  24.9929586   1.9762167  71.8434623  31.9520241
   2.8965176  72.0213222  32.1460287   1.9411750  70.8990668  31.7999940
   1.8928457  60.2603743  16.5818710   1.0829185  59.9150828  16.9573956
   2.5812874  59.9511286  17.1706322   3.8219005  59.3381790  18.2043007
   4.3750044  59.7577243  18.8633030   4.0589092  58.4117538  18.2465963
   7.1997813  61.4482315  17.7121671   6.6196482  62.1067119  17.3299723
   6.9333745  60.6259659  17.3009088   5.6501379  60.8487372  19.9142991
   6.1501157  60.9603907  19.1057310   6.2936987  60.5448425  20.5543800
   5.9822691  63.6082405  16.7678019   5.0948546  63.8932056  16.5498214
   6.3976680  63.4476168  15.9205296   9.3337227  63.6328926  20.4832358
  10.1097617  64.1225379  20.7556975   8.6085361  64.0586980  20.9404228
  11.7709785  64.3456545  21.5406299  12.3654276  64.1052281  20.8299607
  11.8436369  63.6263676  22.1679835   5.9563714  69.1236941  16.9828309
   5.8998916  69.5805492  16.1435942   6.5092057  68.3627626  16.8051152
   9.7668520  64.9126673  17.8078429   9.5105454  64.5123309  18.6386637
   9.1421388  65.6270467  17.6828568  14.0780858  67.6522746  20.3149720
  13.5180416  67.7215935  21.0881282  13.4724361  67.4763731  19.5949217
   6.6898494  70.3141722  14.2780839   6.6347297  70.1485994  13.3369283
   6.0644549  71.0217755  14.4343028   4.0044401  72.6190634  33.6034401
   4.8735560  72.7931286  33.2421036   3.5251152  73.4385051  33.4810131
   3.8146739  56.4092608  18.1112094   3.0479134  55.8551095  18.2568776
   4.2257443  56.4814477  18.9726245  15.6636877  84.3279260  23.0079676
  16.3015286  84.2086007  22.3043016  15.5457719  85.2760104  23.0667628
  12.4726583  84.2806688  22.9441201  12.1345094  84.1647753  22.0561736
  13.3416351  83.8797853  22.9242207  12.9546366  85.4341540  28.9027406
  12.9435007  85.0394338  28.0307910  13.1167005  84.7007613  29.4961178
   9.6753627  88.2178652  27.8506590   9.3843493  89.1224283  27.7353257
  10.3110611  88.2595179  28.5650660  10.6009834  85.5955500  24.4407950
  11.1973406  85.3711523  23.7264913  10.6584805  84.8540246  25.0433398
  15.2178145  82.0530714  20.0832884  16.0041234  81.6350137  19.7323301
  15.4816849  82.9576806  20.2514532  20.6186572  81.9905947  20.9865863
  21.3511744  81.4205164  21.2203692  19.8625928  81.6027548  21.4272368
  12.2362692  84.4133189  18.1829205  11.8720899  83.8863810  18.8942126
  13.0929808  84.0231658  18.0095690  18.1411992  75.7027521  25.4460471
  17.8095317  76.5722932  25.2221686  17.5457606  75.3863805  26.1254502
  14.6343512  87.9040067  24.8456384  14.3344235  88.8065106  24.7372191
  14.2894572  87.6372250  25.6977537   8.0855993  84.3553864  20.8793088
   7.1606490  84.2230078  21.0870780   8.3340407  85.1348083  21.3763031
  18.0340656  80.4222607  22.5253821  17.1257533  80.3538016  22.2312582
  17.9828252  80.8994552  23.3535647  12.1081522  81.8412253  30.4688719
  11.3314856  82.4006173  30.4591583  12.7472085  82.3269036  30.9903589
  19.9002302  78.6239046  24.3031695  19.2576682  78.9171579  23.6571490
  19.3957231  78.5091966  25.1084892  17.5542466  82.3702219  14.9917554
  18.4660322  82.6029606  14.8165252  17.0452113  82.9539263  14.4292633
  10.3627894  84.6497706  30.0306686  11.1042578  85.1882750  29.7541509
   9.6564879  85.2763995  30.1878237  15.8383234  86.7926847  28.6278847
  16.2466590  86.3509257  27.8833479  15.1160495  86.2179474  28.8813040
  12.1914304  81.7299454  26.0012404  13.0375499  82.1538867  26.1447053
  12.1312941  81.0733078  26.6950967  16.1612048  87.3528037  22.3831136
  15.5320911  87.5173752  21.6807204  15.7737710  87.7669647  23.1542100
  20.0401280  88.2882475  19.7375500  19.3552318  88.6681377  19.1872533
  20.1245129  88.8977802  20.4707447  15.3413749  79.3903822  27.6593578
  15.0974681  80.1445883  27.1227853  15.6173679  79.7689170  28.4940825
  17.2952212  85.9342434  26.3370843  17.5069107  86.5774194  25.6605224
  17.2481960  85.1004751  25.8692773  14.8978441  78.5460255  23.2407415
  14.0362920  78.8441509  23.5324153  14.9240875  78.7630654  22.3088448
  11.7140010  87.0902446  19.6481221  12.1778356  87.3690149  18.8585843
  11.4496808  86.1885890  19.4654312   8.6064091  86.6373927  22.5860984
   9.1765448  87.0661195  21.9478469   9.1972203  86.3556512  23.2845170
  10.6508896  83.2125598  16.4570786  11.3532939  83.6646642  16.9244712
  10.3189525  82.5709417  17.0850679   9.0989258  81.8037355  30.8321996
   8.4687918  82.4853635  31.0657392   8.9925346  81.6920436  29.8875134
   4.3934230  81.4709151  21.7587920   3.6033284  81.7266679  21.2828030
   4.8845477  82.2857488  21.8639960  18.4098040  88.8114390  24.5093201
  19.2315483  88.4094577  24.2275882  18.4060442  88.7082624  25.4609316
  12.1754643  88.3598433  26.6653911  12.2399076  88.8218840  27.5012083
  11.4665567  87.7295798  26.7936221   2.6771933  81.7239641  24.1902910
   2.9279971  82.6086651  24.4560486   3.2131481  81.5444243  23.4178002
  26.5004033  85.1553138  20.8578172  25.7467741  84.5860536  20.7022176
  26.6351574  85.1215803  21.8048807   8.3770000  76.1058120  33.1947247
   7.9836946  75.5524319  33.8694891   9.1936141  76.4168699  33.5853764
  11.2937961  77.5215999  30.7867503  12.0347675  78.1223153  30.7071966
  11.5255884  76.7793637  30.2285546   6.4379299  82.7072367  29.0645733
   6.3232814  81.8057624  29.3652832   5.5823817  82.9536064  28.7130549
  13.5171137  90.6490107  30.6633233  13.0734991  89.8626486  30.3454138
  14.1788351  90.8369258  29.9977124   8.2758258  92.1785909  25.1893912
   8.8265683  92.0502972  24.4170906   7.4369734  92.4780798  24.8388805
  15.6152375  90.9292907  28.6914635  15.5970851  91.7501788  28.1994904
  16.5372295  90.8046982  28.9164776  12.0725429  88.4437036  29.5338143
  12.6053766  87.6825325  29.3037451  11.5439510  88.1510688  30.2762298
  15.2395124  73.5497102  25.0631785  14.8959394  74.4398744  24.9870895
  15.6074087  73.3598760  24.2001370  15.2045407  83.5405714  13.5704220
  14.6892030  84.3110318  13.8092607  14.9322715  82.8670850  14.1937281
  12.7892518  78.3855414  18.6289458  11.9334114  77.9962265  18.4495097
  13.2019470  78.4647375  17.7689244  14.3191665  75.9201758  23.0281018
  13.8156460  75.8831893  22.2148823  14.6122272  76.8294500  23.0877675
  10.5634551  76.0040487  22.0347200  11.4287547  75.8083296  21.6753089
  10.6312059  75.7750839  22.9616557  20.1779681  86.2938068  15.5057393
  19.4009124  85.9549228  15.0612555  20.8571162  86.2990691  14.8312358
  14.9931710  81.4132806  15.3964001  14.6881846  81.7278955  16.2474144
  15.9462152  81.4914226  15.4391334  18.4170988  85.7672049  22.1624001
  17.7594662  86.4571311  22.2504130  19.2211387  86.1568481  22.5057988
   8.1696870  78.2342695  19.4063567   8.7440622  78.0117877  18.6736760
   8.7567852  78.3031390  20.1592168  17.2276447  84.1216422  20.2127943
  17.7408329  84.7546414  20.7149653  17.8777671  83.5217618  19.8471303
  10.4719537  75.1083944  18.1338636   9.8183950  74.7932961  17.5095251
  10.4300011  74.4859685  18.8598459  13.7057278  81.5965878  22.4586284
  12.7879839  81.8180825  22.3007972  14.1217421  81.6712188  21.5997991
  14.4892325  82.9957293  17.5888964  15.2364144  83.5078691  17.2796086
  14.7583915  82.6741346  18.4493357  17.9938243  89.1022424  18.3407086
  17.5400570  88.2613333  18.3972276  17.3632210  89.7383822  18.6781866
  16.9371163  80.0314410  19.5707753  16.1993919  79.5191796  19.9017996
  17.1897936  79.5914791  18.7591030  16.4371182  90.9398920  19.2756904
  16.7294157  91.5003977  18.5569270  16.9469803  91.2327481  20.0310063
  17.0382790  72.8090662  20.1649522  17.3441667  71.9488025  19.8775438
  17.7635395  73.4008282  19.9648516  11.3103870  83.1044455  20.6725714
  11.3652479  82.1518291  20.5968190  10.4995072  83.2603894  21.1567012
   9.2496230  81.7221514  18.4316092   8.4364095  82.0215685  18.8381285
   9.7455224  81.3277203  19.1490575  14.8470441  82.1863339  27.2630986
  15.2019829  82.4134812  28.1225452  15.4942573  82.5181716  26.6408242
  20.5768178  85.3081775  17.9680315  20.4386077  85.4983371  17.0401505
  20.2204397  86.0701158  18.4248366   8.7410304  79.2939870  24.0477327
   9.3809684  79.1528629  23.3500291   7.9087835  79.0074383  23.6715929
  20.6037558  87.3758302  22.9791587  21.0374065  87.2833591  23.8274641
  21.3169139  87.3515802  22.3411603  14.3365453  90.9760396  24.5124687
  14.3902475  91.5451332  25.2802403  13.4680234  91.1462281  24.1478725
   5.7438921  79.2640195  18.8250314   6.0045738  80.1785528  18.7159475
   6.5656093  78.7964638  18.9746927   7.2163846  80.6777952  25.9949139
   7.8886900  80.4695314  25.3461788   6.3893633  80.4800038  25.5554371
  21.4653107  87.4182002  25.5124472  21.6588997  88.3227813  25.7583747
  21.3653726  86.9589422  26.3463057  13.1189418  77.3039893  28.0114800
  12.4717333  78.0029843  27.9179276  13.8890434  77.7376037  28.3791048
  16.5268216  87.5688745  31.0865353  16.3753722  87.3399297  30.1695437
  16.5172896  88.5259347  31.0996698  13.2953552  85.1420658  26.0711619
  14.2245612  85.2931818  25.8980587  12.8744582  85.2304679  25.2160266
  12.0941884  89.1671322  23.8410157  11.9552970  88.7990107  24.7136095
  11.3056480  89.6818962  23.6694115  13.6447099  88.5452925  21.2298995
  13.3096932  88.5053695  22.1256645  13.1451045  87.8797641  20.7569405
   7.6191343  83.9520555  26.7551576   7.4811141  83.2200794  27.3563115
   8.5296267  83.8629455  26.4735764  10.2473644  83.6640514  26.2435256
  10.9573263  83.0233707  26.2021874  10.2042952  83.9153409  27.1661436
  18.2360423  90.6007868  29.1641835  18.1772969  89.9167088  28.4972418
  18.6379941  91.3426858  28.7122461   8.9602578  80.6505732  28.0630895
   8.4239935  80.1996471  28.7152491   8.3719286  80.7851641  27.3201359
  18.2377830  88.5647452  27.3955814  17.3504609  88.2273373  27.5182213
  18.8076381  87.8330483  27.6324580   4.6941699  79.7861740  25.1483889
   4.6099888  79.1787410  24.4134299   3.8724406  80.2770758  25.1493386
  11.7678983  93.2248904  24.3617058  11.6949155  94.0303876  24.8736362
  11.3256376  93.4240870  23.5365079  14.8665413  78.2715304  20.5154085
  15.3634113  77.5185266  20.1955155  14.0952395  78.3079620  19.9497294
  22.7195171  83.9755669  22.1572376  22.7085047  84.8580384  21.7866309
  21.8512550  83.6227220  21.9626913  14.2277667  93.1235738  26.5175216
  14.9405639  93.7583203  26.4451118  13.7367696  93.2199604  25.7015218
  15.9495194  87.0286991  18.0892508  15.0151473  87.1488453  17.9197212
  16.1271862  86.1259458  17.8252518  11.4500382  80.4132687  20.2425769
  11.0798169  79.8603727  20.9306675  11.9459474  79.8090820  19.6900769
  19.3367745  82.8704310  18.6242542  19.8028197  83.7032302  18.5502845
  19.7875246  82.4049292  19.3287801   9.2789580  90.8730182  27.3380787
   9.9799040  91.5066664  27.4910181   8.8084695  91.2144913  26.5776426
  17.4043976  89.2148131  15.6228694  17.6803820  89.1004726  16.5322568
  16.5348475  88.8165616  15.5840867  17.3084408  75.2384897  22.6633443
  16.3947488  75.4689124  22.8315650  17.7377509  75.3223341  23.5147476
  17.0790866  83.4274789  25.1633337  16.4262317  83.6750696  24.5085790
  17.4571246  82.6138927  24.8295815  14.0398040  93.4634482  19.2661508
  14.2220435  92.6456138  19.7289260  14.8631026  93.6802174  18.8286398
  13.1278439  84.1694600  31.6499375  12.4519076  84.0688729  32.3201750
  13.9506073  84.0133814  32.1135372  11.8701222  95.4761527  25.8856991
  12.4219530  95.6393149  26.6506076  12.2107416  96.0665965  25.2137015
   6.8465716  77.8236677  26.4878875   6.9107042  78.6851508  26.0756273
   6.7832836  77.2110679  25.7551234   6.3217988  79.8959810  30.1351909
   6.9490027  79.5136887  30.7489434   5.4645907  79.6774012  30.5007602
  16.7212097  90.3022785  31.7405645  17.2652001  90.9152743  31.2460600
  16.1398941  90.8602363  32.2572658  15.0069610  93.4243503  22.8720673
  14.8820749  92.6233243  22.3631618  15.6648701  93.9189696  22.3834643
   6.6277778  79.7792236  22.0497813   5.9064364  80.3928203  21.9105286
   7.4171034  80.3150000  21.9714459  17.0704518  91.2252523  24.5000223
  16.1234853  91.1057874  24.4278549  17.4187291  90.3375021  24.5826484
   9.4304091  77.1146662  28.3238465   9.9538493  77.3608959  29.0864774
   9.2116425  77.9466697  27.9041602  14.0750951  91.0205239  20.7004575
  13.9275914  90.0921947  20.8812145  14.9004445  91.0425330  20.2161650
  17.6785073  91.8433798  21.7869448  18.6031621  91.6376659  21.6493899
  17.5100376  91.5950199  22.6958789  10.6356636  78.0560357  26.0088135
  10.2953457  77.2568170  26.4108815   9.9295643  78.3562068  25.4364968
  11.2873108  75.1409670  24.4615458  12.1099178  74.6670148  24.3394349
  11.5311172  75.9200153  24.9614144   9.9281343  78.1697928  14.7578360
  10.6489705  78.5479181  14.2542077   9.3046647  78.8886805  14.8613338
  14.0712466  78.8743077  15.6936692  14.2876080  79.7567715  15.3925520
  13.5906533  78.4829290  14.9642334   8.8111687  81.8328790  22.2707437
   8.6656268  82.1469093  23.1631718   8.3336891  82.4513691  21.7178335
  10.6708070  78.8231338  22.3188326  10.6569639  77.9272431  21.9820624
  11.3880498  78.8302002  22.9526612  12.5234201  79.2568678  24.3641454
  12.2651978  80.1785749  24.3625784  11.9919241  78.8599113  25.0541918
  17.4680389  92.3619465  17.1431539  17.6417267  91.7965888  16.3905392
  17.9609281  93.1620360  16.9611029   3.2857349  84.3734135  25.2095098
   2.7410817  85.1493943  25.3415372   4.1636699  84.7204939  25.0514219
  10.0744966  77.7045718  17.5875897  10.1960877  76.7762365  17.7866784
   9.7847008  77.7184404  16.6754212  12.9436156  75.3900629  20.7242616
  12.9657853  75.4539962  19.7694596  13.3604215  74.5505138  20.9183123
  23.3219780  85.1255888  18.7621839  23.7650927  84.3763214  18.3640962
  22.4446291  85.1166025  18.3795571   4.0723371  83.5004031  28.1025255
   3.3305107  83.6486666  28.6889885   3.7516115  83.7612296  27.2392004
  20.3546985  89.1285935  15.7715768  20.8798309  89.4673208  15.0465088
  20.2669337  88.1932951  15.5878903  12.0167034  93.0420009  27.9005645
  12.3254160  92.7969156  28.7728344  12.8142516  93.2466648  27.4124515
   9.4861518  90.7395928  22.2033323   8.8641527  90.0766633  21.9035551
  10.1566385  90.7657060  21.5206971   9.5586045  79.2177716  31.7965829
   9.6074201  80.0939839  31.4143599  10.1008560  78.6755109  31.2237472
  20.0440891  89.7618839  31.0766966  19.2536435  89.7442978  30.5371466
  19.8074246  90.3007133  31.8316003  20.1638766  86.6111305  28.3899695
  20.2136771  86.4461313  29.3315218  20.0552689  85.7438564  27.9997576
  17.4542528  82.5942233  29.7059001  18.3552391  82.4548698  29.4142999
  17.5290503  82.7596688  30.6457179  11.7885334  79.9709088  28.5512188
  10.9188643  80.2642654  28.2794776  12.0244814  80.5549533  29.2719451
  21.6656963  89.0308247  28.6341716  21.3741771  89.3938228  29.4705177
  21.0529094  88.3175255  28.4555048  22.8652645  86.5961127  21.1544287
  23.6999537  87.0350931  21.3181847  23.0011774  86.1199780  20.3352532
  19.9144151  84.1540862  27.1021774  20.3898273  84.3468508  26.2940626
  18.9909716  84.2100047  26.8565158  14.4924368  76.1888705  26.0677608
  15.0106311  76.9249732  25.7424097  14.1379500  76.4952698  26.9024367
  14.7436962  72.6088988  21.5878505  15.0238716  71.9412177  22.2138931
  15.5287569  72.8018083  21.0753169  18.6145820  81.0306622  25.3350080
  19.5663243  81.1304719  25.3562304  18.4449271  80.2384890  25.8448164
  16.6360200  78.1162205  25.5209481  16.0410132  78.3967218  24.8255969
  16.3509896  78.6056106  26.2926222  21.0933898  84.2512741  24.4492380
  21.0610218  83.3128742  24.6352063  21.7034522  84.3296778  23.7158204
  21.2428386  81.0423785  24.4950663  20.7267435  80.2582241  24.3080592
  22.1268335  80.7142501  24.6597182  18.9039113  74.7864800  20.4546475
  18.7063934  74.4779889  21.3389807  19.5138819  75.5126439  20.5844405
  26.9110448  85.3128748  23.5898416  27.6413836  85.0514036  24.1506120
  26.3017393  84.5757470  23.6300484  24.9925745  83.4536611  24.1872868
  24.2658908  83.3192576  23.5789359  24.5773032  83.7613439  24.9929586
  12.8155921  87.1726540  31.9520241  13.7358931  87.3505139  32.1460287
  12.7805504  86.2282586  31.7999940   5.8117994  85.0827575  24.5943022
   6.0304004  86.0144683  24.6131056   6.2243768  84.7235550  25.3797826
  12.7322212  75.5895660  16.5818710  11.9222940  75.2442745  16.9573956
  13.4206629  75.2803204  17.1706322  14.6612760  74.6673707  18.2043007
  15.2143799  75.0869161  18.8633030  14.8982846  73.7409455  18.2465963
  10.6845859  80.6560781  33.9845771  10.5842586  81.6055138  33.9157862
  10.4667401  80.3279020  33.1121841  18.0391567  76.7774232  17.7121671
  17.4590236  77.4359036  17.3299723  17.7727500  75.9551577  17.3009088
  16.4895133  76.1779290  19.9142991  16.9894912  76.2895825  19.1057310
  17.1330741  75.8740343  20.5543800  10.5477129  84.0857920  32.8010832
  10.0644211  84.8858280  33.0074721  10.6338068  84.0965865  31.8478276
   6.4750467  87.9762454  24.8379266   7.4293720  87.9446397  24.7709198
   6.2762990  87.5153078  25.6529492   7.0649849  86.5463570  27.4050064
   7.8842738  87.0407649  27.4284901   7.3386657  85.6295539  27.3767631
  16.8216445  78.9374323  16.7678019  15.9342300  79.2223973  16.5498214
  17.2370434  78.7768086  15.9205296  20.1730981  78.9620844  20.4832358
  20.9491371  79.4517296  20.7556975  19.4479115  79.3878898  20.9404228
  22.6103540  79.6748463  21.5406299  23.2048031  79.4344199  20.8299607
  22.6830123  78.9555594  22.1679835  16.7957469  84.4528859  16.9828309
  16.7392670  84.9097410  16.1435942  17.3485811  83.6919543  16.8051152
  20.6062275  80.2418591  17.8078429  20.3499209  79.8415226  18.6386637
  19.9815143  80.9562385  17.6828568  24.9174613  82.9814664  20.3149720
  24.3574171  83.0507853  21.0881282  24.3118116  82.8055648  19.5949217
  17.5292248  85.6433640  14.2780839  17.4741052  85.4777911  13.3369283
  16.9038303  86.3509673  14.4343028   2.3184763  80.8801704  28.1042261
   2.9643627  80.3700658  28.5929486   2.1101914  81.6170386  28.6785686
  14.8438155  87.9482552  33.6034401  15.7129315  88.1223204  33.2421036
  14.3644907  88.7676969  33.4810131  10.8388374  75.1441749  13.8566157
  10.8267043  76.0883589  14.0134428  11.7311795  74.9611894  13.5625618
   9.0124335  95.0679653  25.2823835   9.9151582  95.1003263  25.5990330
   8.7861706  94.1380104  25.2970171  14.6540493  71.7384526  18.1112094
  13.8872889  71.1843012  18.2568776  15.0651198  71.8106394  18.9726245
   6.6582254  78.0269321  32.2017275   7.5213716  77.6706126  32.4120600
   6.0847665  77.6883216  32.8892679  26.5030631  99.6571178  23.0079676
  27.1409041  99.5377925  22.3043016  26.3851474 100.6052022  23.0667628
  23.3120337  99.6098606  22.9441201  22.9738849  99.4939671  22.0561736
  24.1810105  99.2089771  22.9242207  23.7940120 100.7633458  28.9027406
  23.7828761 100.3686256  28.0307910  23.9560760 100.0299530  29.4961178
  20.5147381 103.5470569  27.8506590  20.2237247 104.4516200  27.7353257
  21.1504366 103.5887097  28.5650660  21.4403588 100.9247418  24.4407950
  22.0367161 100.7003440  23.7264913  21.4978560 100.1832163  25.0433398
  26.0571899  97.3822632  20.0832884  26.8434989  96.9642055  19.7323301
  26.3210604  98.2868724  20.2514532  31.4580327  97.3197865  20.9865863
  32.1905499  96.7497082  21.2203692  30.7019682  96.9319465  21.4272368
  23.0756446  99.7425106  18.1829205  22.7114654  99.2155727  18.8942126
  23.9323562  99.3523575  18.0095690  28.9805747  91.0319439  25.4460471
  28.6489072  91.9014850  25.2221686  28.3851360  90.7155723  26.1254502
  25.4737266 103.2331985  24.8456384  25.1737990 104.1357024  24.7372191
  25.1288326 102.9664168  25.6977537  18.9249748  99.6845782  20.8793088
  18.0000244  99.5521996  21.0870780  19.1734161 100.4640001  21.3763031
  28.8734410  95.7514525  22.5253821  27.9651288  95.6829934  22.2312582
  28.8222006  96.2286470  23.3535647  22.9475276  97.1704171  30.4688719
  22.1708610  97.7298091  30.4591583  23.5865839  97.6560954  30.9903589
  30.7396057  93.9530963  24.3031695  30.0970437  94.2463497  23.6571490
  30.2350985  93.8383884  25.1084892  28.3936220  97.6994137  14.9917554
  29.3054076  97.9321523  14.8165252  27.8845867  98.2831181  14.4292633
  21.2021648  99.9789624  30.0306686  21.9436333 100.5174668  29.7541509
  20.4958634 100.6055913  30.1878237  26.6776988 102.1218765  28.6278847
  27.0860344 101.6801175  27.8833479  25.9554250 101.5471392  28.8813040
  23.0308058  97.0591371  26.0012404  23.8769253  97.4830785  26.1447053
  22.9706696  96.4024996  26.6950967  27.0005803 102.6819955  22.3831136
  26.3714665 102.8465669  21.6807204  26.6131465 103.0961565  23.1542100
  30.8795035 103.6174393  19.7375500  30.1946073 103.9973294  19.1872533
  30.9638884 104.2269720  20.4707447  26.1807503  94.7195740  27.6593578
  25.9368435  95.4737800  27.1227853  26.4567434  95.0981087  28.4940825
  28.1345966 101.2634352  26.3370843  28.3462861 101.9066112  25.6605224
  28.0875714 100.4296669  25.8692773  25.7372195  93.8752173  23.2407415
  24.8756674  94.1733426  23.5324153  25.7634630  94.0922572  22.3088448
  22.5533765 102.4194363  19.6481221  23.0172110 102.6982066  18.8585843
  22.2890563 101.5177808  19.4654312  19.4457846 101.9665845  22.5860984
  20.0159203 102.3953113  21.9478469  20.0365957 101.6848429  23.2845170
  21.4902651  98.5417516  16.4570786  22.1926694  98.9938559  16.9244712
  21.1583279  97.9001334  17.0850679  19.9383012  97.1329272  30.8321996
  19.3081673  97.8145553  31.0657392  19.8319100  97.0212354  29.8875134
  15.2327985  96.8001068  21.7587920  14.4427039  97.0558597  21.2828030
  15.7239232  97.6149406  21.8639960  29.2491794 104.1406307  24.5093201
  30.0709238 103.7386495  24.2275882  29.2454197 104.0374542  25.4609316
  23.0148398 103.6890351  26.6653911  23.0792830 104.1510758  27.5012083
  22.3059321 103.0587716  26.7936221  13.5165688  97.0531559  24.1902910
  13.7673726  97.9378569  24.4560486  14.0525236  96.8736160  23.4178002
  37.3397787 100.4845056  20.8578172  36.5861496  99.9152454  20.7022176
  37.4745328 100.4507720  21.8048807  19.2163755  91.4350038  33.1947247
  18.8230700  90.8816237  33.8694891  20.0329895  91.7460617  33.5853764
  22.1331716  92.8507917  30.7867503  22.8741429  93.4515070  30.7071966
  22.3649639  92.1085555  30.2285546  17.2773054  98.0364284  29.0645733
  17.1626569  97.1349542  29.3652832  16.4217572  98.2827981  28.7130549
  24.3564892 105.9782025  30.6633233  23.9128746 105.1918403  30.3454138
  25.0182105 106.1661175  29.9977124  19.1152013 107.5077826  25.1893912
  19.6659438 107.3794890  24.4170906  18.2763489 107.8072715  24.8388805
  26.4546130 106.2584825  28.6914635  26.4364605 107.0793706  28.1994904
  27.3766050 106.1338900  28.9164776  22.9119184 103.7728954  29.5338143
  23.4447521 103.0117242  29.3037451  22.3833265 103.4802606  30.2762298
  26.0788879  88.8789020  25.0631785  25.7353148  89.7690662  24.9870895
  26.4467841  88.6890678  24.2001370  26.0439161  98.8697631  13.5704220
  25.5285785  99.6402236  13.8092607  25.7716470  98.1962767  14.1937281
  23.6286273  93.7147332  18.6289458  22.7727869  93.3254182  18.4495097
  24.0413224  93.7939293  17.7689244  25.1585419  91.2493675  23.0281018
  24.6550215  91.2123810  22.2148823  25.4516026  92.1586418  23.0877675
  21.4028305  91.3332405  22.0347200  22.2681302  91.1375214  21.6753089
  21.4705814  91.1042757  22.9616557  31.0173436 101.6229986  15.5057393
  30.2402878 101.2841145  15.0612555  31.6964917 101.6282609  14.8312358
  25.8325465  96.7424723  15.3964001  25.5275600  97.0570872  16.2474144
  26.7855907  96.8206143  15.4391334  29.2564743 101.0963967  22.1624001
  28.5988417 101.7863229  22.2504130  30.0605142 101.4860399  22.5057988
  19.0090624  93.5634613  19.4063567  19.5834376  93.3409794  18.6736760
  19.5961607  93.6323307  20.1592168  28.0670201  99.4508340  20.2127943
  28.5802083 100.0838332  20.7149653  28.7171425  98.8509535  19.8471303
  21.3113292  90.4375862  18.1338636  20.6577704  90.1224879  17.5095251
  21.2693766  89.8151602  18.8598459  24.5451032  96.9257795  22.4586284
  23.6273594  97.1472742  22.3007972  24.9611176  97.0004106  21.5997991
  25.3286080  98.3249211  17.5888964  26.0757899  98.8370608  17.2796086
  25.5977670  98.0033264  18.4493357  28.8331998 104.4314341  18.3407086
  28.3794325 103.5905251  18.3972276  28.2025964 105.0675740  18.6781866
  27.7764917  95.3606327  19.5707753  27.0387674  94.8483713  19.9017996
  28.0291691  94.9206709  18.7591030  27.2764937 106.2690838  19.2756904
  27.5687911 106.8295895  18.5569270  27.7863557 106.5619399  20.0310063
  27.8776544  88.1382579  20.1649522  28.1835421  87.2779943  19.8775438
  28.6029149  88.7300199  19.9648516  22.1497624  98.4336372  20.6725714
  22.2046234  97.4810209  20.5968190  21.3388826  98.5895811  21.1567012
  20.0889984  97.0513432  18.4316092  19.2757850  97.3507603  18.8381285
  20.5848978  96.6569121  19.1490575  25.6864196  97.5155257  27.2630986
  26.0413584  97.7426730  28.1225452  26.3336327  97.8473633  26.6408242
  31.4161933 100.6373692  17.9680315  31.2779831 100.8275288  17.0401505
  31.0598152 101.3993075  18.4248366  19.5804059  94.6231788  24.0477327
  20.2203438  94.4820547  23.3500291  18.7481589  94.3366301  23.6715929
  31.4431312 102.7050219  22.9791587  31.8767819 102.6125509  23.8274641
  32.1562893 102.6807720  22.3411603  25.1759207 106.3052314  24.5124687
  25.2296230 106.8743250  25.2802403  24.3073989 106.4754199  24.1478725
  16.5832675  94.5932113  18.8250314  16.8439493  95.5077446  18.7159475
  17.4049848  94.1256555  18.9746927  18.0557601  96.0069870  25.9949139
  18.7280654  95.7987232  25.3461788  17.2287387  95.8091956  25.5554371
  32.3046862 102.7473920  25.5124472  32.4982752 103.6519731  25.7583747
  32.2047480 102.2881339  26.3463057  23.9583173  92.6331811  28.0114800
  23.3111088  93.3321760  27.9179276  24.7284188  93.0667955  28.3791048
  27.3661971 102.8980663  31.0865353  27.2147477 102.6691215  30.1695437
  27.3566650 103.8551264  31.0996698  24.1347307 100.4712576  26.0711619
  25.0639367 100.6223735  25.8980587  23.7138337 100.5596596  25.2160266
  22.9335639 104.4963240  23.8410157  22.7946724 104.1282024  24.7136095
  22.1450235 105.0110879  23.6694115  24.4840854 103.8744843  21.2298995
  24.1490687 103.8345613  22.1256645  23.9844800 103.2089559  20.7569405
  18.4585098  99.2812473  26.7551576  18.3204896  98.5492712  27.3563115
  19.3690021  99.1921373  26.4735764  21.0867399  98.9932432  26.2435256
  21.7967017  98.3525624  26.2021874  21.0436707  99.2445327  27.1661436
  29.0754177 105.9299785  29.1641835  29.0166723 105.2459006  28.4972418
  29.4773696 106.6718775  28.7122461  19.7996333  95.9797650  28.0630895
  19.2633690  95.5288388  28.7152491  19.2113041  96.1143559  27.3201359
  29.0771584 103.8939369  27.3955814  28.1898363 103.5565291  27.5182213
  29.6470136 103.1622401  27.6324580  15.5335454  95.1153658  25.1483889
  15.4493642  94.5079327  24.4134299  14.7118160  95.6062676  25.1493386
  22.6072738 108.5540822  24.3617058  22.5342909 109.3595793  24.8736362
  22.1650131 108.7532788  23.5365079  25.7059168  93.6007221  20.5154085
  26.2027867  92.8477184  20.1955155  24.9346149  93.6371538  19.9497294
  33.5588925  99.3047587  22.1572376  33.5478801 100.1872302  21.7866309
  32.6906304  98.9519138  21.9626913  25.0671421 108.4527656  26.5175216
  25.7799394 109.0875121  26.4451118  24.5761450 108.5491522  25.7015218
  26.7888948 102.3578908  18.0892508  25.8545227 102.4780371  17.9197212
  26.9665617 101.4551375  17.8252518  22.2894136  95.7424604  20.2425769
  21.9191924  95.1895645  20.9306675  22.7853229  95.1382738  19.6900769
  30.1761500  98.1996228  18.6242542  30.6421952  99.0324219  18.5502845
  30.6269000  97.7341209  19.3287801  20.1183335 106.2022099  27.3380787
  20.8192794 106.8358582  27.4910181  19.6478450 106.5436831  26.5776426
  28.2437731 104.5440049  15.6228694  28.5197575 104.4296644  16.5322568
  27.3742229 104.1457534  15.5840867  28.1478162  90.5676815  22.6633443
  27.2341242  90.7981042  22.8315650  28.5771264  90.6515259  23.5147476
  27.9184621  98.7566707  25.1633337  27.2656071  99.0042614  24.5085790
  28.2965001  97.9430845  24.8295815  24.8791795 108.7926400  19.2661508
  25.0614189 107.9748056  19.7289260  25.7024781 109.0094092  18.8286398
  23.9672194  99.4986518  31.6499375  23.2912831  99.3980647  32.3201750
  24.7899828  99.3425731  32.1135372  22.7094977 110.8053445  25.8856991
  23.2613285 110.9685067  26.6506076  23.0501170 111.3957883  25.2137015
  17.6859470  93.1528595  26.4878875  17.7500797  94.0143426  26.0756273
  17.6226590  92.5402597  25.7551234  17.1611743  95.2251728  30.1351909
  17.7883781  94.8428805  30.7489434  16.3039661  95.0065929  30.5007602
  27.5605851 105.6314703  31.7405645  28.1045755 106.2444661  31.2460600
  26.9792696 106.1894281  32.2572658  25.8463364 108.7535421  22.8720673
  25.7214504 107.9525161  22.3631618  26.5042455 109.2481614  22.3834643
  17.4671532  95.1084153  22.0497813  16.7458118  95.7220121  21.9105286
  18.2564788  95.6441918  21.9714459  27.9098272 106.5544441  24.5000223
  26.9628608 106.4349792  24.4278549  28.2581046 105.6666939  24.5826484
  20.2697846  92.4438580  28.3238465  20.7932248  92.6900876  29.0864774
  20.0510179  93.2758614  27.9041602  24.9144706 106.3497157  20.7004575
  24.7669668 105.4213864  20.8812145  25.7398199 106.3717248  20.2161650
  28.5178828 107.1725716  21.7869448  29.4425375 106.9668577  21.6493899
  28.3494131 106.9242117  22.6958789  21.4750391  93.3852275  26.0088135
  21.1347211  92.5860088  26.4108815  20.7689397  93.6853986  25.4364968
  22.1266863  90.4701587  24.4615458  22.9492932  89.9962065  24.3394349
  22.3704926  91.2492071  24.9614144  20.7675097  93.4989846  14.7578360
  21.4883460  93.8771098  14.2542077  20.1440401  94.2178722  14.8613338
  24.9106220  94.2034995  15.6936692  25.1269834  95.0859633  15.3925520
  24.4300287  93.8121208  14.9642334  19.6505441  97.1620708  22.2707437
  19.5050022  97.4761011  23.1631718  19.1730645  97.7805608  21.7178335
  21.5101824  94.1523256  22.3188326  21.4963393  93.2564349  21.9820624
  22.2274252  94.1593920  22.9526612  23.3627955  94.5860596  24.3641454
  23.1045733  95.5077667  24.3625784  22.8312995  94.1891031  25.0541918
  28.3074144 107.6911383  17.1431539  28.4811021 107.1257806  16.3905392
  28.8003035 108.4912278  16.9611029  14.1251104  99.7026052  25.2095098
  13.5804572 100.4785860  25.3415372  15.0030453 100.0496857  25.0514219
  20.9138720  93.0337636  17.5875897  21.0354631  92.1054282  17.7866784
  20.6240763  93.0476322  16.6754212  23.7829911  90.7192547  20.7242616
  23.8051607  90.7831880  19.7694596  24.1997970  89.8797055  20.9183123
  34.1613535 100.4547806  18.7621839  34.6044681  99.7055131  18.3640962
  33.2840045 100.4457942  18.3795571  14.9117125  98.8295949  28.1025255
  14.1698862  98.9778584  28.6889885  14.5909870  99.0904214  27.2392004
  31.1940739 104.4577853  15.7715768  31.7192064 104.7965126  15.0465088
  31.1063092 103.5224868  15.5878903  22.8560788 108.3711927  27.9005645
  23.1647915 108.1261074  28.7728344  23.6536270 108.5758565  27.4124515
  20.3255272 106.0687845  22.2033323  19.7035282 105.4058550  21.9035551
  20.9960139 106.0948977  21.5206971  20.3979800  94.5469633  31.7965829
  20.4467955  95.4231756  31.4143599  20.9402314  94.0047027  31.2237472
  30.8834645 105.0910757  31.0766966  30.0930189 105.0734896  30.5371466
  30.6468000 105.6299050  31.8316003  31.0032521 101.9403223  28.3899695
  31.0530525 101.7753231  29.3315218  30.8946444 101.0730482  27.9997576
  28.2936283  97.9234151  29.7059001  29.1946146  97.7840616  29.4142999
  28.3684257  98.0888606  30.6457179  22.6279088  95.3001006  28.5512188
  21.7582398  95.5934572  28.2794776  22.8638569  95.8841451  29.2719451
  32.5050717 104.3600165  28.6341716  32.2135526 104.7230145  29.4705177
  31.8922849 103.6467173  28.4555048  33.7046400 101.9253044  21.1544287
  34.5393291 102.3642848  21.3181847  33.8405528 101.4491698  20.3352532
  30.7537906  99.4832779  27.1021774  31.2292027  99.6760426  26.2940626
  29.8303471  99.5391965  26.8565158  25.3318122  91.5180623  26.0677608
  25.8500066  92.2541650  25.7424097  24.9773255  91.8244616  26.9024367
  25.5830716  87.9380905  21.5878505  25.8632470  87.2704094  22.2138931
  26.3681323  88.1310001  21.0753169  29.4539575  96.3598539  25.3350080
  30.4056997  96.4596637  25.3562304  29.2843025  95.5676808  25.8448164
  27.4753954  93.4454123  25.5209481  26.8803886  93.7259135  24.8255969
  27.1903651  93.9348023  26.2926222  31.9327652  99.5804659  24.4492380
  31.9003972  98.6420660  24.6352063  32.5428276  99.6588696  23.7158204
  32.0822141  96.3715702  24.4950663  31.5661190  95.5874159  24.3080592
  32.9662089  96.0434419  24.6597182  29.7432868  90.1156718  20.4546475
  29.5457689  89.8071806  21.3389807  30.3532573  90.8418357  20.5844405
  37.7504202 100.6420666  23.5898416  38.4807591 100.3805954  24.1506120
  37.1411148  99.9049388  23.6300484  35.8319499  98.7828528  24.1872868
  35.1052663  98.6484493  23.5789359  35.4166786  99.0905357  24.9929586
  23.6549676 102.5018458  31.9520241  24.5752685 102.6797057  32.1460287
  23.6199259 101.5574503  31.7999940  16.6511748 100.4119493  24.5943022
  16.8697758 101.3436601  24.6131056  17.0637522 100.0527467  25.3797826
  23.5715966  90.9187578  16.5818710  22.7616694  90.5734663  16.9573956
  24.2600383  90.6095122  17.1706322  25.5006514  89.9965625  18.2043007
  26.0537553  90.4161078  18.8633030  25.7376601  89.0701373  18.2465963
  21.5239614  95.9852699  33.9845771  21.4236341  96.9347056  33.9157862
  21.3061156  95.6570937  33.1121841  28.8785321  92.1066150  17.7121671
  28.2983991  92.7650954  17.3299723  28.6121254  91.2843495  17.3009088
  27.3288888  91.5071208  19.9142991  27.8288666  91.6187742  19.1057310
  27.9724496  91.2032261  20.5543800  21.3870884  99.4149837  32.8010832
  20.9037965 100.2150198  33.0074721  21.4731823  99.4257782  31.8478276
  17.3144221 103.3054372  24.8379266  18.2687475 103.2738314  24.7709198
  17.1156745 102.8444996  25.6529492  17.9043603 101.8755488  27.4050064
  18.7236492 102.3699567  27.4284901  18.1780411 100.9587456  27.3767631
  27.6610200  94.2666240  16.7678019  26.7736055  94.5515891  16.5498214
  28.0764189  94.1060004  15.9205296  31.0124736  94.2912761  20.4832358
  31.7885126  94.7809214  20.7556975  30.2872870  94.7170816  20.9404228
  33.4497294  95.0040381  21.5406299  34.0441785  94.7636117  20.8299607
  33.5223878  94.2847511  22.1679835  27.6351223  99.7820776  16.9828309
  27.5786425 100.2389328  16.1435942  28.1879566  99.0211461  16.8051152
  31.4456029  95.5710508  17.8078429  31.1892963  95.1707144  18.6386637
  30.8208897  96.2854302  17.6828568  35.7568367  98.3106582  20.3149720
  35.1967925  98.3799771  21.0881282  35.1511870  98.1347566  19.5949217
  28.3686003 100.9725558  14.2780839  28.3134806 100.8069829  13.3369283
  27.7432058 101.6801591  14.4343028  13.1578518  96.2093622  28.1042261
  13.8037381  95.6992576  28.5929486  12.9495669  96.9462304  28.6785686
  25.6831910 103.2774469  33.6034401  26.5523069 103.4515122  33.2421036
  25.2038661 104.0968886  33.4810131  21.6782128  90.4733667  13.8566157
  21.6660798  91.4175507  14.0134428  22.5705550  90.2903812  13.5625618
  19.8518090 110.3971571  25.2823835  20.7545337 110.4295181  25.5990330
  19.6255460 109.4672021  25.2970171  25.4934247  87.0676443  18.1112094
  24.7266643  86.5134930  18.2568776  25.9044952  87.1398312  18.9726245
  17.4976009  93.3561239  32.2017275  18.3607470  92.9998044  32.4120600
  16.9241419  93.0175134  32.8892679  37.3424385 114.9863095  23.0079676
  37.9802795 114.8669843  22.3043016  37.2245228 115.9343939  23.0667628
  34.1514092 114.9390524  22.9441201  33.8132603 114.8231588  22.0561736
  35.0203860 114.5381689  22.9242207  34.6333875 116.0925375  28.9027406
  34.6222516 115.6978174  28.0307910  34.7954514 115.3591448  29.4961178
  36.8965654 112.7114549  20.0832884  37.6828743 112.2933972  19.7323301
  37.1604358 113.6160641  20.2514532  42.2974081 112.6489782  20.9865863
  43.0299253 112.0788999  21.2203692  41.5413437 112.2611383  21.4272368
  33.9150201 115.0717024  18.1829205  33.5508408 114.5447645  18.8942126
  34.7717317 114.6815493  18.0095690  39.8199501 106.3611357  25.4460471
  39.4882826 107.2306768  25.2221686  39.2245115 106.0447641  26.1254502
  39.7128165 111.0806443  22.5253821  38.8045042 111.0121851  22.2312582
  39.6615761 111.5578388  23.3535647  33.7869031 112.4996088  30.4688719
  33.0102365 113.0590009  30.4591583  34.4259594 112.9852871  30.9903589
  41.5789811 109.2822881  24.3031695  40.9364191 109.5755414  23.6571490
  41.0744740 109.1675802  25.1084892  39.2329975 113.0286054  14.9917554
  40.1447831 113.2613441  14.8165252  38.7239622 113.6123099  14.4292633
  37.5170742 117.4510682  28.6278847  37.9254099 117.0093093  27.8833479
  36.7948004 116.8763310  28.8813040  33.8701813 112.3883289  26.0012404
  34.7163008 112.8122703  26.1447053  33.8100450 111.7316913  26.6950967
  37.0201258 110.0487657  27.6593578  36.7762190 110.8029718  27.1227853
  37.2961188 110.4273005  28.4940825  38.9739721 116.5926270  26.3370843
  39.1856616 117.2358030  25.6605224  38.9269469 115.7588586  25.8692773
  36.5765950 109.2044090  23.2407415  35.7150429 109.5025344  23.5324153
  36.6028384 109.4214489  22.3088448  32.3296405 113.8709433  16.4570786
  33.0320448 114.3230477  16.9244712  31.9977034 113.2293252  17.0850679
  30.7776767 112.4621190  30.8321996  30.1475427 113.1437471  31.0657392
  30.6712854 112.3504272  29.8875134  26.0721739 112.1292986  21.7587920
  25.2820793 112.3850514  21.2828030  26.5632986 112.9441324  21.8639960
  48.1791542 115.8136974  20.8578172  47.4255250 115.2444372  20.7022176
  48.3139083 115.7799638  21.8048807  30.0557509 106.7641956  33.1947247
  29.6624455 106.2108154  33.8694891  30.8723650 107.0752534  33.5853764
  32.9725470 108.1799835  30.7867503  33.7135184 108.7806988  30.7071966
  33.2043393 107.4377473  30.2285546  28.1166808 113.3656202  29.0645733
  28.0020323 112.4641459  29.3652832  27.2611326 113.6119899  28.7130549
  36.9182633 104.2080938  25.0631785  36.5746903 105.0982579  24.9870895
  37.2861596 104.0182595  24.2001370  36.8832916 114.1989549  13.5704220
  36.3679539 114.9694154  13.8092607  36.6110224 113.5254685  14.1937281
  34.4680027 109.0439250  18.6289458  33.6121623 108.6546100  18.4495097
  34.8806979 109.1231210  17.7689244  35.9979174 106.5785593  23.0281018
  35.4943969 106.5415728  22.2148823  36.2909781 107.4878336  23.0877675
  32.2422060 106.6624323  22.0347200  33.1075056 106.4667131  21.6753089
  32.3099568 106.4334674  22.9616557  41.8567190 116.9521904  15.5057393
  41.0796633 116.6133063  15.0612555  42.5358671 116.9574527  14.8312358
  36.6719219 112.0716641  15.3964001  36.3669355 112.3862790  16.2474144
  37.6249661 112.1498061  15.4391334  40.0958497 116.4255885  22.1624001
  39.4382171 117.1155146  22.2504130  40.8998896 116.8152317  22.5057988
  29.8484379 108.8926531  19.4063567  30.4228131 108.6701712  18.6736760
  30.4355361 108.9615225  20.1592168  38.9063956 114.7800257  20.2127943
  39.4195838 115.4130249  20.7149653  39.5565180 114.1801453  19.8471303
  32.1507046 105.7667779  18.1338636  31.4971459 105.4516797  17.5095251
  32.1087520 105.1443520  18.8598459  35.3844787 112.2549713  22.4586284
  34.4667348 112.4764660  22.3007972  35.8004930 112.3296024  21.5997991
  36.1679834 113.6541129  17.5888964  36.9151653 114.1662526  17.2796086
  36.4371424 113.3325181  18.4493357  38.6158672 110.6898245  19.5707753
  37.8781428 110.1775631  19.9017996  38.8685445 110.2498627  18.7591030
  38.7170299 103.4674497  20.1649522  39.0229176 102.6071860  19.8775438
  39.4422904 104.0592117  19.9648516  32.9891379 113.7628290  20.6725714
  33.0439988 112.8102126  20.5968190  32.1782581 113.9187729  21.1567012
  30.9283739 112.3805350  18.4316092  30.1151604 112.6799520  18.8381285
  31.4242733 111.9861039  19.1490575  36.5257950 112.8447174  27.2630986
  36.8807338 113.0718647  28.1225452  37.1730081 113.1765551  26.6408242
  42.2555687 115.9665610  17.9680315  42.1173586 116.1567206  17.0401505
  41.8991906 116.7284993  18.4248366  30.4197813 109.9523705  24.0477327
  31.0597193 109.8112464  23.3500291  29.5875344 109.6658219  23.6715929
  42.2825067 118.0342137  22.9791587  42.7161573 117.9417426  23.8274641
  42.9956648 118.0099638  22.3411603  27.4226430 109.9224030  18.8250314
  27.6833247 110.8369364  18.7159475  28.2443602 109.4548473  18.9746927
  28.8951355 111.3361787  25.9949139  29.5674409 111.1279150  25.3461788
  28.0681142 111.1383873  25.5554371  43.1440616 118.0765838  25.5124472
  43.3376506 118.9811648  25.7583747  43.0441235 117.6173257  26.3463057
  34.7976927 107.9623728  28.0114800  34.1504842 108.6613678  27.9179276
  35.5677943 108.3959872  28.3791048  34.9741061 115.8004493  26.0711619
  35.9033121 115.9515653  25.8980587  34.5532091 115.8888514  25.2160266
  29.2978852 114.6104390  26.7551576  29.1598650 113.8784629  27.3563115
  30.2083776 114.5213291  26.4735764  31.9261153 114.3224350  26.2435256
  32.6360772 113.6817542  26.2021874  31.8830461 114.5737245  27.1661436
  30.6390087 111.3089568  28.0630895  30.1027444 110.8580306  28.7152491
  30.0506795 111.4435476  27.3201359  26.3729208 110.4445575  25.1483889
  26.2887397 109.8371245  24.4134299  25.5511915 110.9354594  25.1493386
  36.5452922 108.9299139  20.5154085  37.0421622 108.1769101  20.1955155
  35.7739904 108.9663456  19.9497294  44.3982680 114.6339504  22.1572376
  44.3872556 115.5164220  21.7866309  43.5300059 114.2811055  21.9626913
  33.1287891 111.0716522  20.2425769  32.7585678 110.5187562  20.9306675
  33.6246983 110.4674655  19.6900769  41.0155254 113.5288145  18.6242542
  41.4815706 114.3616137  18.5502845  41.4662755 113.0633127  19.3287801
  38.9871917 105.8968732  22.6633443  38.0734997 106.1272959  22.8315650
  39.4165018 105.9807176  23.5147476  38.7578375 114.0858624  25.1633337
  38.1049826 114.3334532  24.5085790  39.1358755 113.2722763  24.8295815
  34.8065948 114.8278435  31.6499375  34.1306585 114.7272565  32.3201750
  35.6293582 114.6717649  32.1135372  28.5253225 108.4820513  26.4878875
  28.5894551 109.3435344  26.0756273  28.4620345 107.8694514  25.7551234
  28.0005497 110.5543645  30.1351909  28.6277536 110.1720723  30.7489434
  27.1433416 110.3357847  30.5007602  28.3065287 110.4376071  22.0497813
  27.5851873 111.0512039  21.9105286  29.0958543 110.9733836  21.9714459
  31.1091600 107.7730497  28.3238465  31.6326002 108.0192794  29.0864774
  30.8903934 108.6050532  27.9041602  32.3144145 108.7144192  26.0088135
  31.9740966 107.9152006  26.4108815  31.6083152 109.0145903  25.4364968
  32.9660617 105.7993505  24.4615458  33.7886687 105.3253983  24.3394349
  33.2098681 106.5783989  24.9614144  31.6068852 108.8281763  14.7578360
  32.3277214 109.2063016  14.2542077  30.9834156 109.5470640  14.8613338
  35.7499975 109.5326912  15.6936692  35.9663589 110.4151550  15.3925520
  35.2694042 109.1413126  14.9642334  30.4899196 112.4912626  22.2707437
  30.3443777 112.8052929  23.1631718  30.0124400 113.1097526  21.7178335
  32.3495579 109.4815174  22.3188326  32.3357148 108.5856267  21.9820624
  33.0668007 109.4885837  22.9526612  34.2021710 109.9152514  24.3641454
  33.9439487 110.8369584  24.3625784  33.6706750 109.5182948  25.0541918
  31.7532475 108.3629554  17.5875897  31.8748386 107.4346200  17.7866784
  31.4634517 108.3768240  16.6754212  34.6223665 106.0484464  20.7242616
  34.6445362 106.1123797  19.7694596  35.0391724 105.2088973  20.9183123
  45.0007289 115.7839724  18.7621839  45.4438436 115.0347049  18.3640962
  44.1233800 115.7749860  18.3795571  31.2373554 109.8761551  31.7965829
  31.2861710 110.7523674  31.4143599  31.7796069 109.3338944  31.2237472
  41.8426275 117.2695141  28.3899695  41.8924280 117.1045148  29.3315218
  41.7340198 116.4022400  27.9997576  39.1330037 113.2526069  29.7059001
  40.0339900 113.1132534  29.4142999  39.2078012 113.4180524  30.6457179
  33.4672843 110.6292924  28.5512188  32.5976152 110.9226490  28.2794776
  33.7032323 111.2133369  29.2719451  44.5440154 117.2544962  21.1544287
  45.3787046 117.6934766  21.3181847  44.6799283 116.7783615  20.3352532
  41.5931660 114.8124697  27.1021774  42.0685782 115.0052343  26.2940626
  40.6697225 114.8683883  26.8565158  36.1711877 106.8472541  26.0677608
  36.6893820 107.5833567  25.7424097  35.8167009 107.1536534  26.9024367
  36.4224471 103.2672823  21.5878505  36.7026225 102.5996012  22.2138931
  37.2075078 103.4601919  21.0753169  40.2933329 111.6890457  25.3350080
  41.2450752 111.7888555  25.3562304  40.1236780 110.8968726  25.8448164
  38.3147709 108.7746040  25.5209481  37.7197641 109.0551053  24.8255969
  38.0297405 109.2639941  26.2926222  42.7721407 114.9096577  24.4492380
  42.7397727 113.9712577  24.6352063  43.3822031 114.9880613  23.7158204
  42.9215895 111.7007620  24.4950663  42.4054944 110.9166077  24.3080592
  43.8055844 111.3726337  24.6597182  40.5826622 105.4448636  20.4546475
  40.3851443 105.1363724  21.3389807  41.1926328 106.1710275  20.5844405
  48.5897957 115.9712584  23.5898416  49.3201345 115.7097872  24.1506120
  47.9804902 115.2341306  23.6300484  46.6713254 114.1120446  24.1872868
  45.9446417 113.9776411  23.5789359  46.2560541 114.4197275  24.9929586
  34.4109721 106.2479496  16.5818710  33.6010449 105.9026581  16.9573956
  35.0994138 105.9387040  17.1706322  36.3400269 105.3257543  18.2043007
  36.8931308 105.7452996  18.8633030  36.5770355 104.3993291  18.2465963
  32.3633368 111.3144616  33.9845771  32.2630095 112.2638973  33.9157862
  32.1454910 110.9862855  33.1121841  39.7179076 107.4358068  17.7121671
  39.1377745 108.0942872  17.3299723  39.4515009 106.6135412  17.3009088
  38.1682642 106.8363125  19.9142991  38.6682421 106.9479660  19.1057310
  38.8118250 106.5324178  20.5543800  32.2264638 114.7441755  32.8010832
  31.7431720 115.5442115  33.0074721  32.3125577 114.7549700  31.8478276
  38.5003954 109.5958158  16.7678019  37.6129809 109.8807809  16.5498214
  38.9157943 109.4351922  15.9205296  41.8518490 109.6204679  20.4832358
  42.6278880 110.1101132  20.7556975  41.1266624 110.0462733  20.9404228
  44.2891049 110.3332298  21.5406299  44.8835540 110.0928034  20.8299607
  44.3617632 109.6139429  22.1679835  38.4744978 115.1112694  16.9828309
  38.4180179 115.5681246  16.1435942  39.0273320 114.3503379  16.8051152
  42.2849784 110.9002426  17.8078429  42.0286718 110.4999062  18.6386637
  41.6602652 111.6146220  17.6828568  46.5962122 113.6398499  20.3149720
  46.0361680 113.7091689  21.0881282  45.9905625 113.4639484  19.5949217
  39.2079757 116.3017475  14.2780839  39.1528561 116.1361747  13.3369283
  38.5825812 117.0093508  14.4343028  23.9972272 111.5385540  28.1042261
  24.6431136 111.0284494  28.5929486  23.7889423 112.2754221  28.6785686
  32.5175883 105.8025584  13.8566157  32.5054552 106.7467424  14.0134428
  33.4099304 105.6195730  13.5625618  36.3328002 102.3968361  18.1112094
  35.5660398 101.8426848  18.2568776  36.7438707 102.4690230  18.9726245
  28.3369763 108.6853157  32.2017275  29.2001225 108.3289962  32.4120600
  27.7635174 108.3467052  32.8892679  47.7576388 119.5372855  25.0631785
  47.4140657 120.4274497  24.9870895  48.1255350 119.3474513  24.2001370
  49.5564053 118.7966415  20.1649522  49.8622930 117.9363778  19.8775438
  50.2816658 119.3884035  19.9648516  49.8265671 121.2260650  22.6633443
  48.9128751 121.4564877  22.8315650  50.2558773 121.3099094  23.5147476
  47.2618225 118.5964741  21.5878505  47.5419979 117.9287930  22.2138931
  48.0468832 118.7893836  21.0753169  51.4220377 120.7740553  20.4546475
  51.2245198 120.4655642  21.3389807  52.0320082 121.5002192  20.5844405
  47.1794023 120.6549460  18.2043007  47.7325062 121.0744914  18.8633030
  47.4164110 119.7285208  18.2465963  47.1721756 117.7260279  18.1112094
  46.4054152 117.1718765  18.2568776  47.5832461 117.7982147  18.9726245
   2.6777384  52.3260312  17.3878540   2.2341238  51.5396691  17.0699445
   3.3394597  52.5139462  16.7222431   4.7758622  52.6063112  15.4159941
   4.7577097  53.4271993  14.9240210   5.6978542  52.4817187  15.6410082
   5.6874463  49.2458950  17.8110659   5.5359969  49.0169502  16.8940743
   5.6779142  50.2029552  17.8242005   7.3966669  52.2778073  15.8887141
   7.3379216  51.5937293  15.2217724   7.7986188  53.0197063  15.4367767
   5.8818343  51.9792990  18.4650952   6.4258247  52.5922948  17.9705906
   5.3005188  52.5372568  18.9817965   9.2047138  51.4389044  17.8012273
   8.4142681  51.4213183  17.2616772   8.9680492  51.9777338  18.5561309
  10.8263210  50.7078452  15.3587023  10.5348018  51.0708432  16.1950484
  10.2135341  49.9945460  15.1800355   4.0044402  49.6252757  20.3279708
   4.8735562  49.7993409  19.9666343   3.5251154  50.4447174  20.2055437
  15.6636878  61.3341383   9.7324983  16.3015288  61.2148130   9.0288323
  15.5457721  62.2822227   9.7912935  12.4726584  61.2868811   9.6686507
  12.1345096  61.1709875   8.7807042  13.3416352  60.8859976   9.6487513
  12.9546367  62.4403663  15.6272713  12.9435008  62.0456461  14.7553217
  13.1167007  61.7069735  16.2206484   9.6753628  65.2240774  14.5751897
   9.3843494  66.1286405  14.4598563  10.3110613  65.2657302  15.2895966
  10.6009835  62.6017623  11.1653257  11.1973407  62.3773645  10.4510219
  10.6584807  61.8602368  11.7678704  20.6186573  58.9968070   7.7111169
  21.3511745  58.4267287   7.9448999  19.8625929  58.6089670   8.1517675
  18.1411994  52.7089644  12.1705778  17.8095319  53.5785055  11.9466993
  17.5457607  52.3925928  12.8499808  14.6343513  64.9102190  11.5701691
  14.3344236  65.8127229  11.4617498  14.2894573  64.6434373  12.4222843
  18.0340657  57.4284730   9.2499128  17.1257534  57.3600138   8.9557889
  17.9828253  57.9056675  10.0780953  12.1081523  58.8474376  17.1934025
  11.3314857  59.4068296  17.1836890  12.7472086  59.3331159  17.7148895
  19.9002303  55.6301168  11.0277002  19.2576684  55.9233702  10.3816796
  19.3957232  55.5154089  11.8330198  10.3627895  61.6559829  16.7551992
  11.1042580  62.1944873  16.4786816   9.6564881  62.2826118  16.9123544
  15.8383235  63.7988969  15.3524154  16.2466591  63.3571380  14.6078786
  15.1160496  63.2241597  15.6058347  12.1914305  58.7361576  12.7257711
  13.0375500  59.1600990  12.8692360  12.1312942  58.0795201  13.4196274
  16.1612049  64.3590160   9.1076443  15.5320912  64.5235874   8.4052510
  15.7737712  64.7731770   9.8787407  20.0401281  65.2944598   6.4620806
  19.3552319  65.6743499   5.9117840  20.1245131  65.9039925   7.1952754
  15.3413750  56.3965945  14.3838884  15.0974682  57.1508005  13.8473160
  15.6173681  56.7751292  15.2186131  17.2952213  62.9404557  13.0616150
  17.5069108  63.5836317  12.3850531  17.2481961  62.1066873  12.5938080
  11.7140011  64.0964568   6.3726528  12.1778357  64.3752271   5.5831150
  11.4496809  63.1948013   6.1899618   8.6064092  63.6436050   9.3106291
   9.1765449  64.0723318   8.6723775   9.1972204  63.3618634  10.0090477
   9.0989259  58.8099477  17.5567302   8.4687919  59.4915758  17.7902699
   8.9925347  58.6982559  16.6120440  18.4098041  65.8176512  11.2338507
  19.2315485  65.4156700  10.9521189  18.4060444  65.7144747  12.1854623
  12.1754644  65.3660556  13.3899218  12.2399077  65.8280963  14.2257389
  11.4665568  64.7357921  13.5181527  26.5004034  62.1615261   7.5823479
  25.7467742  61.5922659   7.4267483  26.6351575  62.1277925   8.5294113
   8.3770002  53.1120243  19.9192553   7.9836947  52.5586442  20.5940197
   9.1936142  53.4230821  20.3099071  11.2937963  54.5278122  17.5112810
  12.0347676  55.1285275  17.4317272  11.5255885  53.7855760  16.9530852
   6.4379301  59.7134489  15.7891039   6.3232816  58.8119747  16.0898138
   5.5823818  59.9598186  15.4375856  13.5171138  67.6552230  17.3878540
  13.0734993  66.8688608  17.0699445  14.1788352  67.8431380  16.7222431
   8.2758260  69.1848031  11.9139219   8.8265685  69.0565095  11.1416213
   7.4369735  69.4842920  11.5634111  15.6152376  67.9355030  15.4159941
  15.5970852  68.7563911  14.9240210  16.5372296  67.8109105  15.6410082
  12.0725431  65.4499159  16.2583450  12.6053767  64.6887447  16.0282758
  11.5439512  65.1572811  17.0007604  18.4170989  62.7734172   8.8869308
  17.7594664  63.4633433   8.9749437  19.2211389  63.1630604   9.2303294
  17.2276448  61.1278545   6.9373250  17.7408330  61.7608537   7.4394959
  17.8777672  60.5279740   6.5716610  13.7057279  58.6028000   9.1831590
  12.7879840  58.8242947   9.0253278  14.1217423  58.6774311   8.3243298
  17.9938244  66.1084546   5.0652392  17.5400571  65.2675456   5.1217583
  17.3632211  66.7445945   5.4027173  16.4371184  67.9461043   6.0002211
  16.7294158  68.5066100   5.2814576  16.9469804  68.2389604   6.7555370
  14.8470443  59.1925461  13.9876293  15.2019830  59.4196935  14.8470759
  15.4942574  59.5243838  13.3653548  20.5768179  62.3143897   4.6925622
  20.4386078  62.5045493   3.7646811  20.2204398  63.0763280   5.1493673
  20.6037559  64.3820424   9.7036893  21.0374066  64.2895713  10.5519948
  21.3169140  64.3577925   9.0656909  14.3365454  67.9822518  11.2369994
  14.3902476  68.5513455  12.0047710  13.4680235  68.1524404  10.8724031
   7.2163847  57.6840075  12.7194445   7.8886901  57.4757437  12.0707094
   6.3893634  57.4862161  12.2799678  21.4653109  64.4244125  12.2369779
  21.6588999  65.3289936  12.4829054  21.3653727  63.9651544  13.0708364
  13.1189419  54.3102016  14.7360106  12.4717334  55.0091965  14.6424583
  13.8890435  54.7438160  15.1036354  16.5268217  64.5750868  17.8110659
  16.3753724  64.3461419  16.8940743  16.5172897  65.5321469  17.8242005
  13.2953554  62.1482781  12.7956926  14.2245614  62.2993940  12.6225893
  12.8744584  62.2366801  11.9405572  12.0941886  66.1733445  10.5655464
  11.9552971  65.8052229  11.4381402  11.3056482  66.6881084  10.3939421
  13.6447101  65.5515048   7.9544301  13.3096933  65.5115818   8.8501951
  13.1451046  64.8859764   7.4814712   7.6191345  60.9582678  13.4796883
   7.4811143  60.2262917  14.0808422   8.5296268  60.8691578  13.1981070
  10.2473645  60.6702637  12.9680562  10.9573264  60.0295829  12.9267181
  10.2042953  60.9215532  13.8906743  18.2360424  67.6069990  15.8887141
  18.1772970  66.9229210  15.2217724  18.6379942  68.3488980  15.4367767
   8.9602579  57.6567855  14.7876202   8.4239936  57.2058593  15.4397798
   8.3719288  57.7913764  14.0446666  18.2377831  65.5709574  14.1201121
  17.3504610  65.2335496  14.2427520  18.8076382  64.8392606  14.3569886
  11.7678985  70.2311027  11.0862364  11.6949156  71.0365998  11.5981669
  11.3256378  70.4302992  10.2610386  22.7195172  60.9817792   8.8817683
  22.7085048  61.8642507   8.5111616  21.8512551  60.6289342   8.6872220
  14.2277668  70.1297861  13.2420523  14.9405640  70.7645325  13.1696424
  13.7367697  70.2261727  12.4260525  15.9495195  64.0349113   4.8137815
  15.0151474  64.1550576   4.6442519  16.1271864  63.1321580   4.5497824
  19.3367746  59.8766433   5.3487849  19.8028199  60.7094424   5.2748151
  19.7875247  59.4111414   6.0533107   9.2789582  67.8792304  14.0626094
   9.9799041  68.5128787  14.2155488   8.8084697  68.2207036  13.3021733
  17.0790868  60.4336912  11.8878644  16.4262318  60.6812819  11.2331097
  17.4571248  59.6201050  11.5541121  14.0398042  70.4696605   5.9906814
  14.2220436  69.6518261   6.4534567  14.8631028  70.6864297   5.5531704
  13.1278441  61.1756723  18.3744681  12.4519078  61.0750852  19.0447056
  13.9506075  61.0195936  18.8380678  11.8701224  72.4823650  12.6102297
  12.4219532  72.6455272  13.3751382  12.2107417  73.0728088  11.9382322
   6.3217989  56.9021932  16.8597216   6.9490028  56.5199010  17.4734740
   5.4645908  56.6836134  17.2252909  16.7212098  67.3084908  18.4650952
  17.2652002  67.9214866  17.9705906  16.1398943  67.8664486  18.9817965
  15.0069611  70.4305626   9.5965979  14.8820750  69.6295365   9.0876925
  15.6648702  70.9251819   9.1079949  17.0704519  68.2314646  11.2245529
  16.1234855  68.1119997  11.1523856  17.4187292  67.3437144  11.3071791
   9.4304093  54.1208785  15.0483771   9.9538494  54.3671081  15.8110081
   9.2116426  54.9528819  14.6286909  14.0750953  68.0267362   7.4249882
  13.9275915  67.0984069   7.6057452  14.9004446  68.0487453   6.9406957
  17.6785074  68.8495921   8.5114754  18.6031622  68.6438782   8.3739206
  17.5100378  68.6012322   9.4204096  10.6356638  55.0622480  12.7333442
  10.2953458  54.2630293  13.1354122   9.9295644  55.3624191  12.1610275
  12.5234202  56.2630801  11.0886760  12.2651980  57.1847872  11.0871091
  11.9919242  55.8661236  11.7787225  17.4680391  69.3681588   3.8676846
  17.6417268  68.8028011   3.1150698  17.9609282  70.1682483   3.6856336
   3.2857350  61.3796257  11.9340405   2.7410818  62.1556065  12.0660679
   4.1636700  61.7267062  11.7759526  23.3219782  62.1318011   5.4867146
  23.7650928  61.3825336   5.0886269  22.4446292  62.1228147   5.1040878
   4.0723372  60.5066153  14.8270561   3.3305108  60.6548789  15.4135192
   3.7516117  60.7674419  13.9637311  20.3546986  66.1348058   2.4961075
  20.8798310  66.4735331   1.7710395  20.2669339  65.1995073   2.3124210
  12.0167035  70.0482132  14.6250952  12.3254161  69.8031278  15.4973651
  12.8142517  70.2528770  14.1369822   9.4861519  67.7458050   8.9278630
   8.8641528  67.0828755   8.6280858  10.1566386  67.7719182   8.2452278
   9.5586047  56.2239838  18.5211136   9.6074202  57.1001961  18.1388905
  10.1008561  55.6817231  17.9482779  20.0440892  66.7680962  17.8012273
  19.2536436  66.7505101  17.2616772  19.8074247  67.3069255  18.5561309
  20.1638767  63.6173428  15.1145001  20.2136772  63.4523435  16.0560524
  20.0552691  62.7500687  14.7242882  17.4542530  59.6004356  16.4304308
  18.3552392  59.4610821  16.1388306  17.5290504  59.7658811  17.3702486
  11.7885335  56.9771211  15.2757494  10.9188644  57.2704777  15.0040083
  12.0244815  57.5611656  15.9964758  21.6656964  66.0370370  15.3587023
  21.3741772  66.4000350  16.1950484  21.0529095  65.3237378  15.1800355
  22.8652646  63.6023249   7.8789593  23.6999538  64.0413053   8.0427154
  23.0011775  63.1261903   7.0597839  19.9144152  61.1602984  13.8267081
  20.3898274  61.3530630  13.0185932  18.9909718  61.2162170  13.5810465
  14.4924369  53.1950828  12.7922915  15.0106313  53.9311855  12.4669403
  14.1379502  53.5014821  13.6269674  18.6145821  58.0368744  12.0595387
  19.5663244  58.1366842  12.0807611  18.4449272  57.2447013  12.5693471
  16.6360201  55.1224327  12.2454787  16.0410133  55.4029340  11.5501276
  16.3509898  55.6118228  13.0171529  21.0933899  61.2574864  11.1737686
  21.0610219  60.3190865  11.3597370  21.7034523  61.3358901  10.4403511
  21.2428388  58.0485907  11.2195969  20.7267436  57.2644364  11.0325898
  22.1268336  57.7204624  11.3842489  26.9110449  62.3190871  10.3143723
  27.6413837  62.0576159  10.8751426  26.3017394  61.5819593  10.3545791
  24.9925746  60.4598733  10.9118174  24.2658910  60.3254698  10.3034666
  24.5773033  60.7675562  11.7174892  12.8155923  64.1788663  18.6765547
  13.7358932  64.3567262  18.8705594  12.7805506  63.2344708  18.5245246
   5.8117995  62.0889698  11.3188328   6.0304005  63.0206806  11.3376362
   6.2243769  61.7297672  12.1043132  10.6845860  57.6622903  20.7091077
  10.5842587  58.6117260  20.6403168  10.4667402  57.3341142  19.8367147
  10.5477130  61.0920042  19.5256139  10.0644212  61.8920402  19.7320028
  10.6338070  61.1027987  18.5723583   6.4750468  64.9824577  11.5624573
   7.4293722  64.9508519  11.4954504   6.2762992  64.5215201  12.3774799
   7.0649850  63.5525693  14.1295370   7.8842739  64.0469772  14.1530208
   7.3386658  62.6357661  14.1012938  20.1730982  55.9682966   7.2077665
  20.9491373  56.4579419   7.4802282  19.4479117  56.3941021   7.6649535
  22.6103541  56.6810586   8.2651606  23.2048032  56.4406322   7.5544914
  22.6830125  55.9617716   8.8925142  24.9174614  59.9876786   7.0395027
  24.3574172  60.0569976   7.8126589  24.3118117  59.8117771   6.3194523
   2.3184764  57.8863827  14.8287567   2.9643628  57.3762781  15.3174793
   2.1101915  58.6232509  15.4030993  14.8438157  64.9544674  20.3279708
  15.7129316  65.1285327  19.9666343  14.3644908  65.7739091  20.2055437
   9.0124337  72.0741775  12.0069142   9.9151583  72.1065386  12.3235637
   8.7861707  71.1442226  12.0215477   6.6582255  55.0331444  18.9262582
   7.5213717  54.6768249  19.1365906   6.0847666  54.6945339  19.6137986
  26.5030632  76.6633300   9.7324983  27.1409042  76.5440048   9.0288323
  26.3851475  77.6114144   9.7912935  23.3120339  76.6160728   9.6686507
  22.9738850  76.5001793   8.7807042  24.1810107  76.2151894   9.6487513
  23.7940122  77.7695580  15.6272713  23.7828762  77.3748378  14.7553217
  23.9560761  77.0361653  16.2206484  20.5147383  80.5532692  14.5751897
  20.2237249  81.4578323  14.4598563  21.1504367  80.5949220  15.2895966
  21.4403590  77.9309541  11.1653257  22.0367162  77.7065563  10.4510219
  21.4978561  77.1894286  11.7678704  26.0571901  74.3884754   6.8078191
  26.8434990  73.9704177   6.4568608  26.3210605  75.2930846   6.9759839
  31.4580328  74.3259987   7.7111169  32.1905500  73.7559204   7.9448999
  30.7019684  73.9381588   8.1517675  23.0756448  76.7487229   4.9074512
  22.7114655  76.2217850   5.6187433  23.9323564  76.3585698   4.7340997
  28.9805748  68.0381562  12.1705778  28.6489073  68.9076972  11.9466993
  28.3851362  67.7217846  12.8499808  25.4737268  80.2394108  11.5701691
  25.1737991  81.1419146  11.4617498  25.1288327  79.9726291  12.4222843
  18.9249749  76.6907904   7.6038395  18.0000246  76.5584118   7.8116087
  19.1734162  77.4702124   8.1008337  28.8734412  72.7576648   9.2499128
  27.9651289  72.6892056   8.9557889  28.8222007  73.2348593  10.0780953
  22.9475277  74.1766293  17.1934025  22.1708611  74.7360213  17.1836890
  23.5865840  74.6623076  17.7148895  30.7396058  70.9593086  11.0277002
  30.0970438  71.2525619  10.3816796  30.2350986  70.8446006  11.8330198
  28.3936222  74.7056259   1.7162861  29.3054078  74.9383646   1.5410559
  27.8845869  75.2893303   1.1537940  21.2021650  76.9851747  16.7551992
  21.9436334  77.5236791  16.4786816  20.4958635  77.6118035  16.9123544
  26.6776989  79.1280887  15.3524154  27.0860345  78.6863298  14.6078786
  25.9554251  78.5533515  15.6058347  23.0308059  74.0653494  12.7257711
  23.8769255  74.4892907  12.8692360  22.9706697  73.4087118  13.4196274
  27.0005804  79.6882078   9.1076443  26.3714666  79.8527792   8.4052510
  26.6131466  80.1023687   9.8787407  30.8795036  80.6236516   6.4620806
  30.1946074  81.0035417   5.9117840  30.9638885  81.2331842   7.1952754
  26.1807505  71.7257862  14.3838884  25.9368437  72.4799923  13.8473160
  26.4567435  72.1043210  15.2186131  28.1345967  78.2696475  13.0616150
  28.3462863  78.9128235  12.3850531  28.0875716  77.4358791  12.5938080
  25.7372196  70.8814295   9.9652722  24.8756675  71.1795549  10.2569460
  25.7634631  71.0984694   9.0333755  22.5533766  79.4256486   6.3726528
  23.0172111  79.7044189   5.5831150  22.2890564  78.5239930   6.1899618
  19.4457847  78.9727967   9.3106291  20.0159204  79.4015236   8.6723775
  20.0365959  78.6910552  10.0090477  21.4902652  75.5479638   3.1816093
  22.1926695  76.0000682   3.6490019  21.1583280  74.9063457   3.8095986
  19.9383013  74.1391395  17.5567302  19.3081674  74.8207676  17.7902699
  19.8319101  74.0274476  16.6120440  15.2327986  73.8063191   8.4833226
  14.4427040  74.0620719   8.0073337  15.7239233  74.6211529   8.5885267
  29.2491795  81.1468430  11.2338507  30.0709239  80.7448617  10.9521189
  29.2454198  81.0436664  12.1854623  23.0148399  80.6952473  13.3899218
  23.0792831  81.1572881  14.2257389  22.3059323  80.0649838  13.5181527
  13.5165689  74.0593681  10.9148217  13.7673727  74.9440691  11.1805793
  14.0525237  73.8798283  10.1423309  37.3397788  77.4907179   7.5823479
  36.5861497  76.9214577   7.4267483  37.4745330  77.4569843   8.5294113
  19.2163756  68.4412161  19.9192553  18.8230702  67.8878359  20.5940197
  20.0329896  68.7522739  20.3099071  22.1331717  69.8570040  17.5112810
  22.8741430  70.4577193  17.4317272  22.3649640  69.1147678  16.9530852
  17.2773055  75.0426407  15.7891039  17.1626570  74.1411664  16.0898138
  16.4217573  75.2890104  15.4375856  24.3564893  82.9844147  17.3878540
  23.9128747  82.1980526  17.0699445  25.0182106  83.1723298  16.7222431
  19.1152014  84.5139949  11.9139219  19.6659439  84.3857012  11.1416213
  18.2763490  84.8134838  11.5634111  26.4546131  83.2646947  15.4159941
  26.4364606  84.0855828  14.9240210  27.3766051  83.1401022  15.6410082
  22.9119185  80.7791077  16.2583450  23.4447522  80.0179365  16.0282758
  22.3833266  80.4864729  17.0007604  26.0788880  65.8851143  11.7877091
  25.7353149  66.7752784  11.7116202  26.4467843  65.6952800  10.9246676
  26.0439163  75.8759754   0.2949527  25.5285786  76.6464358   0.5337914
  25.7716471  75.2024890   0.9182588  23.6286274  70.7209455   5.3534765
  22.7727870  70.3316305   5.1740404  24.0413226  70.8001415   4.4934550
  25.1585420  68.2555798   9.7526325  24.6550216  68.2185933   8.9394130
  25.4516027  69.1648541   9.8122981  21.4028306  68.3394528   8.7592506
  22.2681303  68.1437336   8.3998396  21.4705815  68.1104879   9.6861863
  31.0173437  78.6292108   2.2302700  30.2402880  78.2903268   1.7857862
  31.6964918  78.6344732   1.5557665  25.8325466  73.7486846   2.1209308
  25.5275602  74.0632995   2.9719451  26.7855908  73.8268266   2.1636641
  29.2564744  78.1026090   8.8869308  28.5988418  78.7925351   8.9749437
  30.0605143  78.4922522   9.2303294  19.0090625  70.5696736   6.1308873
  19.5834377  70.3471917   5.3982066  19.5961608  70.6385430   6.8837475
  28.0670203  76.4570462   6.9373250  28.5802084  77.0900454   7.4394959
  28.7171426  75.8571658   6.5716610  21.3113293  67.4437984   4.8583943
  20.6577705  67.1287002   4.2340557  21.2693767  66.8213725   5.5843766
  24.5451033  73.9319918   9.1831590  23.6273595  74.1534865   9.0253278
  24.9611177  74.0066228   8.3243298  25.3286081  75.3311334   4.3134271
  26.0757900  75.8432731   4.0041393  25.5977671  75.0095386   5.1738664
  28.8331999  81.4376464   5.0652392  28.3794326  80.5967374   5.1217583
  28.2025966  82.0737862   5.4027173  27.7764918  72.3668450   6.2953060
  27.0387675  71.8545836   6.6263302  28.0291692  71.9268831   5.4836337
  27.2764938  83.2752961   6.0002211  27.5687912  83.8358018   5.2814576
  27.7863559  83.5681522   6.7555370  27.8776546  65.1444702   6.8894829
  28.1835422  64.2842065   6.6020744  28.6029151  65.7362322   6.6893823
  22.1497625  75.4398495   7.3971020  22.2046235  74.4872331   7.3213497
  21.3388827  75.5957934   7.8812319  20.0889985  74.0575555   5.1561399
  19.2757851  74.3569725   5.5626591  20.5848980  73.6631243   5.8735881
  25.6864197  74.5217379  13.9876293  26.0413585  74.7488852  14.8470759
  26.3336328  74.8535756  13.3653548  31.4161934  77.6435815   4.6925622
  31.2779833  77.8337411   3.7646811  31.0598153  78.4055198   5.1493673
  19.5804060  71.6293910  10.7722634  20.2203439  71.4882669  10.0745597
  18.7481591  71.3428424  10.3961236  31.4431314  79.7112342   9.7036893
  31.8767820  79.6187631  10.5519948  32.1562894  79.6869843   9.0656909
  25.1759208  83.3114436  11.2369994  25.2296231  83.8805372  12.0047710
  24.3073990  83.4816321  10.8724031  16.5832677  71.5994235   5.5495621
  16.8439494  72.5139568   5.4404781  17.4049849  71.1318678   5.6992234
  18.0557602  73.0131992  12.7194445  18.7280655  72.8049355  12.0707094
  17.2287388  72.8154078  12.2799678  32.3046863  79.7536043  12.2369779
  32.4982753  80.6581853  12.4829054  32.2047481  79.2943462  13.0708364
  23.9583174  69.6393933  14.7360106  23.3111089  70.3383883  14.6424583
  24.7284189  70.0730077  15.1036354  27.3661972  79.9042785  17.8110659
  27.2147478  79.6753337  16.8940743  27.3566651  80.8613387  17.8242005
  24.1347308  77.4774698  12.7956926  25.0639368  77.6285858  12.6225893
  23.7138338  77.5658719  11.9405572  22.9335640  81.5025363  10.5655464
  22.7946726  81.1344147  11.4381402  22.1450236  82.0173002  10.3939421
  24.4840855  80.8806965   7.9544301  24.1490688  80.8407735   8.8501951
  23.9844801  80.2151681   7.4814712  18.4585099  76.2874595  13.4796883
  18.3204897  75.5554834  14.0808422  19.3690023  76.1983495  13.1981070
  21.0867400  75.9994555  12.9680562  21.7967018  75.3587747  12.9267181
  21.0436708  76.2507450  13.8906743  29.0754178  82.9361908  15.8887141
  29.0166725  82.2521128  15.2217724  29.4773697  83.6780898  15.4367767
  19.7996334  72.9859773  14.7876202  19.2633691  72.5350511  15.4397798
  19.2113042  73.1205681  14.0446666  29.0771586  80.9001492  14.1201121
  28.1898364  80.5627414  14.2427520  29.6470137  80.1684523  14.3569886
  15.5335455  72.1215780  11.8729196  15.4493644  71.5141450  11.1379606
  14.7118161  72.6124799  11.8738692  22.6072739  85.5602944  11.0862364
  22.5342911  86.3657916  11.5981669  22.1650132  85.7594910  10.2610386
  25.7059169  70.6069344   7.2399391  26.2027868  69.8539306   6.9200461
  24.9346150  70.6433660   6.6742600  33.5588926  76.3109709   8.8817683
  33.5478803  77.1934425   8.5111616  32.6906306  75.9581260   8.6872220
  25.0671423  85.4589778  13.2420523  25.7799395  86.0937243  13.1696424
  24.5761451  85.5553644  12.4260525  26.7888950  79.3641031   4.8137815
  25.8545228  79.4842493   4.6442519  26.9665618  78.4613498   4.5497824
  22.2894138  72.7486727   6.9671076  21.9191925  72.1957767   7.6551981
  22.7853230  72.1444860   6.4146076  30.1761501  75.2058350   5.3487849
  30.6421953  76.0386342   5.2748151  30.6269001  74.7403332   6.0533107
  20.1183336  83.2084222  14.0626094  20.8192796  83.8420705  14.2155488
  19.6478451  83.5498953  13.3021733  28.2437732  81.5502172   2.3474001
  28.5197576  81.4358766   3.2567875  27.3742231  81.1519656   2.3086174
  28.1478164  67.5738937   9.3878750  27.2341243  67.8043164   9.5560957
  28.5771265  67.6577381  10.2392782  27.9184622  75.7628829  11.8878644
  27.2656072  76.0104737  11.2331097  28.2965002  74.9492967  11.5541121
  24.8791796  85.7988522   5.9906814  25.0614191  84.9810178   6.4534567
  25.7024782  86.0156215   5.5531704  23.9672195  76.5048640  18.3744681
  23.2912832  76.4042770  19.0447056  24.7899829  76.3487854  18.8380678
  22.7094978  87.8115568  12.6102297  23.2613286  87.9747189  13.3751382
  23.0501172  88.4020006  11.9382322  17.6859471  70.1590718  13.2124182
  17.7500798  71.0205548  12.8001580  17.6226592  69.5464719  12.4796540
  17.1611744  72.2313850  16.8597216  17.7883783  71.8490927  17.4734740
  16.3039663  72.0128052  17.2252909  27.5605852  82.6376825  18.4650952
  28.1045756  83.2506784  17.9705906  26.9792697  83.1956404  18.9817965
  25.8463365  85.7597543   9.5965979  25.7214505  84.9587283   9.0876925
  26.5042456  86.2543737   9.1079949  17.4671534  72.1146276   8.7743120
  16.7458119  72.7282243   8.6350593  18.2564789  72.6504041   8.6959765
  27.9098274  83.5606563  11.2245529  26.9628609  83.4411915  11.1523856
  28.2581047  82.6729061  11.3071791  20.2697847  69.4500702  15.0483771
  20.7932249  69.6962999  15.8110081  20.0510180  70.2820737  14.6286909
  24.9144707  83.3559280   7.4249882  24.7669669  82.4275987   7.6057452
  25.7398201  83.3779370   6.9406957  28.5178829  84.1787838   8.5114754
  29.4425376  83.9730700   8.3739206  28.3494132  83.9304239   9.4204096
  21.4750392  70.3914397  12.7333442  21.1347212  69.5922210  13.1354122
  20.7689398  70.6916108  12.1610275  22.1266864  67.4763710  11.1860765
  22.9492933  67.0024188  11.0639655  22.3704927  68.2554194  11.6859451
  20.7675098  70.5051968   1.4823667  21.4883461  70.8833221   0.9787383
  20.1440403  71.2240845   1.5858644  24.9106221  71.2097117   2.4181999
  25.1269836  72.0921755   2.1170827  24.4300288  70.8183331   1.6887641
  19.6505443  74.1682830   8.9952743  19.5050023  74.4823134   9.8877025
  19.1730646  74.7867731   8.4423642  21.5101826  71.1585378   9.0433633
  21.4963394  70.2626472   8.7065931  22.2274254  71.1656042   9.6771919
  23.3627956  71.5922719  11.0886760  23.1045734  72.5139789  11.0871091
  22.8312997  71.1953153  11.7787225  28.3074145  84.6973506   3.8676846
  28.4811023  84.1319928   3.1150698  28.8003036  85.4974401   3.6856336
  14.1251105  76.7088175  11.9340405  13.5804573  77.4847983  12.0660679
  15.0030455  77.0558979  11.7759526  20.9138722  70.0399759   4.3121203
  21.0354633  69.1116405   4.5112091  20.6240764  70.0538445   3.3999519
  23.7829912  67.7254669   7.4487923  23.8051609  67.7894002   6.4939903
  24.1997971  66.8859178   7.6428429  34.1613536  77.4609929   5.4867146
  34.6044682  76.7117254   5.0886269  33.2840047  77.4520065   5.1040878
  14.9117127  75.8358071  14.8270561  14.1698863  75.9840706  15.4135192
  14.5909871  76.0966337  13.9637311  31.1940741  81.4639976   2.4961075
  31.7192065  81.8027248   1.7710395  31.1063093  80.5286991   2.3124210
  22.8560789  85.3774049  14.6250952  23.1647916  85.1323196  15.4973651
  23.6536271  85.5820688  14.1369822  20.3255274  83.0749968   8.9278630
  19.7035283  82.4120673   8.6280858  20.9960140  83.1011100   8.2452278
  20.3979801  71.5531756  18.5211136  20.4467957  72.4293879  18.1388905
  20.9402315  71.0109149  17.9482779  30.8834647  82.0972879  17.8012273
  30.0930190  82.0797018  17.2616772  30.6468001  82.6361173  18.5561309
  31.0032522  78.9465346  15.1145001  31.0530527  78.7815353  16.0560524
  30.8946445  78.0792605  14.7242882  28.2936284  74.9296274  16.4304308
  29.1946147  74.7902739  16.1388306  28.3684259  75.0950729  17.3702486
  22.6279090  72.3063128  15.2757494  21.7582399  72.5996695  15.0040083
  22.8638570  72.8903573  15.9964758  32.5050719  81.3662287  15.3587023
  32.2135527  81.7292268  16.1950484  31.8922850  80.6529296  15.1800355
  33.7046401  78.9315167   7.8789593  34.5393292  79.3704971   8.0427154
  33.8405530  78.4553820   7.0597839  30.7537907  76.4894902  13.8267081
  31.2292028  76.6822548  13.0185932  29.8303472  76.5454088  13.5810465
  25.3318123  68.5242745  12.7922915  25.8500067  69.2603772  12.4669403
  24.9773256  68.8306739  13.6269674  25.5830718  64.9443028   8.3123811
  25.8632471  64.2766217   8.9384238  26.3681324  65.1372124   7.7998475
  29.4539576  73.3660662  12.0595387  30.4056999  73.4658760  12.0807611
  29.2843026  72.5738930  12.5693471  27.4753955  70.4516245  12.2454787
  26.8803887  70.7321258  11.5501276  27.1903652  70.9410146  13.0171529
  31.9327654  76.5866782  11.1737686  31.9003974  75.6482782  11.3597370
  32.5428277  76.6650818  10.4403511  32.0822142  73.3777825  11.2195969
  31.5661191  72.5936282  11.0325898  32.9662091  73.0496542  11.3842489
  29.7432869  67.1218841   7.1791782  29.5457690  66.8133929   8.0635114
  30.3532575  67.8480480   7.3089712  37.7504203  77.6482788  10.3143723
  38.4807592  77.3868077  10.8751426  37.1411149  76.9111510  10.3545791
  35.8319501  75.7890651  10.9118174  35.1052664  75.6546616  10.3034666
  35.4166787  76.0967480  11.7174892  23.6549677  79.5080581  18.6765547
  24.5752687  79.6859180  18.8705594  23.6199260  78.5636626  18.5245246
  16.6511750  77.4181615  11.3188328  16.8697759  78.3498723  11.3376362
  17.0637523  77.0589590  12.1043132  23.5715967  67.9249701   3.3064017
  22.7616696  67.5796786   3.6819263  24.2600384  67.6157244   3.8951628
  25.5006516  67.0027748   4.9288313  26.0537554  67.4223201   5.5878336
  25.7376602  66.0763496   4.9711269  21.5239615  72.9914821  20.7091077
  21.4236342  73.9409178  20.6403168  21.3061157  72.6633060  19.8367147
  28.8785323  69.1128273   4.4366978  28.2983992  69.7713077   4.0545030
  28.6121255  68.2905617   4.0254395  27.3288889  68.5133330   6.6388298
  27.8288667  68.6249865   5.8302617  27.9724497  68.2094383   7.2789106
  21.3870885  76.4211960  19.5256139  20.9037967  77.2212320  19.7320028
  21.4731824  76.4319905  18.5723583  17.3144222  80.3116495  11.5624573
  18.2687476  80.2800437  11.4954504  17.1156746  79.8507118  12.3774799
  17.9043605  78.8817611  14.1295370  18.7236494  79.3761689  14.1530208
  18.1780412  77.9649579  14.1012938  27.6610201  71.2728363   3.4923326
  26.7736056  71.5578014   3.2743521  28.0764190  71.1122126   2.6450603
  31.0124737  71.2974884   7.2077665  31.7885127  71.7871336   7.4802282
  30.2872871  71.7232938   7.6649535  33.4497296  72.0102503   8.2651606
  34.0441786  71.7698239   7.5544914  33.5223879  71.2909634   8.8925142
  27.6351225  76.7882899   3.7073616  27.5786426  77.2451450   2.8681248
  28.1879567  76.0273584   3.5296459  31.4456030  72.5772631   4.5323736
  31.1892965  72.1769267   5.3631943  30.8208898  73.2916425   4.4073875
  35.7568368  75.3168704   7.0395027  35.1967926  75.3861893   7.8126589
  35.1511872  75.1409689   6.3194523  28.3686004  77.9787680   1.0026145
  28.3134808  77.8131952   0.0614589  27.7432059  78.6863713   1.1588335
  13.1578519  73.2155745  14.8287567  13.8037382  72.7054699  15.3174793
  12.9495670  73.9524426  15.4030993  25.6831911  80.2836592  20.3279708
  26.5523071  80.4577244  19.9666343  25.2038662  81.1031009  20.2055437
  21.6782129  67.4795789   0.5811464  21.6660799  68.4237629   0.7379734
  22.5705551  67.2965935   0.2870925  19.8518091  87.4033693  12.0069142
  20.7545338  87.4357303  12.3235637  19.6255461  86.4734144  12.0215477
  25.4934249  64.0738566   4.8357400  24.7266645  63.5197053   4.9814083
  25.9044954  64.1460435   5.6971552  17.4976010  70.3623362  18.9262582
  18.3607471  70.0060167  19.1365906  16.9241420  70.0237257  19.6137986
  37.3424387  91.9925218   9.7324983  37.9802797  91.8731965   9.0288323
  37.2245230  92.9406062   9.7912935  34.1514093  91.9452646   9.6686507
  33.8132605  91.8293711   8.7807042  35.0203861  91.5443811   9.6487513
  34.6333876  93.0987498  15.6272713  34.6222517  92.7040296  14.7553217
  34.7954515  92.3653570  16.2206484  31.3541137  95.8824610  14.5751897
  31.0631003  96.7870241  14.4598563  31.9898122  95.9241137  15.2895966
  32.2797344  93.2601458  11.1653257  32.8760916  93.0357481  10.4510219
  32.3372316  92.5186204  11.7678704  36.8965655  89.7176672   6.8078191
  37.6828744  89.2996095   6.4568608  37.1604360  90.6222764   6.9759839
  42.2974082  89.6551905   7.7111169  43.0299254  89.0851122   7.9448999
  41.5413438  89.2673506   8.1517675  33.9150202  92.0779147   4.9074512
  33.5508409  91.5509768   5.6187433  34.7717318  91.6877616   4.7340997
  39.8199503  83.3673479  12.1705778  39.4882827  84.2368890  11.9466993
  39.2245116  83.0509763  12.8499808  36.3131022  95.5686025  11.5701691
  36.0131745  96.4711064  11.4617498  35.9682082  95.3018208  12.4222843
  29.7643504  92.0199822   7.6038395  28.8394000  91.8876036   7.8116087
  30.0127917  92.7994041   8.1008337  39.7128166  88.0868565   9.2499128
  38.8045043  88.0183974   8.9557889  39.6615762  88.5640510  10.0780953
  33.7869032  89.5058211  17.1934025  33.0102366  90.0652131  17.1836890
  34.4259595  89.9914994  17.7148895  41.5789812  86.2885004  11.0277002
  40.9364193  86.5817537  10.3816796  41.0744741  86.1737924  11.8330198
  39.2329976  90.0348177   1.7162861  40.1447832  90.2675564   1.5410559
  38.7239623  90.6185221   1.1537940  32.0415404  92.3143664  16.7551992
  32.7830088  92.8528708  16.4786816  31.3352390  92.9409953  16.9123544
  37.5170744  94.4572805  15.3524154  37.9254100  94.0155215  14.6078786
  36.7948005  93.8825432  15.6058347  33.8701814  89.3945412  12.7257711
  34.7163009  89.8184825  12.8692360  33.8100451  88.7379036  13.4196274
  37.8399558  95.0173995   9.1076443  37.2108421  95.1819710   8.4052510
  37.4525220  95.4315605   9.8787407  41.7188790  95.9528433   6.4620806
  41.0339828  96.3327335   5.9117840  41.8032640  96.5623760   7.1952754
  37.0201259  87.0549780  14.3838884  36.7762191  87.8091840  13.8473160
  37.2961190  87.4335128  15.2186131  38.9739722  93.5988392  13.0616150
  39.1856617  94.2420152  12.3850531  38.9269470  92.7650709  12.5938080
  36.5765951  86.2106213   9.9652722  35.7150430  86.5087467  10.2569460
  36.6028386  86.4276612   9.0333755  33.3927520  94.7548404   6.3726528
  33.8565866  95.0336106   5.5831150  33.1284318  93.8531848   6.1899618
  30.2851601  94.3019885   9.3106291  30.8552958  94.7307153   8.6723775
  30.8759713  94.0202470  10.0090477  32.3296406  90.8771556   3.1816093
  33.0320450  91.3292600   3.6490019  31.9977035  90.2355375   3.8095986
  30.7776768  89.4683313  17.5567302  30.1475428  90.1499593  17.7902699
  30.6712856  89.3566394  16.6120440  26.0721740  89.1355109   8.4833226
  25.2820794  89.3912637   8.0073337  26.5632988  89.9503446   8.5885267
  40.0885550  96.4760348  11.2338507  40.9102994  96.0740535  10.9521189
  40.0847953  96.3728582  12.1854623  33.8542153  96.0244391  13.3899218
  33.9186586  96.4864798  14.2257389  33.1453077  95.3941756  13.5181527
  24.3559443  89.3885599  10.9148217  24.6067482  90.2732609  11.1805793
  24.8918992  89.2090201  10.1423309  48.1791543  92.8199096   7.5823479
  47.4255251  92.2506494   7.4267483  48.3139084  92.7861761   8.5294113
  30.0557511  83.7704078  19.9192553  29.6624456  83.2170277  20.5940197
  30.8723651  84.0814657  20.3099071  32.9725472  85.1861957  17.5112810
  33.7135185  85.7869111  17.4317272  33.2043394  84.4439595  16.9530852
  28.1166810  90.3718325  15.7891039  28.0020325  89.4703582  16.0898138
  27.2611327  90.6182021  15.4375856  35.1958647  98.3136065  17.3878540
  34.7522502  97.5272444  17.0699445  35.8575861  98.5015216  16.7222431
  29.9545769  99.8431867  11.9139219  30.5053194  99.7148930  11.1416213
  29.1157244 100.1426756  11.5634111  37.2939885  98.5938865  15.4159941
  37.2758361  99.4147746  14.9240210  38.2159805  98.4692940  15.6410082
  33.7512940  96.1082994  16.2583450  34.2841276  95.3471283  16.0282758
  33.2227021  95.8156646  17.0007604  36.9182635  81.2143060  11.7877091
  36.5746904  82.1044702  11.7116202  37.2861597  81.0244718  10.9246676
  36.8832917  91.2051671   0.2949527  36.3679541  91.9756276   0.5337914
  36.6110226  90.5316808   0.9182588  34.4680028  86.0501372   5.3534765
  33.6121625  85.6608223   5.1740404  34.8806980  86.1293333   4.4934550
  35.9979175  83.5847716   9.7526325  35.4943971  83.5477851   8.9394130
  36.2909782  84.4940458   9.8122981  32.2422061  83.6686445   8.7592506
  33.1075058  83.4729254   8.3998396  32.3099570  83.4396797   9.6861863
  41.8567191  93.9584026   2.2302700  41.0796634  93.6195186   1.7857862
  42.5358672  93.9636649   1.5557665  36.6719220  89.0778764   2.1209308
  36.3669356  89.3924913   2.9719451  37.6249663  89.1560183   2.1636641
  40.0958498  93.4318007   8.8869308  39.4382173  94.1217269   8.9749437
  40.8998897  93.8214439   9.2303294  29.8484380  85.8988653   6.1308873
  30.4228132  85.6763835   5.3982066  30.4355362  85.9677348   6.8837475
  38.9063957  91.7862380   6.9373250  39.4195839  92.4192372   7.4394959
  39.5565181  91.1863576   6.5716610  32.1507048  82.7729902   4.8583943
  31.4971460  82.4578919   4.2340557  32.1087522  82.1505643   5.5843766
  35.3844788  89.2611836   9.1831590  34.4667349  89.4826783   9.0253278
  35.8004932  89.3358146   8.3243298  36.1679836  90.6603251   4.3134271
  36.9151655  91.1724649   4.0041393  36.4371425  90.3387304   5.1738664
  39.6725753  96.7668382   5.0652392  39.2188080  95.9259291   5.1217583
  39.0419720  97.4029780   5.4027173  38.6158673  87.6960368   6.2953060
  37.8781430  87.1837754   6.6263302  38.8685446  87.2560749   5.4836337
  38.1158693  98.6044878   6.0002211  38.4081667  99.1649935   5.2814576
  38.6257313  98.8973439   6.7555370  38.7170300  80.4736620   6.8894829
  39.0229177  79.6133983   6.6020744  39.4422905  81.0654240   6.6893823
  32.9891380  90.7690413   7.3971020  33.0439990  89.8164249   7.3213497
  32.1782582  90.9249852   7.8812319  30.9283740  89.3867472   5.1561399
  30.1151605  89.6861643   5.5626591  31.4242734  88.9923161   5.8735881
  36.5257952  89.8509297  13.9876293  36.8807339  90.0780770  14.8470759
  37.1730083  90.1827674  13.3653548  42.2555688  92.9727733   4.6925622
  42.1173587  93.1629329   3.7646811  41.8991907  93.7347116   5.1493673
  30.4197815  86.9585828  10.7722634  31.0597194  86.8174587  10.0745597
  29.5875345  86.6720341  10.3961236  42.2825068  95.0404260   9.7036893
  42.7161575  94.9479549  10.5519948  42.9956649  95.0161760   9.0656909
  36.0152963  98.6406354  11.2369994  36.0689985  99.2097290  12.0047710
  35.1467744  98.8108239  10.8724031  27.4226431  86.9286153   5.5495621
  27.6833248  87.8431486   5.4404781  28.2443603  86.4610595   5.6992234
  28.8951356  88.3423910  12.7194445  29.5674410  88.1341272  12.0707094
  28.0681143  88.1445996  12.2799678  43.1440618  95.0827960  12.2369779
  43.3376508  95.9873771  12.4829054  43.0441236  94.6235379  13.0708364
  34.7976928  84.9685851  14.7360106  34.1504843  85.6675801  14.6424583
  35.5677944  85.4021995  15.1036354  38.2055726  95.2334703  17.8110659
  38.0541233  95.0045255  16.8940743  38.1960406  96.1905305  17.8242005
  34.9741063  92.8066616  12.7956926  35.9033123  92.9577775  12.6225893
  34.5532093  92.8950637  11.9405572  33.7729395  96.8317280  10.5655464
  33.6340480  96.4636065  11.4381402  32.9843991  97.3464920  10.3939421
  35.3234610  96.2098883   7.9544301  34.9884442  96.1699653   8.8501951
  34.8238555  95.5443599   7.4814712  29.2978854  91.6166513  13.4796883
  29.1598652  90.8846752  14.0808422  30.2083777  91.5275413  13.1981070
  31.9261154  91.3286472  12.9680562  32.6360773  90.6879665  12.9267181
  31.8830462  91.5799367  13.8906743  39.9147933  98.2653826  15.8887141
  39.8560479  97.5813046  15.2217724  40.3167451  99.0072816  15.4367767
  30.6390088  88.3151690  14.7876202  30.1027445  87.8642429  15.4397798
  30.0506797  88.4497599  14.0446666  39.9165340  96.2293410  14.1201121
  39.0292119  95.8919331  14.2427520  40.4863891  95.4976441  14.3569886
  26.3729209  87.4507698  11.8729196  26.2887398  86.8433367  11.1379606
  25.5511916  87.9416716  11.8738692  33.4466494 100.8894862  11.0862364
  33.3736665 101.6949833  11.5981669  33.0043887 101.0886828  10.2610386
  36.5452923  85.9361261   7.2399391  37.0421623  85.1831224   6.9200461
  35.7739905  85.9725578   6.6742600  44.3982681  91.6401627   8.8817683
  44.3872557  92.5226342   8.5111616  43.5300060  91.2873178   8.6872220
  35.9065177 100.7881696  13.2420523  36.6193149 101.4229161  13.1696424
  35.4155206 100.8845562  12.4260525  37.6282704  94.6932949   4.8137815
  36.6938983  94.8134411   4.6442519  37.8059373  93.7905415   4.5497824
  33.1287892  88.0778644   6.9671076  32.7585680  87.5249685   7.6551981
  33.6246985  87.4736778   6.4146076  41.0155255  90.5350268   5.3487849
  41.4815708  91.3678260   5.2748151  41.4662756  90.0695250   6.0533107
  30.9577091  98.5376139  14.0626094  31.6586550  99.1712622  14.2155488
  30.4872206  98.8790871  13.3021733  39.0831487  96.8794089   2.3474001
  39.3591330  96.7650684   3.2567875  38.2135985  96.4811574   2.3086174
  38.9871918  82.9030855   9.3878750  38.0734998  83.1335082   9.5560957
  39.4165020  82.9869299  10.2392782  38.7578377  91.0920747  11.8878644
  38.1049827  91.3396654  11.2331097  39.1358757  90.2784885  11.5541121
  35.7185551 101.1280440   5.9906814  35.9007945 100.3102096   6.4534567
  36.5418537 101.3448132   5.5531704  34.8065950  91.8340558  18.3744681
  34.1306587  91.7334687  19.0447056  35.6293584  91.6779772  18.8380678
  33.5488733 103.1407485  12.6102297  34.1007041 103.3039107  13.3751382
  33.8894926 103.7311923  11.9382322  28.5253226  85.4882635  13.2124182
  28.5894552  86.3497466  12.8001580  28.4620346  84.8756637  12.4796540
  28.0005498  87.5605768  16.8597216  28.6277537  87.1782845  17.4734740
  27.1433417  87.3419970  17.2252909  38.3999607  97.9668743  18.4650952
  38.9439511  98.5798701  17.9705906  37.8186452  98.5248321  18.9817965
  36.6857120 101.0889461   9.5965979  36.5608259 100.2879201   9.0876925
  37.3436211 101.5835654   9.1079949  28.3065288  87.4438193   8.7743120
  27.5851874  88.0574161   8.6350593  29.0958544  87.9795958   8.6959765
  38.7492028  98.8898481  11.2245529  37.8022364  98.7703832  11.1523856
  39.0974801  98.0020979  11.3071791  31.1091602  84.7792620  15.0483771
  31.6326003  85.0254917  15.8110081  30.8903935  85.6112655  14.6286909
  35.7538462  98.6851197   7.4249882  35.6063424  97.7567905   7.6057452
  36.5791955  98.7071288   6.9406957  39.3572583  99.5079756   8.5114754
  40.2819131  99.3022617   8.3739206  39.1887887  99.2596157   9.4204096
  32.3144147  85.7206315  12.7333442  31.9740967  84.9214128  13.1354122
  31.6083153  86.0208026  12.1610275  32.9660618  82.8055627  11.1860765
  33.7886688  82.3316106  11.0639655  33.2098682  83.5846111  11.6859451
  31.6068853  85.8343886   1.4823667  32.3277215  86.2125139   0.9787383
  30.9834157  86.5532763   1.5858644  35.7499976  86.5389035   2.4181999
  35.9663590  87.4213673   2.1170827  35.2694043  86.1475248   1.6887641
  30.4899197  89.4974748   8.9952743  30.3443778  89.8115051   9.8877025
  30.0124401  90.1159648   8.4423642  32.3495580  86.4877296   9.0433633
  32.3357149  85.5918389   8.7065931  33.0668008  86.4947960   9.6771919
  34.2021711  86.9214636  11.0886760  33.9439489  87.8431707  11.0871091
  33.6706751  86.5245071  11.7787225  39.1467900 100.0265423   3.8676846
  39.3204777  99.4611846   3.1150698  39.6396791 100.8266318   3.6856336
  24.9644859  92.0380093  11.9340405  24.4198327  92.8139900  12.0660679
  25.8424209  92.3850897  11.7759526  31.7532476  85.3691676   4.3121203
  31.8748387  84.4408323   4.5112091  31.4634518  85.3830362   3.3999519
  34.6223666  83.0546587   7.4487923  34.6445363  83.1185920   6.4939903
  35.0391725  82.2151095   7.6428429  45.0007291  92.7901846   5.4867146
  45.4438437  92.0409172   5.0886269  44.1233801  92.7811983   5.1040878
  25.7510881  91.1649989  14.8270561  25.0092617  91.3132624  15.4135192
  25.4303626  91.4258254  13.9637311  42.0334495  96.7931893   2.4961075
  42.5585819  97.1319166   1.7710395  41.9456848  95.8578909   2.3124210
  33.6954544 100.7065967  14.6250952  34.0041670 100.4615114  15.4973651
  34.4930026 100.9112605  14.1369822  31.1649028  98.4041886   8.9278630
  30.5429037  97.7412591   8.6280858  31.8353895  98.4303018   8.2452278
  31.2373556  86.8823674  18.5211136  31.2861711  87.7585797  18.1388905
  31.7796070  86.3401067  17.9482779  41.7228401  97.4264797  17.8012273
  40.9323945  97.4088936  17.2616772  41.4861756  97.9653091  18.5561309
  41.8426276  94.2757263  15.1145001  41.8924281  94.1107271  16.0560524
  41.7340200  93.4084522  14.7242882  39.1330039  90.2588191  16.4304308
  40.0339901  90.1194656  16.1388306  39.2078013  90.4242646  17.3702486
  33.4672844  87.6355046  15.2757494  32.5976153  87.9288612  15.0040083
  33.7032324  88.2195491  15.9964758  43.3444473  96.6954205  15.3587023
  43.0529281  97.0584185  16.1950484  42.7316604  95.9821213  15.1800355
  44.5440155  94.2607085   7.8789593  45.3787047  94.6996889   8.0427154
  44.6799284  93.7845738   7.0597839  41.5931661  91.8186820  13.8267081
  42.0685783  92.0114466  13.0185932  40.6697227  91.8746005  13.5810465
  36.1711878  83.8534663  12.7922915  36.6893822  84.5895690  12.4669403
  35.8167011  84.1598656  13.6269674  36.4224472  80.2734946   8.3123811
  36.7026226  79.6058135   8.9384238  37.2075079  80.4664041   7.7998475
  40.2933330  88.6952580  12.0595387  41.2450753  88.7950677  12.0807611
  40.1236781  87.9030848  12.5693471  38.3147710  85.7808163  12.2454787
  37.7197642  86.0613176  11.5501276  38.0297407  86.2702064  13.0171529
  42.7721408  91.9158699  11.1737686  42.7397728  90.9774700  11.3597370
  43.3822032  91.9942736  10.4403511  42.9215897  88.7069743  11.2195969
  42.4054945  87.9228199  11.0325898  43.8055845  88.3788459  11.3842489
  40.5826624  82.4510758   7.1791782  40.3851445  82.1425846   8.0635114
  41.1926329  83.1772397   7.3089712  48.5897958  92.9774706  10.3143723
  49.3201346  92.7159994  10.8751426  47.9804903  92.2403428  10.3545791
  46.6713255  91.1182569  10.9118174  45.9446419  90.9838534  10.3034666
  46.2560542  91.4259397  11.7174892  34.4943432  94.8372498  18.6765547
  35.4146441  95.0151097  18.8705594  34.4593015  93.8928544  18.5245246
  27.4905504  92.7473533  11.3188328  27.7091514  93.6790641  11.3376362
  27.9031278  92.3881507  12.1043132  34.4109722  83.2541618   3.3064017
  33.6010450  82.9088703   3.6819263  35.0994139  82.9449162   3.8951628
  36.3400270  82.3319665   4.9288313  36.8931309  82.7515119   5.5878336
  36.5770357  81.4055413   4.9711269  32.3633369  88.3206739  20.7091077
  32.2630096  89.2701096  20.6403168  32.1454911  87.9924978  19.8367147
  39.7179077  84.4420190   4.4366978  39.1377746  85.1004994   4.0545030
  39.4515010  83.6197535   4.0254395  38.1682644  83.8425248   6.6388298
  38.6682422  83.9541783   5.8302617  38.8118252  83.5386301   7.2789106
  32.2264639  91.7503878  19.5256139  31.7431721  92.5504238  19.7320028
  32.3125578  91.7611823  18.5723583  28.1537977  95.6408412  11.5624573
  29.1081230  95.6092355  11.4954504  27.9550501  95.1799036  12.3774799
  28.7437359  94.2109528  14.1295370  29.5630248  94.7053607  14.1530208
  29.0174167  93.2941497  14.1012938  38.5003955  86.6020281   3.4923326
  37.6129810  86.8869931   3.2743521  38.9157944  86.4414044   2.6450603
  41.8518491  86.6266802   7.2077665  42.6278882  87.1163254   7.4802282
  41.1266626  87.0524856   7.6649535  44.2891050  87.3394421   8.2651606
  44.8835541  87.0990157   7.5544914  44.3617634  86.6201552   8.8925142
  38.4744979  92.1174817   3.7073616  38.4180180  92.5743368   2.8681248
  39.0273321  91.3565501   3.5296459  42.2849785  87.9064549   4.5323736
  42.0286719  87.5061184   5.3631943  41.6602653  88.6208342   4.4073875
  46.5962123  90.6460622   7.0395027  46.0361681  90.7153811   7.8126589
  45.9905626  90.4701606   6.3194523  39.2079758  93.3079598   1.0026145
  39.1528562  93.1423869   0.0614589  38.5825814  94.0155631   1.1588335
  23.9972273  88.5447662  14.8287567  24.6431137  88.0346616  15.3174793
  23.7889424  89.2816344  15.4030993  36.5225666  95.6128510  20.3279708
  37.3916825  95.7869162  19.9666343  36.0432417  96.4322927  20.2055437
  32.5175884  82.8087707   0.5811464  32.5054554  83.7529547   0.7379734
  33.4099306  82.6257852   0.2870925  30.6911846 102.7325611  12.0069142
  31.5939092 102.7649221  12.3235637  30.4649216 101.8026062  12.0215477
  36.3328003  79.4030484   4.8357400  35.5660399  78.8488970   4.9814083
  36.7438708  79.4752352   5.6971552  28.3369764  85.6915279  18.9262582
  29.2001226  85.3352084  19.1365906  27.7635175  85.3529174  19.6137986
  48.1818141 107.3217136   9.7324983  48.8196551 107.2023883   9.0288323
  48.0638984 108.2697980   9.7912935  44.9907848 107.2744564   9.6686507
  44.6526359 107.1585629   8.7807042  45.8597616 106.8735729   9.6487513
  45.4727631 108.4279416  15.6272713  45.4616271 108.0332214  14.7553217
  45.6348270 107.6945488  16.2206484  42.1934892 111.2116527  14.5751897
  41.9024758 112.1162158  14.4598563  42.8291876 111.2533055  15.2895966
  43.1191099 108.5893376  11.1653257  43.7154671 108.3649398  10.4510219
  43.1766070 107.8478121  11.7678704  47.7359410 105.0468590   6.8078191
  48.5222499 104.6288013   6.4568608  47.9998114 105.9514682   6.9759839
  50.6593257  98.6965397  12.1705778  50.3276582  99.5660808  11.9466993
  50.0638871  98.3801681  12.8499808  47.1524777 110.8977943  11.5701691
  46.8525500 111.8002982  11.4617498  46.8075836 110.6310126  12.4222843
  40.6037258 107.3491740   7.6038395  39.6787755 107.2167954   7.8116087
  40.8521671 108.1285959   8.1008337  50.5521921 103.4160483   9.2499128
  49.6438798 103.3475891   8.9557889  50.5009516 103.8932428  10.0780953
  44.6262786 104.8350129  17.1934025  43.8496120 105.3944049  17.1836890
  45.2653349 105.3206912  17.7148895  52.4183567 101.6176921  11.0277002
  51.7757947 101.9109455  10.3816796  51.9138495 101.5029842  11.8330198
  42.8809159 107.6435582  16.7551992  43.6223843 108.1820626  16.4786816
  42.1746144 108.2701871  16.9123544  48.3564498 109.7864722  15.3524154
  48.7647854 109.3447133  14.6078786  47.6341760 109.2117350  15.6058347
  44.7095568 104.7237329  12.7257711  45.5556763 105.1476743  12.8692360
  44.6494206 104.0670954  13.4196274  47.8595014 102.3841698  14.3838884
  47.6155946 103.1383758  13.8473160  48.1354944 102.7627045  15.2186131
  49.8133476 108.9280310  13.0616150  50.0250372 109.5712070  12.3850531
  49.7663225 108.0942627  12.5938080  47.4159705 101.5398131   9.9652722
  46.5544184 101.8379384  10.2569460  47.4422140 101.7568530   9.0333755
  41.1245356 109.6311803   9.3106291  41.6946713 110.0599071   8.6723775
  41.7153468 109.3494387  10.0090477  41.6170522 104.7975230  17.5567302
  40.9869183 105.4791511  17.7902699  41.5106610 104.6858312  16.6120440
  36.9115495 104.4647026   8.4833226  36.1214549 104.7204555   8.0073337
  37.4026742 105.2795364   8.5885267  44.6935908 111.3536309  13.3899218
  44.7580340 111.8156716  14.2257389  43.9846832 110.7233674  13.5181527
  35.1953198 104.7177517  10.9148217  35.4461236 105.6024527  11.1805793
  35.7312746 104.5382118  10.1423309  40.8951265  99.0995996  19.9192553
  40.5018211  98.5462195  20.5940197  41.7117405  99.4106574  20.3099071
  43.8119226 100.5153875  17.5112810  44.5528939 101.1161028  17.4317272
  44.0437149  99.7731513  16.9530852  38.9560564 105.7010242  15.7891039
  38.8414079 104.7995500  16.0898138  38.1005082 105.9473939  15.4375856
  46.0352402 113.6427983  17.3878540  45.5916256 112.8564361  17.0699445
  46.6969615 113.8307133  16.7222431  40.7939523 115.1723784  11.9139219
  41.3446948 115.0440848  11.1416213  39.9550999 115.4718673  11.5634111
  48.1333640 113.9230783  15.4159941  48.1152115 114.7439664  14.9240210
  49.0553560 113.7984858  15.6410082  44.5906694 111.4374912  16.2583450
  45.1235031 110.6763200  16.0282758  44.0620775 111.1448564  17.0007604
  47.7576389  96.5434978  11.7877091  47.4140658  97.4336620  11.7116202
  48.1255352  96.3536636  10.9246676  45.3073783 101.3793290   5.3534765
  44.4515379 100.9900140   5.1740404  45.7200735 101.4585251   4.4934550
  46.8372929  98.9139633   9.7526325  46.3337725  98.8769768   8.9394130
  47.1303536  99.8232376   9.8122981  43.0815815  98.9978363   8.7592506
  43.9468812  98.8021172   8.3998396  43.1493324  98.7688715   9.6861863
  40.6878134 101.2280571   6.1308873  41.2621886 101.0055752   5.3982066
  41.2749117 101.2969265   6.8837475  42.9900802  98.1021820   4.8583943
  42.3365214  97.7870837   4.2340557  42.9481276  97.4797560   5.5843766
  46.2238542 104.5903753   9.1831590  45.3061104 104.8118700   9.0253278
  46.6398686 104.6650064   8.3243298  49.5564055  95.8028537   6.8894829
  49.8622931  94.9425901   6.6020744  50.2816659  96.3946157   6.6893823
  43.8285134 106.0982330   7.3971020  43.8833744 105.1456167   7.3213497
  43.0176336 106.2541769   7.8812319  41.7677494 104.7159390   5.1561399
  40.9545360 105.0153561   5.5626591  42.2636489 104.3215079   5.8735881
  47.3651706 105.1801215  13.9876293  47.7201094 105.4072688  14.8470759
  48.0123837 105.5119591  13.3653548  41.2591569 102.2877746  10.7722634
  41.8990948 102.1466505  10.0745597  40.4269100 102.0012259  10.3961236
  46.8546717 113.9698272  11.2369994  46.9083740 114.5389208  12.0047710
  45.9861499 114.1400157  10.8724031  38.2620186 102.2578071   5.5495621
  38.5227003 103.1723404   5.4404781  39.0837358 101.7902513   5.6992234
  39.7345111 103.6715828  12.7194445  40.4068164 103.4633190  12.0707094
  38.9074897 103.4737914  12.2799678  45.6370683 100.2977769  14.7360106
  44.9898598 100.9967718  14.6424583  46.4071698 100.7313913  15.1036354
  49.0449481 110.5626621  17.8110659  48.8934987 110.3337173  16.8940743
  49.0354160 111.5197222  17.8242005  45.8134817 108.1358534  12.7956926
  46.7426877 108.2869693  12.6225893  45.3925847 108.2242554  11.9405572
  44.6123149 112.1609198  10.5655464  44.4734235 111.7927982  11.4381402
  43.8237745 112.6756837  10.3939421  40.1372608 106.9458431  13.4796883
  39.9992406 106.2138670  14.0808422  41.0477532 106.8567331  13.1981070
  42.7654909 106.6578390  12.9680562  43.4754527 106.0171582  12.9267181
  42.7224217 106.9091285  13.8906743  50.7541687 113.5945743  15.8887141
  50.6954234 112.9104964  15.2217724  51.1561206 114.3364733  15.4367767
  41.4783843 103.6443608  14.7876202  40.9421200 103.1934346  15.4397798
  40.8900551 103.7789517  14.0446666  50.7559095 111.5585327  14.1201121
  49.8685873 111.2211249  14.2427520  51.3257646 110.8268359  14.3569886
  37.2122964 102.7799616  11.8729196  37.1281153 102.1725285  11.1379606
  36.3905670 103.2708634  11.8738692  47.3846678 101.2653179   7.2399391
  47.8815377 100.5123141   6.9200461  46.6133659 101.3017496   6.6742600
  46.7458932 116.1173614  13.2420523  47.4586904 116.7521079  13.1696424
  46.2548960 116.2137480  12.4260525  43.9681647 103.4070562   6.9671076
  43.5979434 102.8541603   7.6551981  44.4640739 102.8028696   6.4146076
  41.7970845 113.8668057  14.0626094  42.4980305 114.5004540  14.2155488
  41.3265960 114.2082789  13.3021733  49.8265673  98.2322773   9.3878750
  48.9128752  98.4626999   9.5560957  50.2558774  98.3161217  10.2392782
  49.5972131 106.4212665  11.8878644  48.9443581 106.6688572  11.2331097
  49.9752511 105.6076803  11.5541121  45.6459704 107.1632476  18.3744681
  44.9700341 107.0626605  19.0447056  46.4687338 107.0071689  18.8380678
  39.3646980 100.8174553  13.2124182  39.4288307 101.6789384  12.8001580
  39.3014101 100.2048555  12.4796540  38.8399253 102.8897685  16.8597216
  39.4671292 102.5074763  17.4734740  37.9827172 102.6711887  17.2252909
  49.2393361 113.2960661  18.4650952  49.7833265 113.9090619  17.9705906
  48.6580206 113.8540239  18.9817965  39.1459043 102.7730111   8.7743120
  38.4245628 103.3866079   8.6350593  39.9352298 103.3087876   8.6959765
  41.9485356 100.1084538  15.0483771  42.4719758 100.3546834  15.8110081
  41.7297689 100.9404572  14.6286909  43.1537901 101.0498233  12.7333442
  42.8134721 100.2506046  13.1354122  42.4476907 101.3499944  12.1610275
  43.8054373  98.1347545  11.1860765  44.6280442  97.6608023  11.0639655
  44.0492436  98.9138029  11.6859451  41.3292952 104.8266666   8.9952743
  41.1837532 105.1406969   9.8877025  40.8518155 105.4451566   8.4423642
  43.1889335 101.8169214   9.0433633  43.1750903 100.9210307   8.7065931
  43.9061763 101.8239878   9.6771919  45.0415465 102.2506554  11.0886760
  44.7833243 103.1723625  11.0871091  44.5100506 101.8536989  11.7787225
  35.8038614 107.3672010  11.9340405  35.2592082 108.1431818  12.0660679
  36.6817964 107.7142815  11.7759526  42.5926231 100.6983594   4.3121203
  42.7142142  99.7700240   4.5112091  42.3028273 100.7122280   3.3999519
  45.4617421  98.3838505   7.4487923  45.4839118  98.4477838   6.4939903
  45.8785480  97.5443013   7.6428429  36.5904636 106.4941906  14.8270561
  35.8486372 106.6424542  15.4135192  36.2697380 106.7550172  13.9637311
  44.5348298 116.0357885  14.6250952  44.8435425 115.7907031  15.4973651
  45.3323780 116.2404523  14.1369822  42.0767310 102.2115591  18.5211136
  42.1255466 103.0877714  18.1388905  42.6189824 101.6692984  17.9482779
  52.5622156 112.7556715  17.8012273  51.7717699 112.7380854  17.2616772
  52.3255510 113.2945008  18.5561309  52.6820031 109.6049181  15.1145001
  52.7318036 109.4399189  16.0560524  52.5733954 108.7376440  14.7242882
  49.9723793 105.5880109  16.4304308  50.8733656 105.4486574  16.1388306
  50.0471768 105.7534564  17.3702486  44.3066598 102.9646964  15.2757494
  43.4369908 103.2580530  15.0040083  44.5426079 103.5487409  15.9964758
  54.1838228 112.0246123  15.3587023  53.8923036 112.3876103  16.1950484
  53.5710359 111.3113131  15.1800355  52.4325416 107.1478737  13.8267081
  52.9079537 107.3406384  13.0185932  51.5090981 107.2037923  13.5810465
  47.0105632  99.1826581  12.7922915  47.5287576  99.9187608  12.4669403
  46.6560765  99.4890574  13.6269674  47.2618226  95.6026863   8.3123811
  47.5419980  94.9350052   8.9384238  48.0468833  95.7955959   7.7998475
  51.1327085 104.0244497  12.0595387  52.0844508 104.1242595  12.0807611
  50.9630535 103.2322766  12.5693471  49.1541464 101.1100081  12.2454787
  48.5591396 101.3905093  11.5501276  48.8691161 101.5993981  13.0171529
  53.6115163 107.2450617  11.1737686  53.5791483 106.3066618  11.3597370
  54.2215786 107.3234654  10.4403511  53.7609651 104.0361660  11.2195969
  53.2448700 103.2520117  11.0325898  54.6449600 103.7080377  11.3842489
  51.4220378  97.7802676   7.1791782  51.2245199  97.4717764   8.0635114
  52.0320084  98.5064315   7.3089712  45.3337186 110.1664416  18.6765547
  46.2540195 110.3443015  18.8705594  45.2986769 109.2220461  18.5245246
  38.3299259 108.0765451  11.3188328  38.5485268 109.0082559  11.3376362
  38.7425032 107.7173425  12.1043132  45.2503476  98.5833536   3.3064017
  44.4404205  98.2380621   3.6819263  45.9387893  98.2741080   3.8951628
  47.1794025  97.6611583   4.9288313  47.7325063  98.0807036   5.5878336
  47.4164111  96.7347331   4.9711269  43.2027124 103.6498657  20.7091077
  43.1023851 104.5993013  20.6403168  42.9848666 103.3216895  19.8367147
  49.0076398  99.1717166   6.6388298  49.5076176  99.2833700   5.8302617
  49.6512006  98.8678219   7.2789106  43.0658394 107.0795795  19.5256139
  42.5825476 107.8796155  19.7320028  43.1519333 107.0903740  18.5723583
  38.9931731 110.9700330  11.5624573  39.9474985 110.9384272  11.4954504
  38.7944255 110.5090954  12.3774799  39.5831114 109.5401446  14.1295370
  40.4024003 110.0345525  14.1530208  39.8567921 108.6233414  14.1012938
  52.6912246 101.9558719   7.2077665  53.4672636 102.4455172   7.4802282
  51.9660380 102.3816774   7.6649535  34.8366028 103.8739580  14.8287567
  35.4824891 103.3638534  15.3174793  34.6283179 104.6108262  15.4030993
  47.3619420 110.9420427  20.3279708  48.2310580 111.1161080  19.9666343
  46.8826171 111.7614844  20.2055437  41.5305600 118.0617528  12.0069142
  42.4332847 118.0941139  12.3235637  41.3042970 117.1317979  12.0215477
  47.1721758  94.7322401   4.8357400  46.4054154  94.1780888   4.9814083
  47.5832463  94.8044270   5.6971552  39.1763519 101.0207197  18.9262582
  40.0394980 100.6644002  19.1365906  38.6028929 100.6821092  19.6137986
  51.7345020 114.4287914  19.9192553  51.3411965 113.8754112  20.5940197
  52.5511160 114.7398492  20.3099071  54.6512981 115.8445793  17.5112810
  55.3922694 116.4452946  17.4317272  54.8830903 115.1023431  16.9530852
  49.6793007 118.2189603  16.8597216  50.3065046 117.8366680  17.4734740
  48.8220926 118.0003805  17.2252909  52.9161065 117.5407509  18.5211136
  52.9649220 118.4169632  18.1388905  53.4583579 116.9984902  17.9482779
  54.0420878 118.9790574  20.7091077  53.9417605 119.9284931  20.6403168
  53.8242420 118.6508813  19.8367147  45.6759782 119.2031498  14.8287567
  46.3218646 118.6930452  15.3174793  45.4676933 119.9400179  15.4030993
  50.0157273 116.3499115  18.9262582  50.8788735 115.9935920  19.1365906
  49.4422684 116.0113010  19.6137986  24.3564894  59.9906270   4.1123847
  23.9128748  59.2042648   3.7944751  25.0182108  60.1785420   3.4467737
  26.4546132  60.2709070   2.1405248  26.4364608  61.0917951   1.6485517
  27.3766052  60.1463145   2.3655389  27.3661973  56.9104908   4.5355966
  27.2147479  56.6815460   3.6186050  27.3566653  57.8675509   4.5487311
  29.0754180  59.9424031   2.6132448  29.0166726  59.2583251   1.9463031
  29.4773698  60.6843021   2.1613074  27.5605854  59.6438948   5.1896258
  28.1045758  60.2568906   4.6951213  26.9792698  60.2018526   5.7063271
  30.8834648  59.1035002   4.5257579  30.0930192  59.0859141   3.9862079
  30.6468003  59.6423296   5.2806616  32.5050720  58.3724410   2.0832330
  32.2135528  58.7354390   2.9195791  31.8922851  57.6591418   1.9045662
  25.6831912  57.2898715   7.0525015  26.5523072  57.4639367   6.6911650
  25.2038664  58.1093132   6.9300744  37.3424388  68.9987341  -3.5429711
  37.9802798  68.8794088  -4.2466371  37.2245231  69.9468185  -3.4841759
  34.1514094  68.9514769  -3.6068186  33.8132606  68.8355833  -4.4947651
  35.0203862  68.5505934  -3.6267180  34.6333877  70.1049620   2.3518020
  34.6222518  69.7102419   1.4798523  34.7954517  69.3715693   2.9451791
  31.3541138  72.8886732   1.2997203  31.0631004  73.7932363   1.1843870
  31.9898123  72.9303260   2.0141273  32.2797345  70.2663581  -2.1101437
  32.8760918  70.0419603  -2.8244474  32.3372317  69.5248326  -1.5075989
  42.2974084  66.6614028  -5.5643524  43.0299256  66.0913244  -5.3305695
  41.5413439  66.2735628  -5.1237019  39.8199504  60.3735602  -1.1048916
  39.4882829  61.2431013  -1.3287701  39.2245117  60.0571886  -0.4254885
  36.3131023  72.5748148  -1.7053003  36.0131747  73.4773187  -1.8137196
  35.9682083  72.3080331  -0.8531850  39.7128167  65.0930688  -4.0255565
  38.8045045  65.0246096  -4.3196805  39.6615763  65.5702633  -3.1973740
  33.7869033  66.5120334   3.9179332  33.0102367  67.0714254   3.9082196
  34.4259596  66.9977117   4.4394202  41.5789814  63.2947126  -2.2477692
  40.9364194  63.5879660  -2.8937897  41.0744742  63.1800047  -1.4424495
  32.0415405  69.3205787   3.4797299  32.7830090  69.8590831   3.2032122
  31.3352391  69.9472076   3.6368851  37.5170745  71.4634927   2.0769460
  37.9254101  71.0217338   1.3324093  36.7948007  70.8887555   2.3303653
  33.8701815  66.4007534  -0.5496983  34.7163010  66.8246948  -0.4062334
  33.8100453  65.7441158   0.1441580  37.8399560  72.0236118  -4.1678251
  37.2108422  72.1881832  -4.8702183  37.4525222  72.4377728  -3.3967287
  41.7188792  72.9590556  -6.8133887  41.0339830  73.3389457  -7.3636854
  41.8032641  73.5685883  -6.0801939  37.0201260  64.0611903   1.1084191
  36.7762192  64.8153963   0.5718467  37.2961191  64.4397250   1.9431438
  38.9739723  70.6050515  -0.2138544  39.1856618  71.2482275  -0.8904162
  38.9269471  69.7712831  -0.6816613  33.3927522  71.7610526  -6.9028166
  33.8565867  72.0398229  -7.6923543  33.1284320  70.8593971  -7.0855075
  30.2851603  71.3082008  -3.9648402  30.8552960  71.7369276  -4.6030918
  30.8759714  71.0264592  -3.2664217  30.7776769  66.4745435   4.2812609
  30.1475430  67.1561716   4.5148006  30.6712857  66.3628517   3.3365747
  40.0885551  73.4822470  -2.0416186  40.9102995  73.0802658  -2.3233505
  40.0847954  73.3790704  -1.0900070  33.8542155  73.0306514   0.1144524
  33.9186587  73.4926921   0.9502696  33.1453078  72.4003879   0.2426834
  48.1791544  69.8261219  -5.6931215  47.4255253  69.2568617  -5.8487210
  48.3139085  69.7923883  -4.7460580  30.0557512  60.7766201   6.6437860
  29.6624457  60.2232399   7.3185504  30.8723652  61.0876779   7.0344377
  32.9725473  62.1924080   4.2358116  33.7135186  62.7931233   4.1562579
  33.2043396  61.4501718   3.6776159  28.1166811  67.3780447   2.5136346
  28.0020326  66.4765705   2.8143445  27.2611329  67.6244144   2.1621163
  35.1958649  75.3198188   4.1123847  34.7522503  74.5334566   3.7944751
  35.8575862  75.5077338   3.4467737  29.9545770  76.8493989  -1.3615475
  30.5053195  76.7211053  -2.1338481  29.1157246  77.1488878  -1.7120582
  37.2939887  75.6000988   2.1405248  37.2758362  76.4209869   1.6485517
  38.2159807  75.4755063   2.3655389  33.7512941  73.1145117   2.9828756
  34.2841278  72.3533405   2.7528064  33.2227022  72.8218769   3.7252911
  40.0958500  70.4380130  -4.3885385  39.4382174  71.1279391  -4.3005257
  40.8998899  70.8276562  -4.0451399  38.9063958  68.7924503  -6.3381444
  39.4195840  69.4254495  -5.8359734  39.5565182  68.1925698  -6.7038084
  35.3844789  66.2673958  -4.0923103  34.4667351  66.4888905  -4.2501415
  35.8004933  66.3420269  -4.9511396  39.6725755  73.7730504  -8.2102301
  39.2188082  72.9321414  -8.1537110  39.0419721  74.4091902  -7.8727521
  38.1158694  75.6107001  -7.2752483  38.4081668  76.1712058  -7.9940117
  38.6257314  75.9035562  -6.5199324  36.5257953  66.8571419   0.7121600
  36.8807341  67.0842893   1.5716065  37.1730084  67.1889796   0.0898855
  42.2555690  69.9789855  -8.5829071  42.1173588  70.1691451  -9.5107882
  41.8991909  70.7409238  -8.1261020  42.2825069  72.0466382  -3.5717800
  42.7161576  71.9541671  -2.7234746  42.9956650  72.0223883  -4.2097784
  36.0152964  75.6468476  -2.0384699  36.0689987  76.2159413  -1.2706983
  35.1467746  75.8170361  -2.4030662  28.8951358  65.3486033  -0.5560248
  29.5674411  65.1403395  -1.2047599  28.0681144  65.1508119  -0.9955016
  43.1440619  72.0890083  -1.0384914  43.3376509  72.9935893  -0.7925640
  43.0441237  71.6297502  -0.2046329  34.7976930  61.9747974   1.4605413
  34.1504845  62.6737923   1.3669889  35.5677945  62.4084117   1.8281661
  38.2055728  72.2396826   4.5355966  38.0541234  72.0107377   3.6186050
  38.1960407  73.1967427   4.5487311  34.9741064  69.8128738  -0.4797767
  35.9033124  69.9639898  -0.6528800  34.5532094  69.9012759  -1.3349121
  33.7729396  73.8379403  -2.7099230  33.6340481  73.4698187  -1.8373292
  32.9843992  74.3527042  -2.8815272  35.3234611  73.2161006  -5.3210392
  34.9884444  73.1761776  -4.4252742  34.8238557  72.5505722  -5.7939982
  29.2978855  68.6228636   0.2042189  29.1598653  67.8908874   0.8053728
  30.2083778  68.5337536  -0.0773623  31.9261156  68.3348595  -0.3074131
  32.6360774  67.6941787  -0.3487513  31.8830464  68.5861490   0.6152050
  39.9147934  75.2715948   2.6132448  39.8560480  74.5875168   1.9463031
  40.3167453  76.0134938   2.1613074  30.6390090  65.3213813   1.5121508
  30.1027447  64.8704551   2.1643105  30.0506798  65.4559722   0.7691973
  39.9165341  73.2355532   0.8446428  39.0292120  72.8981454   0.9672827
  40.4863893  72.5038563   1.0815193  33.4466495  77.8956985  -2.1892329
  33.3736666  78.7011956  -1.6773025  33.0043888  78.0948950  -3.0144308
  44.3982682  68.6463750  -4.3937011  44.3872558  69.5288465  -4.7643078
  43.5300061  68.2935300  -4.5882474  35.9065178  77.7943819  -0.0334170
  36.6193151  78.4291283  -0.1058269  35.4155207  77.8907685  -0.8494169
  37.6282705  71.6995071  -8.4616879  36.6938984  71.8196534  -8.6312174
  37.8059374  70.7967538  -8.7256869  41.0155257  67.5412391  -7.9266845
  41.4815709  68.3740382  -8.0006542  41.4662757  67.0757372  -7.2221586
  30.9577092  75.5438262   0.7871400  31.6586551  76.1774745   0.9400795
  30.4872207  75.8852994   0.0267040  38.7578378  68.0982870  -1.3876049
  38.1049828  68.3458777  -2.0423597  39.1358758  67.2847008  -1.7213572
  35.7185552  78.1342563  -7.2847879  35.9007946  77.3164219  -6.8220127
  36.5418538  78.3510255  -7.7222989  34.8065951  68.8402681   5.0989988
  34.1306588  68.7396810   5.7692363  35.6293585  68.6841894   5.5625985
  33.5488734  80.1469608  -0.6652396  34.1007042  80.3101230   0.0996689
  33.8894927  80.7374046  -1.3372371  28.0005500  64.5667890   3.5842523
  28.6277538  64.1844968   4.1980047  27.1433418  64.3482092   3.9498215
  38.3999608  74.9730866   5.1896258  38.9439512  75.5860824   4.6951213
  37.8186453  75.5310444   5.7063271  36.6857121  78.0951584  -3.6788714
  36.5608261  77.2941323  -4.1877769  37.3436212  78.5897777  -4.1674744
  38.7492029  75.8960604  -2.0509164  37.8022365  75.7765955  -2.1230837
  39.0974803  75.0083102  -1.9682903  31.1091603  61.7854743   1.7729078
  31.6326005  62.0317039   2.5355387  30.8903936  62.6174777   1.3532215
  35.7538463  75.6913320  -5.8504812  35.6063425  74.7630027  -5.6697242
  36.5791956  75.7133411  -6.3347737  39.3572585  76.5141879  -4.7639939
  40.2819132  76.3084740  -4.9015488  39.1887888  76.2658280  -3.8550597
  32.3144148  62.7268438  -0.5421252  31.9740968  61.9276251  -0.1400572
  31.6083154  63.0270149  -1.1144418  34.2021712  63.9276759  -2.1867933
  33.9439490  64.8493830  -2.1883602  33.6706752  63.5307193  -1.4967469
  39.1467901  77.0327546  -9.4077848  39.3204778  76.4673969 -10.1603995
  39.6396792  77.8328441  -9.5898358  24.9644861  69.0442215  -1.3414289
  24.4198329  69.8202023  -1.2094014  25.8424210  69.3913020  -1.4995167
  45.0007292  69.7963969  -7.7887548  45.4438438  69.0471294  -8.1868425
  44.1233802  69.7874105  -8.1713816  25.7510882  68.1712111   1.5515868
  25.0092619  68.3194747   2.1380499  25.4303627  68.4320377   0.6882618
  42.0334496  73.7994016 -10.7793618  42.5585821  74.1381289 -11.5044298
  41.9456849  72.8641031 -10.9630484  33.6954545  77.7128090   1.3496258
  34.0041672  77.4677236   2.2218958  34.4930027  77.9174728   0.8615128
  31.1649029  75.4104008  -4.3476064  30.5429039  74.7474713  -4.6473836
  31.8353896  75.4365140  -5.0302416  31.2373557  63.8885796   5.2456442
  31.2861712  64.7647919   4.8634212  31.7796071  63.3463189   4.6728086
  41.7228402  74.4326920   4.5257579  40.9323946  74.4151058   3.9862079
  41.4861757  74.9715213   5.2806616  41.8426278  71.2819386   1.8390308
  41.8924282  71.1169393   2.7805831  41.7340201  70.4146645   1.4488189
  39.1330040  67.2650314   3.1549615  40.0339903  67.1256779   2.8633613
  39.2078014  67.4304769   4.0947792  33.4672845  64.6417169   2.0002801
  32.5976155  64.9350735   1.7285390  33.7032326  65.2257614   2.7210065
  43.3444474  73.7016327   2.0832330  43.0529283  74.0646308   2.9195791
  42.7316606  72.9883336   1.9045662  44.5440157  71.2669207  -5.3965100
  45.3787048  71.7059011  -5.2327540  44.6799285  70.7907860  -6.2156854
  41.5931663  68.8248942   0.5512388  42.0685784  69.0176588  -0.2568761
  40.6697228  68.8808128   0.3055771  36.1711879  60.8596786  -0.4831779
  36.6893823  61.5957813  -0.8085290  35.8167012  61.1660779   0.3514981
  40.2933332  65.7014702  -1.2159307  41.2450755  65.8012800  -1.1947083
  40.1236782  64.9092971  -0.7061222  38.3147711  62.7870285  -1.0299906
  37.7197643  63.0675298  -1.7253417  38.0297408  63.2764186  -0.2583165
  42.7721409  68.9220822  -2.1017007  42.7397730  67.9836823  -1.9157323
  43.3822033  69.0004859  -2.8351182  42.9215898  65.7131865  -2.0558724
  42.4054947  64.9290322  -2.2428795  43.8055846  65.3850582  -1.8912205
  48.5897959  69.9836829  -2.9610970  49.3201348  69.7222117  -2.4003267
  47.9804905  69.2465551  -2.9208902  46.6713256  68.1244691  -2.3636519
  45.9446420  67.9900656  -2.9720028  46.2560543  68.4321520  -1.5579801
  34.4943433  71.8434621   5.4010854  35.4146442  72.0213220   5.5950900
  34.4593016  70.8990666   5.2490553  27.4905505  69.7535656  -1.9566365
  27.7091515  70.6852763  -1.9378331  27.9031279  69.3943630  -1.1711561
  32.3633371  65.3268861   7.4336384  32.2630098  66.2763218   7.3648475
  32.1454913  64.9987100   6.5612454  32.2264641  68.7566000   6.2501446
  31.7431722  69.5566360   6.4565335  32.3125580  68.7673945   5.2968890
  28.1537978  72.6470535  -1.7130121  29.1081232  72.6154477  -1.7800189
  27.9550502  72.1861159  -0.8979895  28.7437360  71.2171651   0.8540677
  29.5630249  71.7115730   0.8775514  29.0174168  70.3003619   0.8258245
  41.8518493  63.6328924  -6.0677028  42.6278883  64.1225377  -5.7952411
  41.1266627  64.0586979  -5.6105159  44.2891051  64.3456544  -5.0103088
  44.8835542  64.1052279  -5.7209779  44.3617635  63.6263674  -4.3829551
  46.5962124  67.6522744  -6.2359666  46.0361682  67.7215934  -5.4628104
  45.9905627  67.4763729  -6.9560170  23.9972275  65.5509785   1.5532874
  24.6431138  65.0408739   2.0420099  23.7889426  66.2878467   2.1276299
  36.5225667  72.6190632   7.0525015  37.3916826  72.7931285   6.6911650
  36.0432418  73.4385049   6.9300744  30.6911847  79.7387733  -1.2685552
  31.5939094  79.7711344  -0.9519057  30.4649217  78.8088184  -1.2539216
  28.3369766  62.6977402   5.6507888  29.2001227  62.3414207   5.8611213
  27.7635176  62.3591297   6.3383293  48.1818142  84.3279258  -3.5429711
  48.8196552  84.2086006  -4.2466371  48.0638985  85.2760102  -3.4841759
  44.9907849  84.2806686  -3.6068186  44.6526360  84.1647751  -4.4947651
  45.8597617  83.8797852  -3.6267180  45.4727632  85.4341538   2.3518020
  45.4616273  85.0394336   1.4798523  45.6348271  84.7007611   2.9451791
  42.1934893  88.2178650   1.2997203  41.9024759  89.1224281   1.1843870
  42.8291877  88.2595178   2.0141273  43.1191100  85.5955498  -2.1101437
  43.7154672  85.3711521  -2.8244474  43.1766071  84.8540244  -1.5075989
  47.7359411  82.0530712  -6.4676503  48.5222500  81.6350135  -6.8186086
  47.9998115  82.9576804  -6.2994854  50.6593258  75.7027519  -1.1048916
  50.3276583  76.5722930  -1.3287701  50.0638872  75.3863803  -0.4254885
  47.1524778  87.9040065  -1.7053003  46.8525501  88.8065104  -1.8137196
  46.8075838  87.6372249  -0.8531850  40.6037259  84.3553862  -5.6716298
  39.6787756  84.2230076  -5.4638607  40.8521673  85.1348082  -5.1746356
  50.5521922  80.4222606  -4.0255565  49.6438799  80.3538014  -4.3196805
  50.5009518  80.8994551  -3.1973740  44.6262788  81.8412251   3.9179332
  43.8496122  82.4006171   3.9082196  45.2653351  82.3269034   4.4394202
  52.4183568  78.6239044  -2.2477692  51.7757948  78.9171577  -2.8937897
  51.9138497  78.5091964  -1.4424495  42.8809160  84.6497705   3.4797299
  43.6223844  85.1882749   3.2032122  42.1746145  85.2763993   3.6368851
  48.3564500  86.7926845   2.0769460  48.7647856  86.3509256   1.3324093
  47.6341761  86.2179473   2.3303653  44.7095570  81.7299452  -0.5496983
  45.5556765  82.1538865  -0.4062334  44.6494207  81.0733076   0.1441580
  47.8595015  79.3903820   1.1084191  47.6155947  80.1445881   0.5718467
  48.1354945  79.7689168   1.9431438  49.8133478  85.9342433  -0.2138544
  50.0250373  86.5774192  -0.8904162  49.7663226  85.1004749  -0.6816613
  47.4159707  78.5460253  -3.3101971  46.5544186  78.8441507  -3.0185234
  47.4422141  78.7630652  -4.2420939  41.1245357  86.6373925  -3.9648402
  41.6946714  87.0661194  -4.6030918  41.7153469  86.3556510  -3.2664217
  41.6170524  81.8037353   4.2812609  40.9869184  82.4853634   4.5148006
  41.5106611  81.6920434   3.3365747  36.9115496  81.4709149  -4.7921467
  36.1214550  81.7266677  -5.2681356  37.4026743  82.2857487  -4.6869427
  44.6935909  88.3598431   0.1144524  44.7580342  88.8218839   0.9502696
  43.9846833  87.7295796   0.2426834  35.1953199  81.7239639  -2.3606476
  35.4461237  82.6086649  -2.0948900  35.7312747  81.5444241  -3.1331384
  40.8951266  76.1058119   6.6437860  40.5018212  75.5524317   7.3185504
  41.7117407  76.4168697   7.0344377  43.8119227  77.5215998   4.2358116
  44.5528941  78.1223151   4.1562579  44.0437150  76.7793636   3.6776159
  38.9560565  82.7072365   2.5136346  38.8414080  81.8057622   2.8143445
  38.1005083  82.9536062   2.1621163  46.0352403  90.6490105   4.1123847
  45.5916257  89.8626484   3.7944751  46.6969617  90.8369256   3.4467737
  40.7939524  92.1785907  -1.3615475  41.3446949  92.0502970  -2.1338481
  39.9551000  92.4780796  -1.7120582  48.1333641  90.9292905   2.1405248
  48.1152117  91.7501786   1.6485517  49.0553561  90.8046980   2.3655389
  44.5906695  88.4437035   2.9828756  45.1235032  87.6825323   2.7528064
  44.0620776  88.1510687   3.7252911  47.7576390  73.5497101  -1.4877602
  47.4140660  74.4398742  -1.5638491  48.1255353  73.3598758  -2.3508017
  45.3073784  78.3855413  -7.9219928  44.4515380  77.9962263  -8.1014290
  45.7200736  78.4647373  -8.7820143  46.8372931  75.9201756  -3.5228369
  46.3337726  75.8831891  -4.3360563  47.1303538  76.8294499  -3.4631712
  43.0815817  76.0040486  -4.5162187  43.9468813  75.8083294  -4.8756297
  43.1493325  75.7750837  -3.5892830  40.6878136  78.2342693  -7.1445820
  41.2621888  78.0117875  -7.8772627  41.2749118  78.3031388  -6.3917219
  42.9900803  75.1083942  -8.4170751  42.3365216  74.7932960  -9.0414136
  42.9481277  74.4859683  -7.6910928  46.2238544  81.5965876  -4.0923103
  45.3061105  81.8180823  -4.2501415  46.6398687  81.6712186  -4.9511396
  49.5564056  72.8090660  -6.3859864  49.8622933  71.9488023  -6.6733949
  50.2816661  73.4008280  -6.5860870  43.8285136  83.1044453  -5.8783673
  43.8833745  82.1518289  -5.9541197  43.0176338  83.2603892  -5.3942375
  41.7677496  81.7221513  -8.1193294  40.9545361  82.0215683  -7.7128102
  42.2636490  81.3277201  -7.4018812  47.3651707  82.1863337   0.7121600
  47.7201095  82.4134810   1.5716065  48.0123838  82.5181714   0.0898855
  41.2591570  79.2939868  -2.5032059  41.8990950  79.1528627  -3.2009096
  40.4269101  79.0074382  -2.8793457  46.8546719  90.9760394  -2.0384699
  46.9083741  91.5451330  -1.2706983  45.9861500  91.1462279  -2.4030662
  38.2620187  79.2640193  -7.7259073  38.5227004  80.1785526  -7.8349912
  39.0837359  78.7964636  -7.5762460  39.7345112  80.6777950  -0.5560248
  40.4068166  80.4695312  -1.2047599  38.9074899  80.4800036  -0.9955016
  45.6370684  77.3039891   1.4605413  44.9898599  78.0029841   1.3669889
  46.4071700  77.7376035   1.8281661  49.0449482  87.5688743   4.5355966
  48.8934988  87.3399295   3.6186050  49.0354162  88.5259345   4.5487311
  45.8134818  85.1420656  -0.4797767  46.7426878  85.2931816  -0.6528800
  45.3925848  85.2304677  -1.3349121  44.6123150  89.1671321  -2.7099230
  44.4734236  88.7990105  -1.8373292  43.8237746  89.6818960  -2.8815272
  40.1372609  83.9520553   0.2042189  39.9992407  83.2200792   0.8053728
  41.0477533  83.8629453  -0.0773623  42.7654910  83.6640513  -0.3074131
  43.4754529  83.0233705  -0.3487513  42.7224218  83.9153407   0.6152050
  50.7541689  90.6007866   2.6132448  50.6954235  89.9167086   1.9463031
  51.1561207  91.3426856   2.1613074  41.4783844  80.6505731   1.5121508
  40.9421201  80.1996469   2.1643105  40.8900552  80.7851639   0.7691973
  50.7559096  88.5647450   0.8446428  49.8685875  88.2273372   0.9672827
  51.3257647  87.8330481   1.0815193  37.2122965  79.7861738  -1.4025497
  37.1281154  79.1787408  -2.1375087  36.3905672  80.2770757  -1.4016001
  47.3846679  78.2715302  -6.0355302  47.8815379  77.5185264  -6.3554232
  46.6133661  78.3079618  -6.6012093  46.7458933  93.1235736  -0.0334170
  47.4586905  93.7583201  -0.1058269  46.2548962  93.2199602  -0.8494169
  43.9681648  80.4132685  -6.3083618  43.5979435  79.8603725  -5.6202712
  44.4640740  79.8090818  -6.8608618  41.7970846  90.8730180   0.7871400
  42.4980306  91.5066663   0.9400795  41.3265961  91.2144911   0.0267040
  49.8265674  75.2384895  -3.8875943  48.9128754  75.4689122  -3.7193736
  50.2558775  75.3223339  -3.0361911  49.5972132  83.4274787  -1.3876049
  48.9443583  83.6750695  -2.0423597  49.9752512  82.6138925  -1.7213572
  45.6459705  84.1694598   5.0989988  44.9700342  84.0688728   5.7692363
  46.4687339  84.0133812   5.5625985  39.3646982  77.8236676  -0.0630512
  39.4288308  78.6851506  -0.4753114  39.3014102  77.2110677  -0.7958153
  38.8399254  79.8959808   3.5842523  39.4671293  79.5136885   4.1980047
  37.9827173  79.6774010   3.9498215  49.2393363  90.3022783   5.1896258
  49.7833267  90.9152741   4.6951213  48.6580207  90.8602362   5.7063271
  39.1459044  79.7792234  -4.5011574  38.4245630  80.3928201  -4.6404101
  39.9352300  80.3149999  -4.5794928  41.9485357  77.1146660   1.7729078
  42.4719759  77.3608957   2.5355387  41.7297691  77.9466695   1.3532215
  43.1537902  78.0560355  -0.5421252  42.8134723  77.2568168  -0.1400572
  42.4476909  78.3562066  -1.1144418  43.8054374  75.1409668  -2.0893929
  44.6280444  74.6670146  -2.2115038  44.0492438  75.9200152  -1.5895242
  41.3292953  81.8328788  -4.2801950  41.1837534  82.1469091  -3.3877668
  40.8518157  82.4513689  -4.8331051  43.1889336  78.8231336  -4.2321060
  43.1750905  77.9272430  -4.5688762  43.9061764  78.8302000  -3.5982774
  45.0415467  79.2568677  -2.1867933  44.7833244  80.1785747  -2.1883602
  44.5100507  78.8599111  -1.4967469  35.8038615  84.3734133  -1.3414289
  35.2592083  85.1493941  -1.2094014  36.6817965  84.7204937  -1.4995167
  42.5926232  77.7045717  -8.9633490  42.7142143  76.7762363  -8.7642603
  42.3028274  77.7184403  -9.8755175  45.4617422  75.3900627  -5.8266770
  45.4839119  75.4539960  -6.7814791  45.8785481  74.5505136  -5.6326264
  36.5904637  83.5004029   1.5515868  35.8486373  83.6486664   2.1380499
  36.2697381  83.7612295   0.6882618  44.5348300  93.0420007   1.3496258
  44.8435426  92.7969154   2.2218958  45.3323782  93.2466646   0.8615128
  42.0767311  79.2177714   5.2456442  42.1255467  80.0939837   4.8634212
  42.6189826  78.6755107   4.6728086  52.5622157  89.7618837   4.5257579
  51.7717701  89.7442976   3.9862079  52.3255512  90.3007131   5.2806616
  52.6820032  86.6111304   1.8390308  52.7318037  86.4461311   2.7805831
  52.5733955  85.7438563   1.4488189  49.9723794  82.5942232   3.1549615
  50.8733657  82.4548697   2.8633613  50.0471769  82.7596687   4.0947792
  44.3066600  79.9709086   2.0002801  43.4369909  80.2642652   1.7285390
  44.5426080  80.5549531   2.7210065  54.1838229  89.0308245   2.0832330
  53.8923037  89.3938226   2.9195791  53.5710360  88.3175253   1.9045662
  52.4325417  84.1540860   0.5512388  52.9079539  84.3468506  -0.2568761
  51.5090982  84.2100046   0.3055771  47.0105634  76.1888703  -0.4831779
  47.5287577  76.9249730  -0.8085290  46.6560766  76.4952697   0.3514981
  47.2618228  72.6088986  -4.9630882  47.5419982  71.9412175  -4.3370455
  48.0468835  72.8018082  -5.4756218  51.1327086  81.0306620  -1.2159307
  52.0844509  81.1304718  -1.1947083  50.9630537  80.2384888  -0.7061222
  49.1541466  78.1162203  -1.0299906  48.5591398  78.3967216  -1.7253417
  48.8691162  78.6056104  -0.2583165  53.6115164  84.2512740  -2.1017007
  53.5791484  83.3128740  -1.9157323  54.2215788  84.3296776  -2.8351182
  53.7609652  81.0423783  -2.0558724  53.2448701  80.2582240  -2.2428795
  54.6449601  80.7142500  -1.8912205  51.4220379  74.7864799  -6.0962911
  51.2245200  74.4779887  -5.2119579  52.0320085  75.5126437  -5.9664981
  45.3337187  87.1726539   5.4010854  46.2540197  87.3505138   5.5950900
  45.2986770  86.2282584   5.2490553  38.3299260  85.0827573  -1.9566365
  38.5485270  86.0144681  -1.9378331  38.7425034  84.7235548  -1.1711561
  45.2503478  75.5895659  -9.9690677  44.4404206  75.2442744  -9.5935431
  45.9387895  75.2803202  -9.3803065  47.1794026  74.6673705  -8.3466380
  47.7325065  75.0869159  -7.6876357  47.4164112  73.7409454  -8.3043424
  43.2027125  80.6560779   7.4336384  43.1023852  81.6055136   7.3648475
  42.9848667  80.3279018   6.5612454  49.0076399  76.1779288  -6.6366395
  49.5076178  76.2895823  -7.4452077  49.6512007  75.8740341  -5.9965587
  43.0658395  84.0857918   6.2501446  42.5825477  84.8858278   6.4565335
  43.1519334  84.0965863   5.2968890  38.9931733  87.9762453  -1.7130121
  39.9474986  87.9446395  -1.7800189  38.7944256  87.5153076  -0.8979895
  39.5831115  86.5463569   0.8540677  40.4024004  87.0407647   0.8775514
  39.8567923  85.6295537   0.8258245  52.6912247  78.9620842  -6.0677028
  53.4672637  79.4517294  -5.7952411  51.9660381  79.3878896  -5.6105159
  34.8366029  80.8801703   1.5532874  35.4824893  80.3700657   2.0420099
  34.6283180  81.6170384   2.1276299  47.3619421  87.9482550   7.0525015
  48.2310581  88.1223202   6.6911650  46.8826173  88.7676967   6.9300744
  41.5305601  95.0679651  -1.2685552  42.4332848  95.1003261  -0.9519057
  41.3042972  94.1380102  -1.2539216  47.1721759  71.7384524  -8.4397293
  46.4054155  71.1843011  -8.2940611  47.5832464  71.8106393  -7.5783141
  39.1763520  78.0269320   5.6507888  40.0394982  77.6706124   5.8611213
  38.6028931  77.6883214   6.3383293  51.7345021  91.4350036   6.6437860
  51.3411966  90.8816235   7.3185504  52.5511161  91.7460615   7.0344377
  54.6512982  92.8507915   4.2358116  55.3922695  93.4515069   4.1562579
  54.8830905  92.1085553   3.6776159  49.6793009  95.2251726   3.5842523
  50.3065047  94.8428803   4.1980047  48.8220927  95.0065928   3.9498215
  52.9161066  94.5469632   5.2456442  52.9649221  95.4231755   4.8634212
  53.4583580  94.0047025   4.6728086  54.0420880  95.9852697   7.4336384
  53.9417607  96.9347054   7.3648475  53.8242422  95.6570936   6.5612454
  45.6759784  96.2093620   1.5532874  46.3218647  95.6992574   2.0420099
  45.4676935  96.9462302   2.1276299  50.0157275  93.3561237   5.6507888
  50.8788736  92.9998042   5.8611213  49.4422685  93.0175132   6.3383293
  46.0352404  67.6552228  -9.1630847  45.5916259  66.8688606  -9.4809942
  46.6969618  67.8431378  -9.8286956  48.1333642  67.9355028 -11.1349445
  48.1152118  68.7563909 -11.6269176  49.0553562  67.8109103 -10.9099304
  49.0449483  64.5750866  -8.7398727  48.8934990  64.3461418  -9.6568644
  49.0354163  65.5321467  -8.7267382  50.7541690  67.6069989 -10.6622245
  50.6954236  66.9229209 -11.3291662  51.1561208  68.3488979 -11.1141619
  49.2393364  67.3084906  -8.0858435  49.7833268  67.9214864  -8.5803480
  48.6580209  67.8664484  -7.5691422  52.5622158  66.7680960  -8.7497114
  51.7717702  66.7505099  -9.2892614  52.3255513  67.3069254  -7.9948077
  54.1838230  66.0370368 -11.1922364  53.8923038  66.4000348 -10.3558903
  53.5710361  65.3237376 -11.3709032  47.3619423  64.9544673  -6.2229679
  48.2310582  65.1285325  -6.5843044  46.8826174  65.7739089  -6.3453949
  51.7345022  68.4412159  -6.6316834  51.3411968  67.8878357  -5.9569189
  52.5511162  68.7522737  -6.2410316  54.6512983  69.8570038  -9.0396577
  55.3922696  70.4577191  -9.1192114  54.8830906  69.1147676  -9.5978534
  49.6793010  72.2313848  -9.6912171  50.3065049  71.8490926  -9.0774646
  48.8220929  72.0128050  -9.3256478  52.9161067  71.5531754  -8.0298251
  52.9649223  72.4293877  -8.4120481  53.4583581  71.0109147  -8.6026608
  54.0420881  72.9914819  -5.8418309  53.9417608  73.9409176  -5.9106218
  53.8242423  72.6633058  -6.7142239  45.6759785  73.2155743 -11.7221819
  46.3218648  72.7054697 -11.2334594  45.4676936  73.9524424 -11.1478394
  50.0157276  70.3623360  -7.6246805  50.8788737  70.0060165  -7.4143480
  49.4422686  70.0237255  -6.9371401
 122.8622564 122.8622564 122.8622564 109.4712190 109.4712190 109.4712190
