default_name
130462
  93.5644120  57.2450387  61.4796844  92.5933660  57.5025880  61.3755741
  94.1351142  58.0659781  61.3366537  93.6668850  56.6995134  62.3234860
  93.9127573  56.3380699  60.3890918  94.7116462  56.7892829  59.8006340
  94.3872464  54.9645893  60.8898581  95.1359757  55.1299417  61.6645594
  93.5302761  54.4450194  61.3185177  94.9952971  54.1084059  59.7630314
  95.5875903  54.7116137  58.8430645  94.8899720  52.8499929  59.7796615
  92.6881603  56.1691029  59.4557802  91.5107216  56.3546624  59.8630884
  92.9899110  55.7971866  58.1981611  93.9585402  55.6124402  57.9796993
  92.0087279  55.6665023  57.1377351  91.0102671  55.9326121  57.4846655
  92.3699005  56.5678338  55.9300278  91.7336444  56.3002328  55.0864236
  92.1615649  58.0434678  56.2777024  92.7978802  58.3119452  57.1209831
  92.4204991  58.6601368  55.4170216  91.1177090  58.2108878  56.5431005
  93.7339692  56.3421837  55.5164778  93.9394094  56.9080847  54.7687140
  91.8750427  54.2515963  56.6237631  91.0330680  54.0196527  55.7403725
  92.7013833  53.3178092  57.0842288  93.5246233  53.5168373  57.6344680
  92.4261700  51.9327174  56.7300376  92.2131757  51.8628459  55.6633368
  93.6249847  51.0427631  57.0473679  94.5169880  51.4878571  56.6065498
  93.7433702  50.9888173  58.1295762  93.4419343  49.7351767  56.5259406
  94.2073861  49.1960348  56.7380951  91.1921221  51.4170390  57.4635493
  90.4565811  50.5686216  56.9391197  90.9327871  51.9302460  58.6559012
  91.3948425  52.7689535  58.9771083  89.9985747  51.2740653  59.5507660
  90.2402917  50.2152791  59.6437380  90.0894633  51.9196216  60.9347715
  90.2029816  52.9800385  60.7095409  89.1681426  51.7645643  61.4962209
  91.2761696  51.4473600  61.7661506  92.1575459  52.0583100  61.5711718
  90.8685318  51.5976975  63.2197895  89.9874325  50.9866341  63.4156577
  91.6862840  51.2717897  63.8625695  90.6385987  52.6428314  63.4269763
  91.7130502  50.0477445  61.4056152  92.0051200  50.0167882  60.3559313
  92.5611911  49.7599414  62.0268460  90.8886747  49.3546761  61.5734250
  88.5430081  51.3187907  59.0988904  87.7791239  50.3728640  59.3722211
  88.0944201  52.4151593  58.4730880  88.6060376  53.7710588  58.3629066
  89.2722033  53.8191874  57.5015083  89.1666680  54.0027186  59.2685148
  87.3841205  54.6467145  58.2015629  87.6362109  55.5728410  57.6849982
  86.9441853  54.8802342  59.1711128  86.4355393  53.7787004  57.3645555
  86.6850144  53.8138332  56.3040713  85.3791085  54.0123545  57.4966894
  86.7341357  52.3958679  57.9199595  86.0216543  52.2102603  58.7237121
  86.6147247  51.3014242  56.8767303  85.6560474  50.5132543  56.8823812
  87.6382359  51.1856222  56.0310727  88.3655089  51.8864594  56.0318014
  87.7082772  50.1170316  55.0399151  86.8280302  50.0717353  54.3986565
  88.9415835  50.3977204  54.1630950  89.7347884  50.8066742  54.7889409
  89.4212960  49.1376747  53.5090998  88.6287337  48.7283555  52.8826794
  90.2937526  49.3566338  52.8934900  89.6908328  48.4101893  54.2747469
  88.5889007  51.3836070  53.1760366  89.3506101  51.5680568  52.6216203
  87.7558163  48.7309862  55.6667677  87.5481414  47.7294868  54.9736126
  88.0155481  48.6361408  56.9452636  88.2409691  49.4498677  57.4994595
  88.0822531  47.3297216  57.5800741  88.4071351  46.5729705  56.8660162
  89.0970687  47.3864242  58.7305088  88.8115439  48.1850104  59.4152240
  89.0858091  46.4335253  59.2596184  90.4053620  47.6356536  58.2311477
  91.0262842  47.6678988  58.9625954  86.7241309  46.8199096  58.0636315
  86.5963071  45.6072139  58.3108386  85.7252318  47.6956093  58.1563922
  85.9027824  48.6712339  57.9647370  84.4020526  47.3166922  58.6876517
  83.8619575  48.2128378  58.9931342  83.5717330  46.5813850  57.6266486
  83.9506719  45.5678103  57.4956111  82.5215931  46.5415400  57.9159903
  83.6203071  47.2308192  56.2874841  84.4941471  46.8260724  55.3027422
  84.3187130  47.5613372  54.2290949  84.9200411  47.3986922  53.3346397
  83.3484172  48.4372847  54.4819548  82.9900059  49.1337768  53.8443499
  82.9062162  48.2433383  55.7598523  82.1081338  48.8679735  56.1610960
  84.6983377  46.5672853  59.9789249  84.2868162  45.4075252  60.1037742
  85.4592860  47.2011288  60.8713851  85.8102392  48.1167820  60.6294962
  85.8651344  46.6135809  62.1703099  86.2301086  45.5928160  62.0565917
  86.9702250  47.4601429  62.8080823  86.6007795  48.4820687  62.8933926
  87.3778824  46.9563087  64.1740500  87.7478968  45.9345284  64.0894688
  88.1639068  47.5945824  64.5776234  86.5161558  46.9760638  64.8412363
  88.0800636  47.4473838  61.9078287  88.7962662  47.9704013  62.2753975
  84.6414005  46.5166503  63.0675590  84.5753934  45.5646228  63.8518655
  83.7493231  47.4965865  63.0038336  83.9264388  48.2773158  62.3880486
  82.4989933  47.4986424  63.7990223  82.7434550  47.6947609  64.8429932
  81.5108150  48.5655239  63.3190757  80.6148348  48.4702909  63.9324674
  81.9879718  49.5246648  63.5202475  81.1326098  48.4888725  61.8631851
  81.8727833  49.1327999  60.8924999  82.7503784  49.7013299  61.2002335
  81.5244101  49.0692008  59.5576122  82.1120591  49.6073434  58.8138561
  80.4331590  48.3246474  59.1662860  80.1071803  48.2531186  57.8487650
  80.7017210  48.7561094  57.2874084  79.6884519  47.6633723  60.1194070
  78.8247995  47.0687724  59.8216552  80.0374553  47.7547276  61.4525089
  79.4433338  47.2404254  62.2078982  81.8279054  46.1360673  63.6786096
  81.1788296  45.7218191  64.6562741  81.9341272  45.4872312  62.5248598
  82.4564694  45.9043052  61.7676893  81.2595053  44.1919896  62.2822067
  80.2143259  44.2302741  62.5891815  81.3176451  43.9078824  60.7830833
  80.8264752  44.7815714  60.3546923  82.3656752  43.8976291  60.4837040
  80.6334469  42.6429655  60.2792948  79.9487046  42.2668328  61.0393955
  79.8516942  42.9736992  59.0088571  80.5358813  43.3494826  58.2480853
  79.3583377  42.0741765  58.6406738  79.1023764  43.7337174  59.2302067
  81.6499587  41.5251022  60.0440365  82.1617837  41.2960938  60.9787502
  81.1345753  40.6343117  59.6849075  82.3791382  41.8469324  59.3005168
  82.0121113  43.1962845  63.1536449  81.4090128  42.6994578  64.1038162
  83.3169643  43.0156014  62.9158148  83.7402828  43.5242643  62.1528188
  84.1685215  42.1115354  63.7110562  84.6540024  42.6801624  64.5041960
  83.5496765  41.3298639  64.1516468  85.2305330  41.4692073  62.8445880
  84.9091015  41.1552739  61.6819583  86.4456024  41.2642206  63.3648695
  86.6565486  41.6275642  64.2833369  87.5177399  40.5606452  62.6251696
  87.7198668  41.0162686  61.6558135  88.7959737  40.5419912  63.4247223
  88.6116714  40.0802811  64.3947514  89.5524365  39.9692982  62.8881714
  89.1491612  41.5628898  63.5700630  86.9915860  39.1514464  62.3436191
  87.2098315  38.6637803  61.2195997  86.3298873  38.5272456  63.3243822
  86.3066285  38.9452913  64.2435101  85.6751878  37.2093143  63.1342388
  85.3219025  36.8404446  64.0971635  84.4872740  37.3071624  62.1846476
  84.8553777  37.6574170  61.2203236  84.0738064  36.3048410  62.0728605
  83.4087591  38.2447281  62.6833872  82.9827640  38.2008051  63.8561829
  82.9313013  39.0926698  61.9054874  86.7074271  36.2006673  62.6113533
  87.7601993  36.0756265  63.2653108  86.4309437  35.5052207  61.5018774
  85.5227462  35.6381779  61.0804523  87.3167946  34.4486072  60.9478367
  88.3497428  34.7929214  60.9984818  87.2019824  33.1220004  61.7205492
  87.9630508  32.4632974  61.3022378  87.4522348  33.3541237  62.7557267
  85.8529470  32.4314679  61.6696625  85.1052284  33.1163167  62.0696624
  85.6227529  32.2115703  60.6271858  85.8219144  30.9099726  62.6128374
  86.8112122  29.8231520  61.5636450  87.8116113  30.2403517  61.4485576
  86.8799390  28.8372799  62.0234641  86.3401052  29.7348527  60.5846851
  87.0478523  34.3173927  59.4501673  86.0407116  34.8896610  59.0303642
  87.9333535  33.6814989  58.6785289  88.8307062  33.4812333  59.0965613
  87.7424551  33.3732784  57.2274214  88.4806041  32.6336355  56.9173186
  86.3367987  32.8129852  56.9465417  85.6261814  33.5475819  57.3253426
  86.2402854  32.7398646  55.8632880  86.0455729  31.4495910  57.5774306
  86.3300017  31.5000168  58.6284578  84.9708269  31.2852482  57.4998953
  86.7843702  30.2992007  56.9065904  86.7499355  29.1561909  57.4299104
  87.3971120  30.5315888  55.8428751  88.0583123  34.5566610  56.2986615
  87.3116110  35.5534204  56.3427729  89.1213690  34.4447464  55.4937843
  89.7035810  33.6386472  55.6707948  89.5632922  35.4212309  54.4612722
  88.7157860  36.0648568  54.2255220  90.7478021  36.3051700  54.8898999
  90.4491433  36.8007500  55.8136437  91.5817149  35.6329828  55.0920233
  91.1772012  37.3558346  53.8635893  91.5388698  36.8299397  52.9799994
  90.2887949  37.9318559  53.6046822  92.2613086  38.2967699  54.3732587
  92.0249892  39.5295353  54.4388310  93.3544902  37.8032001  54.7194852
  89.8503499  34.5640072  53.2285097  90.5675052  33.5670329  53.4209401
  89.3063844  34.9130708  52.0581033  88.7416742  35.7498093  52.0253852
  89.4525126  34.1141446  50.8165501  89.9593385  33.1748030  51.0376021
  88.0806090  33.8005780  50.2229234  87.5132013  34.7135691  50.0423822
  88.2280950  33.2727628  49.2807137  87.2165351  32.9199540  51.0777406
  86.3616690  33.4615836  52.0313041  86.3318817  34.5430198  52.1643771
  85.5488181  32.6401208  52.8124183  84.8919401  33.0832438  53.5609195
  85.5743220  31.2624400  52.6392249  84.9376001  30.6192082  53.2466277
  86.4216602  30.7019609  51.6806582  86.4556771  29.6220670  51.5365331
  87.2291711  31.5360347  50.9038390  87.8845666  31.1078676  50.1454001
  90.3095936  34.8956248  49.8311051  89.7822633  35.8667935  49.2424191
  91.5703322  34.4933463  49.6512436  91.9072526  33.7260072  50.2149586
  92.5219726  35.1592832  48.7293773  92.2164129  36.1978213  48.6022119
  93.9610799  35.1330772  49.2465761  94.2455101  34.1073202  49.4811425
  94.6336332  35.5313832  48.4868891  94.1930670  35.9349296  50.4856240
  94.2244934  37.3148198  50.4662996  94.4404338  37.7615840  51.6907564
  94.4997851  38.8318429  51.8885498  94.5506387  36.7215376  52.5013688
  94.7177938  36.7569559  53.4968107  94.4001720  35.5692613  51.7679201
  94.4600864  34.5984002  52.2597942  92.4435455  34.5194517  47.3396324
  93.4132268  34.7343000  46.5828496  91.3664703  33.7843794  46.9813993
  90.6224787  33.5995178  47.6389721  91.2520699  33.2473892  45.6570731
  92.2004336  32.7888828  45.3769348  90.4667497  32.4915618  45.6472549
  90.9151961  34.3104668  44.6658152  90.4881954  35.3959871  45.0465645
  91.1266885  33.9873098  43.4000737  91.5632046  33.1232546  43.1120431
  90.7619941  34.9290621  42.3930933  90.1505873  35.7197790  42.8278894
  92.0437722  35.5751965  41.7654498  92.6320646  36.0587828  42.5452931
  92.6452492  34.8054287  41.2819387  91.6198751  36.6136776  40.7307642
  91.0157437  36.1027667  39.9810336  91.0096977  37.3576138  41.2429601
  92.7859330  37.2969703  40.0568918  93.4133109  37.8282687  40.7725859
  93.3966731  36.5931640  39.4914250  92.2046034  38.2754605  39.1211259
  91.1972774  38.2997852  39.0518294  92.9024311  39.1255196  38.4045402
  92.2528122  39.9661414  37.5814636  91.2449219  39.9340820  37.5246348
  92.7754442  40.6261339  37.0234624  94.2091673  39.2069688  38.4836646
  94.7126241  38.6000092  39.1147204  94.7058302  39.8762666  37.9131691
  89.9521613  34.1845827  41.3865894  90.4109382  33.1943730  40.8202083
  88.7429316  34.6705664  41.1570046  88.4707542  35.5136715  41.6419713
  87.7718839  34.0380685  40.2717850  88.2003262  33.2229548  39.6885818
  86.5856594  33.4888315  41.0885539  86.2274596  34.2668161  41.7627447
  85.4447711  33.0574869  40.1519485  85.8021093  32.2791383  39.4777213
  84.6144392  32.6719164  40.7435427  85.1079629  33.9152381  39.5697769
  87.0383226  32.4064733  41.9150753  86.3008445  32.0629352  42.4246908
  87.3066385  35.0752238  39.2573371  86.5485555  35.9855212  39.6217308
  87.7290198  34.9199431  37.9874186  88.2406568  34.0844824  37.7417923
  87.5180295  35.9367913  36.9503440  86.6908119  36.5916081  37.2242513
  88.7888237  36.7866186  36.8036314  89.5436528  36.1177030  37.2170128
  88.9592877  36.9091919  35.7340437  88.8813281  38.1392401  37.4890991
  89.8466997  38.6054795  37.2921742  87.7492326  39.0260237  36.9024446
  86.7834590  38.5606317  37.0993974  87.7794444  40.0105933  37.3691466
  87.8891455  39.1300862  35.8264819  88.8045060  38.1178971  39.0050499
  89.6236926  37.5186621  39.4024796  88.8806901  39.1357172  39.3875934
  87.8538968  37.6839647  39.3151206  87.1487374  35.3228624  35.6018379
  87.9137776  34.5491435  35.0192244  86.0015849  35.7288833  35.0786303
  85.4579694  36.4220449  35.5727037  85.4501538  35.1624028  33.8539913
  85.7495471  34.1163442  33.7889974  83.9231051  35.2381788  33.7990253
  83.6082303  35.5155582  32.7930363  83.4958357  34.2696513  34.0588238
  83.3145454  36.2363890  34.7275211  82.4958568  35.8598153  35.7722763
  82.1041670  36.9346099  36.4305198  81.4483779  36.8481741  37.2968734
  82.6388690  37.9970689  35.8481216  82.5151134  38.9580278  36.1333277
  83.3982175  37.5837079  34.7814804  83.9232443  38.3171247  34.1694772
  86.0658551  35.8669281  32.6456118  87.0363222  36.6143105  32.7694923
  85.4984689  35.6709563  31.4589965  84.6125522  35.1877512  31.4169982
  86.1242348  36.0806339  30.2038347  87.0029199  36.6906318  30.4133920
  86.5614979  34.8532136  29.3884591  86.6025003  34.0056391  30.0725902
  85.8021525  34.6695387  28.6283550  87.9101262  35.0293900  28.7220790
  87.9952028  35.7692422  27.7192776  88.8857169  34.4166005  29.2065011
  85.1868161  36.9457178  29.3620508  84.0265891  37.1409425  29.6736701
  85.6901965  37.4003663  28.2301343  86.5450406  37.0003278  27.8705370
  85.0764023  38.4997226  27.4916688  84.6489866  39.2319202  28.1767248
  86.1492610  39.1858272  26.6522186  86.9485141  38.4635012  26.4862703
  85.7099675  39.4671214  25.6951424  86.7125835  40.4128175  27.3268626
  86.5272924  40.5765603  28.5549528  87.3323417  41.2122825  26.6077510
  83.9408603  38.0081025  26.6062130  84.1331713  37.1327578  25.7521690
  82.7703366  38.6164231  26.7814992  82.7332259  39.3998502  27.4178671
  81.5265043  38.1709337  26.1582060  80.7230114  38.8654705  26.4033936
  81.6749131  38.1133759  24.6423235  82.5113493  37.4540622  24.4104200
  80.7554572  37.6883057  24.2398113  81.9165318  39.4719086  24.0208421
  81.1973485  40.4582468  24.2822716  82.8659322  39.6181598  23.2272203
  81.0663046  36.8176370  26.6864943  80.2935175  36.1352386  26.0061691
  81.5410451  36.4183099  27.8827942  82.1728300  37.0166525  28.3955644
  81.1783058  35.1350597  28.4674472  81.0777394  34.3987314  27.6700726
  82.2273640  34.6361638  29.4645659  83.1730209  34.4933355  28.9416582
  82.3550586  35.3835540  30.2476381  81.8191821  33.4104870  30.0443941
  82.4872592  33.1123988  30.6660180  79.8612698  35.2354830  29.1972742
  79.6577324  36.1304638  30.0216132  78.9943077  34.2593866  28.9518635
  79.2584431  33.5399806  28.2939981  77.6464519  34.2222361  29.5148356
  77.3564495  35.2235391  29.8332536  76.5994515  33.6772024  28.5007199
  76.9035575  32.6798708  28.1829943  75.2207545  33.6080615  29.1334805
  74.9157491  34.6051643  29.4510627  74.5054021  33.2243007  28.4060884
  75.2500836  32.9450217  29.9981290  76.5509420  34.5634677  27.2502393
  76.1424393  35.5253972  27.5599454  77.5801184  34.6967411  26.9168723
  75.7099743  33.9981025  26.0986640  74.6804955  33.8649834  26.4311584
  75.7328239  34.6906839  25.2572913  76.1181736  33.0363255  25.7880868
  77.7102494  33.3975805  30.7892228  78.0752587  32.2209305  30.7391418
  77.4227928  34.0287045  31.9212194  77.2419735  35.0223609  31.9140984
  77.4463009  33.3443760  33.1970473  77.7606739  32.3097938  33.0595387
  78.4308000  34.0326550  34.1442873  78.1333523  35.0775961  34.2321630
  78.3496880  33.5492337  35.1178501  79.8620535  33.9551121  33.6608843
  79.8642554  34.2876780  32.6228593  80.5168232  34.5979582  34.2492104
  80.3959517  32.5407258  33.7165008  81.2491292  32.2015180  34.5814096
  79.9453546  31.7037436  32.7530425  80.2624321  30.7450253  32.7324899
  79.2940561  32.0416492  32.0589737  76.0516984  33.2494852  33.8288293
  75.0463403  33.7902888  33.3036280  75.9896869  32.4516819  34.9117224
  76.7989920  31.8996441  35.1574435  74.7886086  32.3242284  35.7339776
  74.0772886  33.1244093  35.5294448  74.0632739  30.9812655  35.6103030
  73.3590636  30.8605543  36.4334773  73.3003380  30.9617842  34.2772451
  74.0039868  31.0819886  33.4535157  72.7768242  30.0116004  34.1714878
  72.5780480  31.7779225  34.2594392  75.0549282  29.8530407  35.7696784
  75.5278666  29.9199942  36.7494480  74.5368853  28.8980899  35.6813604
  75.8166382  29.9257476  34.9933972  75.1833422  32.5276024  37.1796609
  75.9720873  31.7469544  37.7593365  74.5939847  33.5525148  37.7739962
  73.7679991  33.9329283  37.3345276  75.0851138  34.1887083  38.9874207
  75.7240826  33.5181541  39.5620294  75.8600316  35.4739062  38.6541043
  75.1646723  36.2587369  38.3564187  76.6362919  35.9239588  39.9073504
  77.3322328  35.1397767  40.2053864  77.1907343  36.8354684  39.6840914
  75.9356412  36.1153480  40.7200976  76.7841167  35.2309407  37.4465615
  76.2484495  34.5538583  36.7811888  76.9100001  36.1966016  36.9569168
  78.1848474  34.6311312  37.7804730  78.0597773  33.6651807  38.2697551
  78.7536029  34.5005713  36.8598371  78.7213272  35.3079235  38.4454854
  73.7993965  34.4108422  39.7620326  72.8206536  34.9538369  39.2013231
  73.7351208  33.9883792  41.0166363  74.5774972  33.1060785  41.7756703
  75.5995126  33.4763984  41.6953707  74.5131547  32.1172744  41.3215498
  74.0642569  33.1217926  43.1978347  74.5298307  33.9248571  43.7691729
  74.2564668  32.1681389  43.6894659  72.5578597  33.3561157  43.0273467
  72.1303665  33.8732003  43.8863997  71.9823390  32.4530070  42.8241955
  72.5368640  34.2686676  41.8121223  71.6507757  34.0123584  41.2313887
  72.4927086  35.7372588  42.1771526  73.5223963  36.3724827  42.4064294
  71.2744612  36.2678271  42.2156945  70.5077501  35.7248276  41.8450127
  70.9939751  37.6009860  42.7190103  71.8672651  38.2505053  42.7789147
  69.9267557  38.2921269  41.8594053  68.9946195  37.7358894  41.9585074
  69.7048901  39.7262737  42.2832032  70.6365405  40.2832954  42.1839294
  68.9421864  40.1790542  41.6496628  69.3757548  39.7519410  43.3220067
  70.3478109  38.1322472  40.3999424  70.4105758  37.0723569  40.1533755
  69.6121594  38.6119899  39.7543702  71.3216112  38.5981336  40.2490657
  70.5437805  37.4580692  44.1656594  69.7053800  36.5707554  44.4971784
  71.1301730  38.3121110  45.0390147  71.8936774  38.8958448  44.7285067
  70.6622502  38.4501350  46.4496641  70.3917450  37.4721155  46.8476640
  71.7533258  39.0346821  47.3089603  72.0380944  39.9802079  46.8474551
  71.3223827  39.2259002  48.2917236  72.9928555  38.1462391  47.4592008
  73.3485095  37.8758437  46.4649687  74.0803164  38.8516631  48.2019220
  73.7255371  39.1219841  49.1964858  74.9453080  38.1944934  48.2914664
  74.3646643  39.7539358  47.6604882  72.5927295  36.8551275  48.2360554
  71.8206017  36.3215585  47.6817791  73.4665014  36.2135308  48.3499748
  72.2109377  37.1263249  49.2203246  69.4882074  39.3893952  46.4975273
  69.6257225  40.5782673  46.1556021  68.3482663  38.9666841  47.0024259
  68.1401785  37.7801665  47.6937032  68.9079805  37.6919441  48.4623364
  68.2339019  36.9525578  46.9905825  66.7481331  37.8891711  48.2734071
  66.7733822  38.3585397  49.2568474  66.2834447  36.9063464  48.3522835
  66.0080746  38.7645873  47.2536479  65.1514223  39.3436881  47.5984497
  65.7043635  38.1265533  46.4237251  67.1196108  39.7014711  46.8079068
  67.0287772  39.8171369  45.7278749  66.9796616  41.0658846  47.4787026
  66.0374403  41.8189046  47.1478899  67.7730847  41.3756917  48.4665873
  68.5466953  40.7979765  48.7630182  67.4922695  42.5909339  49.2167727
  66.5008829  42.9630029  48.9582840  67.5343197  42.3142742  50.7272713
  68.5275496  41.9330061  50.9643962  67.3780485  43.2633414  51.2400586
  66.4720712  41.3006039  51.1896723  65.4782243  41.6748956  50.9441628
  66.6472821  40.3631066  50.6619394  66.5359961  41.0334582  52.6961731
  65.6968617  41.5337300  53.4542909  67.5101523  40.2345397  53.1362675
  67.5869026  40.0332420  54.1230248  68.1662100  39.8348493  52.4805715
  68.4743816  43.7008994  48.8637308  68.2930875  44.8550354  49.2956480
  69.5755451  43.3750111  48.1668680  69.7544031  42.4077147  47.9378553
  70.6116759  44.3912473  47.8090485  70.8072526  45.1014058  48.6124935
  71.9543685  43.7670406  47.3636132  72.6830854  44.5702630  47.2545050
  72.4719753  42.7454067  48.3673205  71.7439511  41.9415816  48.4766218
  73.4168097  42.3334507  48.0128058  72.6261747  43.2289010  49.3319746
  71.9194774  43.1599953  45.9629289  71.6669903  43.9332940  45.2374211
  72.8973415  42.7425912  45.7228140  71.1691548  42.3701563  45.9272741
  69.9834003  45.2917445  46.7414715  69.4202460  44.7198701  45.7900421
  69.9791885  46.6189868  46.9311451  70.3002051  46.9817030  47.8174208
  69.4440645  47.5505121  45.9620874  69.2840337  47.0350256  45.0151117
  68.1233919  48.1319769  46.4262907  67.7408922  48.7615672  45.6229170
  67.4385840  47.3005015  46.5929848  68.2394689  48.9320615  47.6675113
  68.9403295  48.4077252  48.3171009  68.6600983  49.8966982  47.3835238
  66.7277159  49.1921830  48.5361647  66.9625774  47.9284800  49.7212185
  67.8711217  48.1270890  50.2897260  66.1091539  47.9018725  50.3987590
  67.0540948  46.9674712  49.2150684  70.4486178  48.6475473  45.6427827
  70.0641109  49.6960401  45.1371115  71.7453919  48.3406128  45.8152065
  71.9876528  47.3955583  46.0765130  72.8429184  49.3264012  45.6408196
  72.4446478  50.3403970  45.6048725  73.8027645  49.2188935  46.8318416
  73.2211494  49.4344637  47.7281410  74.1519333  48.1868787  46.8654084
  75.0002223  50.1577390  46.7661014  75.5004491  50.0027856  45.8101393
  74.6314012  51.1819872  46.8207708  76.1831108  49.8782466  48.1093842
  77.5044563  49.0531503  47.2219006  77.8807566  49.7093176  46.4370811
  78.3126295  48.8134976  47.9129312  77.1244566  48.1342900  46.7753616
  73.6378511  49.0824083  44.3532480  74.1168332  47.9496993  44.1863963
  73.7874386  50.0937495  43.4905503  73.2412262  50.9307438  43.6361249
  74.6659739  50.0343076  42.3256960  74.4344006  49.1639007  41.7118029
  74.5162765  51.3123303  41.4806216  74.5423938  52.1668083  42.1568506
  75.6355889  51.4585098  40.4216267  75.6098070  50.6045699  39.7447052
  75.4818160  52.3762409  39.8539788  76.6045118  51.4978065  40.9193650
  73.1694404  51.3599760  40.7614071  73.2438913  50.6763292  39.9157210
  72.4268930  50.9857697  41.4661711  72.7464894  52.7454533  40.2620203
  73.4883692  53.1201392  39.5568078  71.7784266  52.6736270  39.7662436
  72.6713731  53.4295806  41.1072583  76.0980244  49.8571134  42.8001542
  76.6105108  50.6346814  43.6129153  76.7795011  48.8851211  42.2192167
  76.2818511  48.4038148  41.4838337  78.1393325  48.4685764  42.5178403
  78.5590245  49.1120652  43.2910673  78.1654575  47.0203190  43.0185458
  77.4215664  46.9901305  43.8146701  77.8672721  46.3438839  42.2175332
  79.5143285  46.5889152  43.5695265  80.2941904  46.8386075  42.8501031
  79.7892468  47.3071515  44.8865119  79.0099994  47.0575657  45.6066364
  80.7576131  46.9937925  45.2766063  79.7968941  48.3841601  44.7188982
  79.5587401  45.0679897  43.7384625  79.4005757  44.5897608  42.7718289
  80.5310201  44.7740631  44.1339117  78.7762896  44.7557232  44.4300981
  79.0039678  48.5419420  41.2603041  78.5156399  48.4738164  40.1416528
  80.3132767  48.5901495  41.4569970  80.6502563  48.2802208  42.3572682
  81.2931037  49.0473081  40.4684065  81.0238714  48.8419324  39.4323399
  81.5700149  50.5665494  40.6168454  81.6776758  50.7872675  41.6788208
  82.8210536  50.9998490  39.8823119  82.7139468  50.7798590  38.8201285
  82.9698908  52.0711118  40.0177518  83.6812516  50.4609579  40.2794988
  80.3369352  51.3428863  40.2030889  79.4987183  51.0610544  40.8403215
  80.5279200  52.4110654  40.3061323  80.0955720  51.1159870  39.1646471
  82.5555616  48.2452748  40.7568848  82.9681540  48.1160906  41.9453502
  83.2602324  47.6932968  39.7373038  83.0780249  47.8678195  38.3252021
  83.3549583  48.8886711  38.0620099  82.0270851  47.7040744  38.0868491
  83.9818736  46.8373723  37.6852755  84.2704836  47.1456992  36.6804184
  83.4896705  45.8659138  37.6393868  85.1914499  46.7941777  38.6268208
  85.9157706  47.5911288  38.4585132  85.6989578  45.8300483  38.5953579
  84.5197567  46.9830463  39.9780190  84.2745348  45.9910030  40.3572481
  85.4325638  47.7046309  40.9841998  85.7404140  48.8573445  40.7350783
  85.8423020  47.0383263  42.0717074  85.5262411  46.0852916  42.1809308
  86.7230191  47.6092062  43.1147167  87.3184799  46.7981507  43.5338998
  87.3824522  48.3349406  42.6387367  85.9596219  48.2961785  44.2395344
  86.6370640  48.8062522  45.1527019  84.6207872  48.3000205  44.2097669
  84.1657611  47.9019481  43.4007002  83.7710649  48.9315701  45.2591372
  84.3467971  49.6899930  45.7896335  82.5400744  49.5990378  44.6339945
  82.8987252  50.2942023  43.8749061  81.9522159  48.8140217  44.1583139
  81.6706335  50.3470533  45.6370195  81.2655562  49.6297170  46.3507715
  82.3010451  51.0647328  46.1620143  80.5228955  51.0909552  44.9961976
  80.3685560  51.1153674  43.7773139  79.6926979  51.7058327  45.8235660
  78.9056520  52.2201426  45.4545871  79.8500617  51.6578882  46.8200796
  83.4051730  47.8533275  46.2824016  82.8785430  46.8343319  45.8750287
  83.6428150  48.0698554  47.5747057  83.9993746  48.9732520  47.8519047
  83.4267046  47.0562342  48.6170378  83.7239391  46.0798323  48.2344279
  84.2502271  47.3608375  49.8790484  83.9934977  48.3649889  50.2164951
  83.9756662  46.3500441  51.0152609  84.2326131  45.3456538  50.6786928
  84.5804188  46.6070752  51.8849208  82.9200284  46.3834268  51.2847329
  85.6523762  47.3065790  49.5809661  86.1560560  47.4981737  50.3754461
  81.9462758  46.9887817  49.0133480  81.2236551  47.9959439  49.0126162
  81.4894462  45.7867625  49.3607806  82.0191506  44.9310292  49.2757331
  80.1040077  45.7017752  49.8221398  79.7565884  46.6764119  50.1648967
  79.2171836  45.2466125  48.6671563  79.1489878  46.1546497  48.0680595
  79.8089663  44.5031861  48.1331053  77.8154980  44.6963260  48.9178338
  77.8731590  43.9075071  49.6678610  76.8971709  45.7912132  49.4085228
  76.8386367  46.5802321  48.6587751  75.9022907  45.3810956  49.5820670
  77.2871490  46.2033043  50.3392206  77.2040132  44.0514848  47.6686360
  77.8341914  43.2249432  47.3403009  76.2075616  43.6770676  47.9031512
  77.1349012  44.7933070  46.8730091  79.9738033  44.7732394  51.0194740
  80.3122335  43.5918320  50.9011879  79.5244940  45.2906376  52.2166407
  80.0101504  46.5573540  52.6464097  79.4357347  47.3242235  52.1267387
  81.0573080  46.6263834  52.3518000  79.8285365  46.6124638  54.1461235
  78.8417180  46.9977171  54.4027715  80.5932687  47.2386994  54.6055960
  79.9878681  45.1488967  54.5768388  79.4407188  44.9060449  55.4877448
  81.0305825  44.8521396  54.6898937  79.3679016  44.4243639  53.3929964
  79.9497094  43.5171278  53.2301453  77.9109007  44.0553757  53.6348874
  77.0137931  44.9073608  53.5075365  77.6664844  42.8119760  54.0272891
  78.3844940  42.1191332  54.1839110  76.2811595  42.4260096  54.2304980
  75.6521379  43.3133467  54.3016588  75.7912781  41.5658345  53.0371661
  76.4127241  40.6720791  52.9814411  74.7597271  41.2783738  53.2405598
  75.8576526  42.3125850  51.7133217  76.7256501  42.9703789  51.6687306
  75.9806083  41.2608722  50.6739021  75.1126879  40.6029163  50.7175720
  76.0338284  41.7264078  49.6897552  76.8857617  40.6795948  50.8497265
  74.6312921  43.1286130  51.4703091  74.5177120  43.8614842  52.2691200
  74.7211976  43.6447593  50.5144789  73.7583331  42.4762214  51.4496543
  76.0352329  41.6242393  55.4875304  76.8515949  40.7622057  55.8417848
  74.8549813  41.8607653  56.1097978  74.3302141  42.6820071  55.8446927
  74.3270185  41.0126946  57.2045038  75.0489004  40.2340342  57.4508241
  74.0728762  41.8509584  58.4481796  74.2408173  42.8860465  58.1507107
  73.0202707  41.7102664  58.6937961  74.8957555  41.5402843  59.6249358
  74.7532874  40.5173884  59.9734866  75.9328317  41.6782385  59.3190870
  74.5964232  42.4938669  60.7769686  75.1280848  43.6284127  60.8149922
  73.6849279  42.0825548  61.6874957  73.4521484  42.6783224  62.4691453
  73.2411144  41.1814765  61.5817184  73.0422324  40.2949187  56.7444523
  71.9524935  40.8844233  56.6893936  73.1692105  39.0085775  56.4476223
  74.0811291  38.5749991  56.4702850  72.0299268  38.2009139  56.0277484
  71.2583314  38.8374184  55.5946183  72.4706565  37.1921277  54.9814765
  73.1117236  36.4545955  55.4643621  71.6100639  36.6905280  54.5388953
  73.2561953  37.9110268  53.8901339  73.7868391  38.7638817  54.3134029
  74.2376817  36.9557976  53.3077195  73.7077191  36.1028367  52.8838137
  74.8091427  37.4536909  52.5243706  74.9160347  36.6102709  54.0878149
  72.3340848  38.4279444  52.8365839  71.6273444  39.1274975  53.2829502
  72.9118024  38.9380903  52.0658085  71.7887004  37.5963049  52.3904554
  71.4163316  37.5115078  57.2383579  72.0341143  36.6343132  57.8479775
  70.1930759  37.9172767  57.5663337  69.7984406  38.6415031  56.9833600
  69.4122756  37.4379630  58.6907128  70.0552003  36.9936715  59.4505497
  68.6720831  38.6461712  59.3139174  68.6595106  39.5026772  58.6398710
  67.6486774  38.3396606  59.5302323  69.2646077  39.1319730  60.6211838
  70.5143026  39.7085470  60.6582522  71.0885649  39.8147605  59.7379037
  71.0418695  40.1524933  61.8581750  72.0334936  40.6048912  61.8690672
  70.3160960  40.0257599  63.0508785  70.7498425  40.3585485  63.9938608
  69.0633911  39.4840851  63.0293656  68.4742147  39.3867596  63.9412314
  68.5402368  39.0515800  61.8122781  67.5343273  38.6339979  61.7690216
  68.4007713  36.3539853  58.2899180  67.5973486  35.9539313  59.1229430
  68.2403139  36.0430751  56.9942200  68.9016712  36.4111532  56.3254716
  67.1097496  35.2046788  56.4861334  66.3617653  35.0577738  57.2652596
  66.4522943  35.9203044  55.3067037  65.9097759  36.7893707  55.6788551
  67.2113070  36.2440405  54.5945276  65.4698205  35.0999519  54.5400004
  64.3697113  34.5096683  55.1322022  63.6839519  33.8500268  54.2248059
  62.7790081  33.3056894  54.4947549  64.2961803  33.9985488  53.0534978
  64.0009640  33.6058790  52.1710254  65.4038464  34.7772038  53.2330868
  66.0413711  35.0222046  52.3835940  67.5301625  33.8117724  56.0409529
  68.2093493  33.7942991  55.0968719  66.9913778  32.6680042  56.5340810
  65.8393359  32.5996327  57.2722306  64.9910161  32.8052976  56.6194246
  65.8815723  33.3517037  58.0600786  65.8218442  31.1905622  57.8206432
  64.8015829  30.8684830  58.0290444  66.4170442  31.1221848  58.7312270
  66.4504444  30.3640995  56.6926351  65.8430654  29.9949238  55.8662580
  66.9324099  29.5238042  57.1923477  67.5023270  31.3293776  56.1699122
  68.3819692  31.2211704  56.8044348  67.8697379  30.9666512  54.7171181
  68.8797226  30.3494643  54.5405586  67.0352543  31.2970137  53.7330862
  66.1519629  31.7338354  53.9546323  67.3447706  31.0141852  52.3022359
  67.5796815  29.9560110  52.1874167  66.1636165  31.3533335  51.3945677
  65.2863337  31.4689989  52.0310389  66.3877555  32.3033787  50.9095154
  65.8857982  30.2969385  50.3358017  66.8365854  29.9715953  49.9135976
  65.3797870  29.4448073  50.7895937  65.0218614  30.8331628  49.2215223
  64.9409852  32.0379042  48.9970979  64.3528665  29.9359850  48.5204375
  63.7574079  30.2344535  47.7611964  64.4397742  28.9555056  48.7467308
  68.5642275  31.8045784  51.8284834  69.3893599  31.2296372  51.1127145
  68.6513625  33.0825745  52.1971670  67.9212714  33.5038011  52.7536151
  69.8290318  33.9092613  51.8410308  69.9513049  33.9210605  50.7579752
  69.6592146  35.3467710  52.3287478  69.2458122  35.2886108  53.3356317
  70.6573763  35.7826487  52.3709825  68.7679325  36.2121648  51.4677462
  69.1862796  36.2566147  50.4622062  67.7872089  35.7378172  51.4320441
  68.6293330  37.6186507  52.0201778  68.5592836  37.7580737  53.2536442
  68.6080993  38.5698988  51.2181671  71.0287439  33.2933991  52.5516634
  72.0819098  33.1751921  51.9310809  70.8454631  32.9107367  53.8133882
  69.9772595  33.0764340  54.3021275  71.9566304  32.3160091  54.5558351
  72.8467656  32.9286190  54.4127693  71.6483743  32.2426676  56.0554628
  70.7310675  31.6704909  56.1942474  72.7724709  31.5813958  56.8130982
  73.6900761  32.1533004  56.6751605  72.5240111  31.5443655  57.8737569
  72.9168471  30.5679507  56.4386836  71.4607979  33.6319012  56.6500443
  70.6318765  34.1328189  56.1499716  71.2435290  33.5457182  57.7146881
  72.3725263  34.2130300  56.5116914  72.3081283  30.9297255  53.9927188
  73.4440408  30.4782803  54.1587215  71.4664908  30.3154580  53.1710967
  70.5295235  30.6456572  52.9889977  71.8939733  29.0282213  52.5548199
  72.5615572  28.5069021  53.2408645  70.7172627  28.1348165  52.2556510
  69.9453714  28.7275686  51.7648068  71.0446854  27.3395193  51.5860267
  70.1917943  27.5656144  53.4438399  69.4454067  27.0025427  53.2259968
  72.7168827  29.2842636  51.2878410  73.7849200  28.6755454  51.1609220
  72.2276309  30.1445484  50.3952393  71.3684694  30.6251386  50.6210134
  72.8853138  30.4483944  49.0956256  72.9574003  29.5570485  48.4724039
  72.0247880  31.4814560  48.3719432  71.1521520  30.9425196  48.0029538
  71.7135985  32.1999153  49.1302818  72.6837877  32.2103938  47.2307000
  73.6286569  32.6456619  47.5560685  72.8656542  31.5271901  46.4010861
  71.5807159  33.5292560  46.6822391  70.3192536  33.4588094  47.9526103
  70.7725971  33.6448351  48.9262494  69.5609339  34.2163801  47.7547762
  69.8557016  32.4722916  47.9507600  74.2744007  31.0254417  49.3337180
  75.2171981  30.6141989  48.6570486  74.3806818  31.9357034  50.2865170
  73.5582410  32.2778186  50.7625923  75.6879665  32.5659710  50.5988861
  76.2358107  32.8789796  49.7100715  75.4969404  33.7868398  51.5135714
  74.9310361  33.4656257  52.3880272  76.8163024  34.3935422  51.9595100
  77.3826051  34.7154376  51.0855618  76.6230553  35.2518814  52.6029460
  77.3912783  33.6492525  52.5104521  74.6303542  34.8286063  50.8289723
  73.6548238  34.3984146  50.6023056  74.5038977  35.6871190  51.4885663
  75.1092834  35.1492909  49.9038297  76.6203275  31.5050270  51.1850174
  77.8248216  31.5599388  50.9029474  76.0737857  30.5400066  51.9220104
  75.1011503  30.5470935  52.1940939  76.9505842  29.4330648  52.4388451
  77.8453557  29.8604653  52.8914067  76.2202089  28.5926408  53.4952923
  75.4875099  29.2437661  53.9720388  75.7038880  27.7915483  52.9663656
  77.1315566  27.9946460  54.5548944  77.6945098  27.1728657  54.1123317
  77.8227742  28.7636514  54.8997869  76.3239479  27.4787957  55.7285420
  75.4427634  26.9631567  55.3467968  76.9378564  26.7778752  56.2941622
  75.8886571  28.5498008  56.6249632  76.3750474  29.4284115  56.5174132
  74.9206478  28.4643027  57.5448893  74.2406664  27.3434426  57.7344310
  74.4506405  26.5284427  57.1760530  73.5153562  27.3089804  58.4364546
  74.6381773  29.5201698  58.2901954  75.1532718  30.3790731  58.1595712
  73.9087344  29.4625019  58.9863895  77.4391928  28.5462645  51.2794889
  78.6532558  28.2942500  51.2213446  76.5421785  28.0103469  50.4448783
  75.5757650  28.0401382  50.7368659  76.8772911  27.2710394  49.2206308
  77.5376777  26.4291923  49.4286747  75.5519622  26.7281934  48.6496251
  74.9840585  26.2771598  49.4633532  74.9981536  27.5764411  48.2472923
  75.7243510  25.7063830  47.5598845  76.6899029  24.9328440  47.5077707
  74.7522352  25.6841131  46.6589956  74.7921648  25.0263168  45.8936137
  73.9760895  26.3250433  46.7421058  77.6989496  28.1140284  48.2480276
  78.3380631  27.5356934  47.3668214  77.7728116  29.4433027  48.3977217
  77.2026567  29.9613819  49.0508807  78.6849595  30.1882709  47.5311402
  78.5897705  29.8300985  46.5060788  78.3680912  31.6648502  47.5578588
  77.9156793  31.8178064  48.5376686  79.3220384  32.1902498  47.5126932
  77.4362057  32.2084261  46.4767446  76.4112219  31.8669318  46.6212809
  77.4930197  33.7397361  46.6292531  78.5176830  34.0820463  46.4843821
  76.8467043  34.2038115  45.8842624  77.1549437  34.0187882  47.6272185
  77.7611330  31.8232121  45.0676593  77.7313915  30.7379069  44.9710801
  77.0310311  32.2677901  44.3913436  78.7579807  32.1829614  44.8127591
  80.1443149  29.9656997  47.9332010  80.9837476  29.6240192  47.0816235
  80.4242175  30.0900558  49.2441438  79.7046729  30.4470488  49.8564435
  81.7949505  29.8957910  49.8012202  82.5079420  30.5877453  49.3529551
  81.8375983  30.0381264  51.3448363  80.8383343  29.8308704  51.7277422
  82.8365169  29.0896650  51.9942743  83.8361516  29.2966375  51.6121833
  82.8243419  29.2324999  53.0748069  82.5650479  28.0600346  51.7613258
  82.1286576  31.4841451  51.7696378  82.2106642  31.4795249  52.8565391
  83.0920870  31.7493240  51.3342259  81.0910091  32.4955970  51.3480971
  80.1273414  32.2313234  51.7835325  81.3863882  33.4859305  51.6946370
  81.0087627  32.5011207  50.2612186  82.3372938  28.5737252  49.2502730
  83.5258082  28.5350470  48.9039257  81.4868216  27.5670751  49.0901649
  80.5359543  27.6764540  49.4126350  81.8941250  26.2548415  48.5368639
  82.8340483  25.9422286  48.9917446  80.8338575  25.1883677  48.8226583
  79.9410663  25.4911884  48.2755544  81.2170067  24.2573443  48.4049356
  80.4817926  24.9788055  50.2961949  80.3300882  25.9660774  50.7325216
  79.5574822  24.4053328  50.3660615  81.5551860  24.2626462  51.0832675
  81.4444380  23.0764127  51.3815742  82.5972036  24.9873396  51.4526021
  83.3442854  24.5595369  51.9807640  82.6414690  25.9655001  51.2049249
  82.1787876  26.3835483  47.0276430  83.1648618  25.7725572  46.6096795
  81.3801085  27.1329715  46.2497647  80.5304111  27.4800998  46.6712091
  81.5576897  27.2966422  44.7741306  82.0975766  26.4478275  44.3544463
  80.1726989  27.3696481  44.1181148  79.5475406  26.5844013  44.5431603
  79.7361541  28.3426986  44.3432846  80.2145164  27.1940074  42.6124642
  80.3056170  26.0731322  42.1213874  80.1482750  28.2874907  41.8751642
  80.1728618  28.2160291  40.8679956  80.0733278  29.1902593  42.3218102
  82.5435705  28.4308789  44.4099219  83.7459898  28.1856263  44.6308380
  82.1177865  29.6106874  43.9013532  81.1173642  29.7382465  43.8467343
  83.0047418  30.6933000  43.3550162  84.0443356  30.3658002  43.3643937
  82.6044669  31.0171458  41.9055219  83.2954177  31.8036962  41.6021662
  82.8051335  30.1151239  41.3274307  81.1748641  31.4732776  41.6532750
  80.3245813  31.3447554  42.5541647  80.9155482  31.9432164  40.5267983
  83.0051756  31.9872548  44.1897730  83.8295582  32.8580177  43.8379670
  82.1534605  32.1388294  45.2136087  81.5196139  31.3615757  45.3328334
  82.0187163  33.2827846  46.1051284  81.2670518  33.0543661  46.8607240
  83.3330159  33.6286701  46.8111708  84.1356634  33.3448021  46.1305277
  83.3378273  34.7101872  46.9468093  83.5462267  32.9418164  48.1684574
  83.2061472  33.5974543  48.9700718  82.9847263  32.0081206  48.2005736
  85.0498334  32.6441104  48.3506852  85.2241716  32.3533836  49.3866307
  85.3240654  31.8203821  47.6916191  85.8989544  33.7999600  48.0372664
  85.8900396  34.5499988  48.7136255  86.6613949  33.9337370  46.9451409
  86.7367932  32.9814555  46.0182056  86.2079678  32.1283664  46.1308227
  87.3224851  33.1163335  45.2064959  87.3742407  35.0506966  46.7788093
  87.3322364  35.7812927  47.4749164  87.9521081  35.1597491  45.9576665
  81.5196174  34.5263223  45.3718322  81.6497725  35.6621831  45.8832877
  80.9181560  34.3277342  44.2131640  80.6907570  33.3812002  43.9439754
  80.5976151  35.3987090  43.2932985  80.8034958  36.3898793  43.6973947
  81.4044321  35.2188909  42.0011058  81.0961731  34.3054753  41.4924325
  81.1407227  36.4097619  41.1034686  81.4491808  37.3235697  41.6113155
  81.7063734  36.3002790  40.1781838  80.0765384  36.4637836  40.8739169
  82.7856183  35.0603242  42.3573953  83.3102639  34.9459802  41.5616109
  79.1185525  35.4152313  42.9844283  78.5679577  34.4154958  42.5067722
  78.4938641  36.5591939  43.2327726  78.9937910  37.3159499  43.6771742
  77.1075936  36.7618191  42.8942315  76.7622398  35.9275379  42.2836540
  76.2352131  36.8507223  44.1311076  75.2103865  37.1336783  43.8907630
  76.2366029  35.8811489  44.6291293  76.7285325  37.8420956  45.1271879
  77.8785751  37.6326651  45.8443977  78.4394777  36.7117985  45.6847330
  78.3446840  38.5986468  46.7890012  79.2700199  38.4221809  47.3373751
  77.6241905  39.7532876  47.0065503  77.9536383  40.5047957  47.7240456
  76.4618668  39.9461526  46.2912791  75.8526181  40.8289229  46.4852714
  76.0596280  39.0137473  45.3165555  75.1924016  39.2206511  44.6894916
  76.9949293  38.0465260  42.1123620  77.9663228  38.7868415  41.9738569
  75.7712499  38.3161379  41.6409831  75.0165367  37.7022992  41.9124779
  75.4736267  39.4173795  40.7426978  76.4128723  39.7808830  40.3258261
  74.5571837  38.9706218  39.5802259  73.6090655  38.6124807  39.9813579
  74.3742073  39.8152079  38.9159262  75.0413172  38.1687893  39.0227508
  74.7983111  40.5653292  41.4719257  73.7721474  40.3540431  42.1179879
  75.2969069  41.7964912  41.2780486  76.1674301  41.9147469  40.7797471
  74.6686841  42.9729190  41.8567132  73.8247667  42.6825028  42.4824616
  75.6331229  43.8202286  42.6966971  76.4013718  44.2456262  42.0509961
  74.8309308  44.9873617  43.4004429  74.0627496  44.5627063  44.0467141
  75.5148881  45.5903416  43.9977018  74.3614600  45.6146210  42.6426536
  76.3248391  42.9854048  43.6936249  76.8921682  42.2060303  43.1848862
  77.0040815  43.6052189  44.2789110  75.5909096  42.5262583  44.3559185
  74.0305156  43.7925071  40.7510724  74.7147774  44.4562074  39.9655059
  72.7145848  43.7701219  40.7366852  72.2214577  43.2783603  41.4681874
  71.9486855  44.3949493  39.7053283  72.3592633  44.1423182  38.7277279
  70.5062884  43.9102988  39.7673806  70.2689779  44.1416372  40.8057762
  69.9058352  44.5384513  39.1093681  70.1959654  42.4382854  39.4894845
  70.8445674  41.8526507  40.1409813  68.7646981  42.0390852  39.7177365
  68.1154849  42.6240085  39.0662108  68.6426087  40.9791373  39.4947894
  68.4967701  42.2242551  40.7579419  70.6427148  42.0996833  38.0784686
  71.7145290  42.2742364  37.9844217  70.4260492  41.0520192  37.8697654
  70.1087501  42.7293622  37.3667909  71.9924153  45.8982125  39.8540716
  71.8484526  46.4259872  40.9624590  72.0805635  46.5938913  38.7016698
  72.2797355  46.1067456  37.8396264  71.9787569  48.0463561  38.6663487
  72.2038072  48.4225703  39.6643039  72.9840066  48.6427043  37.6813519
  72.7659406  48.2823632  36.6760154  72.9111961  49.7300967  37.7007633
  73.9927536  48.3415181  37.9638683  70.5664018  48.4862254  38.3286967
  70.2469208  48.9368058  37.2261658  69.7404859  48.5046728  39.3419704
  70.0471956  48.3872889  40.2970879  68.3209964  48.6835717  39.0916312
  67.9963824  47.9741708  38.3303985  67.4970621  48.4515678  40.3589309
  67.8724426  49.1855520  41.0719919  66.4591223  48.6793612  40.1162558
  67.5788620  47.0970500  40.9553662  66.8949557  45.9965977  40.3855680
  66.3074816  46.1544026  39.4810950  66.9623430  44.7359006  40.9568252
  66.4581342  43.8931277  40.4839520  67.6854808  44.5446672  42.1354699
  67.7529456  43.2902965  42.7597268  67.2599372  42.6118281  42.2925834
  68.3679527  45.6515073  42.7301305  68.9276594  45.5183881  43.6559318
  68.3152634  46.9117150  42.1178157  68.8542429  47.7526437  42.5542103
  68.0146483  50.0772453  38.5843976  68.3890383  51.0667780  39.2075108
  67.2200286  50.1336616  37.5227429  67.0279425  49.2817334  37.0153766
  66.6673861  51.3774445  37.0145911  67.3991558  52.1819265  37.0882187
  66.2972476  51.1858543  35.5406726  65.6260518  50.3323597  35.4450567
  65.7979864  52.0828691  35.1743356  67.4730420  50.9520046  34.7753180
  67.2358565  50.8326282  33.8527714  65.4658147  51.8360869  37.8326794
  65.4219435  52.9918051  38.2671316  64.4727077  50.9574531  38.0294818
  64.5251030  50.0325265  37.6271576  63.2602367  51.3286532  38.7596836
  63.1760562  52.4146512  38.7999485  62.0101562  50.7649792  38.0695818
  62.1039210  50.8698596  36.9886991  61.9352167  49.7083265  38.3264264
  60.7328341  51.4674728  38.5184637  59.6457238  50.9035381  38.4277997
  60.8649532  52.6862020  39.0267605  60.0477286  53.1915645  39.3379717
  61.7821224  53.1027694  39.1000610  63.2759741  50.8853764  40.2179579
  62.6984697  51.5833819  41.0506950  63.9315615  49.7608385  40.5361019
  64.2731502  49.2573996  39.7298973  64.1314993  49.1571908  41.8817023
  64.7474972  48.2649314  41.7698145  64.8132216  50.1026048  42.8867859
  64.2458571  51.0316001  42.9430402  64.8677757  49.4734120  44.2325723
  65.4354161  48.5445309  44.1772075  65.3525089  50.1536420  44.9328733
  63.8554567  49.2600720  44.5757895  66.2043970  50.4186128  42.4550499
  66.1813473  50.9016831  41.4782113  66.6671470  51.0881559  43.1800838
  66.7835010  49.4974204  42.3906768  62.8452131  48.6410144  42.5168021
  62.8208027  47.5119549  43.0118572  61.8083141  49.4826520  42.6059859
  61.9265139  50.4603979  42.3820637  60.4961970  49.0249668  43.0088196
  60.5668510  48.5769107  43.9999568  59.4810986  50.1580963  43.0585167
  58.7985464  49.9900216  43.8915668  60.0062269  51.1020395  43.2045017
  58.6851391  50.2136405  41.7493253  59.3587870  50.5431773  40.9583102
  58.3089977  49.2179925  41.5141558  57.5100989  51.1727730  41.8167613
  57.6624578  52.3340526  42.2120365  56.3304708  50.6862119  41.4462782
  55.5129858  51.2788558  41.4706301  56.2567155  49.7259592  41.1420147
  59.9315391  48.0012799  42.0615311  58.8797015  47.4434301  42.3819593
  60.5696843  47.7727803  40.9107172  61.3602663  48.3439469  40.6483277
  60.1204230  46.7407140  39.9780718  59.4327889  46.0698807  40.4930875
  59.4074370  47.3358959  38.7717226  60.1520659  47.8970551  38.2071631
  59.0494944  46.5006033  38.1698394  58.2446098  48.2448031  39.1161374
  58.1516853  48.2650330  40.2019812  58.4560430  49.2499352  38.7513023
  56.9493773  47.7497004  38.5082566  56.9575479  47.3240151  37.3242962
  55.9175989  47.8100094  39.2276439  61.2963314  45.9062254  39.5198863
  61.3044764  45.3885235  38.4042118  62.3191991  45.7699773  40.3569998
  62.3666278  46.2962974  41.2177186  63.4596541  44.8836585  40.0097138
  64.3368192  45.1664212  40.5917154  63.1191472  43.4253097  40.3165733
  62.4653054  43.0734487  39.5185859  64.0540717  42.8654351  40.2929802
  62.4368544  43.2159654  41.6601504  61.5383743  43.8319586  41.6973903
  62.1608112  42.1656689  41.7538491  63.3572952  43.5983318  42.7975667
  64.3507093  43.1956346  42.5999249  63.4119858  44.6852342  42.8588161
  62.8917128  43.0832232  44.0732116  62.0126217  43.4370529  44.4226437
  63.5451769  42.1881725  44.7975527  64.6975673  41.7040750  44.3644258
  65.0746405  42.0194675  43.4821314  65.1950172  41.0213103  44.9180282
  63.0463832  41.7785012  45.9497920  62.1656721  42.1500526  46.2759784
  63.5479555  41.0955557  46.4994368  63.8223226  45.0713359  38.5391136
  64.1756499  44.0770557  37.8940890  63.7260420  46.3021581  38.0443330
  63.4674022  47.0737421  38.6425495  64.0907551  46.5945233  36.6409510
  63.7164500  45.8088254  35.9846937  63.4735750  47.9255335  36.2108782
  62.3997955  47.8524329  36.3833689  63.8929533  48.6975307  36.8560465
  63.7291971  48.2866703  34.7577104  64.8104810  48.3512835  34.6362562
  63.3467886  47.4545280  34.1666080  63.0882496  49.5809329  34.2839829
  62.4453558  50.2600629  35.1127290  63.2387464  49.9106647  33.0901150
  65.5959038  46.7719665  36.6509117  66.0293922  47.4498203  37.5322760
  66.3234030  46.1080382  35.7607178  65.8700560  45.4482793  35.1448492
  67.7854539  46.2623451  35.6646534  68.0587158  47.3171298  35.6939163
  68.4876548  45.5546412  36.7830908  68.2310891  44.4954889  36.7614031
  69.5653127  45.6693632  36.6665032  68.1781420  45.9834819  37.7361893
  68.2315538  45.7194462  34.3169496  67.5236466  44.8550548  33.7841410
  69.3319122  46.2298966  33.7725034  69.7712415  47.0089643  34.2416970
  69.8590567  45.8152908  32.4936884  69.5197745  44.8001605  32.2875395
  69.4044596  46.7292267  31.3418192  69.6945321  47.7436446  31.6155227
  69.9620664  46.4183013  30.4583601  67.9055742  46.6923436  31.0375226
  67.6412203  45.6654341  30.7851840  67.3869010  46.9867799  31.9498737
  67.4938224  47.6167491  29.8988695  66.2833321  47.6806163  29.5655782
  68.3811649  48.2923148  29.3374780  71.3683272  45.6953607  32.5616680
  71.9485286  44.9720148  31.7224045  72.0048294  46.2239498  33.6305728
  71.4808875  46.8115673  34.2632574  73.4258871  46.0311789  33.8842448
  73.7873034  45.1955742  33.2848766  74.2442168  47.2876162  33.5224111
  73.6939905  48.1142860  33.9718189  75.2743977  47.3014536  33.8782705
  74.2959686  47.5581708  32.0458817  73.3144142  48.3105305  31.4019773
  72.5179512  48.7780270  31.9809364  73.3518009  48.4636910  30.0259729
  72.6050741  49.0740712  29.5180992  74.3440303  47.8367351  29.2965271
  74.3655374  47.9538568  28.2130513  75.3063265  47.0645611  29.9297304
  76.0878441  46.5735506  29.3498692  75.2714639  46.9224089  31.2744547
  76.0140463  46.3021114  31.7763533  73.6248424  45.6692185  35.3271299
  72.6838325  45.6721345  36.1171792  74.8722958  45.3768354  35.6730406
  75.6088604  45.4312900  34.9841237  75.2221966  44.9755035  37.0259516
  75.0064855  45.7795056  37.7296195  74.6672670  44.0826508  37.3139908
  76.7042789  44.6691096  37.0672282  77.4040036  44.7478464  36.0617647
  77.1633176  44.2608019  38.2410380  76.5367200  44.1870096  39.0297264
  78.5705260  43.9113240  38.4379637  79.0286026  43.7450224  37.4629721
  79.3081602  45.0360574  39.1336537  78.8497904  45.1557527  40.1153208
  80.8284449  44.8027591  39.2997727  81.2876118  44.6834285  38.3184340
  81.2744629  45.6579916  39.8074580  80.9959424  43.9022444  39.8906352
  79.1349032  46.2021046  38.3121686  79.5877667  46.9469716  38.7142734
  78.5776747  42.6619531  39.2866376  77.7708685  42.5243875  40.2185435
  79.4703912  41.7396660  38.9665164  80.0431169  41.7819355  38.1356748
  79.6038373  40.5839535  39.8371471  78.6148672  40.1785208  40.0508333
  80.4648417  39.4756937  39.2208544  80.4144313  38.5812988  39.8418349
  79.9489608  39.1639837  37.8595253  79.9994930  40.0578441  37.2377860
  80.5551407  38.3761938  37.4122758  78.9140152  38.8293764  37.9304195
  81.8371321  39.8993951  39.1409344  82.3664758  39.1982593  38.7538889
  80.2132148  41.0634965  41.1404378  80.9500592  42.0491444  41.1708784
  79.8854003  40.3570306  42.2169862  79.1391449  39.6829019  42.1234300
  80.5200454  40.5112806  43.5247483  81.2889233  41.2837382  43.5094183
  79.5105488  40.8542291  44.6014428  78.7390407  40.0849837  44.6351570
  80.0126767  40.9070629  45.5674533  79.0527086  41.8176927  44.3773457
  81.2034416  39.2030218  43.8362345  80.7092696  38.1595383  43.4628883
  82.3683861  39.2642528  44.4599067  82.7391104  40.1810270  44.6653036
  83.1569614  38.0934796  44.8488851  82.5779358  37.1912417  44.6519203
  84.4834011  38.0089434  44.0652420  84.2828998  37.3832547  43.1955225
  84.7078913  39.0240976  43.7378796  85.6839757  37.4431046  44.8363554
  85.9732349  38.2347614  45.5275207  85.3670349  36.5663283  45.4010775
  86.8806708  37.0753783  43.9513084  86.6596960  36.6831651  42.7783477
  88.0352251  37.1295938  44.4471532  83.3964939  38.2695471  46.3361492
  83.8081560  39.3505978  46.7636602  83.1170421  37.2917315  47.0928455
  82.7665898  36.4184588  46.7258615  83.2471917  37.4323267  48.5445411
  82.9607870  38.4348145  48.8624873  82.4013606  36.3942286  49.3000151
  82.6430977  35.3922059  48.9455943  82.7139641  36.4955000  50.7962327
  82.4720314  37.4971745  51.1515034  82.1193620  35.7633150  51.3425424
  83.7732472  36.2981738  50.9607955  80.9234163  36.5909457  49.0271248
  80.5272586  37.3053123  49.7488174  80.8044998  36.9893345  48.0195313
  80.1805240  35.3044394  49.1430966  80.2985978  34.9056468  50.1506297
  79.1229458  35.4755990  48.9422684  80.5758409  34.5896678  48.4213446
  84.7177693  37.3005463  48.9186537  85.4321849  36.4527144  48.3724326
  85.1874793  38.1325922  49.8423713  84.6155468  38.8650545  50.2379613
  86.5828023  38.0508744  50.2490333  87.0228493  37.1218678  49.8865356
  87.3744363  39.2312997  49.6622918  88.4220870  38.9319480  49.6320289
  87.0212076  39.4186853  48.6482819  87.2350896  40.4854766  50.4812649
  88.0558823  40.7462625  51.5702824  88.8347890  40.0294105  51.8301420
  87.8939108  41.9116370  52.3315298  88.5331593  42.1165113  53.1903020
  86.9082565  42.8088642  51.9756802  86.6868244  43.9784016  52.6496114
  87.2860306  44.1045152  53.3889672  86.0920070  42.5549720  50.9114182
  85.3075034  43.2649129  50.6494289  86.2574151  41.4041885  50.1681789
  85.6077977  41.2082704  49.3151177  86.7843561  38.0004264  51.7585988
  87.9253210  37.8021695  52.1893357  85.7357364  38.1946655  52.5629867
  84.9129247  38.6209548  52.1612932  85.7243345  37.8770683  53.9777513
  86.5531701  37.2064440  54.2044534  85.8358094  39.1085523  54.8701994
  85.0074697  39.7855223  54.6612373  85.8006268  38.8042172  55.9162599
  86.7791243  39.6174129  54.6719139  84.4264210  37.1183151  54.2738596
  83.6101692  36.8352322  53.3707432  84.2038503  36.8201457  55.5531978
  84.7688264  37.1892425  56.3046424  83.1512231  35.8587663  55.8842668
  82.1844231  36.2192998  55.5329656  83.4545803  34.5088731  55.1961216
  83.4471176  34.6932029  54.1218469  84.4581783  34.2192435  55.5075790
  82.4968033  33.4093767  55.5188782  81.2760321  33.3293215  54.8836288
  81.0154949  34.0856442  54.1432262  80.3887089  32.3113228  55.1724975
  79.4278893  32.2507739  54.6613601  80.7299520  31.3588306  56.1269071
  79.8710285  30.3292419  56.4522879  79.0486841  30.3563004  55.9576999
  81.9453132  31.4288871  56.7677919  82.2174902  30.6834857  57.5150516
  82.8183670  32.4457616  56.4614554  83.7841463  32.5046150  56.9633586
  83.0259514  35.7127250  57.3936637  83.9004799  36.1351750  58.1551339
  81.9025906  35.1233877  57.8126158  81.2066767  34.8286966  57.1425707
  81.6180744  34.9385903  59.2329276  82.4068975  34.3517555  59.7035466
  81.5458701  36.3358160  59.9370098  82.4813326  36.8740396  59.7842859
  80.7217004  36.9155751  59.5214093  81.3175954  36.1268775  61.4320083
  81.1175317  37.1030033  61.8738835  80.4397929  35.4906507  61.5450588
  82.4948736  35.4892325  62.1321416  82.6794162  34.4761995  61.7746403
  83.4021693  36.0833850  62.0230682  82.1394635  35.4282678  63.5605491
  81.2899478  35.8971352  63.8408807  82.8310504  34.7866738  64.4730719
  82.4032219  34.8093484  65.7462987  81.5620589  35.3152421  65.9842410
  82.9246743  34.3204011  66.4598234  83.9083971  34.0970997  64.1846578
  84.2318132  34.0475734  63.2291217  84.4097944  33.6186881  64.9193835
  80.3130512  34.1601645  59.3937899  79.4508169  34.1542158  58.5031320
  80.1835229  33.4974584  60.5585805  80.9156429  33.5753105  61.2499839
  79.0268126  32.6411363  60.8613177  78.1841656  32.9324074  60.2342561
  79.3482615  31.1666938  60.5956002  80.2869418  30.9658973  61.1119910
  78.5469930  30.5952001  61.0640698  79.4737281  30.7638524  59.1562875
  79.2152862  31.6194868  58.5324298  80.5055341  30.4713436  58.9615718
  78.5557117  29.6118002  58.8341239  77.3775631  29.6787970  59.2580572
  78.9939137  28.6420124  58.1679951  78.6273572  32.8184203  62.3200489
  79.2644607  32.2428075  63.1922846  77.5501454  33.5335354  62.5871875
  77.0422459  33.9167951  61.8028092  77.1254171  33.9025677  63.9329725
  77.8615076  33.5335618  64.6471886  76.9883618  35.4250720  64.1103436
  76.2297216  35.7546952  63.4004754  76.6302427  35.5896584  65.1265926
  78.2749671  36.2223359  63.8880327  78.7780472  35.8079641  63.0143581
  77.9807686  37.2516747  63.6830746  79.2225163  36.1932406  65.0805620
  79.5181567  37.2696613  65.6589091  79.6694271  35.0867147  65.4521441
  75.8388839  33.1656708  64.3140971  75.3604066  32.2744683  63.6118510
  75.3264768  33.4939897  65.5034729  75.8284149  34.1264090  66.1102705
  74.0725130  32.9230525  65.9842499  73.3569281  32.9008890  65.1623337
  74.2474508  31.5094970  66.5140676  75.2511517  31.4200235  66.9296133
  73.5125347  31.3444095  67.3019410  74.0578685  30.4699709  65.4176873
  73.6876837  30.9883665  64.5331930  75.0117583  29.9954339  65.1874466
  73.0720620  29.4052181  65.7968284  73.2924538  28.2156263  65.5499929
  71.9644499  29.8291675  66.3725986  71.2582337  29.1638779  66.6532226
  71.8272485  30.8172832  66.5304105  73.5062711  33.8216563  67.0678385
  74.1868770  34.1425187  68.0483042  72.2518458  34.2025442  66.9006574
  71.7232977  33.7828021  66.1492901  71.5952068  35.2028655  67.7324427
  72.0110534  35.1666924  68.7393499  71.7968258  36.6043354  67.1728759
  72.8609235  36.7838570  67.0193597  71.2838690  36.6196084  66.2112407
  71.2217650  37.6949931  68.0734385  71.4708816  37.7069515  69.3198990
  70.5374639  38.5832102  67.5007891  70.1412110  34.7490154  67.6845140
  69.5527394  34.7094635  66.6016927  69.6085714  34.2882126  68.8162833
  70.1892502  34.2139240  69.6393219  68.2296179  33.8044340  68.8941200
  67.9743202  33.5362412  69.9193004  67.2973289  34.9073151  68.4357004
  67.4602819  35.2761885  67.4230415  66.2838132  34.5152356  68.5203139
  67.3718226  36.0681423  69.3205987  66.6264822  36.0968256  70.4726846
  65.9031424  35.3114259  70.6918349  66.7963980  37.0999840  71.3261316
  66.2304183  37.0468391  72.2561548  67.6426997  38.1820215  71.0857732
  67.7222548  39.0198430  71.7784681  68.3837590  38.1703746  69.9433016
  69.0578539  38.9947842  69.7108255  68.2756051  37.1028373  69.0769773
  68.9017720  37.0584893  68.1858834  67.9966063  32.5360873  68.1031558
  66.9154870  32.3255244  67.5499981  68.9983563  31.6765398  68.0591803
  69.8510732  31.8407359  68.5749448  68.8980739  30.4723186  67.2668396
  69.7795243  29.8589058  67.4535721  68.0052739  29.9275456  67.5738084
  68.8081035  30.7721132  65.7680645  68.7377182  29.8816920  64.9145623
  68.7882075  32.0632905  65.4336481  68.7002435  32.7713858  66.1484647
  68.8843388  32.4944957  64.0372177  68.2907475  31.8348601  63.4042648
  68.4141624  33.9423619  63.8491336  69.0775579  34.6058515  64.4039204
  68.4348884  34.3222675  62.3712760  67.7713239  33.6594642  61.8158712
  68.0984625  35.3525883  62.2557023  69.4497030  34.2264875  61.9851715
  67.0251845  34.1896951  64.3943589  66.3134466  33.6443277  63.7745974
  66.9860181  33.8069800  65.4142092  66.6633987  35.6892230  64.3940075
  66.7019006  36.0725639  63.3743667  65.6578153  35.8209936  64.7934292
  67.3744741  36.2352168  65.0139772  70.3429406  32.3645805  63.6566117
  71.2164645  32.9821311  64.2935679  70.6228863  31.5891457  62.6190978
  69.9606716  30.9298784  62.2357731  71.9633055  31.6334076  62.0481178
  72.7102589  31.6317543  62.8419422  72.1878624  30.4104668  61.1651405
  71.4703918  30.4645336  60.3463535  73.1998038  30.4791398  60.7659431
  72.0201561  29.0807432  61.9026606  72.7485312  29.0510965  62.7130257
  71.0132725  29.0404461  62.3181852  72.2356330  27.8950747  60.9876623
  71.3985920  27.6700800  60.0762651  73.2389839  27.1862493  61.1853172
  72.1916205  32.9315236  61.2573384  71.3898888  33.3224663  60.4083301
  73.2586108  33.6412994  61.5867377  73.8653457  33.3208299  62.3278661
  73.5669494  34.9026694  60.9435115  72.7440944  35.1751565  60.2826335
  73.8095066  36.0322842  61.9485699  74.5584496  35.7158095  62.6745371
  74.2986950  37.2589146  61.2256786  73.5500297  37.5762804  60.4998137
  74.4701640  38.0604998  61.9441215  75.2305751  37.0293289  60.7089688
  72.5311834  36.3393287  62.6965637  71.8482033  36.8058756  61.9866532
  72.1162229  35.3871378  63.0270779  72.7138182  37.2367539  63.8732563
  73.1283411  38.1893798  63.5434464  71.7504515  37.4072007  64.3538515
  73.3963630  36.7706425  64.5838705  74.7908179  34.6921089  60.0766457
  75.5318946  33.7197293  60.2263693  74.9884571  35.6133565  59.1358957
  74.3031601  36.3415652  58.9938414  76.1493404  35.5744168  58.2532776
  76.9919535  35.1043768  58.7603916  75.8746693  34.8123091  56.9483022
  74.8442983  34.9671038  56.6281876  76.8100510  35.3473160  55.9007858
  77.8406905  35.1924517  56.2200041  76.6393652  34.8248338  54.9595211
  76.6295002  36.4132601  55.7619834  76.0700464  33.3362044  57.1649509
  75.3826077  32.9874336  57.9355929  75.8733953  32.8027903  56.2349524
  77.0958734  33.1475514  57.4814788  76.5494087  37.0072501  57.9757165
  75.7192473  37.8033637  57.5294069  77.8133174  37.3306797  58.2645485
  78.3641080  36.6449005  58.7609717  78.4329100  38.6056748  57.9345447
  77.6779524  39.2969893  57.5600817  79.0859616  39.2192589  59.1712053
  79.7365415  38.4569431  59.5998306  79.6889821  40.0604483  58.8293478
  78.1058856  39.6955828  60.2230116  77.9121229  40.7565400  60.0651297
  77.1764958  39.1367629  60.1132080  78.6642169  39.4837874  61.6303527
  78.5006983  38.4402338  61.8993444  79.7346915  39.6865034  61.5973406
  78.0123226  40.3798570  62.6644818  77.5428546  41.2332943  62.1752526
  77.2594805  39.8210010  63.2203667  79.0740698  40.8666531  63.6101875
  79.7715449  41.3848952  63.0953542  78.6552441  41.4661808  64.3067876
  79.5089221  40.0760137  64.0639406  79.4772329  38.3776559  56.8421560
  80.4238171  37.6087987  57.0425879  79.3219673  39.0584134  55.7028721
  78.4825962  39.5995417  55.5520893  80.3014101  38.9873822  54.6253297
  81.2101203  38.5101856  54.9922470  79.7647979  38.1719373  53.4253306
  80.5741355  37.9795963  52.7210034  79.2166891  36.8704242  53.9227735
  78.4069410  37.0619597  54.6268496  78.8366329  36.2904635  53.0817602
  80.0069072  36.3100077  54.4223636  78.6947476  38.9663340  52.7651979
  79.1063220  39.9145651  52.4194141  78.3008237  38.4100755  51.9146098
  77.8917336  39.1574121  53.4770676  80.7527960  40.3701048  54.1363534
  80.0655807  41.3944970  54.2512873  81.9489201  40.3748365  53.5602461
  82.5454451  39.5700620  53.6890696  82.4700129  41.5090258  52.7994367
  81.7063323  42.2851503  52.7492172  83.7324541  42.1030649  53.4450843
  84.5344068  41.3731157  53.3348788  83.9887855  43.0093040  52.8963358
  83.5468010  42.4430494  54.9445353  82.5886885  42.9526659  55.0465757
  83.5162682  41.5002708  55.4907388  84.6778035  43.3430973  55.5256965
  84.8688764  44.1458199  54.8134981  84.3214646  43.7678769  56.4641443
  85.9875449  42.5562671  55.7798946  85.7276473  41.5014478  55.8688329
  86.6326715  42.6991369  54.9130041  86.7194193  43.0055559  57.0358438
  86.1219599  42.8728500  57.8392934  87.5613932  42.4592086  57.1484691
  86.9607138  43.9828419  56.9534541  82.7313734  40.9940501  51.3938391
  83.3002181  39.8915723  51.2313231  82.2393631  41.7415113  50.3929912
  81.6825117  42.5494433  50.6322857  82.4430849  41.4366052  48.9848365
  83.1712230  40.6331529  48.8735779  81.1397051  41.0161921  48.2935045
  80.4035753  41.8144320  48.3885094  81.3330582  40.8246950  47.2380218
  80.7550984  40.1103172  48.7620850  83.0091863  42.6692433  48.3068707
  82.9853371  43.7646799  48.8647541  83.3940092  42.4816823  47.0477849
  83.2247187  41.5677229  46.6526667  84.0712335  43.4806055  46.2202895
  83.7617930  44.4890517  46.4948475  85.6092380  43.3613074  46.3451897
  85.8855554  43.2119440  47.3889520  86.0815492  42.1547199  45.5115214
  85.8059788  42.3035821  44.4674899  87.1644517  42.0591777  45.5908590
  85.6088256  41.2465919  45.8856003  86.2574236  44.6639896  45.8928387
  85.7838028  44.9480495  44.9531078  86.0346671  45.4133115  46.6524411
  87.7713766  44.5746546  45.6937995  87.9949010  43.8258095  44.9339524
  88.1538543  45.5433312  45.3721229  88.2457653  44.2910691  46.6332858
  83.6439655  43.3050566  44.7521058  83.5505156  42.1778584  44.2387324
  83.4012955  44.4229593  44.0683375  83.4623111  45.3287332  44.5109999
  83.0381618  44.3660354  42.6505609  82.2070314  43.6729351  42.5204326
  82.7379528  45.3592817  42.3167408  84.2136347  43.8939827  41.8063378
  85.3649468  44.2201435  42.0794043  83.9033020  43.0884765  40.7902756
  82.9241196  42.8979152  40.6322011  84.8739476  42.5113710  39.8755136
  85.8674746  42.8562376  40.1619928  84.8667512  40.9808445  39.8820476
  83.9624051  40.6564324  40.3968428  84.8341394  40.6457097  38.8453600
  86.0741534  40.3867767  40.5645578  85.9655873  39.3021987  40.5667317
  86.9596476  40.6616175  39.9914394  86.2269831  40.9023707  42.0469866
  86.4510916  41.9690700  42.0417743  85.2988893  40.7292813  42.5917629
  87.3101305  40.1996369  42.7320267  87.2485634  39.1915605  42.7415553
  88.3502135  40.7763288  43.3218808  88.4666080  42.0904160  43.3832496
  87.7530702  42.6771395  42.9749367  89.2686225  42.5025856  43.8382096
  89.2874468  40.0093507  43.8690849  89.1989368  39.0039749  43.8305426
  90.0839443  40.4353482  44.3209883  84.6091858  42.8715184  38.4299410
  85.4686250  43.4399011  37.7467044  83.4618738  42.4532238  37.9257330
  82.7409956  42.0794522  38.5263400  83.2292634  42.4611806  36.4990589
  83.9094383  43.1755233  36.0351884  83.4544756  41.0937679  35.8671760
  83.2781853  40.3091664  36.6029894  82.7792244  40.9573462  35.0224719
  84.8938065  41.0192939  35.3822439  84.9110509  41.5502689  34.4304724
  85.5871001  41.4951567  36.0757860  85.3338934  39.6296860  35.1548685
  85.3281829  38.8176433  36.0631895  85.8068154  39.3489731  33.9472829
  86.1222100  38.4128364  33.7368646  85.8492112  40.0727335  33.2440939
  81.8324645  42.9389252  36.2751278  80.9349057  42.6298348  37.0641868
  81.7049643  43.7644822  35.2408970  82.5178808  44.0836305  34.7335405
  80.4147761  44.2673267  34.8483415  79.7537014  44.2660733  35.7149890
  80.4983268  45.6941646  34.2986928  80.2707199  45.6068339  33.2363050
  79.6984877  46.2416672  34.7972892  81.7965953  46.4336225  34.4738897
  82.0849708  46.3698254  35.5231134  82.5520999  45.9438291  33.8595467
  81.6780974  47.9540674  34.0512689  80.8990145  48.3994900  34.6699187
  82.6345592  48.4255536  34.2770589  81.3564086  48.1968464  32.6462423
  80.4615892  48.6145492  32.4342943  82.1614895  47.8628300  31.6311955
  83.3622695  47.3247208  31.8338258  83.6855786  47.1591871  32.7762534
  83.9443943  47.0845018  31.0441898  81.7690010  48.1103065  30.3867502
  80.8727827  48.5452252  30.2202013  82.3685494  47.8624453  29.6126667
  79.8328812  43.3259083  33.8129180  80.4492102  42.3218483  33.4598103
  78.6698646  43.6028497  33.3071981  78.2534652  44.5039300  33.4936524
  77.9321021  42.6642241  32.5121607  78.4394960  42.5155667  31.5589810
  77.8187414  41.3077799  33.2248097  77.2638098  40.5788216  32.6342422
  78.8256471  40.9337051  33.4100364  77.1268943  41.3879372  34.5809762
  75.7603803  41.6534376  34.6907714  75.1936407  41.8222729  33.7751291
  75.1208906  41.7055299  35.9231919  74.0495555  41.9000911  35.9730695
  75.8758616  41.5018045  37.1389796  75.3959210  41.5766278  38.1147656
  77.2274622  41.2078629  37.0522427  77.8108874  41.0276129  37.9551409
  77.8588141  41.1413556  35.7642526  78.9185214  40.8976151  35.6886825
  76.5530518  43.2446804  32.2513205  75.9602563  43.9024428  33.1049781
  76.0140643  43.0073812  31.0539553  76.5510517  42.5897069  30.3074353
  74.6310701  43.3614215  30.7920152  74.3666170  44.2256266  31.4013701
  74.3868069  43.7094158  29.3126179  75.2492297  44.2642549  28.9431863
  74.2867285  42.7794997  28.7528497  73.0865572  44.5762463  29.1258947
  72.3278433  44.1677436  29.7934122  73.3300867  45.5934211  29.4327348
  72.5480347  44.5907926  27.6869562  73.3573907  44.8921094  27.0219373
  72.2259252  43.5811337  27.4321350  71.3486830  45.5752856  27.5251352
  71.7474294  46.4868584  27.0800095  70.6495384  45.1084819  26.8313123
  70.6312555  45.9149321  28.8098173  71.2788220  46.3478858  29.4527079
  69.8738190  46.5536226  28.6136940  70.2613235  45.0704374  29.2222225
  73.7608097  42.1673975  31.1833239  74.0294634  41.0141181  30.8509887
  72.6847739  42.4725914  31.9151487  72.5001311  43.4061712  32.2534313
  71.7763079  41.3992814  32.3128965  72.3183833  40.4595654  32.4186668
  71.0407032  41.6980504  33.6412206  70.5185944  42.6498358  33.5432093
  70.0414008  40.6051322  33.9742904  70.5628672  39.6530578  34.0729214
  69.5407774  40.8435278  34.9127168  69.3019377  40.5328692  33.1767479
  72.0434033  41.8537059  34.7882576  72.7231800  42.6768344  34.5681094
  71.5075626  42.0633734  35.7140081  72.6141535  40.9318540  34.9002135
  70.7787473  41.1527318  31.1727772  70.2395571  42.0969996  30.6355274
  70.5558880  39.8948813  30.8122835  71.0633319  39.1430902  31.2565920
  69.6275873  39.5609919  29.7267151  69.4370035  40.4424136  29.1144466
  70.2282605  38.4710751  28.8399891  70.3806631  37.6237121  29.5084564
  69.5108699  38.1982031  28.0660437  71.5620297  38.8535519  28.1880432
  72.2084477  39.2739811  28.9584222  72.2511498  37.6556169  27.5452150
  71.6054880  37.2349038  26.7743583  73.1917585  37.9746761  27.0962637
  72.4497158  36.8993683  28.3046622  71.3170184  39.9468682  27.1633057
  70.8866124  40.8182569  27.6567951  72.2611912  40.2246867  26.6948444
  70.6271138  39.5836403  26.4015996  68.2669622  39.1205294  30.2675646
  67.2575743  39.2963387  29.6418800  68.2508729  38.5347894  31.4607949
  69.1108401  38.3223548  31.9460034  67.0089292  38.0615877  32.0285678
  66.2651147  38.8564913  31.9740931  66.4693371  36.8306759  31.2778285
  66.4099923  37.1079044  30.2253448  67.2083629  36.0393770  31.4034739
  65.1024447  36.3314403  31.7513249  64.8666824  35.4256706  31.1926674
  65.1995815  36.0899327  32.8097849  63.9848559  37.3485106  31.5636089
  63.1306670  37.1656951  30.6600134  63.9518426  38.3353195  32.3298695
  67.0999839  37.7980142  33.5161686  68.1670191  37.4907418  34.0491211
  65.9655675  37.9193428  34.1918747  65.1429972  38.2884272  33.7366229
  65.8725343  37.5591426  35.6111459  66.7757442  37.0280625  35.9115873
  65.7246188  38.7946886  36.4802236  64.8377121  39.3078760  36.1085593
  65.5353940  38.4276063  37.4889577  66.9049319  39.7694889  36.5052925
  67.1816893  40.0532686  35.4899230  66.4782672  40.9954932  37.2704818
  66.2017807  40.7125575  38.2861596  67.3020579  41.7084781  37.3039822
  65.6218923  41.4535430  36.7755952  68.1175787  39.1284784  37.1840777
  68.4105701  38.2332562  36.6355956  68.9463539  39.8364081  37.1923552
  67.8607204  38.8585759  38.2084192  64.6863569  36.6363102  35.8222420
  63.5528794  36.9848395  35.4736704  64.9471159  35.4550247  36.3756056
  65.8947267  35.1783787  36.5891474  63.8682502  34.4952363  36.6314282
  62.8962954  34.9825435  36.5543917  63.9406491  33.3509753  35.5636388
  64.9288170  32.8913268  35.5822576  63.1851190  32.5958710  35.7806451
  63.6825611  33.9461404  34.1815885  62.6806695  34.3753715  34.1902305
  64.4149630  34.7375483  34.0223305  63.7861695  32.9331324  33.0666334
  64.7884314  32.5107932  32.9945248  63.0605801  32.1279294  33.1818183
  63.4898546  33.6608025  31.8205211  63.2803757  34.6452460  31.9047171
  63.5114213  33.1251435  30.6219890  63.2177386  33.8966171  29.5620603
  62.9860849  34.8701595  29.6986321  63.2299378  33.4995538  28.6334637
  63.8402612  31.8724880  30.4159947  64.0890427  31.2837209  31.1980184
  63.8432156  31.5023208  29.4762786  63.9495108  33.9294110  38.0492725
  65.0386096  33.8501441  38.6312221  62.7999187  33.5346842  38.5959771
  61.9134796  33.7771092  38.1769842  62.7914621  32.7757931  39.8456386
  63.2135995  33.4615843  40.5802063  61.3459974  32.4341918  40.2636031
  60.8761293  31.8605654  39.4646807  61.3300809  31.6146548  41.5574959
  61.7994000  32.1878556  42.3570458  60.2999204  31.3865715  41.8310768
  61.8795817  30.6854959  41.4064552  60.6626091  33.6390979  40.6237025
  59.7625103  33.4307415  40.8844901  63.6191189  31.5238791  39.6222611
  63.4690579  30.8577176  38.5925959  64.5140849  31.2317605  40.5584884
  64.6300371  31.8372629  41.3585016  65.3787971  30.0781961  40.4404875
  65.7502086  30.0037183  39.4184280  66.5793878  30.1907343  41.3920605
  66.8901834  31.2353759  41.4072006  66.2398257  29.8987882  42.3858236
  67.7706022  29.3069891  40.9766946  67.7620370  29.1660876  39.8958735
  68.6882666  29.8175719  41.2687550  67.7403338  27.9327830  41.6492290
  67.9176526  26.9060635  40.9805033  67.5375509  27.8993415  42.9679579
  67.5107085  27.0118374  43.4493282  67.4118668  28.7616913  43.4785043
  64.5904142  28.8163069  40.7298335  63.5129683  28.8604234  41.3258990
  65.1166971  27.6819270  40.3000353  65.9313473  27.6527429  39.7037194
  64.4371602  26.4394703  40.5938462  63.5240183  26.6507598  41.1502883
  64.0652154  25.6843946  39.3084000  63.3934615  26.3151378  38.7261554
  64.9793210  25.5077058  38.7415737  63.4318363  24.4455989  39.5813290
  63.2166984  24.0072644  38.7547830  65.2411355  25.5557705  41.5376514
  66.2005245  24.9015489  41.1254344  64.8794317  25.5903777  42.8231310
  65.2613022  24.9009519  43.4547688  63.9010880  26.5521367  43.3502328
  63.5932071  27.2195044  42.5452925  62.6503029  25.8597895  43.9206677
  63.0155578  24.9856955  44.4597853  62.1545729  26.5351521  44.6179748
  61.6482551  25.4135170  42.8379992  62.0231099  25.2735580  41.6584161
  60.4488282  25.2392722  43.1754763  64.5271152  27.4453394  44.4363474
  65.4897266  27.0561132  45.1033866  63.9574450  28.6371872  44.6201781
  63.1479527  28.8958342  44.0743547  64.4666030  29.5902607  45.5910144
  63.6247641  30.1364045  46.0166120  64.9796965  29.0415759  46.3808115
  65.4370104  30.5836188  44.9669638  66.4029269  30.1750795  44.3236739
  65.2760463  31.6814603  45.0904939  64.3620924  32.0718646  45.2704163
  66.4046124  32.6176793  44.8269026  66.3480922  33.5260843  45.4266567
  67.7604364  31.9278057  45.0672146  67.8177355  31.0485731  44.4255237
  68.9230766  32.8553333  44.7595164  68.8667132  33.7346422  45.4011859
  69.8626978  32.3334818  44.9408551  68.8754068  33.1644906  43.7153668
  67.8517435  31.3705157  46.4885538  67.0673684  30.6207786  46.5922391
  68.8262269  30.8919004  46.5855533  67.6950767  32.4134238  47.5656964
  66.7205734  32.8921855  47.4696216  67.7717835  31.9399477  48.5444894
  68.4794312  33.1633089  47.4629341  66.2806668  33.2471574  43.4375416
  65.4814278  34.1656688  43.6160518  66.4952626  33.3177792  42.4690386
  66.8571282  32.3759640  42.4228150  66.5789293  34.1697334  41.2442908
  65.8819945  33.7647599  40.5105486  66.2481755  35.6428979  41.4700610
  65.1836594  35.7127102  41.6937372  66.8229792  35.9830353  42.3314595
  66.5724093  36.5187781  40.2653136  67.6398105  36.7385064  40.2871056
  66.3343283  35.9656414  39.3567657  65.8124775  37.8213240  40.2496038
  64.6249302  37.8686031  39.9420894  66.4985963  38.9032934  40.5749056
  66.0418632  39.8040986  40.5817172  67.4764146  38.8242109  40.8151526
  67.9394036  33.9832847  40.5719333  68.9558971  34.1333795  41.2476681
  68.0604478  33.6883907  39.3775733  67.2747649  33.5123352  38.7678142
  69.4083841  33.5347703  38.8330521  70.1305306  33.9603312  39.5298315
  69.7527103  32.0680041  38.6107247  68.9824901  31.6407218  37.9686266
  70.7146477  32.0274792  38.0997119  69.8322255  31.2745050  39.9011814
  69.5383793  31.8904558  40.7510990  69.1594471  30.4205582  39.8221491
  71.2395239  30.7623056  40.1375873  72.1840087  31.1974927  39.4636351
  71.4025327  29.8630923  41.1062750  72.3227698  29.4941418  41.2989939
  70.6051761  29.5541969  41.6437760  69.4670516  34.3233231  37.5380028
  68.5468514  34.2244838  36.7269519  70.5045370  35.1571392  37.3843157
  71.2132312  35.1973213  38.1028122  70.6302830  36.0503946  36.2384637
  69.6769180  36.1067965  35.7130941  71.0433012  37.4555976  36.6481289
  72.0008376  37.4165535  37.1674550  71.1374053  38.0806238  35.7601047
  70.2880935  37.8781586  37.3108525  71.6433358  35.4606106  35.2776813
  72.7148305  35.0074094  35.7061212  71.2689436  35.4125428  34.0019780
  70.2990350  35.5973923  33.7893579  72.1543317  35.0387775  32.9115205
  72.9929260  34.4720884  33.3161464  71.4472313  34.1809397  31.8559257
  70.5667014  34.7294369  31.5213857  72.1349202  34.0539644  31.0198268
  71.0213763  32.8010466  32.3827725  71.9213358  32.2702725  32.6933409
  70.3764907  32.9585394  33.2473075  70.2815642  31.9772941  31.3431193
  69.3716669  32.5040467  31.0555127  70.9206841  31.8532125  30.4689173
  69.9170849  30.5999148  31.9088596  70.8419561  30.1063918  32.2074376
  69.2890421  30.7550120  32.7861317  69.1910997  29.7424796  30.9217353
  69.7730572  29.5982858  30.1089417  68.9761323  28.8507148  31.3443987
  68.3338528  30.1994132  30.6452602  72.6997393  36.3404741  32.3387007
  71.9239022  37.2035964  31.8795962  74.0210335  36.4749388  32.3414940
  74.6051712  35.6758183  32.5422154  74.6651022  37.7550651  32.0948425
  73.9764665  38.4695277  31.6438177  75.2212387  38.3666000  33.4216821
  75.7316480  39.2996241  33.1828359  74.0934947  38.6431987  34.4383746
  73.5828886  37.7105012  34.6780780  74.5192984  39.0677504  35.3475212
  73.3806931  39.3469705  34.0085830  76.2696987  37.4288349  34.0482236
  77.0948097  37.2874729  33.3501472  76.6467204  37.8695073  34.9711332
  75.8107726  36.4647816  34.2675154  75.7917290  37.5422431  31.0929918
  76.4987614  36.5249288  31.1656189  75.9462035  38.5270305  30.1720789
  75.1979428  39.1992745  30.0810119  77.1017309  38.6542568  29.2898981
  77.5210486  37.6642990  29.1102998  76.7322368  39.2834123  27.9382176
  75.9042137  38.7088993  27.5229924  76.4049494  40.3054188  28.1292299
  77.9004920  39.2979386  26.9350174  78.7472401  39.8310612  27.3673353
  78.1863189  38.2655580  26.7335342  77.5242934  39.9687026  25.6111536
  76.3422601  40.2310673  25.3576556  78.5168150  40.2677121  24.7711589
  78.3101260  40.7109017  23.8874372  79.4703041  40.0495073  25.0228463
  78.1014195  39.5165535  30.0577583  77.8696708  40.7303289  30.2329685
  79.1927092  38.9034018  30.5555453  79.2603446  37.8990528  30.6380555
  80.3071166  39.7130453  31.0343704  79.9869451  40.2363110  31.9353601
  81.5298007  38.8497935  31.3534974  81.8764198  38.3687129  30.4388843
  82.6559406  39.7198766  31.9325443  82.3101990  40.2009538  32.8474913
  83.5205577  39.0947871  32.1557057  82.9371412  40.4820489  31.2058264
  81.2050269  37.7715811  32.3749434  80.4499089  37.1251728  31.9276697
  82.1194662  37.2015428  32.5391279  80.7024043  38.2938079  33.6821028
  79.7876626  38.8636065  33.5187715  80.4952666  37.4592232  34.3519248
  81.4572197  38.9399788  34.1302288  80.6472718  40.7490738  29.9624276
  80.7175014  40.4415089  28.7665410  80.8469990  41.9958941  30.3617059
  80.6794032  42.2958390  31.3114659  81.2640926  43.0095051  29.3699874
  80.9613017  42.7070023  28.3675359  80.5958501  44.3454138  29.7002385
  80.8248889  44.5122121  30.7527682  81.0630626  45.1255284  29.0992112
  79.0853722  44.3838153  29.4969163  78.6119288  43.7217730  30.2219350
  78.5631523  45.7946990  29.6849662  79.0358286  46.4572817  28.9599421
  77.4833542  45.8057957  29.5365959  78.7942999  46.1367935  30.6937489
  78.7109842  43.8603606  28.1232218  79.0520385  42.8301470  28.0210392
  77.6283716  43.8978356  28.0021977  79.1831492  44.4764428  27.3579754
  82.7918364  43.0815706  29.3963804  83.3800839  42.7256321  30.4285232
  83.4527626  43.4578109  28.2840461  82.9245509  43.5442237  26.9947601
  82.0559051  44.2015362  27.0334264  82.6100011  42.5445236  26.6951651
  84.0266677  44.0895914  26.1150474  84.0090276  45.1793737  26.1023006
  83.9311318  43.7132431  25.0965503  85.3033746  43.5579429  26.7775150
  86.2109645  44.1409130  26.6209091  85.4751348  42.5280807  26.4644941
  84.9122576  43.5952609  28.2459413  85.3137928  42.6936848  28.7085733
  85.4925062  44.8340215  28.9499106  86.4378429  44.8298368  29.2756160
  84.9207648  45.6437704  29.0805613  95.9539093  59.7858236  29.9132921
  95.4967956  60.4620818  29.3184619  95.2572244  59.1541754  30.2817361
  96.7610943  59.4202904  29.4285887  96.4884260  60.4915664  31.0756341
  96.0305322  60.0864336  31.9780198  98.0165600  60.3445212  31.1908041
  98.2359235  59.2807431  31.0993989  98.4466087  60.8778072  30.3430045
  98.6221306  60.8801122  32.4903346  99.7045400  60.7692005  32.4256086
  98.3686434  61.9387006  32.5472026  98.1130567  60.1690179  33.7367201
  97.6492534  60.8491217  34.6874851  98.1647396  58.9203594  33.7671830
  96.0649079  61.9584122  31.0982175  96.1062067  62.6055942  32.1489676
  95.6431093  62.4843172  29.9627881  95.6727476  61.9485727  29.1071020
  95.1560894  63.8460499  29.9032938  95.8707470  64.5933470  30.2481282
  94.7566017  64.1792747  28.4486599  93.9840879  63.4770989  28.1351764
  94.2307725  65.6017054  28.3210143  95.0029468  66.3045193  28.6339029
  93.9604254  65.7979470  27.2834688  93.3517992  65.7228767  28.9541210
  95.8656614  63.9395706  27.5721198  95.6115976  64.1482625  26.6701776
  93.9608636  64.0312815  30.8300849  93.8801976  65.0094711  31.5849910
  92.9622896  63.1566591  30.7026034  93.0313777  62.3617889  30.0833236
  91.7038040  63.3723201  31.4164573  91.4060402  64.4181920  31.3417050
  90.6037965  62.5072517  30.8069810  91.0251423  61.5050732  30.8857539
  89.7575885  62.5996015  31.4877919  90.1360217  62.7485846  29.3833592
  90.9976439  62.7290577  28.7160311  89.0995913  61.6192348  28.9455637
  88.2374237  61.6384508  29.6121944  88.7714153  61.8033757  27.9225811
  89.5802636  60.6425808  29.0021462  89.4873806  64.1312803  29.2348246
  90.2114776  64.9028614  29.4964456  89.1634664  64.2723499  28.2036698
  88.6257897  64.2022052  29.8986994  91.8733950  63.0757641  32.9113521
  91.2863300  63.7578301  33.7701568  92.7173388  62.0859982  33.2118506
  93.0871105  61.5194276  32.4619400  93.0832236  61.7497677  34.5692692
  92.2203806  61.3677019  35.1148210  94.1610516  60.6663076  34.5392687
  94.7299626  60.7614067  33.6143928  94.8265171  60.8082708  35.3907980
  93.5215283  59.2481785  34.6114422  93.0125930  59.2125925  35.5746760
  92.7831443  59.2262511  33.8099371  94.6041233  57.8138212  34.4595835
  95.3649994  57.6660920  36.1210960  94.5841975  57.5169892  36.8668947
  96.0468808  56.8158259  36.1347275  95.9169220  58.5775106  36.3508762
  93.5517870  62.9835347  35.2906015  92.9393755  63.3809146  36.3035015
  94.5998042  63.6261646  34.7460578  95.0399043  63.2336259  33.9261037
  95.1213573  64.8855258  35.2774453  95.6538425  64.6926054  36.2087565
  96.0886147  65.5503265  34.2879934  95.5571328  65.6789326  33.3450795
  96.3556359  66.5275886  34.6901856  97.3173725  64.7600684  34.0571504
  97.6158808  63.8840978  34.8922990  97.9816068  65.0191174  33.0429702
  94.0145331  65.8944135  35.5408814  93.9039453  66.4915923  36.6175958
  93.2129924  66.1262872  34.5109726  93.3398524  65.6926408  33.6076693
  92.1590050  67.1072229  34.6593089  92.5565782  68.0276748  35.0868638
  91.5621669  67.4229491  33.2931090  92.3784181  67.5369915  32.5797876
  90.9315672  66.5863611  32.9921695  90.7515998  68.6689582  33.3215427
  89.7001294  68.4335858  33.1568896  90.8655881  69.1660121  34.2848942
  91.2360277  69.5742009  32.2332457  90.5924963  70.4513937  32.1661701
  92.2586739  69.8894481  32.4404016  91.2120096  68.8742672  30.9448980
  91.9521765  68.2142797  30.7534065  90.2782703  69.0622847  30.0232857
  89.3273655  69.9626160  30.1848854  89.3042940  70.5230991  31.0247821
  88.6269476  70.0871417  29.4679420  90.2965828  68.3263607  28.9111731
  91.0194704  67.6333591  28.7797108  89.5874811  68.4654194  28.2055271
  91.0715915  66.6547633  35.6409672  90.2946820  67.4956174  36.1020366
  90.9748401  65.3645757  35.9680774  91.4174942  64.6330059  35.4305253
  90.1234100  64.9802770  37.0911991  89.3495697  65.7393941  37.2052676
  89.4643561  63.6027759  36.8807953  90.2499089  62.8966145  36.6118282
  88.7034452  63.0803285  38.1649363  87.9173826  63.7857866  38.4342600
  88.2607309  62.1067460  37.9545985  89.4070205  62.9878474  38.9922985
  88.4680847  63.7117654  35.7553857  87.5382337  64.1270125  36.1440342
  88.8695920  64.3753161  34.9894929  88.2058010  62.3855026  35.1676994
  87.8038111  61.7214882  35.9329372  87.4842138  62.4831867  34.3566081
  89.1351705  61.9697907  34.7783977  90.9010546  65.0001226  38.4065504
  90.4307844  65.5712636  39.3968033  92.0901753  64.3643137  38.4489533
  92.4692246  63.8648732  37.6571325  92.8210892  64.3133794  39.7161232
  92.1693206  63.9182997  40.4953593  94.0563433  63.4129375  39.6078009
  94.4461629  63.2655545  40.6149842  93.7315657  62.4553801  39.2007342
  95.1591424  64.0023834  38.7129010  94.7923769  64.0005447  37.6864603
  95.3355181  65.0291871  39.0333192  96.4587228  63.2185993  38.7874287
  97.2689085  63.8377701  38.4022979  96.6600043  62.9637126  39.8279179
  96.3588690  61.9341141  37.9572528  97.2458407  61.3345880  38.1620704
  95.4714244  61.3928857  38.2852972  96.2656000  62.2001308  36.4883638
  97.0880326  62.7012613  36.1841066  96.2022444  61.3234625  35.9908309
  95.4435451  62.7552925  36.2983104  93.1945194  65.7247786  40.1678048
  93.5773551  65.9144274  41.3321236  93.0348739  66.7143463  39.2909690
  92.8769850  66.5092795  38.3146914  93.1585657  68.1131308  39.6936341
  93.9388404  68.2126887  40.4481928  93.5300491  68.9941801  38.4800686
  94.3275736  68.4813672  37.9424099  92.6462031  69.0564154  37.8452118
  93.9921673  70.4082976  38.8524279  94.2441193  70.3936471  39.9128082
  94.8893518  70.6155890  38.2691679  92.9576783  71.4916908  38.5926169
  92.6294389  71.4205675  37.5556504  92.1069848  71.3290824  39.2544164
  93.5493661  72.8963487  38.8502362  92.8236272  73.5923031  38.4294618
  93.5675500  73.0028412  39.9348688  94.9274393  73.2013833  38.2886776
  94.9106967  73.1031813  37.2836026  95.1876942  74.1468926  38.5302961
  95.6001474  72.5568798  38.6787777  91.8665176  68.5994702  40.3542269
  91.8431969  68.9058557  41.5483366  90.7887939  68.7092079  39.5796035
  90.8290303  68.4581502  38.6021321  89.5327521  69.2286600  40.1090395
  89.6684616  70.2516605  40.4599699  88.4706487  69.2253902  39.0181263
  88.9269475  69.6507925  38.1243011  88.2062795  68.1847453  38.8303307
  87.2293106  70.0032709  39.3662960  86.8086861  69.6012426  40.2880059
  87.4822857  71.0536132  39.5108186  86.1756347  69.9018840  38.2635917
  85.0587838  70.4105221  38.4052829  86.5273773  69.2341752  37.1669061
  85.8699983  69.1361862  36.4064113  87.4500006  68.8286566  37.1004055
  89.0293461  68.4292575  41.2918442  88.0641903  68.8626495  41.9269021
  89.6340819  67.2681653  41.5681802  90.2015315  66.8094787  40.8698201
  89.4731849  66.6223380  42.8548893  88.4305044  66.6816027  43.1669859
  89.8743010  65.1596317  42.7778631  90.9063844  65.2116968  42.4311755
  89.8543249  64.7924152  43.8039494  89.0888806  64.2144256  41.8872464
  89.0753616  64.5578916  40.8528629  89.8206289  62.8834134  41.9696598
  89.8341556  62.5390572  43.0037462  89.3089563  62.1478580  41.3489745
  90.8438722  63.0082026  41.6153983  87.6911462  64.0667887  42.2625542
  87.1969080  65.0370792  42.2139280  87.2013709  63.3753689  41.5768720
  87.6263942  63.6771421  43.2784683  90.3129952  67.3108278  43.9256935
  89.8801631  67.4260293  45.0763164  91.5301919  67.7267193  43.5738931
  91.9475719  67.4459170  42.6980830  92.3164419  68.5507790  44.4801582
  92.5873116  67.9857946  45.3720783  93.6298410  69.0001845  43.7542149
  94.2037555  68.1230534  43.4552792  93.3795956  69.5882429  42.8712288
  94.4610478  69.8494380  44.7117847  93.8849040  70.7459578  44.9407201
  94.6072449  69.2695664  45.6230900  95.8042608  70.2453871  44.1465758
  96.4531622  69.3819748  43.9997931  95.7048539  70.7884789  43.2067519
  96.4225225  71.1363719  45.1434000  95.8900250  71.3253872  45.9805494
  97.6170943  71.6678321  45.0276314  98.0682950  72.4693938  46.0069019
  97.4882823  72.6519745  46.8133445  98.9854462  72.8857462  45.9321753
  98.4012734  71.4211689  44.0055466  98.0893192  70.8013677  43.2716317
  99.3134078  71.8521818  43.9571983  91.5157258  69.7519977  44.9599263
  91.5399741  70.1050529  46.1536788  90.7727844  70.3862473  44.0596006
  90.7290942  70.0763176  43.0993225  90.0261614  71.5865821  44.4355268
  90.6427864  72.1990198  45.0933968  89.6353634  72.4231704  43.2110420
  88.6591757  72.0553617  42.8950142  89.5388772  73.4490697  43.5664587
  90.5940509  72.3834020  42.0375525  91.5809854  72.7017435  42.3732901
  90.6482595  71.3576353  41.6729111  90.1242337  73.2910120  40.9214231
  88.9655062  73.7990263  41.0571179  90.8997606  73.4922369  39.9448508
  88.7409510  71.2791140  45.2205055  87.9002109  72.1644708  45.4284679
  88.5114715  70.0315449  45.6239303  89.1099032  69.2850010  45.3004321
  87.3718643  69.6881993  46.4671113  86.7480987  70.5662776  46.6344256
  86.5283931  68.6133367  45.7767551  87.1620220  67.7744334  45.4889097
  85.7291243  68.2579093  46.4270941  85.8552563  69.1195084  44.4878211
  85.9076707  70.3761894  43.9736988  86.4778302  71.1146325  44.5373652
  85.2010993  70.4380952  42.8100522  85.1016098  71.2589048  42.2299892
  84.6508055  69.2126157  42.5532298  83.8649452  68.7889862  41.5056939
  83.6087637  69.4940292  40.7148816  83.4531510  67.4889322  41.5313082
  82.8078779  67.1296887  40.7296432  83.8319779  66.5972282  42.5551242
  83.5082876  65.5563998  42.5556862  84.6197407  67.0208515  43.5780353
  84.9359829  66.2871217  44.3194746  85.0330606  68.3572643  43.6040224
  87.7877073  69.2268047  47.8555484  87.2714193  69.6436995  48.8915447
  88.8430474  68.2567118  47.8342184  89.1518836  67.8785565  46.9500701
  89.5326161  67.8131936  49.0662532  89.2051850  68.4491778  49.8886960
  89.2518095  66.3615972  49.4319369  88.1779203  66.2381381  49.5720050
  89.5821469  65.7439366  48.5967886  89.9789492  65.9353248  50.6949716
  90.1160036  66.7805020  51.6012301  90.3881342  64.7653285  50.7706173
  91.0154947  67.9544663  48.7447131  91.4377187  67.6369005  47.6335255
  91.7937457  68.3879840  49.6005505  91.3749515  68.5385788  50.5072103
  93.2016795  68.8037173  49.3992837  93.3271270  69.1184050  48.3632655
  93.6187799  69.9641201  50.3195438  93.4311131  69.6349639  51.3415695
  94.6896593  70.1074280  50.1753903  92.8891664  71.2854651  50.0674690
  91.8288954  71.1221511  50.2604837  93.2809857  72.0085946  50.7827735
  93.0708145  71.8212275  48.6531311  92.0569068  72.0964038  47.9642899
  94.2354375  71.9771398  48.2284210  94.1146181  67.5950397  49.5470755
  95.3146262  67.8633556  49.5564648  93.8436017  66.3116036  49.6656332
  92.8585284  66.1468628  49.8159344  94.7533012  65.1544127  49.6700945
  95.5995308  65.3646177  50.3241652  94.0464179  63.8799999  50.1732137
  93.1798038  63.6818691  49.5424812  94.7758106  63.0795126  50.0494953
  93.5937989  63.9060050  51.6288914  93.2846688  64.9553688  52.2183515
  93.4967565  62.7288961  52.2317698  93.2016603  62.6818914  53.1965540
  93.7183867  61.8847820  51.7233878  95.3199151  64.9477678  48.2709449
  94.5918763  65.1041296  47.2894142  96.6257568  64.6268148  48.1917255
  97.1461320  64.5964020  49.0568175  97.3556183  64.4510726  46.9374042
  96.9750157  65.1568148  46.1990487  98.8665557  64.6951958  47.1189640
  99.0536740  64.4505323  48.1645384  99.3995148  63.9906368  46.4804882
  99.3597544  66.1204904  46.8310158  98.7947753  66.5162919  45.9870723
  99.1754133  67.0363404  48.0419320  99.7405118  66.6414103  48.8862026
  99.5357150  68.0362362  47.8000814  98.1184464  67.0850244  48.3037548
 100.8133940  66.1137125  46.4188883 100.9332619  65.5125145  45.5176158
 101.1400226  67.1344699  46.2202195 101.4170468  65.6892558  47.2210969
  97.1256718  63.1177769  46.2350190  96.9951953  62.0854595  46.8321913
  97.0808415  63.1913921  44.8804600  97.1113734  64.1391559  44.5327375
  96.9150711  62.0991331  43.9119438  95.9828748  61.5719048  44.1147725
  96.8725212  62.6347301  42.4763870  96.2587711  63.5355099  42.4787805
  97.8924391  62.8913881  42.1900405  96.2965701  61.6252065  41.4697448
  95.5154767  61.0577860  41.9757368  95.8595901  62.1883141  40.6450870
  97.3470958  60.6696121  40.9295375  98.1234844  61.2442838  40.4244908
  97.7865366  60.1183847  41.7608855  96.7159460  59.6832650  39.9394171
  95.9026930  59.1695749  40.4520989  96.3133097  60.2584286  39.1056485
  97.6946292  58.6763997  39.4236425  98.0675183  58.1430427  40.1960308
  97.2290624  58.0541988  38.7784963  98.4480700  59.1521676  38.9481732
  98.0154993  61.0606260  44.0863191  97.7669287  59.8611443  43.9301608
  99.2286275  61.5538618  44.4346168  99.2345471  62.5638081  44.4431550
 100.4851513  60.8479831  44.7153431 101.0218609  60.6460217  43.7883838
 101.3804585  61.7321086  45.6243734 101.5321991  62.6929481  45.1325794
 100.7785475  61.8749258  46.5218178 102.7313147  61.1391182  46.0080345
 103.6061287  61.0149894  45.1148708 102.9344336  60.8549340  47.2097983
 100.2917211  59.4642986  45.3492847 100.8859601  58.4836586  44.8820168
  99.4533554  59.3921022  46.3973966  99.0408003  60.2487396  46.7380870
  99.2083032  58.1667674  47.1392296  99.8015812  57.3477317  46.7326574
  99.6127248  58.3844702  48.6144905 100.6098522  58.8237982  48.6432521
  98.8866534  59.1079713  48.9852553  99.5816340  57.1486990  49.4846536
 100.5615816  56.3650096  49.4411267  98.6050402  56.9904662  50.2538018
  97.7606427  57.6594627  46.9867473  97.5427090  56.6343465  46.3378415
  96.7826660  58.3962183  47.5547066  97.1144653  59.2041080  48.0619765
  95.3521203  58.0757403  47.6158052  95.1911205  57.2470615  48.3053483
  94.5465586  59.2804779  48.1031982  93.4911250  59.0554457  47.9498372
  94.7412866  59.3980729  49.1691965  94.8763507  60.4830467  47.4271668
  94.3419257  61.2015516  47.7732020  94.7149477  57.5050238  46.3286647
  93.9916469  56.5137012  46.4113538  94.9128554  58.0224350  45.1942497
  95.5692809  58.7900313  45.1951933  94.1882362  57.7212253  43.9409350
  93.2243765  57.2615517  44.1595071  93.9467473  59.0213563  43.1752617
  94.8596404  59.5985793  43.3220241  93.8352261  58.7814613  42.1178529
  92.7463987  59.8415719  43.6398471  92.6030356  59.6816497  44.7084784
  92.9693043  61.3187189  43.3753496  93.1122950  61.4794987  42.3067981
  92.1012550  61.8841064  43.7143602  93.8547437  61.6553523  43.9145855
  91.4825263  59.3697818  42.9501184  91.3078226  58.3206380  43.1886040
  90.6366983  59.9655665  43.2932174  91.5925353  59.4832518  41.8716373
  94.8724251  56.6258265  43.0959114  96.0999862  56.5835376  43.0264113
  94.0854564  55.6598868  42.3948671  92.6747240  55.4602014  42.4891411
  92.1941760  56.4267892  42.3378730  92.4589529  55.1012805  43.4954798
  92.3006505  54.4528942  41.4252411  92.0836416  54.9498258  40.4796909
  91.4352025  53.8665551  41.7339602  93.5505051  53.5703789  41.3201539
  93.6719198  53.1292691  40.3308209  93.5898709  52.7849558  42.0749124
  94.6523877  54.5866979  41.5714392  95.4316272  54.0829039  42.1433445
  95.2431459  55.1353607  40.2886439  94.9078005  56.2338515  39.8500275
  96.1671475  54.3579745  39.6345751  96.3331037  53.4166877  39.9609752
  96.9651254  54.8537053  38.5194378  96.8663197  55.9361297  38.4376207
  98.4479704  54.5111972  38.7505912  98.9558999  54.4451745  37.7884332
  98.9087418  55.2955819  39.3510330  98.5588364  53.2624280  39.4335504
  99.4857363  53.0557268  39.5740175  96.5552448  54.3306463  37.1460875
  96.9490513  54.9289652  36.1422389  95.9492239  53.1408995  37.1041201
  95.8302763  52.6014350  37.9496547  95.4892968  52.5535181  35.8271439
  96.3183815  52.5633463  35.1195981  94.9968621  51.1149238  35.9825647
  94.2358319  51.0909615  36.7625378  94.5575079  50.7969092  35.0370836
  96.0987479  50.1479967  36.3527720  96.4009145  49.9609436  37.5284571
  96.7035000  49.5275589  35.3526976  97.4466218  48.8711846  35.5451620
  96.4191973  49.7132115  34.4014847  94.3921134  53.4795753  35.3206189
  93.7325311  54.0733704  36.1593868  94.2457868  53.7417208  34.0097042
  95.0413283  53.3615442  32.8601240  95.3159936  52.3137575  32.9817889
  95.9418770  53.9756180  32.8650689  94.1879229  53.5996388  31.6347738
  93.5843610  52.7212670  31.4061365  94.8079762  53.8480172  30.7734124
  93.3117687  54.7909786  32.0402083  92.3551797  54.7546665  31.5189425
  93.7618374  55.7743937  31.9044415  93.1042492  54.5155617  33.5205833
  93.0617042  55.4803210  34.0260807  91.8179897  53.7226074  33.8200777
  90.8220473  54.3534719  34.0982676  91.8633576  52.3904388  33.7195552
  92.7175944  51.9716918  33.3803948  90.6809584  51.4998536  33.9577779
  89.7632621  51.8864448  33.5145174  90.9244335  50.0558712  33.4609711
  90.1777480  49.3981311  33.9058745  90.8211390  49.9869593  31.9418492
  91.5678770  50.6441338  31.4961982  90.9954699  48.9629962  31.6113813
  89.8260964  50.3043978  31.6300443  92.2425111  49.4480585  33.9621859
  92.9898581  49.6603737  33.1976628  92.4987332  49.9808982  34.8778996
  92.2109083  47.9620068  34.2364292  91.9551906  47.4284321  33.3210023
  93.1906447  47.6354413  34.5850990  91.4640636  47.7489564  35.0012380
  90.2409324  51.5199138  35.4346942  89.0269179  51.3762164  35.6622437
  91.1628374  51.5895286  36.4086469  92.1452598  51.5806912  36.1744088
  90.7859824  51.6057507  37.8263627  89.8963898  50.9965851  37.9864924
  91.9231187  51.0370009  38.6659166  92.7654360  51.7195479  38.5530880
  91.6112620  51.0150695  39.7101218  92.3405374  49.6425928  38.2332971
  91.6312853  48.9919587  37.4206529  93.3808705  49.1815996  38.7345809
  90.4079734  53.0057011  38.3187162  89.4637223  53.1681408  39.1024644
  91.1447026  54.0199158  37.8977260  91.9938553  53.8722251  37.3712031
  90.7855784  55.3826041  38.2594047  90.8487733  55.5289964  39.3376787
  91.7827199  56.3430148  37.5711532  92.7788329  55.9525442  37.7794576
  91.6277302  56.3852928  36.4930572  91.7657366  57.7583719  38.0624799
  90.9019162  58.6840881  37.4885412  90.2278088  58.3515817  36.6991626
  90.8863611  60.0235679  37.9064133  90.1862502  60.7284083  37.4579209
  91.7484863  60.4425223  38.8746030  91.7462900  61.4842041  39.1955299
  92.6360201  59.5346902  39.4560139  93.3172600  59.8745784  40.2360706
  92.6551571  58.1976926  39.0443875  93.3641759  57.5002256  39.4904054
  89.3439545  55.6526860  37.8763262  88.5663740  56.1789487  38.6821575
  88.9476758  55.2482669  36.6651348  89.5663468  54.7489192  36.0422405
  87.6092046  55.5807958  36.1903945  87.4748108  56.6624775  36.1918526
  87.4032632  55.0641846  34.7641273  86.5738592  55.6263768  34.3350258
  88.3152609  55.2819922  34.2083214  87.1215383  53.6681770  34.6865142
  87.0047930  53.4159070  33.7676398  86.5291767  55.0224179  37.1024772
  85.4595489  55.6303494  37.2115678  86.7864163  53.8726116  37.7390133
  87.6524337  53.3899703  37.5462163  85.8347865  53.2476755  38.6497023
  84.8162208  53.3730694  38.2824157  86.1365556  51.7690329  38.7418187
  87.2176630  51.6622885  38.8307664  85.6565335  51.3485008  39.6254655
  85.6590349  51.0363032  37.5144446  84.4495125  51.3211622  36.9339414
  83.8331366  52.0948658  37.3917219  84.0055820  50.6634060  35.8068902
  83.0437221  50.9172008  35.3613394  84.7824108  49.6651487  35.2511940
  84.3684981  49.0141405  34.1321048  83.5203458  49.3264526  33.8085333
  85.9908881  49.3352779  35.8221659  86.6156801  48.5449929  35.4060108
  86.4138469  50.0377041  36.9607836  87.3673316  49.7932732  37.4289937
  85.8860701  53.9261652  40.0141930  84.8459908  54.3326298  40.5604232
  87.0820597  54.1131626  40.5742412  87.9156786  53.6421239  40.2528359
  87.1881538  54.9950597  41.7379179  86.8743118  54.4646721  42.6369682
  88.6083885  55.4447545  41.9176568  89.2737514  54.5846952  41.8422286
  88.9089311  56.2007013  41.1921786  88.8262492  56.0300962  43.2505321
  89.3605139  55.4089271  44.3493948  89.6548902  54.3663389  44.2291775
  89.4088876  56.2736060  45.4031539  89.7972538  56.0723806  46.3135272
  88.8651319  57.4625571  45.0202518  88.6900931  58.6350122  45.7391069
  89.0009440  58.6677546  46.7833283  88.1236810  59.6990283  45.0694890
  87.9694216  60.6375319  45.6019502  87.7348901  59.6087583  43.7056174
  87.3039677  60.4597182  43.1781017  87.8935119  58.4430950  43.0176550
  87.5575076  58.4101893  41.9812579  88.4849700  57.3436872  43.6668004
  86.2829806  56.2075991  41.6310503  85.4071980  56.4406799  42.4617759
  86.4011828  56.9226015  40.5107322  87.0779281  56.6787171  39.8017643
  85.5937215  58.1361151  40.3157371  85.5628481  58.8421700  41.1455759
  86.0949302  58.8776517  39.0542387  86.0987801  58.1785432  38.2179782
  85.2292975  60.0240425  38.7311515  85.2253077  60.7238627  39.5668170
  85.6068861  60.5253044  37.8399368  84.2139598  59.6728359  38.5471815
  87.5603210  59.2052814  39.2543501  88.1232512  58.2828175  39.3967296
  87.9390141  59.7296765  38.3770240  87.6746145  59.8394289  40.1334945
  84.1116155  57.7939134  40.2158618  83.2494663  58.5682966  40.6098954
  83.7932506  56.6429210  39.6228643  84.4957885  56.0010140  39.2844929
  82.3905766  56.3013446  39.4213072  81.8474624  57.1302304  38.9673529
  82.3039684  55.0967644  38.4938188  82.8355663  54.2557716  38.9390545
  81.2584932  54.8270401  38.3443847  82.7557629  55.3440000  37.5331651
  81.7223176  55.9951435  40.7545007  80.5433142  56.3137238  40.9927999
  82.4730967  55.3546913  41.6334232  83.4117603  55.0613250  41.4033229
  81.9577799  55.0288488  42.9320206  80.9464621  54.6361065  42.8267163
  82.8333996  53.9564545  43.5839038  83.8472116  54.3382618  43.7043549
  82.4248280  53.6974055  44.5606653  82.8527494  53.0687459  42.9516868
  81.8958968  56.2444131  43.8400750  81.0664203  56.2670173  44.7487063
  82.7556466  57.2495848  43.6512121  83.4058022  57.2802510  42.8789060
  82.8564211  58.2766517  44.6805109  82.2570302  57.9989598  45.5475270
  84.3062648  58.4272912  45.1195087  84.9607829  58.3983919  44.2483773
  84.4139289  59.3882892  45.6224910  84.7289577  57.3211306  46.0845951
  84.4863110  57.3724063  47.3150240  85.3499106  56.2970700  45.5398481
  85.6573033  55.5298085  46.1202956  85.5163132  56.2829575  44.5437498
  82.2522011  59.6110214  44.2988296  82.2830250  60.5339561  45.1145462
  81.6166201  59.6885266  43.2498217  81.4822506  58.8995954  42.6336791
  80.9986728  60.9604103  42.8899589  81.5956548  61.7929580  43.2622168
  80.9140764  61.0618233  41.3889693  81.1343335  60.0384539  41.0851586
  79.8633418  61.2791002  41.1970120  81.7758501  62.0156148  40.6021391
  81.4807081  63.0432457  40.8141926  83.2073733  61.8135706  41.0043186
  83.5033985  60.7862238  40.7921240  83.8432034  62.4977752  40.4424601
  83.3168149  62.0097442  42.0709201  81.5563843  61.7365080  39.0945223
  80.5062335  61.8888647  38.8453836  82.1714388  62.4166474  38.5052688
  81.8368131  60.7073132  38.8704317  79.5823921  61.0848627  43.4223446
  78.7795420  60.1742292  43.1990074  79.1926472  62.2650775  44.0146807
  79.9629213  63.3371496  44.4527208  80.5945324  63.6537340  43.6226955
  80.5897931  62.9837339  45.2713953  78.9963198  64.4140466  44.8903444
  78.7300925  65.0595271  44.0533396  79.4245892  65.0166467  45.6913187
  77.7847949  63.6187575  45.3915944  76.8168263  64.1182096  45.3505646
  77.9754486  63.2801063  46.4099588  77.7951994  62.4330262  44.4402048
  77.5538843  61.5470683  45.0275241  76.7687542  62.6034559  43.3401848
  76.1938154  63.6776082  43.2148441  76.4366844  61.5467952  42.6142862
  76.7695284  60.6229122  42.8504101  75.6297031  61.7036979  41.4117108
  75.3572906  62.7544904  41.3130912  76.3991027  61.2552416  40.1609601
  75.7053758  60.9974326  39.3607239  77.2697079  62.4070519  39.7201046
  77.9640620  62.6651486  40.5197039  77.8308959  62.1194616  38.8310261
  76.6436668  63.2693745  39.4908200  77.2667693  60.0385981  40.4898264
  78.0110249  60.3430078  41.2257062  76.6236515  59.2710477  40.9203673
  77.9646997  59.4837251  39.2666375  78.6083999  60.2506120  38.8357844
  78.5679709  58.6217750  39.5516028  77.2210259  59.1786539  38.5304442
  74.3322821  60.9382426  41.5164663  74.2046744  60.0020841  42.2988931
  73.3443426  61.3903218  40.7220930  73.3920880  62.3000733  40.2860060
  72.1502431  60.5922362  40.5191005  71.5440539  60.6205959  41.4245449
  71.3121524  61.1091307  39.3554111  71.9623571  61.1983041  38.4851346
  70.5374783  60.3689298  39.1552044  70.6675957  62.4486600  39.6427802
  70.6915396  62.9668875  40.7779489  70.0987900  63.0600852  38.7179433
  72.5840807  59.1484991  40.2847991  73.6022092  58.8763731  39.6332442
  71.8554851  58.2140476  40.8833329  71.2672247  58.4356382  41.6738685
  71.9174091  56.8217819  40.4324673  72.8976133  56.4004301  40.6555402
  70.8362513  55.9772553  41.1619148  70.0060595  56.6632703  41.3300349
  70.5102658  55.1657231  40.5113390  71.2959157  55.4076705  42.4868811
  72.5329884  55.2534753  42.7191416  70.4118104  55.0631101  43.2803998
  71.7132473  56.7251849  38.9043823  72.2753573  55.8250848  38.2563768
  70.9163984  57.6353919  38.3162912  70.3371600  58.2820324  38.8324678
  70.8548341  57.6633415  36.8575467  70.4464958  56.7189718  36.4976511
  69.9754658  58.7956568  36.3545172  69.8412927  58.6992537  35.2771114
  69.0042600  58.7465869  36.8469109  70.5833167  60.0273895  36.6414904
  70.0260369  60.7411752  36.3228228  72.2454971  57.8113545  36.2755995
  72.5907018  57.1932825  35.2727726  73.0828950  58.5802121  36.9181325
  72.8614942  59.0219331  37.7990204  74.3730866  58.8759311  36.3000403
  74.2643495  58.9608066  35.2188042  74.9077665  60.2085447  36.8457026
  74.5889728  60.3044643  37.8836184  75.9967701  60.2091664  36.7991094
  74.3607465  61.3885467  36.0319279  73.2729514  61.3381476  35.9843615
  74.7673591  62.6439321  36.7028642  75.8551111  62.6952680  36.7503952
  74.3881483  63.4967348  36.1398123  74.3586351  62.6654542  37.7131028
  74.9179812  61.3237302  34.6298247  74.6178895  60.3860756  34.1620126
  74.5328749  62.1599152  34.0462246  76.0059490  61.3783498  34.6677954
  75.3322806  57.7245737  36.5554325  76.1240245  57.3416245  35.6856431
  75.3024110  57.2043753  37.7747087  74.8094422  57.6724684  38.5216825
  76.0206983  55.9738302  38.0850940  77.0944074  56.1574833  38.1240732
  75.5571158  55.4537975  39.4680225  74.5723350  55.0075446  39.3295871
  76.2645919  54.6835167  39.7750160  75.4789768  56.5440616  40.5580016
  75.3122210  57.5086758  40.0786136  74.6433428  56.3189652  41.2206851
  76.7910862  56.5966320  41.3812295  77.6274196  56.5509545  40.6836916
  76.8151262  57.5468143  41.9147790  76.9300526  55.5112603  42.3509091
  76.4973554  54.6251402  42.1325894  77.5841863  55.6329749  43.5092802
  78.1109321  56.7954997  43.8914071  78.0182635  57.6076992  43.2982422
  78.6005138  56.8592816  44.7725093  77.7276399  54.5564532  44.3039526
  77.3410977  53.6676827  44.0197479  78.2211938  54.6421573  45.1809692
  75.7981612  54.9034777  37.0019320  76.7258580  54.1994773  36.6212693
  74.5564764  54.7146643  36.5722435  73.7973887  55.2752368  36.9323042
  74.2421765  53.6534880  35.6211586  74.7288810  52.7243693  35.9177328
  72.7206045  53.4518506  35.6073363  72.2367556  54.4265190  35.6706772
  72.2751589  52.7434471  34.3242000  72.7582703  51.7684437  34.2603842
  71.1931956  52.6120448  34.3379642  72.5566094  53.3450780  33.4599517
  72.2219389  52.6049778  36.7931589  72.4822724  51.5696091  36.5732979
  72.7723222  52.9385125  37.6728931  70.7373905  52.7051442  37.0600513
  70.1863081  52.3713154  36.1808662  70.4775395  52.0762279  37.9115446
  70.4763575  53.7402200  37.2804594  74.7944320  54.0264993  34.2539708
  75.4693116  53.2261906  33.5740020  74.5486595  55.2693972  33.8386845
  73.8505739  55.8536515  34.2762032  75.2257322  55.7739047  32.6459399
  74.8345982  55.2942463  31.7486990  74.9797580  57.2671667  32.5437139
  73.8968660  57.3911164  32.5526960  75.4020750  57.7005098  33.4503352
  75.5622373  57.9742638  31.3232646  76.6377701  57.7973072  31.3192372
  75.1222595  57.5555247  30.4181794  75.3144900  59.4885365  31.3336281
  76.1366816  60.2955601  30.8756784  74.1821735  59.8700974  31.8802110
  73.9512110  60.8524195  31.9226481  73.5480218  59.1792960  32.2553728
  76.6985276  55.4139436  32.6627561  77.2523210  55.0402031  31.6270067
  77.3471175  55.4344195  33.8365218  76.9263228  55.5566724  34.7465138
  78.7963260  55.3013251  33.7576503  79.1578964  55.8299263  32.8756374
  79.4770007  55.8780079  34.9798450  79.0905606  55.3843054  35.8714845
  80.5539991  55.7223932  34.9169275  79.1867338  57.3555736  35.0581620
  78.1169096  57.5569161  35.0030406  79.7309986  57.8092485  36.4521454
  80.8009287  57.6086353  36.5078479  79.5548662  58.8771144  36.5815309
  79.2171226  57.2586804  37.2401217  79.8907135  58.0803823  33.9055723
  79.5276401  57.6903783  32.9546917  79.6795334  59.1481231  33.9641717
  80.9662993  57.9188104  33.9770477  79.1984448  53.8601424  33.6140153
  80.2907339  53.5441146  33.1411972  78.3489227  52.9696198  34.1504440
  77.5295724  53.3022712  34.6384066  78.5929290  51.5072041  34.1014429
  79.6311765  51.2913665  34.3535450  77.6840520  50.7936045  35.1123516
  77.6497236  51.4740146  35.9632117  76.6886653  50.7069603  34.6766935
  78.1577699  49.4144911  35.5807346  78.5569873  48.8762685  34.7210587
  79.2343337  49.5276957  36.6534475  78.8356879  50.0654353  37.5136896
  79.5467430  48.5300845  36.9621110  80.0916590  50.0686513  36.2528719
  76.9892855  48.5895519  36.1033478  76.2537403  48.4570999  35.3099191
  77.3498731  47.6142700  36.4303083  76.5266827  49.1059764  36.9444206
  78.3404246  51.0378730  32.6712416  79.0798245  50.1839971  32.2213286
  77.3638452  51.6369189  31.9728565  76.8306831  52.3606227  32.4333891
  77.0166985  51.2906979  30.5664191  76.7515228  50.2356474  30.4982323
  75.8233279  52.1269660  30.0935827  76.0292328  53.1556221  30.3895033
  75.8085659  52.0583878  29.0058423  74.4707080  51.7012805  30.6468642
  74.1054349  50.8907784  30.0161798  74.6391019  51.3274392  31.6568088
  73.4457603  52.8100141  30.6851669  73.6241807  53.4011962  31.5833700
  73.5939250  53.4346878  29.8042983  72.0241663  52.2869098  30.6994956
  71.8454440  51.7606607  29.7618278  71.9262958  51.5894080  31.5313679
  71.0311144  53.3786094  30.8505214  71.1213473  54.0248106  30.0795598
  70.0996618  52.9881310  30.8552917  71.1962802  53.8660992  31.7195284
  78.2075775  51.5568060  29.6428729  78.3210946  50.8393999  28.6287509
  79.0662287  52.5298308  29.9703232  78.8857457  53.0704516  30.8041424
  80.2423110  52.9006170  29.1263795  79.9873125  53.0827181  28.0823900
  80.9790553  54.1367945  29.7009562  81.2191048  53.9478301  30.7472683
  82.2544556  54.4094320  28.9322438  82.0151543  54.5989593  27.8858619
  82.7540478  55.2816185  29.3539059  82.9137523  53.5442949  29.0027054
  80.0981194  55.3917169  29.7842969  79.3653775  55.2066104  30.5697431
  80.7511111  56.2116841  30.0832201  79.3816427  55.7592837  28.5029332
  78.7280657  54.9399285  28.2036104  78.7862954  56.6580331  28.6638998
  80.1137999  55.9450001  27.7170865  81.1498759  51.6642323  29.0482588
  81.2888742  51.0098901  30.0951111  81.7217393  51.3450971  27.8781341
  81.5335670  51.9383766  27.0827034  82.5661185  50.1283312  27.6710651
  82.4847068  49.4762057  28.5406647  82.1171429  49.3534730  26.4373383
  82.0776854  50.0475732  25.5978341  82.8689532  48.5890443  26.2410475
  80.7642591  48.6969447  26.6129089  80.2580205  48.5119510  27.7385664
  80.1284678  48.3350854  25.6057430  84.0453896  50.5015620  27.5533716
  84.8474053  49.5715099  27.3258197  84.4053675  51.7754412  27.7057319
  83.6683285  52.4370665  27.9035317  85.7656104  52.2796602  27.5576520
  86.4808748  51.4590085  27.5026361  85.8421335  53.1019076  26.2231205
  85.4963365  52.4727101  25.4029777  85.1933308  53.9734373  26.3102485
  87.1645708  53.5239251  25.9667187  87.1877542  54.0238694  25.1475008
  86.1477196  53.1340527  28.7776242  85.3476421  53.9513009  29.2533565
  87.3742213  52.9119549  29.2762143  87.9137240  52.1097190  28.9838896
  87.9244176  53.7726084  30.3084379  87.2501300  53.7579254  31.1647205
  89.2970901  53.2556903  30.7566286  89.9859163  53.2730088  29.9120466
  89.6832762  53.8920343  31.5528867  89.1990088  52.2341375  31.1239285
  88.0124585  55.2356437  29.8257264  87.4949052  56.1344769  30.5084030
  88.6625975  55.5136064  28.6553649  89.1158042  54.7927422  28.1121726
  88.8024141  56.9150737  28.2133799  89.3114943  57.4960354  28.9824183
  89.5913046  57.0207494  26.8769273  89.1597293  56.3247471  26.1576054
  89.5216849  58.4332591  26.3193069  89.9535278  59.1298224  27.0379250
  90.0803035  58.4834139  25.3846784  88.4812344  58.7007766  26.1349264
  91.0553359  56.6187686  27.0842259  91.5174501  57.4051662  27.6809923
  91.0501580  55.6882150  27.6518022  91.8550717  56.4231316  25.7889319
  91.8610876  57.3534639  25.2210011  92.8791007  56.1402807  26.0327744
  91.3937937  55.6365138  25.1918096  87.4263610  57.5460966  28.1162927
  87.1344764  58.6118719  28.6813346  86.5395979  56.8460552  27.4524665
  86.7502219  55.9996714  26.9431813  85.1948506  57.3795153  27.3720360
  85.2230899  58.3861124  26.9548263  84.3163242  56.5008392  26.4729911
  84.7765891  56.3827351  25.4920187  84.1715415  55.5201857  26.9262643
  82.9713468  57.1919487  26.3212331  82.5847281  57.4134188  27.3160084
  83.1753404  58.1246372  25.7953236  81.9299514  56.4328438  25.5617390
  82.1100932  55.2625659  25.1573918  80.7798449  57.1011840  25.3852443
  80.0188042  56.6667216  24.8830880  80.6804480  58.0356550  25.7553600
  84.5835293  57.5397103  28.7642105  83.7938074  58.4729372  28.9832900
  84.9351735  56.6585958  29.7212735  85.5653843  55.8880882  29.5502421
  84.3208591  56.7733075  31.0488623  83.2568686  56.9762053  30.9269782
  84.4839453  55.4970309  31.8838030  84.4235588  54.6313574  31.2242107
  85.4585631  55.5142210  32.3715783  83.3709172  55.4062487  32.9576857
  83.6926944  55.9560175  33.8421712  82.4629517  55.8591030  32.5594097
  83.1023238  54.0113706  33.3205624  82.6522247  53.9594213  34.3119307
  82.4312352  53.5548058  32.5930405  84.3448691  53.2682957  33.3357288
  85.0950084  53.5990171  33.9256557  84.5456382  52.1857193  32.6101077
  83.6226698  51.7485586  31.7456900  82.7535062  52.2524400  31.6419686
  83.7993294  50.9166751  31.2008406  85.6844154  51.5173230  32.7514933
  86.3792580  51.8428073  33.4082686  85.8504282  50.6865686  32.2015973
  84.9007873  57.9760456  31.8076794  84.1622773  58.7553370  32.4409100
  86.1960384  58.2325705  31.6052605  86.7409652  57.5991373  31.0378837
  86.8804201  59.4017717  32.2089462  86.6866966  59.4364162  33.2810330
  88.3939423  59.2930789  31.9877465  88.4820813  59.1424366  30.9118108
  88.8571430  60.2413189  32.2604846  89.0999152  58.1512448  32.7217704
  88.4194948  57.3020552  32.7850629  90.3668781  57.7324492  31.9883590
  91.0480303  58.5810514  31.9250748  90.8494837  56.9195053  32.5308670
  90.1113723  57.3965681  30.9833709  89.4175014  58.5331052  34.1593366
  88.4924143  58.7652405  34.6869980  89.9187242  57.7014153  34.6544819
  90.0692901  59.4067133  34.1682410  86.3230753  60.6762141  31.5641786
  86.3828297  61.7147717  32.2435413  85.8349046  60.6331461  30.3109127
  85.8483480  59.7856530  29.7616640  85.3559805  61.8683045  29.6745688
  85.9619020  62.7136029  30.0008035  85.4587897  61.7511137  28.1329652
  86.5094521  61.5627880  27.9121910  84.8675443  60.8787063  27.8546952
  84.9701512  62.9923487  27.3188527  83.8810293  62.9496681  27.3284755
  85.3038444  63.8683217  27.8751100  85.4957948  63.0939964  25.7798492
  84.6146690  63.1765525  25.1435311  86.0869130  64.0064054  25.7011826
  86.3007698  61.9765927  25.3174854  85.7863881  61.1540584  25.0365080
  87.6358453  61.9413131  25.2688785  88.3961174  63.0005956  25.5734780
  87.9600492  63.8677460  25.8527534  89.4021912  62.9276322  25.5225713
  88.2362847  60.8181690  24.8668574  87.6794158  60.0166590  24.6068982
  89.2444951  60.7754257  24.8246243  83.9451058  62.1717595  30.1402398
  83.5280384  63.3321391  30.2332072  83.1635643  61.1490819  30.4474749
  83.3838600  60.1783464  30.2764727  81.8558633  61.4732561  30.9994470
  81.3926070  62.2810100  30.4328551  80.9674942  60.2547878  30.9170748
  81.1157406  59.7664966  29.9539061  81.2299553  59.5639457  31.7182935
  79.1761256  60.5437066  31.0662048  78.8189026  59.2685219  30.9429408
  81.9885330  61.9863803  32.4279733  81.2059493  62.8476972  32.8556648
  82.9919324  61.4929653  33.1615408  83.6092485  60.7867469  32.7870069
  83.1447271  61.8733514  34.5633914  82.2028561  61.7323620  35.0935803
  84.2235412  60.9972451  35.2333591  85.0025330  60.7743307  34.5042637
  84.6561058  61.5453554  36.0703555  83.5942753  59.6519932  35.7564623
  83.2102056  59.8372078  36.7596009  82.7634405  59.4417974  35.0829415
  84.5494493  58.4414337  35.7874353  85.7857322  58.6687703  35.5170769
  84.0959311  57.3183787  36.0950221  83.4252722  63.3544636  34.6597345
  82.6003969  64.0958893  35.2047994  84.5245379  63.8152391  34.0248605
  85.1777817  63.1700749  33.6039862  84.8454362  65.2480158  33.9973476
  85.1126327  65.5901717  34.9971649  86.0177445  65.4994894  33.0699339
  86.6598385  64.6548303  33.3196648  85.6390593  65.3797060  32.0548726
  86.8174023  66.7879973  33.1630187  87.6327060  66.7050594  32.4443379
  86.0092568  68.0736889  32.8784086  85.1939971  68.1575621  33.5970293
  86.6626755  68.9415030  32.9680931  85.6001472  68.0303336  31.8690276
  87.5012990  66.9483215  34.5220972  88.1838776  66.1145700  34.6865486
  88.0603518  67.8838647  34.5399916  86.7476216  66.9609192  35.3094412
  83.6392974  66.0990307  33.5912982  83.3914804  67.1538064  34.1924379
  82.8344090  65.6335211  32.6286386  83.0680802  64.8011067  32.1065435
  81.6145917  66.3626578  32.2654217  81.8330120  67.4265251  32.1728033
  81.0654865  65.8535297  30.9183479  81.7824484  66.0843657  30.1304521
  80.9658806  64.7722107  31.0128359  79.6918570  66.4681997  30.5612266
  79.5859475  67.7117281  30.4302095  78.7170547  65.7005605  30.3796758
  80.5205927  66.2648425  33.3223802  79.5745579  67.0699206  33.3054551
  80.6169091  65.3062563  34.2283464  81.3173801  64.5830375  34.1483823
  79.6689790  65.2333365  35.3391012  78.7312241  65.6285387  34.9485501
  79.4630430  63.7810381  35.7908541  80.4421500  63.3478182  35.9952320
  78.6013891  63.6840615  37.0285250  77.6218927  64.1166929  36.8247667
  78.4844115  62.6373694  37.3093322  79.0754765  64.2280755  37.8454639
  78.6978729  62.9164636  34.7864504  77.6479403  63.2068200  34.8243372
  79.0959145  63.1234024  33.7930529  78.8276897  61.3800791  35.0929945
  78.4293990  61.1722818  36.0861132  78.2664369  60.8122957  34.3508917
  79.8773742  61.0888647  35.0548310  80.1340617  66.0866758  36.5165493
  79.3426928  66.8456887  37.0914473  81.4224719  65.9784165  36.8996487
  82.0582647  65.3099084  36.4885965  81.9306548  66.8672968  37.9425078
  81.3661947  66.6916071  38.8582682  83.4097650  66.6444912  38.2319822
  83.9737558  67.2265215  37.5031102  83.6054456  67.0289549  39.2329801
  83.8493594  65.1460754  38.1544453  83.5204027  64.5845283  39.0288326
  83.4755278  64.6633323  37.2514996  85.7165842  65.1725953  38.1084769
  86.0381052  66.4221743  39.3260637  85.6234807  66.1111137  40.2849312
  87.1141162  66.5651881  39.4253012  85.5745423  67.3590628  39.0171127
  81.7749603  68.3065840  37.5254401  81.6295253  69.1836666  38.3709629
  81.8244742  68.5671136  36.2131681  82.0406980  67.8445898  35.5413749
  81.6217573  69.9301012  35.7241820  82.3407827  70.5926321  36.2060060
  81.8105691  70.0272174  34.1873812  81.2987103  69.1933816  33.7069463
  81.3516307  70.9644943  33.8727585  83.2858701  70.0252819  33.7372099
  84.2050569  69.9661602  34.5672685  83.5001564  70.0554560  32.4288732
  84.4461556  70.0558095  32.0750580  82.7163749  70.0779436  31.7922558
  80.2318640  70.4344577  36.1061429  80.0956239  71.4716421  36.7453895
  79.1744067  69.6845667  35.7832162  79.2941295  68.7847505  35.3403882
  77.7826091  70.1913194  35.9951194  77.7644739  71.2787179  35.9220787
  76.8508112  69.6139708  34.9276170  76.7736855  68.5451154  35.1268634
  75.8779310  70.0820995  35.0774825  77.3022366  69.8308107  33.4880291
  78.2389085  70.3873968  33.5189896  77.4780235  68.8488995  33.0486528
  76.2945256  70.5859605  32.6481118  75.3387307  70.0692696  32.7352072
  76.2037529  71.5893753  33.0640667  76.6868331  70.6786258  31.1878662
  75.8661932  71.1473903  30.6448096  77.5755712  71.3053621  31.1140735
  76.9709341  69.3483193  30.6008080  76.1474007  68.7675581  30.6686971
  77.2274515  69.4566106  29.6299466  77.7316119  68.9139615  31.1036017
  77.2342813  69.8853207  37.3939440  76.0134882  70.0082767  37.5688814
  78.0973483  69.5312345  38.3485960  79.0766232  69.4568523  38.1128261
  77.6803863  69.2141564  39.7442116  76.8061592  68.5631881  39.7360632
  78.8124436  68.4998408  40.4714499  79.7197197  69.1036079  40.4510891
  78.5339612  68.2981952  41.5058031  79.2559812  66.9065155  39.7533838
  80.2213030  66.6255178  40.6240689  77.3127642  70.5036174  40.4817022
  77.7119434  71.5754445  39.9987616  76.5710227  70.4142529  41.5944208
  76.1528831  69.5438743  41.8905619  76.2969130  71.6360537  42.3951533
  77.1503000  72.2882059  42.2093383  75.0241912  72.3260044  41.8628224
  74.1668623  71.6839373  42.0649051  74.8145692  73.6843933  42.5380240
  75.6713437  74.3272134  42.3359860  73.9108082  74.1503162  42.1453014
  74.7121394  73.5439081  43.6140689  75.2131123  72.6646719  40.4837364
  74.4228138  73.0944762  40.1486292  76.1487278  71.3124592  43.8784189
  77.0500028  70.6608347  44.4200949  75.0858337  71.8021420  44.5156174
  74.4917982  72.4422891  44.0082390  74.7571279  71.5107621  45.9352632
  75.6726477  71.2717040  46.4763490  74.0993051  72.6914729  46.6002904
  73.2218107  72.9776347  46.0204506  73.7916734  72.4024984  47.6052564
  74.9930970  73.7893953  46.6773456  74.5547648  74.5295327  47.1035632
  73.8539215  70.2756573  45.9922578  73.4265214  69.8442456  44.9149950
  73.6439810  69.6890432  47.1740454  74.1011913  70.0739049  47.9882564
  72.7895870  68.4792022  47.3486328  72.3833950  68.1574107  46.3896973
  73.6412291  67.3423785  47.9263546  74.3205281  67.8589632  48.6044345
  72.9955153  66.6756924  48.4979168  74.4532328  66.5241316  46.9151740
  73.8124777  66.2937573  46.0640210  75.6805464  67.2874143  46.4344008
  76.3220542  67.5177555  47.2849945  76.2316617  66.6768281  45.7191686
  75.3674548  68.2146530  45.9545026  74.8538433  65.1822334  47.5128449
  73.9584645  64.6223607  47.7829166  75.4293243  64.6152648  46.7810871
  75.4609330  65.3470857  48.4029936  71.6171007  68.7883775  48.2813319
  71.8548338  68.7797724  49.5048673  70.3957767  68.9965632  47.7632060
  70.2618132  69.0505535  46.7635870  69.2381444  69.1784837  48.6249220
  69.5106564  69.7629098  49.5037180  68.1458789  69.9218023  47.8652578
  67.3222058  70.1760533  48.5323546  68.5442192  70.8321675  47.4173067
  67.4199163  68.9750228  46.5125509  66.5632058  69.9167836  46.1278020
  68.7071728  67.8138642  49.1084763  68.8809373  66.7604228  48.4700211
  67.9905729  67.8590234  50.2244024  67.8968349  68.7301045  50.7269270
  67.3630980  66.6698481  50.7817975  68.0899176  65.8616432  50.8632717
  66.8243970  66.9781536  52.1648846  67.5918773  67.4853218  52.7495678
  66.5444596  66.0492383  52.6617262  65.3632698  68.0449013  52.0854393
  66.2416790  66.1817971  49.8610458  65.5405811  66.9670259  49.2087894
  66.0988040  64.8525564  49.8000716  66.6806310  64.2457185  50.3598256
  65.1648426  64.2392302  48.8529808  65.4353975  64.5256835  47.8366916
  65.2013838  62.7106388  48.9571072  66.2271773  62.3918710  48.7720832
  64.9159859  62.4424213  49.9743129  64.2605948  62.0133191  47.9603728
  63.2408812  62.3198495  48.1934480  64.5223605  62.3553341  46.9590704
  64.3597923  60.4979383  48.0197928  65.3772121  60.1987721  47.7678888
  64.1239222  60.1662573  49.0309567  63.3795331  59.8574491  47.0306344
  62.3744615  60.1836038  47.2981316  63.6258089  60.2218197  46.0332972
  63.4383851  58.3622661  47.0436833  63.2097911  58.0244109  47.9676413
  62.7755722  57.9934360  46.3767924  64.3695122  58.0598283  46.7954239
  63.7496393  64.7758680  49.0574641  63.0699982  65.1577603  48.0890364
  63.3188241  64.8610521  50.3285356  64.0129855  64.8428229  51.0619571
  61.9130092  64.8890141  50.7088192  61.3496165  64.1503161  50.1387199
  61.7872568  64.5558211  52.2036883  61.8091569  65.5086974  52.7325044
  60.8094455  64.0917388  52.3325792  62.8885822  63.6156752  52.7816442
  62.4795060  63.2021194  53.7034517  63.1135541  62.8049009  52.0887266
  64.1737578  64.3439162  53.1071433  64.2563384  65.5422892  52.9002216
  65.1910809  63.6212272  53.5528679  66.0655173  64.0723669  53.7807611
  65.0873626  62.6225828  53.6626552  61.2419185  66.2142527  50.3800051
  60.1890709  66.2183548  49.7294837  61.8793521  67.3447103  50.7194015
  62.7213341  67.2736330  51.2726776  61.3521969  68.7039651  50.4056376
  60.2845652  68.6128259  50.2057467  61.5480379  69.6482951  51.5886178
  60.9746019  69.2862810  52.4419740  61.2045445  70.6467125  51.3179243
  63.2560961  69.7679065  52.1757354  61.9977356  69.2536360  49.1225665
  61.3094367  70.0354450  48.4401522  63.2371302  68.8519024  48.7806891
  63.7150031  68.2406018  49.4272557  63.9562515  69.2725180  47.5403306
  64.9210327  68.7664930  47.5051884  63.1758332  68.9298883  46.2635886
  62.3956504  69.6855844  46.1722795  63.8809269  69.0348820  45.4390165
  62.5472129  67.5442633  46.2198845  63.3244608  66.7997063  46.0477760
  62.0595152  67.3456886  47.1742540  61.5196472  67.4315886  45.1206215
  61.8334985  67.1222942  43.9754349  60.2678494  67.6807448  45.4687674
  59.5334946  67.6219029  44.7778535  60.0523288  67.9286466  46.4238574
  64.2149475  70.7775557  47.5758117  64.4470215  71.3403298  46.4899135
  64.2680943  71.3927548  48.7636082  64.1415552  70.8388471  49.5986372
  64.3635107  72.8728954  48.9055077  64.4569633  73.3248231  47.9180224
  63.1165807  73.4530727  49.5957959  63.0236608  72.9412476  50.5536582
  63.3185168  74.5103568  49.7674706  61.8122695  73.3043663  48.8098246
  61.9241212  73.8472416  47.8712745  61.6855275  72.2419786  48.6015749
  60.5897679  73.8247907  49.5543609  59.4603785  73.7586220  49.0059247
  60.7542010  74.2942466  50.7000707  65.6373045  73.3573732  49.5926697
  66.1751130  74.3502778  49.0793622  66.1251027  72.7136134  50.6616740
  65.6840343  71.8592426  50.9708804  67.2349930  73.2366447  51.4400021
  67.3899342  74.3003812  51.2595664  67.0564007  73.0162788  52.9462732
  67.9695514  73.3385151  53.4466929  65.8736254  73.7907068  53.5033555
  64.9599838  73.4686625  53.0037094  65.7873520  73.6029990  54.5735993
  66.0239081  74.8567605  53.3329286  66.9268919  71.6224712  53.2337620
  66.8158759  71.4997655  54.1793935  68.5057508  72.5656898  50.9229497
  68.5746921  71.3417697  50.8568302  69.4747521  73.3550552  50.4523462
  69.2894565  74.2980432  50.1416395  70.8168652  72.8153972  50.2624812
  70.7482219  71.9428250  49.6128619  71.7936141  73.8231463  49.6308355
  72.7351851  73.2943369  49.4828358  71.3756301  74.0978026  48.6623556
  72.0432993  75.0873090  50.4550485  71.0761452  75.5375897  50.6785681
  72.5203088  74.7728185  51.3833033  72.9276383  76.1081467  49.7506355
  73.3031074  77.1326517  50.3750821  73.2608233  75.8826724  48.5677737
  71.3103830  72.2823045  51.6138913  70.9786190  72.8180764  52.6795038
  72.0940834  71.2068324  51.5824046  72.3537959  70.7494655  50.7201609
  72.5642551  70.6299444  52.8429251  72.2716949  71.2587106  53.6838537
  72.0480433  69.1801985  53.0753348  72.5746425  68.5159800  52.3900558
  72.2837717  68.7080974  54.5378605  71.7570627  69.3716054  55.2237435
  71.9090039  67.6914976  54.6569173  73.3507410  68.7297524  54.7596865
  70.5589945  69.0471621  52.7163500  70.4004875  69.6102227  51.7966005
  70.3679396  67.9899807  52.5320541  69.6170955  69.5496441  53.7816576
  69.8072506  70.6069481  53.9661818  68.5876211  69.4189555  53.4481876
  69.7747045  68.9867072  54.7016365  74.0884338  70.6359310  52.8623996
  74.6971344  70.6908987  53.9332568  74.7128859  70.4922069  51.6838259
  74.1986851  70.2294732  50.8551716  76.1594208  70.6463710  51.5800654
  76.4420605  71.6096626  52.0046631  76.9007961  69.5480649  52.3294834
  76.5763016  69.5280386  53.3698692  76.5961201  68.2285632  51.6857686
  76.9207765  68.2476680  50.6454163  77.1228538  67.4349491  52.2157002
  75.5229311  68.0425044  51.7275772  78.3114968  69.7804051  52.2757269
  78.7690091  69.0828492  52.7508044  76.5478047  70.6603210  50.1078818
  75.6944934  70.6371214  49.2042323  77.8636519  70.7289758  49.8687260
  78.5464466  70.6689669  50.6105411  78.3395196  70.9224830  48.5068501
  77.5647218  70.6121578  47.8057896  78.7093770  72.3928734  48.2143971
  79.0964221  72.4522778  47.1971620  77.5197501  73.3102787  48.3538545
  77.1324143  73.2517622  49.3710302  77.8234038  74.3349769  48.1396416
  76.7427531  73.0078247  47.6517877  79.7309452  72.7923855  49.1382594
  79.9740705  73.7059200  48.9710915  79.5622955  70.0664151  48.2287389
  80.2137267  69.5392343  49.1397953  79.9054434  70.0079680  46.9340755
  79.3227793  70.4597798  46.2438088  81.0482147  69.2279590  46.4710013
  80.9236484  68.1853686  46.7635551  81.1703267  69.2971275  44.9449737
  81.9203977  68.5670573  44.6408517  80.2035678  69.0209132  44.5240427
  81.5732960  70.6894619  44.4320715  80.8462004  71.4076526  44.8110635
  82.5580690  70.9219071  44.8374027  81.6188557  70.7678006  42.9157215
  82.2750172  69.9825996  42.5402078  80.6130084  70.6186566  42.5231317
  82.1462527  72.1337282  42.4629975  83.1272530  72.2790995  42.9153316
  82.2470438  72.1094021  41.3779405  81.2451342  73.2612909  42.8544586
  81.1519491  73.2842736  43.8598879  81.6387368  74.1340421  42.5327719
  80.3361902  73.1270008  42.4350707  82.3290939  69.6596199  47.1360234
  83.1987947  68.8229095  47.4121579  82.4550923  70.9609338  47.4121494
  81.7109324  71.5868751  47.1391607  83.6671265  71.5373373  47.9994093
  84.5501658  71.2205509  47.4444433  83.5696754  73.0823968  47.9348780
  82.8485290  73.4445149  48.6676247  84.5574986  73.4773644  48.1721669
  83.1441063  73.6097819  46.5019363  81.9537516  73.8330056  46.1965562
  84.1280995  73.8357442  45.6625602  83.9266887  74.1731442  44.7321331
  85.0818741  73.6711165  45.9511996  83.9244209  71.0357469  49.4244611
  85.0790929  71.0435163  49.8754534  82.8754763  70.6248281  50.1531600
  81.9571872  70.6223579  49.7326384  83.0027811  70.1961315  51.5767195
  83.7508391  70.8101244  52.0782384  81.6713517  70.3493940  52.3130151
  80.9908308  69.6021651  51.9048001  81.8592548  70.1329912  53.3646625
  81.0450149  71.7295803  52.1837476  80.6287564  71.7891832  51.1781248
  80.2368013  71.7704097  52.9139687  81.9911246  72.8970895  52.4100057
  82.4604193  73.0609577  53.5535584  82.2562870  73.6355753  51.4428027
  83.4625004  68.7341331  51.6556938  83.9485969  68.3443935  52.7278320
  83.3904665  67.9779236  50.5592667  83.0531191  68.3863151  49.6993176
  83.7191597  66.5236895  50.5698826  83.1698213  65.9801241  51.3385589
  83.4570765  65.8748298  49.1950686  83.8784176  66.5200050  48.4241464
  84.0860733  64.4904988  49.0979013  83.6648617  63.8445769  49.8682690
  83.8801546  64.0654240  48.1155522  85.1638259  64.5697394  49.2402720
  81.9557370  65.8311183  48.8896095  81.5264186  65.0606979  49.5301084
  81.5491857  66.8031438  49.1688619  81.6116047  65.5370195  47.4493610
  82.0174548  64.5648760  47.1694994  80.5283240  65.5262229  47.3290046
  82.0402242  66.3073213  46.8082523  85.1713491  66.3489016  51.0031749
  85.9790644  67.2163312  50.6390364  85.4803920  65.3058043  51.7861439
  84.7251203  64.7324681  52.1339219  86.8644025  64.9830589  52.2156685
  87.5529871  65.1819679  51.3944587  87.2851576  65.8243654  53.4205990
  88.3699443  65.9289402  53.4406317  86.8264772  66.8115449  53.3641273
  86.8846516  65.2389671  54.7472186  85.5598664  65.2504139  55.1463553
  84.8088552  65.6859825  54.4872938  85.1829859  64.7158669  56.3695681
  84.1345132  64.7220610  56.6675068  86.1306507  64.1790314  57.2048722
  85.8375728  63.7705614  58.1720110  87.4485925  64.1568516  56.8212909
  88.1984809  63.7267225  57.4851860  87.8271006  64.6792091  55.5939836
  88.8732011  64.6513023  55.2890330  86.9438249  63.4910110  52.5333336
  85.8997399  62.9487698  52.9495860  88.1019540  62.8455789  52.3312311
  88.9095408  63.3495247  51.9936787  88.2217380  61.4190177  52.5403216
  87.2388169  60.9571611  52.4472953  89.1601600  60.7806301  51.5167702
  88.7118157  60.8817349  50.5284057  90.1101762  61.3144874  51.5405559
  89.3823274  59.4084931  51.7964982  89.9740489  59.0391851  51.1368945
  88.7225344  61.0984738  53.9388596  89.7077606  61.6824264  54.3954170
  88.0316530  60.1633299  54.6037798  87.1237429  59.8888388  54.2567160
  88.5084835  59.5611414  55.8362727  89.4099576  60.0732848  56.1726546
  87.4455230  59.6703288  56.9330996  86.5170835  59.8685289  56.3975475
  87.3674545  58.7158352  57.4536257  87.6947676  60.7817845  57.9455422
  88.0891861  61.6515617  57.4201637  86.3987174  61.1668431  58.6701363
  86.0039217  60.2976302  59.1961630  86.6049210  61.9618454  59.3867620
  85.6650559  61.5150560  57.9430950  88.7586215  60.4347827  58.9921312
  89.7065868  60.2317766  58.4938845  88.8814087  61.2730661  59.6779194
  88.4457816  59.5522933  59.5502018  88.8932942  58.1080892  55.6414758
  89.2985477  57.4469831  56.6150104  88.7483783  57.5730921  54.4163153
  88.4013014  58.1388310  53.6550161  89.0524417  56.1742461  54.1535806
  89.6142348  55.7631126  54.9923040  87.7905135  55.3596812  53.9712203
  88.0497599  54.3084253  53.8457155  87.1526439  55.4739286  54.8476734
  87.1033871  55.8130086  52.8286720  86.3022783  55.2971845  52.7114115
  89.9112901  56.0228844  52.9121419  89.8302966  56.8317578  51.9861183
  90.7349266  54.9697847  52.8997756  90.8283823  54.3350543  53.6798286
  91.5797517  54.7588322  51.7334520  92.1395156  55.6650834  51.5022109
  92.5964932  53.6041085  52.0290678  93.1744022  53.8416548  52.9222040
  92.0576794  52.6692761  52.1835612  93.5395469  53.4566298  50.8373825
  92.9469123  53.1127881  49.9896456  93.9487293  54.4427724  50.6178500
  94.6699324  52.4872434  51.0870298  95.3068643  52.8100568  51.9105638
  94.3041704  51.4796445  51.2846711  95.4714974  52.4644440  49.8513665
  95.2047791  51.7939148  49.1447186  96.4785566  53.2700270  49.6025840
  97.1341087  53.1450129  48.4368448  96.8473096  52.4401282  47.7727786
  97.9108400  53.7564656  48.2296886  96.8490907  54.2111231  50.4357687
  96.3521813  54.3349661  51.3063111  97.6298615  54.8082472  50.2035224
  90.7102242  54.4422493  50.5176370  90.9992972  54.8763756  49.3909360
  89.6245417  53.6922060  50.7300367  89.4209244  53.2992103  51.6378878
  88.7715763  53.3132875  49.6028274  89.4028086  52.9525966  48.7907023
  87.7641975  52.2085344  49.9708501  88.3431550  51.3841447  50.3871301
  87.1152608  52.6222711  50.7427329  86.9114973  51.6965959  48.8089334
  86.3100094  52.5285318  48.4426059  87.5997913  51.3747475  48.0274194
  85.9981412  50.5389103  49.1887410  85.2408322  50.0406298  48.3181317
  86.0430999  50.1133197  50.3627279  88.0769114  54.5456191  49.0127212
  87.8533363  54.6360682  47.7895277  87.7046091  55.5022875  49.8593773
  87.7777847  55.3869326  50.8600960  87.1738624  56.7589355  49.3455635
  88.0451383  57.3842260  49.1506550  86.6904436  56.5059432  48.4019532
  86.1866866  57.5381650  50.2176566  85.5840348  57.0259390  51.1386275
  85.9503420  58.7924328  49.8782639  86.3498166  59.4998918  48.7349258
  86.3515383  58.8045898  47.8954900  87.3623848  59.8657545  48.9050703
  85.3535809  60.6228915  48.5565581  84.5055121  60.2969706  47.9543505
  85.8231842  61.4860314  48.0847915  84.9277905  60.9486441  49.9936432
  83.9336331  61.3806778  50.1080845  85.6631094  61.6003115  50.4655917
  84.9691853  59.5708505  50.6340293  85.3765505  59.6943403  51.6374745
  83.6222719  58.9712587  50.7206246  82.7871852  59.4962824  51.4667441
  83.3238435  58.0613819  49.8202304  84.0555349  57.7987647  49.1754365
  82.0241119  57.4366806  49.6759981  81.3227059  57.8715203  50.3880678
  81.4944170  57.6507379  48.2904019  81.5438106  58.7203888  48.0866705
  82.1557490  57.1200326  47.6054990  80.1211751  57.1818870  48.1033338
  79.9962973  56.7860837  47.0954419  79.8908049  56.4029296  48.8301467
  79.0211976  58.5299592  48.3341970  79.0571992  59.4551248  46.8110048
  78.7318987  58.8165972  45.9896880  78.3891674  60.3127613  46.8903375
  80.0725804  59.8025574  46.6202359  82.1970732  55.9618668  49.9736768
  83.1998273  55.3391744  49.6098784  81.2422584  55.4105686  50.6804852
  80.3914688  55.8850685  50.9471425  81.4288970  54.0397499  51.1126368
  81.7425365  53.4362039  50.2608964  82.4574122  53.8702199  52.2391315
  82.1522802  54.4615622  53.1024441  82.5172558  52.8192817  52.5220589
  83.4341864  54.2092456  51.8940620  80.0942081  53.5159602  51.6056022
  79.1689601  54.2841171  51.9965088  79.9828492  52.1987768  51.4743687
  80.7462603  51.6963456  51.0444086  78.8504145  51.4417461  51.9581250
  77.9278152  52.0211847  51.9921922  78.6100439  50.1901249  51.1154201
  79.5224821  49.5949232  51.0794826  77.8091591  49.5999166  51.5607717
  78.3267680  50.4813623  50.1039683  79.1923270  50.9988999  53.3601354
  80.1963495  50.2931518  53.5537804  78.3539170  51.3475721  54.3207452
  77.6613517  52.0642390  54.1569120  78.4322014  50.7513173  55.6526408
  79.1481095  49.9295536  55.6359287  78.8851263  51.7788455  56.7125968
  78.1902964  52.6181033  56.7435340  78.8733475  51.2624992  57.6724654
  80.2824926  52.2909039  56.4323564  81.3805282  51.5193160  56.7445918
  81.2335538  50.5526146  57.2262414  82.6265926  51.9484287  56.4606431
  83.4995671  51.3404407  56.6980625  82.7897152  53.2052332  55.8514383
  84.0604627  53.6750274  55.5499748  84.7559584  53.0622525  55.7997595
  81.7002270  53.9904569  55.5391288  81.8218766  54.9704462  55.0776930
  80.4665244  53.5243663  55.8154733  79.5892331  54.1165660  55.5551666
  77.0695892  50.1885220  55.9897926  76.0411670  50.6597129  55.4731419
  77.0816812  49.1498804  56.8212109  77.9765876  48.8127484  57.1461477
  75.8738169  48.4382159  57.2493410  74.9857331  48.8114077  56.7393075
  76.0030453  46.9276995  56.9716253  76.3626012  46.7953943  55.9511773
  76.9886556  46.2438298  57.9608031  76.6294986  46.3753223  58.9814974
  77.0529677  45.1798309  57.7330515  77.9754278  46.6962431  57.8622912
  74.6540586  46.3100710  57.0627351  73.9941294  46.7669818  56.3252883
  74.7298268  45.2402252  56.8683417  74.2476095  46.4694628  58.0614815
  75.6292189  48.6963279  58.7321981  76.5811822  48.7232060  59.5195280
  74.3570329  48.8856832  59.0978705  73.6756256  49.0113279  58.3630258
  73.9185275  49.0244358  60.4731068  74.7079574  49.4443986  61.0964291
  72.7175173  49.9831424  60.4894803  72.5555680  50.3270523  61.5110466
  72.9701914  50.8335162  59.8561399  71.4335524  49.3634301  59.9781370
  71.3285618  48.1639617  59.7871823  70.4303639  50.2107841  59.7716065
  69.5442913  49.8661152  59.4307568  70.5588299  51.1953738  59.9564862
  73.6092975  47.6825397  61.1344371  73.8121705  46.6260391  60.5376633
  73.2034996  47.6649697  62.4014167  73.3653728  48.6613958  63.4094535
  72.4372092  49.2269983  63.4913455  74.1726326  49.3301646  63.1108250
  73.6901703  47.8928514  64.6703655  73.4038614  48.4610472  65.5553964
  74.7536085  47.6584800  64.7180145  72.8539483  46.6153484  64.5304730
  71.8096798  46.7154274  64.8264231  73.3074802  45.7869233  65.0746424
  72.9451128  46.3646036  63.0340550  73.8244940  45.7432825  62.8645050
  71.7143753  45.6534858  62.5033747  71.6889828  44.4159483  62.5047735
  71.6363833  45.8348116  61.3009890  72.1676581  46.4385788  60.6899967
  70.4939221  45.1230060  60.7454128  70.4303414  44.1196027  61.1664099
  69.2006723  45.8854590  61.0924998  69.2369261  46.8935931  60.6796431
  68.3281054  45.3636310  60.6995334  68.9823308  46.0344014  62.5727836
  69.5362358  47.0919303  63.2846319  69.1410828  46.9307163  64.5419119
  69.4744418  47.6693056  65.2709227  68.3731870  45.8419613  64.6820137
  67.9389706  45.4899815  65.5232427  68.2705371  45.2561884  63.4284559
  67.6924477  44.3410572  63.3002029  70.6582809  44.8878515  59.2248380
  69.6947557  44.5793372  58.5161998  71.1139149  45.1903631  59.4744604
  71.8344991  45.7145435  59.9499525  71.4347020  44.5825399  58.2023312
  72.4864085  44.2981659  58.2361537  70.8197348  43.6875859  58.1076107
  71.1979475  45.4876212  56.9729174  71.3418561  45.0380633  55.8387596
  70.8473603  46.7307957  57.1901885  70.6470852  47.0293648  58.1340347
  70.6215542  47.6622834  56.1180414  70.2972333  47.1406892  55.2175667
  69.5421937  48.6234566  56.5315110  68.7508718  48.0195189  56.9755473
  69.9343544  49.3136343  57.2784814  68.9970974  49.3881981  55.3941301
  69.7108560  50.4649582  54.8452163  70.6895202  50.7182008  55.2528730
  69.1806794  51.2088325  53.7885878  69.7368550  52.0486751  53.3721327
  67.9411080  50.8681294  53.2633847  67.4302246  51.5945827  52.2115811
  68.0116104  52.3040300  51.9282531  67.2143299  49.7846834  53.8197005
  66.2409926  49.5118742  53.4119135  67.7498603  49.0646183  54.8954981
  67.1823793  48.2474006  55.3407180  71.9146837  48.3366307  55.7162035
  72.7805341  48.5709737  56.5428385  72.1170326  48.4306578  54.4167152
  71.3840042  48.1374661  53.7867888  73.3689880  48.9111267  53.8444753
  74.1812828  48.9155474  54.5712881  73.8123927  48.1015810  52.6183783
  72.9592209  47.9252286  51.9633233  74.8780280  48.8949051  51.8637444
  75.7317712  49.0712593  52.5180553  75.2014691  48.3297195  50.9896440
  74.4621577  49.8505081  51.5444070  74.2942835  46.7045789  52.9913559
  73.4871129  46.1599819  53.4812454  74.5969770  46.1714184  52.0901255
  75.1438826  46.7818259  53.6698211  73.1592694  50.3642438  53.4653831
  72.2836729  50.6708197  52.6330250  73.9477585  51.2530712  54.0922898
  74.5787592  50.8949921  54.7949396  73.9332523  52.6961435  53.8426781
  73.0330768  52.9991847  53.3079358  73.9483102  53.3861572  55.2004687
  74.6725241  52.9223396  55.8701602  74.2070720  54.4351857  55.0566581
  72.6392635  53.3636715  55.9076344  71.4513686  53.6834861  55.2800212
  70.4647133  53.6197159  56.1581354  69.4359676  53.8226485  55.8604786
  70.9795649  53.2908924  57.3304703  70.4642325  53.2018895  58.1945367
  72.3306818  53.0871910  57.1946981  72.9216767  52.7625809  58.0511176
  75.1295637  53.1794258  52.9971823  76.2840851  52.7393027  53.2096556
  74.8610967  54.1499755  52.1004924  73.9108787  54.4533788  51.9419631
  75.9322259  54.7612344  51.2965827  76.8297001  54.1486808  51.3827072
  75.5601968  54.8763404  49.8213030  74.5539165  55.2891916  49.7502178
  76.2651528  55.5537132  49.3393247  75.6029265  53.5210365  49.1267504
  76.5581583  53.0508083  49.3602422  74.7956694  52.9497576  49.5850904
  75.4126724  53.5514477  47.6490886  74.2523792  53.8227907  47.2505051
  76.4399160  53.3453294  46.9028294  76.2554758  56.1342251  51.8475455
  75.4620302  57.0856490  51.7198527  77.4338962  56.2549393  52.4211163
  78.1446995  55.5588208  52.2471128  77.7554492  57.3645728  53.3148400
  76.8783565  57.9813025  53.5109319  78.3104574  56.8306318  54.6394879
  79.1455342  56.1631753  54.4267699  78.7642207  57.9176321  55.4851162
  77.9295296  58.5853069  55.6986620  79.1537852  57.5134973  56.4194691
  79.5509316  58.4723693  54.9737928  77.2375520  55.9971581  55.3588492
  77.1035078  55.0645606  54.8107663  77.5918984  55.7782960  56.3661414
  75.8997797  56.7389842  55.4384997  75.5445480  56.9577950  54.4315081
  75.1685396  56.1162627  55.9538686  76.0329394  57.6715321  55.9868816
  78.7893840  58.2453897  52.6422432  79.9510177  57.8271336  52.4764148
  78.4018681  59.4908151  52.3203721  77.4217198  59.7284993  52.3743627
  79.3428845  60.5216164  51.8764997  80.2310935  60.0554461  51.4500386
  78.6986461  61.3988667  50.8165889  78.5263898  60.7250394  49.9773131
  77.7453303  61.7979182  51.1630668  79.5978941  62.5470655  50.3700283
  79.9894735  63.1040995  51.2211920  80.7486009  61.8862409  49.6236768
  80.3578211  61.3293604  48.7720465  81.4402065  62.6511388  49.2705284
  81.2727966  61.2044313  50.2933445  78.9492768  63.6289236  49.5472113
  78.1436270  64.0881120  50.1200760  79.6906970  64.3862442  49.2925296
  78.5433990  63.1965268  48.6326649  79.7753446  61.3923131  53.0518292
  78.9614061  62.1529155  53.5695512  81.0697123  61.3326634  53.4181175
  81.6590339  60.6185218  53.0146312  81.6503648  62.2265008  54.4208071
  80.9651569  62.3398414  55.2608923  82.9607331  61.6178016  54.9357616
  83.4506133  62.3579305  55.5684755  82.7361741  60.3573476  55.7219079
  82.2467136  59.6165325  55.0896729  83.6943924  59.9662300  56.0638783
  82.1042630  60.5735109  56.5833383  83.8254030  61.2774649  53.8552687
  84.6369109  60.8993079  54.2017548  81.9185455  63.6517439  53.9165698
  82.3930644  63.8497020  52.7997886  81.6485831  64.6464705  54.7726658
  81.1536743  64.4105689  55.6209081  81.9715887  66.0553165  54.5251373
  82.8620612  66.1722596  53.9074948  80.7964388  66.7813164  53.8383033
  81.1602960  67.7222204  53.4254998  80.2044571  65.9292139  52.7176102
  79.8399423  64.9882706  53.1297456  79.3780668  66.4651711  52.2507811
  80.9722632  65.7251836  51.9713212  79.7282021  67.1491198  54.8723618
  80.1624034  67.8057999  55.6262468  78.9032541  67.6611012  54.3769474
  79.3576138  66.2425919  55.3508723  82.3471068  66.7760589  55.8292237
  82.1951788  66.2388317  56.9339367  82.8396698  68.0318332  55.6764177
  82.8166599  68.4500312  54.7573528  83.3260012  68.8384416  56.7918843
  83.7249782  68.1723329  57.5568783  84.4280330  69.8225820  56.3750824
  84.0880765  70.2911373  55.4515107  84.4581123  70.5675880  57.1701681
  85.7834839  69.2612260  56.1735426  86.1826674  68.1236666  56.8539758
  85.4906492  67.6390848  57.5427361  87.4410728  67.6049562  56.6661666
  87.7638716  66.7199485  57.2144952  88.3048507  68.2189520  55.7677798
  89.5638290  67.7120711  55.5557274  89.7462470  66.9291191  56.0804268
  87.9201965  69.3405206  55.0757624  88.5973100  69.8179718  54.3674841
  86.6677985  69.8597562  55.2839342  86.3529746  70.7550598  54.7478208
  82.2831900  69.7543802  57.3887387  82.3659705  70.0992313  58.5613094
  81.4083458  70.2833013  56.5468390  81.4231437  69.9980973  55.5780567
  80.4699861  71.3188186  56.9459642  80.2703758  71.2207760  58.0130362
  81.0062911  72.7287020  56.6756040  81.9710749  72.8156605  57.1753337
  81.1451205  72.8275688  55.5990113  80.0682942  73.8405157  57.1754900
  79.1607055  73.8071743  56.5727695  79.8213927  73.6260798  58.2152779
  80.6899842  75.2228230  57.0778259  81.6546792  75.2142370  57.5851609
  80.8349885  75.4727911  56.0268316  79.7793832  76.2684979  57.7303032
  78.8381225  76.2805745  57.1807735  79.5954334  75.9558080  58.7581586
  80.3762690  77.6394329  57.7259956  80.5464004  77.9295407  56.7736341
  79.7373052  78.2861838  58.1659258  81.2482604  77.6285542  58.2355167
  79.1866625  71.0288204  56.1972242  79.1697874  71.0502095  54.9613874
  78.1236194  70.7519744  56.9217135  78.2201487  70.5694507  57.9103825
  76.8017942  70.6408748  56.3260157  76.8358162  70.8875329  55.2648364
  76.2377918  69.2217700  56.4819127  76.1890662  68.9637840  57.5398206
  75.2373177  69.1785395  56.0514676  76.8859281  68.5138576  55.9653097
  75.9103771  71.6753835  56.9880998  75.8898202  71.7861705  58.2156101
  75.1813772  72.4249579  56.1783656  75.2771752  72.3011133  55.1805758
  74.2656241  73.4442655  56.6611102  74.5603598  73.7769378  57.6563786
  74.2956964  74.6412686  55.7188777  74.2144963  74.3133094  54.6825628
  73.4800470  75.3273036  55.9472899  75.8103594  75.6146506  55.8180619
  75.4611681  76.5093155  54.8979867  72.8382688  72.9006727  56.7614971
  72.4640953  71.9345923  56.0930745  72.0493918  73.5177545  57.6461084
  72.4767754  74.1640382  58.2939972  70.6129501  73.2499713  57.7765864
  70.1846770  73.9431260  58.5006154  69.8746550  73.4201264  56.4363281
  70.0490928  72.5619893  55.7872738  68.8144347  73.4793830  56.6823397
  70.2756743  74.6972254  55.6805412  71.3629387  74.7816880  55.1007550
  69.3747481  75.6668162  55.6343279  69.5877287  76.5272373  55.1501641
  68.4788445  75.5413657  56.0834601  70.3334219  71.8535999  58.3442245
  69.3576820  71.2128151  57.9433997  71.1439279  71.3985871  59.3058872
  71.9132740  71.9692199  59.6261747  70.9827374  70.0647889  59.8832607
  70.0358354  69.6341662  59.5576230  72.1246725  69.1389884  59.4318546
  72.9907310  69.6916872  59.7959506  72.0167385  68.2166336  60.0025664
  72.3207361  68.8013506  57.9456743  72.3957690  69.7263834  57.3740230
  73.5918235  67.9871560  57.7609099  73.5173409  67.0616929  58.3319346
  73.7231019  67.7521915  56.7046625  74.4473717  68.5631825  58.1135160
  71.1141788  68.0663315  57.3443396  70.2263438  68.6926895  57.4310818
  71.3057066  67.8520417  56.2929129  70.9527502  67.1317425  57.8815389
  70.9341836  70.1021025  61.4053196  71.9657200  70.2262801  62.0699184
  69.7427087  69.9469331  61.9597733  68.8864467  69.9628137  61.4243646
  69.6510750  69.7916674  63.3981463  70.2825440  70.5329056  63.8879544
  68.2199329  69.9842950  63.8711326  67.6277611  69.1645092  63.4644594
  68.1619598  69.9686774  64.9594778  67.6494348  71.2730339  63.3817728
  66.8312342  71.2878426  62.4697803  68.1200513  72.3820683  63.9643299
  67.7732024  73.2859938  63.6767290  68.8199429  72.3101091  64.6889501
  70.1572096  68.4160329  63.8060475  70.4093017  67.5340445  62.9706339
  70.3223712  68.2568585  65.1046245  70.1206181  69.0254638  65.7280351
  70.8357790  67.0306593  65.6723199  70.9615287  66.2868955  64.8854898
  72.1754577  67.2650606  66.3344626  72.0769226  68.2992543  66.6643620
  72.2500786  66.6123325  67.2042199  73.4380856  67.1205370  65.4778841
  73.3599358  66.1957365  64.9062746  73.6095458  68.2760783  64.5374886
  73.6882382  69.2012465  65.1084265  74.5160028  68.1347640  63.9488744
  72.7491940  68.3332963  63.8706892  74.6018010  66.9432221  66.4756570
  74.4297644  66.0531390  67.0808469  75.5375990  66.8339691  65.9275265
  74.6612108  67.8171317  67.1243878  69.8274269  66.4704452  66.6735553
  69.1990169  67.2101134  67.4387140  69.6324674  65.1604816  66.6351110
  70.1143632  64.6001975  65.9466652  68.7097965  64.4993648  67.5346047
  68.2523363  65.2313378  68.2002208  67.6085936  63.7423038  66.7706521
  68.0197229  63.2729550  65.8769045  67.0548558  62.6628146  67.7048863
  66.6431051  63.1314641  68.5987150  66.2700375  62.1060999  67.1928028
  67.8566918  61.9813651  67.9891131  66.5012935  64.6941491  66.3069128
  66.2166521  65.3045038  67.1639701  66.9244961  65.3325609  65.5313940
  65.2586398  63.9732288  65.7557407  64.8345842  63.3349372  66.5308926
  64.5173918  64.7103465  65.4470205  65.5424289  63.3629922  64.8983173
  69.5215799  63.5525100  68.3915971  70.1352639  62.6151173  67.8692514
  69.5270239  63.7922036  69.6999469  69.2035053  64.6773053  70.0633065
  69.9939574  62.7976399  70.6361381  69.1968328  62.5952892  71.3515022
  70.2266777  61.8865419  70.0849204  71.2142629  63.2421028  71.3796455
  71.3896658  64.4658096  71.6563592  72.0610247  62.3099098  71.7360227
  71.8781305  61.3385878  71.5282182  73.2636677  62.6395134  72.4637377
  73.5911380  63.6412651  72.1856084  73.0230610  62.6031558  74.0110598
  72.2265446  63.2982759  74.2765195  72.7418922  61.5953544  74.3166421
  74.3105905  63.0095603  74.7226532  75.0785038  62.2846212  74.4527025
  74.5947537  63.9942687  74.3515701  74.1716670  63.0591992  76.2263161
  73.4470117  63.8095499  76.5424607  73.8944095  62.0898570  76.6405665
  75.4976346  63.4339529  76.7484795  76.2422406  63.5418161  76.0746644
  75.7601316  63.6635796  78.0145988  77.0143703  63.9957542  78.3653825
  77.7320479  64.0639217  77.6579985  77.2334916  64.1756878  79.3347685
  74.8389368  63.6124550  78.9460516  73.8857387  63.3893287  78.6976002
  75.0867555  63.7964356  79.9077354  74.2361801  61.5777231  71.9790945
  73.8799029  60.4034836  71.9252697  75.4693522  61.9416061  71.7132529
  76.1680321  63.1289360  72.0796205  76.4900795  63.0359140  73.1167958
  75.4874146  63.9751099  71.9855541  77.3300232  63.2140483  71.1163248
  78.1505766  63.7868068  71.5484578  77.0216486  63.6737929  70.1773672
  77.7221634  61.7458951  70.9044329  78.3598701  61.3236689  71.6810629
  78.1908369  61.6002123  69.9311799  76.3604681  61.0709768  70.9304937
  75.9855264  61.0627106  69.9070443  76.4447412  59.6470900  71.4491675
  76.3504446  59.3981905  72.6508897  76.6539869  58.7265385  70.5049096
  76.6163904  59.0131856  69.5371703  76.8849511  57.3283514  70.7977909
  77.2506286  57.2368596  71.8205364  75.6098866  56.4878476  70.6561689
  74.9145716  56.7752147  71.4448745  75.1623215  56.6960154  69.6843398
  75.8980887  55.0810621  70.7600108  75.0843543  54.5800868  70.6680339
  77.9662358  56.7568533  69.8849150  78.2278130  57.2479876  68.7626947
  78.5495954  55.6375274  70.3610526  78.2267764  55.2353113  71.2294474
  79.6532319  54.9862448  69.6657631  79.7173110  55.3798152  68.6513197
  80.9664715  55.2762502  70.3848547  81.7867936  55.1907254  69.6722134
  80.9533343  56.6619841  70.9698067  80.1335052  56.7481351  71.6829391
  81.8984216  56.8509942  71.4789082  80.8185407  57.3924110  70.1720549
  81.0663867  54.3101948  71.4380664  81.8818908  54.4505806  71.9247339
  79.5319611  53.4701889  69.5545659  80.5378091  52.8130502  69.2007616
  78.3687162  52.8965186  69.8753661  77.7107298  53.3547964  70.4894790
  78.0775826  51.5366732  69.4426181  78.8365809  50.8728641  69.8565967
  76.6915805  51.0410810  69.8937640  76.6715399  51.1171407  70.9809220
  75.9605527  51.7286718  69.4684203  76.3479008  49.6096071  69.4765486
  76.3742450  49.5636927  68.3878343  77.1238924  48.9627606  69.8858479
  74.9850116  49.1426654  69.9712599  74.5916261  47.9829620  69.6884511
  74.3035538  49.9348047  70.6563267  78.2606003  51.4622048  67.9297791
  77.9321356  52.4110143  67.2048671  78.8183217  50.3503417  67.4561904
  79.3323472  49.7307889  68.0661343  78.7478183  50.0219045  66.0374148
  79.4059229  49.1817398  65.8157826  77.3028932  49.6313938  65.6550614
  76.8135221  49.1212515  66.4847421  76.7507901  50.5389201  65.4107704
  77.1866952  48.7250346  64.4654325  77.5312302  47.3835773  64.4924315
  77.3415103  46.8720011  63.2862200  77.5679112  45.8229506  63.0956035
  76.8745363  47.8206131  62.4858354  76.6271856  47.7154108  61.5122595
  76.7784636  48.9882095  63.2007211  76.4213680  49.8965573  62.7154496
  79.2192573  51.1795942  65.1556457  78.7703616  51.3106883  64.0042131
  80.0815975  52.0610789  65.6491316  80.4397487  52.0161885  66.5924300
  80.4977477  53.1687149  64.8064748  79.6199916  53.7087516  64.4515047
  81.3852100  54.1371910  65.5824095  81.0520530  54.1540706  66.6201093
  82.4123866  53.7753294  65.5369739  81.3214672  55.4560491  65.0411858
  81.8893475  56.0387809  65.5506321  81.2449882  52.6504383  63.5764870
  82.1577361  51.8232832  63.6669076  80.8774513  53.1675994  62.4217390
  80.1333108  53.8470195  62.3528721  81.5301238  52.7264068  61.1889333
  81.5269825  51.6383240  61.1243947  80.7707052  53.2873146  59.9928941
  80.7090013  54.3722550  60.0777236  81.2583431  53.0239277  59.0543118
  79.3726835  52.7874321  59.9010574  78.9125022  51.4887899  60.1650468
  79.6415973  50.7463519  60.4895557  77.5552148  51.4364829  59.9414604
  76.9722648  50.6223994  60.0738871  77.1166616  52.6766636  59.5284592
  75.8458939  53.1018993  59.1998000  75.0310578  52.3822697  59.2790095
  75.6838747  54.4046218  58.7930805  74.6967377  54.7646714  58.5032101
  76.7518235  55.2721244  58.7436681  76.6164899  56.3049396  58.4226118
  78.0387938  54.8593334  59.1017995  78.8507823  55.5837557  59.0386515
  78.2293571  53.5416780  59.4998446  82.9884582  53.1640052  61.1218705
  83.8369355  52.4425331  60.5878422  83.2890313  54.3732947  61.6319348
  82.5121252  54.9389702  61.9426236  84.6347966  54.9200368  61.7549715
  85.3024151  54.3828119  61.0813440  84.6768620  56.4079713  61.4011293
  84.0968381  56.9670708  62.1353495  85.7086722  56.7592358  61.4101390
  84.1311046  56.7485960  60.0905246  84.8550859  56.4703498  58.9578065
  85.8316785  55.9916927  59.0302930  84.3434269  56.7977659  57.7328046
  84.9053514  56.5686931  56.8273394  83.1030280  57.4245369  57.6427061
  82.7095566  57.7149055  56.6685571  82.3652516  57.6804497  58.7963744
  81.3768234  58.1357667  58.7347599  82.8809011  57.3618588  59.9869207
  82.3240314  57.5802654  60.8981257  85.1359516  54.7477129  63.1827790
  84.8111650  55.5861940  64.0504357  85.9763474  53.7454253  63.4688339
  86.5860042  52.7667577  62.6193627  87.2936762  53.2721109  61.9621575
  85.8069780  52.2956283  62.0199844  87.2597608  51.7918765  63.5581666
  88.0904431  51.2885408  63.0634757  86.5490702  51.0489172  63.9201496
  87.7489930  52.6853504  64.7043735  88.6892844  53.1974341  64.5001154
  87.8311855  52.1363091  65.6424020  86.6180279  53.6974944  64.7931910
  85.8887822  53.3040828  65.5013763  87.1001596  55.0546621  65.2668478
  87.4600375  55.9174432  64.4405762  87.0813311  55.2826326  66.5843306
  86.7212160  54.5815770  67.2159456  87.5663274  56.5166418  67.1405148
  87.9575605  56.2915519  68.1326692  88.3779960  56.8620745  66.5002261
  86.5311707  57.6122513  67.2568145  86.8053746  58.6236554  67.9190862
  85.3476724  57.4527153  66.6458661  85.1116381  56.5632593  66.2296268
  84.3885802  58.5489488  66.5282432  84.7276876  59.3782016  67.1490855
  84.2342602  59.0477180  65.0856040  84.2085129  58.1712502  64.4381162
  83.2690959  59.5530322  65.0507406  85.3129722  59.9910190  64.6121070
  86.5495796  59.5061799  64.1887759  86.7389428  58.4331327  64.2172505
  87.5306858  60.3698259  63.7363070  88.4971393  59.9941137  63.4002864
  87.2672527  61.7416368  63.7107739  88.2198254  62.6411429  63.2730662
  89.0391740  62.2189200  63.0047465  86.0394654  62.2280360  64.1295474
  85.8317646  63.2979180  64.1118435  85.0825998  61.3518348  64.5684606
  84.1112153  61.7238769  64.8941857  83.0247190  58.1136014  67.0432980
  82.7455742  56.9175187  67.2517239  82.1807811  59.1179148  67.2612166
  82.4557069  60.0606364  67.0250152  80.8659542  58.9082632  67.8257690
  80.6304225  57.8452327  67.8766622  80.6876329  59.5134313  69.2127435
  80.9111141  60.5796420  69.1759886  79.6588795  59.3695342  69.5429863
  81.3651611  59.0246439  69.9128447  79.8872711  59.5631716  66.8811138
  80.2490608  60.4707817  66.1307152  78.6458372  59.1098287  66.8976069
  78.3499698  58.4064524  67.5592894  77.7032206  59.5363848  65.8787600
  78.1298812  60.3564948  65.3012832  77.3753027  58.3495345  64.8997716
  76.5681823  58.6237740  64.2204716  78.2522964  58.0575821  64.3220641
  76.9270042  57.1458978  65.6232170  77.6630961  56.0394695  65.9824593
  78.7087859  56.0112592  65.6761312  76.8680425  55.1658900  66.6889001
  77.1593551  54.2730315  67.0604378  75.5983736  55.6819973  66.7583566
  74.4548261  55.1576654  67.3103530  74.5157078  54.1788837  67.7861455
  73.3072914  55.8986103  67.2284150  72.3947549  55.5101057  67.6805669
  73.2698827  57.1195569  66.5925189  72.3507481  57.7028839  66.5375574
  74.4164732  57.6462193  65.9971830  74.3508066  58.6153600  65.5026581
  75.6031249  56.9140631  66.0816941  76.4968357  60.1047627  66.5914730
  76.3831016  60.0138545  67.8094403  75.5929052  60.7066909  65.8156940
  75.7529453  60.7860538  64.8216175  74.3918519  61.3092246  66.3707176
  73.8951073  60.5827184  67.0137827  74.6889182  62.5484569  67.1819881
  75.0758974  63.3108573  66.5059015  73.4499340  63.0831518  67.8955618
  73.0626302  62.3214210  68.5722164  73.7142398  63.9740276  68.4652827
  72.6869666  63.3363509  67.1594425  75.6811578  62.2275889  68.1643165
  75.8784406  63.0084377  68.6867674  73.4944203  61.6090027  65.1830877
  73.9158373  62.1453077  64.1574690  72.2395149  61.2602048  65.2591028
  71.8359926  60.8393679  66.0838242  71.4043788  61.4175002  64.0930124
  71.8722527  60.9949285  63.2038406  70.0314686  60.7493741  64.2912420
  69.4909325  61.2965628  65.0635790  69.2190359  60.7485139  63.0100717
  69.7587576  60.2010728  62.2373430  68.2568899  60.2688097  63.1896812
  69.0568979  61.7750425  62.6813591  70.2890828  59.3464268  64.7984084
  70.8327933  59.3947106  65.7418858  69.3388932  58.8352076  64.9529863
  70.8813126  58.7977989  64.0660341  71.2685791  62.8935531  63.8025088
  71.2547209  63.7399688  64.6949154  71.1982838  63.2079538  62.5376987
  71.2809487  62.4801197  61.8423403  71.0283358  64.5712126  62.0863306
  71.0530895  65.2849198  62.9098041  72.1145504  64.9555977  61.0709317
  72.0961821  64.2553021  60.2358576  71.9277636  65.9643555  60.7026673
  73.0917240  64.9203334  61.5525825  69.6480177  64.6553309  61.4635666
  69.0697190  63.6473158  61.0439962  69.1152101  65.8657568  61.3830302
  69.5728915  66.6943621  61.7352239  67.7865298  66.0029305  60.8118769
  67.6069615  65.1958970  60.1015591  66.7138654  65.9383855  61.9096632
  66.8363117  64.9905045  62.4337126  66.8998465  66.7612326  62.5999050
  65.2781566  66.0410721  61.3644433  65.1417706  67.0017543  60.8678657
  65.1331504  65.2363001  60.6437372  64.2239174  65.9061902  62.4674477
  63.5559516  66.8869322  62.8162067  64.0521254  64.6971864  63.0051478
  63.3669212  64.5653515  63.7353642  64.6080753  63.9193917  62.6794846
  67.6641935  67.2938408  60.0423755  67.8625508  68.3693176  60.6019584
  67.3573574  67.1571741  58.7573756  67.4892022  66.2552287  58.3223910
  66.8505630  68.2453726  57.9437267  67.6577229  68.9055914  57.6263877
  66.1471966  67.7083545  56.7067739  65.4945469  66.8822731  56.9891527
  66.8893066  67.3559059  55.9904271  65.1759906  68.9595800  55.8591546
  65.8754784  69.0641062  58.7621241  64.8317934  68.5683993  59.1777458
  66.0808770  70.3835581  58.8492511  66.9368733  70.7802136  58.4886487
  65.1265277  71.2842851  59.5500001  64.7930629  70.8140564  60.4750869
  65.7874042  72.6246189  59.8922914  66.6823707  72.4115252  60.4768642
  66.0717532  73.1014390  58.9542678  64.8684084  73.5664012  60.6875792
  64.0116769  73.8069480  60.0580960  64.5283565  73.0309929  61.5740354
  65.5642321  74.8501964  61.1075497  66.4242532  74.6001721  61.7287990
  65.9020594  75.3781570  60.2157931  64.6054849  75.7470629  61.8996156
  63.7558751  75.9770462  61.2566759  64.2618924  75.1838775  62.7672939
  65.2456187  77.0200428  62.3535812  65.5636847  77.5422553  61.5496983
  64.5728340  77.5704144  62.8679272  66.0326518  76.8071647  62.9497029
  63.8484744  71.4879028  58.7191045  62.7886018  71.6636065  59.3490223
  63.9186141  71.4635011  57.3801531  64.8170767  71.2916411  56.9519845
  62.7581262  71.7914024  56.4897596  62.3007658  72.7341565  56.7899852
  63.2228598  71.8894447  55.0076154  63.7487406  70.9723787  54.7420221
  62.0334701  72.0769366  54.0816844  61.5073221  72.9941079  54.3463837
  62.3816703  72.1429879  53.0509106  61.3566839  71.2284528  54.1823562
  64.2057197  73.0511516  54.8290764  65.0570499  72.8475059  55.4785887
  64.5305894  73.0332139  53.7887700  63.6288549  74.4343670  55.1608114
  63.3041737  74.4532210  56.2011606  64.3944533  75.1945913  55.0058361
  62.7777113  74.6389281  54.5113430  61.5752485  70.8182190  56.6283513
  60.4442302  71.3341177  56.7418191  61.7910916  69.4951115  56.6179515
  62.7438354  69.1786234  56.5074319  60.7035980  68.4646522  56.6929008
  59.7591639  68.9725748  56.8882438  60.5886012  67.7141352  55.3724407
  60.7058245  68.4137642  54.5448671  59.6103940  67.2375196  55.3088149
  61.8704703  66.4546346  55.1612111  60.9444904  67.4834660  57.8496378
  60.0745561  66.6044561  58.0286259  62.0608092  67.5915799  58.5767098
  62.7485174  68.2417242  58.2239079  62.4093052  66.7747620  59.7743680
  63.2333275  67.2911054  60.2667865  61.2380324  66.7143380  60.7283717
  60.4079451  66.1919910  60.2527577  61.5321611  66.1809623  61.6323070
  60.9283288  67.7264337  60.9888427  62.9073960  65.3608661  59.4201082
  63.1468796  64.6001698  60.3814706  63.0838616  65.0017977  58.1398931
  62.8867708  65.6596396  57.3992862  63.4940273  63.6560127  57.7750466
  62.9268713  62.9272187  58.3540911  63.2402275  63.4043560  56.2922224
  63.6273617  64.2464783  55.7185880  63.7585420  62.4931279  55.9937037
  61.8446910  63.2605925  56.0414199  61.7024047  63.1030424  55.1051868
  64.9681073  63.4760554  58.1357161  65.7582585  64.4226008  58.1181424
  65.3241613  62.2575097  58.5467646  64.6469779  61.5091527  58.5852832
  66.6819417  61.9883128  59.0164831  67.0152236  62.8032843  59.6590123
  66.7335592  60.6919916  59.8096394  66.8852584  59.8092535  59.1884630
  67.5450312  60.7703099  60.5331582  65.4878584  60.4544859  60.5905866
  64.2752620  60.2202122  59.9819981  63.3432132  60.0821230  60.9052436
  62.3079881  59.8877073  60.6248680  63.9073910  60.2204668  62.0887425
  63.4371162  60.1542259  62.9801199  65.2489038  60.4715055  61.9215337
  65.8851993  60.6355993  62.7911903  67.6055972  61.9515313  57.8064993
  67.3132432  61.2668184  56.8145772  68.6940900  62.7270642  57.8719978
  68.9334348  63.2303278  58.7143393  69.5247085  62.9221284  56.6914378
  69.0084521  62.5186270  55.8203665  69.8341301  64.4078512  56.4597338
  70.3097276  64.8228760  57.3483630  70.7631203  64.5513707  55.2787866
  70.2879930  64.1369566  54.3896209  70.9825782  65.6063485  55.1145892
  71.6906109  64.0145956  55.4781179  68.5352099  65.1874830  56.1965867
  67.7885955  64.7797800  56.8780893  68.7402761  66.2247286  56.4614809
  68.0131329  65.1237284  54.7828576  67.8073844  64.0867651  54.5173873
  67.0951492  65.7065710  54.7073612  68.7590666  65.5317119  54.1007783
  70.8079143  62.1116910  56.8280579  71.3456398  61.5921016  55.8313076
  71.3002378  61.9707247  58.0412851  70.9249939  62.4365038  58.8551285
  72.4395114  61.1016171  58.2147604  72.1626411  60.0651110  58.0221540
  73.2477446  61.3919902  57.5435362  72.9124142  61.2242008  59.6267466
  72.0710895  61.2939300  60.5261662  74.2359108  61.1601109  59.8234271
  74.8164576  61.0136521  59.0100301  74.8854799  61.3051523  61.1176438
  74.1490748  61.5439189  61.8849750  75.5768866  59.9912019  61.4946849
  76.2860593  59.7153134  60.7142626  76.1132683  60.1642162  62.4276698
  74.7024375  58.7994811  61.7187239  74.5927149  58.1181936  62.8553638
  75.2078514  58.4627835  63.6866067  73.7123480  57.1148874  62.7232400
  73.4652856  56.4525453  63.4446016  73.2100161  57.1301397  61.4592407
  72.2907279  56.3085981  60.8525879  71.8289312  55.5116953  61.4355016
  72.0201156  56.5461871  59.5663522  71.2933077  55.9209130  59.0478133
  72.6413763  57.5702788  58.8717463  72.4233332  57.7276578  57.8154374
  73.5116430  58.3853979  59.4570297  74.0061432  59.1402228  58.8456300
  73.8102880  58.1838475  60.7975645  75.9781734  62.3900035  61.1793272
  76.8276138  62.5158352  60.2934392  76.0011265  63.1966850  62.2583861
  75.2079399  63.2149598  62.8833824  77.1402565  64.1218012  62.5332019
  77.6382916  64.3439517  61.5894278  76.7065639  65.4415544  63.1806254
  76.0067998  65.9278940  62.5009908  76.1974209  65.1994904  64.1135126
  77.8818635  66.3890308  63.4696816  78.5450238  65.8918113  64.1775602
  78.4124640  66.5580697  62.5326699  77.4343387  67.7227881  64.0459817
  76.7706903  68.2120614  63.3330431  76.8975677  67.5440169  64.9776561
  78.6444030  68.6236689  64.3185678  79.2682933  68.1282155  65.0624679
  79.2014753  68.7248766  63.3871567  78.2565447  69.9791498  64.8167911
  77.7407091  69.8856155  65.6800782  79.0881830  70.5287407  64.9793573
  77.6787815  70.4385867  64.1274389  78.0521485  63.2790445  63.4190185
  77.4933225  62.4761262  64.1613969  79.3637442  63.4569038  63.3654571
  79.7077563  64.1443116  62.7103041  80.3456688  62.6306174  64.0918462
  79.8091913  61.9318740  64.7337564  81.2546330  61.8316835  63.1496342
  81.5954159  62.4787621  62.3413919  82.1164001  61.4541166  63.6999985
  80.6012167  60.6388655  62.5005900  79.7619671  60.7940297  61.4124773
  79.5775488  61.7941863  61.0203339  79.1575382  59.6946805  60.8206765
  78.5001666  59.8356774  59.9627236  79.3845044  58.4329598  61.3113884
  78.9089679  57.5687546  60.8475843  80.2145403  58.2623312  62.3910774
  80.3946851  57.2608412  62.7818021  80.8232917  59.3584683  62.9848779
  81.4835487  59.2179586  63.8406919  81.1351665  63.5002267  65.0772548
  81.0794201  64.7269624  64.9028478  81.8292595  62.8985688  66.0570072
  81.7769406  61.8904145  66.0884238  82.6081014  63.5963661  67.1115252
  83.1387900  64.4533861  66.6968137  81.6593366  64.0918861  68.2089947
  82.2782654  64.5453831  68.9831833  80.6264510  65.0922441  67.7393371
  80.0068005  64.6392810  66.9654138  79.9985679  65.3886202  68.5795889
  81.1286458  65.9706981  67.3340972  80.9852510  62.9436837  68.7299254
  80.3793027  63.2154908  69.4231410  83.6796859  62.6457674  67.6794702
  83.2844546  61.7603607  68.4423052  84.9814591  62.8304796  67.3896134
  85.2056164  63.6198558  66.8007687  86.0898096  61.9449685  67.8331122
  86.0255427  60.9895230  67.3124462  87.4175425  62.5794389  67.5124558
  87.5005433  63.5329908  68.0339439  88.2232685  61.9191358  67.8332450
  87.4911130  62.7460346  66.4377779  85.9916305  61.6598182  69.3385461
  85.6224370  62.5961963  70.0758832  86.3434712  60.4365859  69.7911793
  86.6473809  59.7232084  69.1440080  86.2372721  60.0905746  71.1961910
  85.2811723  60.5039552  71.5172656  86.1816494  58.5551086  71.3339709
  86.0137046  58.3028203  72.3809883  85.0525910  57.9699831  70.4808370
  85.2201050  58.2214817  69.4335610  85.0343278  56.8861596  70.5952582
  84.0985349  58.3852265  70.8055683  87.3633882  57.9867185  70.7585225
  87.3322863  57.0309002  70.8424537  87.3783463  60.6511986  72.0440055
  87.4554756  60.3981321  73.2515408  88.2906351  61.4059711  71.4188962
  88.1962461  61.6073044  70.4336780  89.4912824  61.8828096  72.1143788
  89.2524651  62.0714397  73.1610326  90.6212045  60.8482690  72.0483495
  90.7985590  60.6198849  70.9974045  91.5132907  61.3061609  72.4756868
  90.2979693  59.5501503  72.8072677  89.3039703  59.2233119  72.5019096
  91.0325081  58.8000581  72.5141526  90.3309248  59.7283630  74.3154455
  91.3259418  60.0603883  74.6117552  89.5971564  60.4826295  74.5996378
  90.0030541  58.4061557  75.0191889  90.6879132  57.6475178  74.6403261
  90.1709904  58.5457391  76.0870901  88.5930698  57.9633359  74.7903312
  88.4373732  57.8335220  73.8008835  88.4313435  57.0914663  75.2738474
  87.9583006  58.6659742  75.1417093  89.9244435  63.2216354  71.5397816
  89.8773310  63.4115653  70.3274747  90.3723129  64.1328519  72.4213447
  90.3694019  63.9057074  73.4054668  90.7671558  65.4794976  72.0236445
  90.0052449  65.9163050  71.3780516  90.9275795  66.3677873  73.2621774
  91.0770001  67.3909117  72.9172292  90.0006391  66.3089620  73.8326344
  92.1073542  65.9513317  74.1571697  91.9596997  64.9090964  74.4400911
  93.0204663  66.0416984  73.5688141  92.2255755  66.8033703  75.4086952
  92.3241908  67.8490744  75.1173588  91.3247809  66.6774895  76.0093803
  93.4504280  66.3844432  76.2307843  93.3032429  65.3515343  76.5462780
  94.3242775  66.4446398  75.5820450  93.6625660  67.2470881  77.4333591
  92.8531277  67.1911137  78.0348375  94.4784712  66.9286864  77.9363690
  93.7993970  68.2041797  77.1412086  92.0286475  65.5368126  71.1606731
  92.3707894  66.6234460  70.6827842  92.7184431  64.4141816  70.9308762
  92.4180420  63.5527764  71.3642809  93.9388241  64.3966062  70.1274894
  94.3128120  65.4110936  69.9894765  95.0202303  63.5667182  70.8430875
  95.7648212  63.3031333  70.0919507  95.4828617  64.1875408  71.6103238
  94.4701574  62.2945591  71.4819358  93.9706032  62.3671543  72.6288362
  94.5519776  61.2146114  70.8526280  93.7289889  63.8598760  68.7063276
  94.7043177  63.6211931  67.9899749  92.4630283  63.7208531  68.2960709
  91.7012414  63.8547805  68.9455657  92.1469147  63.2104945  66.9314639
  93.0734353  62.9160786  66.4385358  91.2043898  61.9941643  66.9740861
  90.3166788  62.3207619  67.5157523  90.9398671  61.7825724  65.9380568
  91.7570683  60.7395957  67.6203562  92.6309495  60.4214717  67.0518232
  92.0569193  60.9861418  68.6388877  90.5656867  59.4041824  67.6645752
  90.5577889  58.8795703  65.9368968  91.5586340  58.5568876  65.6500454
  89.8597619  58.0518942  65.8111545  90.2501953  59.7127829  65.3050390
  91.6308972  64.3539034  66.0504078  91.0559545  65.3108980  66.6055081
  91.8298858  64.2542713  64.7316633  92.3433157  63.4668941  64.3621687
  91.3777692  65.3086437  63.7844999  90.6349507  65.9431100  64.2679999
  92.5381676  66.1690615  63.3518527  92.2488597  66.7292384  62.4626947
  92.7800814  66.8641787  64.1558365  93.6733855  65.3719792  63.0592058
  94.3996207  65.9373983  62.7862891  90.6862552  64.6542209  62.5798837
  91.0000969  63.4801614  62.3000198  89.7641233  65.3320112  61.8562837
  89.3524030  65.0989452  60.5176416  89.1688920  64.0297146  60.4119533
  90.1748161  65.3921538  59.8651354  88.1091534  65.9270861  60.2855852
  87.2148960  65.3714317  60.5678101  88.0342047  66.2287935  59.2408572
  88.3214308  67.1448206  61.1930934  87.3914839  67.5985783  61.5357326
  88.9481975  67.9071751  60.7304069  89.0524878  66.5151836  62.3675477
  89.7949125  67.2363183  62.7094079  88.1081968  66.1677879  63.5241361
  87.5827610  65.0781909  63.5418515  87.8839008  67.1104663  64.4424540
  88.3149228  68.0218453  64.3815629  87.0622434  66.7977583  65.6422135
  87.4649771  65.9174154  66.1431138  87.0723672  67.9697120  66.6286141
  87.3541697  68.8632888  66.0716517  86.0577380  68.0847830  67.0099098
  88.0335236  67.7741961  67.7944600  89.0497982  67.8355332  67.4051986
  87.8758286  68.5686635  68.5238817  87.8613601  66.4438611  68.4856254
  86.7722887  66.0873534  68.9303960  88.9500198  65.7005865  68.5945692
  88.8991654  64.7992497  69.0474570  89.8271413  66.0377937  68.2243658
  85.6360801  66.4135389  65.2349119  85.0957623  65.4757837  65.8502255
  85.0488523  67.0940082  64.2427657  85.5139051  67.8435415  63.7508053
  83.6231866  66.8116261  63.9149493  83.3679716  65.7977031  64.2230476
  82.6983543  67.7926436  64.6443544  83.0014559  68.8016576  64.3648559
  81.6820672  67.6093728  64.2955388  82.7486645  67.6479810  66.1749908
  82.4046208  66.6448346  66.4268478  83.7864325  67.7646927  66.4872693
  81.8867931  68.6728414  66.8907309  82.2307907  69.6725252  66.6254065
  80.8514879  68.5491769  66.5730050  81.9805385  68.4868812  68.4096672
  81.6045196  67.4919086  68.6478684  83.0317688  68.5541402  68.6898284
  81.1964861  69.5104196  69.1676027  80.2222956  69.4479760  68.9084632
  81.2926764  69.3420228  70.1588090  81.5450360  70.4324285  68.9473490
  83.3530752  66.8265907  62.4075685  83.6408345  67.8624161  61.7725966
  82.8213057  65.7276898  61.8584574  82.7120049  64.8929078  62.4163925
  82.4161256  65.6818365  60.4618359  82.3194938  66.7011283  60.0879299
  83.4227390  64.9387764  59.5943216  83.0453144  65.0151023  58.5746039
  84.4311279  65.3501068  59.6396989  83.5408805  63.4918188  59.8957176
  84.3942923  63.0602656  60.8793288  84.9306127  63.8132273  61.4568313
  84.5827253  61.7320082  61.1454343  85.2680517  61.4161233  61.9319743
  83.8990144  60.7921724  60.4111420  84.0146892  59.7295536  60.6245913
  83.0396588  61.2148240  59.3710734  82.5028390  60.4877743  58.7617104
  82.8841435  62.5668105  59.1309366  82.2328906  62.9058775  58.3253293
  81.0692918  65.0038955  60.3504049  80.5655603  64.4113928  61.2966629
  80.4820618  65.1210587  59.1805730  80.9226752  65.6861497  58.4687926
  79.1788078  64.5389926  58.8914068  78.7262058  64.1550884  59.8056651
  78.2543089  65.6125781  58.2995852  78.6055305  65.9171380  57.3136918
  77.2586089  65.1778830  58.2117113  78.0972445  66.9326712  59.1507162
  79.0823172  67.8700282  59.4001447  80.0715383  67.6705519  58.9881366
  78.5620223  68.9172539  60.1640750  79.0856694  69.7214193  60.4790533
  77.2301401  68.6814031  60.4178724  76.2928017  69.4516475  61.1343039
  76.6247480  70.3924054  61.5734906  75.0110910  68.9662960  61.2354506
  74.2560003  69.5405568  61.7722584  74.6504801  67.7409689  60.6598785
  73.6371930  67.3529043  60.7635830  75.5784880  66.9761542  59.9338313
  75.2383766  66.0364994  59.4985453  76.8915884  67.4446903  59.8058344
  79.3763315  63.3413330  57.9634509  80.3159239  63.3213553  57.1630629
  78.5617070  62.2998498  58.1464691  77.9984006  62.2832328  58.9846272
  78.4390355  61.1867454  57.2068312  79.0536818  61.3444861  56.3205880
  78.7114573  60.2401205  57.6735077  76.9852683  61.1314778  56.7939833
  76.1319383  60.5720049  57.4868268  76.6689523  61.7388303  55.6748854
  77.3846295  62.2252267  55.1539977  75.3008016  61.7939630  55.1837907
  74.5966650  61.8468193  56.0141503  75.1338800  63.0605690  54.3131040
  75.6772248  62.8166713  53.4002023  74.0826023  63.2249468  54.0766822
  75.7317487  64.3521974  54.9428875  75.4891770  64.2909394  56.0037867
  77.2552551  64.6031121  54.7741447  77.4985336  64.6649551  53.7134422
  77.5263738  65.5384887  55.2637016  77.8115245  63.7822253  55.2267034
  75.0091572  65.6573948  54.4456720  73.9533029  65.6129436  54.7126836
  75.4660535  66.5279825  54.9162292  75.1065427  65.7372336  53.3629713
  74.9665525  60.5099932  54.4015374  75.8457191  59.7147642  54.0372504
  73.6785240  60.2820320  54.1886661  72.9673509  60.8562306  54.6183500
  73.2569005  59.1804980  53.3502352  74.0209730  58.4126407  53.2290427
  71.9686738  58.5152708  53.8636383  71.6350233  57.7920699  53.1194890
  72.1887472  57.8198859  55.1713858  72.5219900  58.5425806  55.9162088
  71.2561838  57.3623261  55.5016336  72.9484961  57.0478401  55.0496181
  70.9106992  59.5078060  53.9187085  70.1037362  59.0979010  54.2386913
  73.0337152  59.7315981  51.9339785  72.3260451  60.7390832  51.7604307
  73.5765355  59.0332202  50.9185809  74.2960147  58.3408107  51.0702983
  73.1681311  59.3159578  49.5496473  73.4968759  60.3134209  49.2579395
  73.8003342  58.2945924  48.5988619  74.8565134  58.2616872  48.8662606
  73.3341490  57.3402544  48.8438323  73.6608990  58.5619236  47.0803548
  72.8322503  57.9702010  46.6913734  73.4549459  59.6209274  46.9248027
  74.9821268  58.1699509  46.3277378  75.0718551  58.7731915  45.4243283
  75.8351882  58.3620569  46.9784919  74.9894920  56.7579432  45.9505919
  75.6694265  56.1579288  46.3953065  74.1726428  56.2299523  45.0524460
  73.3331575  56.9936943  44.3617676  73.3148774  57.9908743  44.5211347
  72.7171040  56.5736139  43.6805113  74.1834539  54.9142304  44.8560103
  74.8117176  54.3319743  45.3911389  73.5633504  54.5036353  44.1726495
  71.6558176  59.2996176  49.4523909  71.0557546  60.2105178  48.8706090
  71.0080521  58.3201787  50.1109882  71.5049195  57.7316770  50.7643548
  69.5949061  58.0306085  49.8505780  69.4561034  57.7326694  48.8113161
  69.1276177  56.8772157  50.7602810  68.0404505  56.8482955  50.6872712
  69.5441034  55.9630486  50.3372702  69.5081010  56.9831949  52.1268369
  69.1744301  56.2247532  52.6116357  68.7196189  59.2701321  50.0459944
  67.7297090  59.4879152  49.3236103  69.0822771  60.0986577  51.0099303
  69.9321008  59.9032321  51.5195457  68.2797276  61.2358219  51.4207807
  67.2305127  60.9617142  51.3107252  68.5620566  61.5202543  52.9140849
  69.6067703  61.8049522  53.0390671  67.9211414  62.3323705  53.2572979
  68.3575783  60.6242445  53.5001346  68.5145942  62.5006479  50.5768708
  67.8027531  63.4986416  50.7801432  69.4549294  62.4840930  49.6283553
  69.8771859  61.6072036  49.3584226  69.9351375  63.7087598  48.9927309
  69.4069149  64.5645108  49.4131715  71.4323296  63.9025388  49.2151505
  71.8885194  62.9731461  48.8742411  71.8344034  64.7364509  48.6398008
  71.7430923  64.1084086  50.6918286  71.2392882  63.3261875  51.2596422
  73.2018750  64.0546704  50.9627555  73.7063376  64.8369491  50.3956079
  73.3800444  64.2060871  52.0273819  73.5917392  63.0814661  50.6644607
  71.1461871  65.3985271  51.2023857  70.0638377  65.3738036  51.0758635
  71.3853246  65.5169152  52.2592200  71.5580272  66.2372049  50.6410425
  69.6313859  63.6718302  47.5102164  70.0781704  62.7570936  46.8174470
  68.8667733  64.6483584  47.0554832  68.4337500  65.2386840  47.7512604
  68.5397126  64.8794700  45.6503289  68.9036807  64.0444564  45.0516814
  67.0116212  65.0565788  45.4178338  66.6712930  65.9333323  45.9688150
  66.7078718  65.2380689  43.9400964  67.0475188  64.3614488  43.3884826
  65.6335850  65.3600155  43.8017575  67.2243117  66.1231159  43.5685043
  66.2425207  63.8452023  45.9581611  66.4295843  63.8054167  47.0312525
  65.1844658  64.0383768  45.7812346  66.6307165  62.5039382  45.3215227
  67.6886035  62.3098425  45.4984459  66.0361819  61.7051370  45.7648560
  66.4434870  62.5428036  44.2484269  69.3557687  66.1014524  45.2040637
  69.2749659  67.1519275  45.8443409  70.1811911  65.9878946  44.1621057
  70.6900696  64.8226548  43.4548264  70.0368168  64.6221850  42.6056074
  70.6723581  63.9712025  44.1351310  72.0934529  65.1941322  43.0327912
  72.3995448  64.6207194  42.1578029  72.8001089  65.0221455  43.8446774
  71.9821984  66.6899062  42.7114070  71.5655867  66.8591831  41.7184926
  72.9165431  67.2421897  42.8118185  70.9928631  67.1470002  43.7718431
  71.5734004  67.4857062  44.6299532  70.0941538  68.2687118  43.2970889
  68.9768946  68.0525940  42.8296286  70.5903790  69.4836353  43.4177967
  71.4779363  69.6523104  43.8693387  69.8487340  70.6213645  42.9148067
  68.8591042  70.5626680  43.3678926  70.5130035  71.8763412  43.3796974
  69.9536491  72.7336755  43.0052634  70.5546677  71.9225995  44.8626321
  71.1142953  71.0657680  45.2378071  71.0416846  72.8431297  45.1844052
  69.5386630  71.8929184  45.2562742  71.8720378  71.8240399  42.9624251
  72.3254208  72.6204735  43.2483231  69.7517026  70.6630757  41.4088106
  70.4589173  70.2332946  40.8480384  68.9766855  71.1226207  40.9752937
  63.8747943  68.2422274  53.9215593  60.4889976  42.4768951  68.3924688
  61.2295609  43.1143908  68.1369963  60.5387239  41.6649445  67.7938338
  60.4888864  42.3649997  69.3962512  59.1989250  43.1199810  68.0713999
  58.6757219  42.5009680  67.3425785  58.2887709  43.3033306  69.3080952
  58.3486403  42.4373650  69.9673512  58.6114870  44.1934497  69.8481344
  56.8232457  43.5007141  68.9844278  56.0920909  42.5067685  68.3532868
  56.5807925  41.5683742  68.0912048  54.7357618  42.6994053  68.0514983
  54.1757089  41.9089122  67.5519364  54.1093789  43.8853004  68.3848590
  53.0566153  44.0382197  68.1473632  54.8176022  44.8694921  69.0158959
  54.3324730  45.8121597  69.2691300  56.1674210  44.6670365  69.3374887
  56.7207521  45.4365055  69.8758586  59.3652340  44.4263303  67.2573508
  59.6625222  45.5026784  67.7965153  59.1387390  44.2968083  65.9336824
  58.9719500  43.3614515  65.5910624  59.2645910  45.3759748  64.9626963
  59.6818552  46.2852210  65.3954330  60.1598104  44.9064514  63.7816920
  59.6947976  44.0328636  63.3248464  60.3325937  46.0224585  62.7094280
  60.7980030  46.8962650  63.1654510  60.9645242  45.6553378  61.9007333
  59.3563655  46.2980292  62.3105066  61.5159195  44.4339858  64.3185823
  62.2005173  45.2778893  64.2334143  61.3709214  44.1891862  65.3707934
  62.0818788  43.2719495  63.6190826  62.2276028  43.5161587  62.5668344
  63.0403732  43.0091697  64.0666700  61.3980052  42.4274557  63.7042118
  57.8848607  45.9030402  64.5420595  57.0312515  45.1152065  64.1381185
  57.6816934  47.2261342  64.6625562  58.4358841  47.7403194  65.0948860
  56.4506931  47.9527696  64.3169939  55.6957828  47.2905640  63.8930915
  55.8170000  48.7262545  65.5269374  54.9050828  49.2148212  65.1837046
  55.4846655  47.7828358  66.6887205  56.3962280  47.2942152  67.0328203
  55.0478640  48.3541375  67.5078172  54.7732766  47.0284231  66.3527308
  56.7114929  49.8726996  66.0039565  56.8620556  50.5801975  65.1885550
  56.2352267  50.3812008  66.8422265  57.6752095  49.4744188  66.3213262
  56.7564719  48.8973236  63.1349253  57.8794059  49.3871602  63.0071354
  55.7664284  49.1258786  62.2876134  54.8805024  48.6788560  62.4757764
  55.8751411  49.9793005  61.1045975  54.9004520  49.9625924  60.6169489
  56.0835204  50.9868296  61.4645455  56.9400483  49.5848220  60.0948979
  57.3900963  50.4268793  59.3109685  57.3605648  48.3236308  60.1480918
  56.9257511  47.7177501  60.8292269  58.3973606  47.7685361  59.2947194
  58.2973236  46.6846899  59.3527650  58.1727346  48.0998460  58.2808771
  59.8287271  48.1522093  59.6348897  60.7523275  47.5062103  59.1312146
  60.0531953  49.1793392  60.4904333  59.2902544  49.7410494  60.8404365
  61.4281071  49.5992679  60.8013393  62.1031770  48.7561946  60.6543456
  61.8870858  50.7641844  59.8931030  62.8775382  51.0370004  60.2573486
  61.9734778  50.3319681  58.8961951  61.0067347  52.0095259  59.8327745
  60.0058933  51.7470532  59.4899547  60.9430196  52.4738043  60.8168924
  61.6395064  52.9870706  58.8504989  62.6194109  53.2378075  59.2567219
  61.7633148  52.4429313  57.9141852  60.8623197  54.2533749  58.5963466
  60.0131333  54.0127337  57.9567571  60.5006823  54.6321922  59.5522833
  61.7044808  55.2953090  57.9344772  62.0393299  54.9446472  57.0484682
  61.1521178  56.1267388  57.7804652  62.4911808  55.5187457  58.5271645
  61.7331066  49.9394088  62.2731115  62.8991294  50.1513215  62.5849074
  60.7377914  49.9883481  63.1629546  59.7776014  49.8979834  62.8630068
  60.9991414  50.3353776  64.5651189  62.0288290  50.6801356  64.6599049
  60.0548516  51.4520590  65.0729236  59.0662195  51.0223392  65.2343134
  60.4665197  51.7833046  66.0262891  59.9437959  52.6332619  64.1343304
  60.9671807  53.5752478  64.0408468  61.8431560  53.4612096  64.6794092
  60.8866658  54.6440941  63.1558095  61.6982190  55.3691581  63.0944470
  59.7703429  54.7836347  62.3469679  59.6846684  55.8341776  61.4796891
  60.4507231  56.4117839  61.5133165  58.7394792  53.8621316  62.4185080
  57.8618282  53.9681217  61.7808597  58.8276407  52.7954260  63.3109579
  58.0167238  52.0698728  63.3748827  60.9856928  49.1052681  65.4757505
  59.9274118  48.5279304  65.7177969  62.1828896  48.6807336  65.9220567
  62.9997485  49.1875392  65.6122357  62.3738441  47.5320894  66.8052503
  61.5868423  46.8006079  66.6217776  63.7408790  46.8569895  66.5634970
  63.8540040  46.7291304  65.4869497  64.5087384  47.5379331  66.9306587
  63.8881022  45.5080198  67.2524580  63.4245915  45.5943633  68.2352110
  63.3404023  44.7785315  66.6558227  65.3341485  45.0513400  67.4112741
  65.3178906  43.9782252  67.6016930  65.8424714  45.2445365  66.4666141
  66.0743562  45.7543108  68.5376086  66.1442831  46.8125960  68.2861265
  65.4902210  45.6360919  69.4502474  67.4427128  45.2028034  68.7490464
  67.9842863  45.3126396  67.9036270  67.8929830  45.6997678  69.5042835
  67.3781168  44.2222815  68.9825056  62.2838160  48.0311816  68.2495505
  62.9580366  48.9908384  68.6216397  61.4503329  47.3649397  69.0605441
  60.9282607  46.6018415  68.6540702  61.2041414  47.7054961  70.4702413
  61.1026010  48.7849321  70.5825209  59.9023721  47.0355337  70.9523047
  59.8662116  46.2033156  70.2493078  59.9920736  46.6491973  71.9675868
  58.6008364  47.8719891  70.8305868  58.5838283  48.5602659  71.6756232
  58.4760929  48.6837514  69.4922046  58.4925618  47.9960655  68.6466777
  57.5383623  49.2394095  69.4897313  59.3106429  49.3800596  69.4098544
  57.4044139  47.0205372  71.1059703  57.4712011  46.6147098  72.1153974
  56.5005611  47.6231170  71.0162549  57.3673851  46.2017218  70.3874516
  62.3751969  47.2862014  71.2945094  62.8709599  46.1790154  71.1203790
  62.8493324  48.1765186  72.1427362  62.4222099  49.0917499  72.1385556
  64.0114204  47.9577479  73.0029309  64.5661185  47.0561703  72.7429944
  64.9850655  49.1647580  72.9725834  64.4299969  50.0651888  73.2356851
  66.1332235  48.9734758  73.9510461  66.6890760  48.0734265  73.6882912
  66.7975795  49.8364174  73.9056221  65.7372073  48.8732719  74.9616063
  65.5095037  49.4335809  71.5586839  64.6724153  49.6514877  70.8954331
  66.1882898  50.2862012  71.5783729  66.0415157  48.5546124  71.1947078
  63.5231962  47.6250925  74.4185479  63.7517720  46.5206253  74.8828262
  62.8170118  48.5543451  75.0807557  62.6714349  49.4578115  74.6533739
  62.3076059  48.3374020  76.4394780  61.9058576  47.3277601  76.5250398
  63.4425790  48.5093172  77.4827389  63.0373386  48.2382594  78.4576272
  64.2416392  47.8172956  77.2168274  63.9941165  49.9190586  77.5397713
  64.4424307  50.1348276  76.5699471  63.1541505  50.5927588  77.7091441
  65.0188823  50.1160320  78.6194664  64.6528744  49.7319708  79.5716398
  65.9515028  49.6148021  78.3604549  65.2800376  51.5472084  78.7610252
  64.6653376  52.0686265  79.3696026  66.2473435  52.1996871  78.1277251
  67.0901468  51.5454003  77.3323256  66.9928805  50.5475310  77.2102763
  67.8231750  52.0497136  76.8543744  66.3983689  53.5082347  78.3033657
  65.7742682  54.0070807  78.9212256  67.1365574  53.9979087  77.8181895
  61.1428732  49.2709696  76.7566122  61.0223795  50.3209517  76.1287167
  60.3172722  48.8940783  77.7687926  60.5088815  48.0042573  78.2065184
  59.1866547  49.6889759  78.2710154  58.5566414  50.0124362  77.4424287
  58.3363503  48.8341053  79.2319466  58.3827533  47.8110056  78.8588339
  58.8228026  48.8875127  80.2059137  56.8685712  49.2622358  79.3692886
  56.8576914  50.2794202  79.7608475  56.4282329  49.2525489  78.3722377
  56.0469701  48.3397371  80.3055709  56.6188995  48.2377987  81.2278530
  55.1106595  48.8571631  80.5145977  55.7480765  46.9604928  79.7399227
  55.2672818  47.0939301  78.7708347  56.6972336  46.4416732  79.6056615
  54.8592143  46.1508934  80.6298833  53.9794867  46.6312639  80.7540735
  54.6932951  45.2480351  80.2086736  55.3047323  46.0267690  81.5277730
  59.7774592  50.8778272  79.0110213  60.7476928  50.7029178  79.7527883
  59.2530295  52.0816556  78.7502592  58.5649628  52.1218442  78.0119852
  59.6973342  53.3450513  79.3590897  60.2974451  53.2089819  80.2587847
  60.4756678  54.2561082  78.3439340  60.6128233  55.2369453  78.7991781
  61.8507049  53.6622305  77.9798127  61.7143299  52.6815198  77.5240619
  62.3571908  54.3222962  77.2756208  62.4543165  53.5623239  78.8819052
  59.6174127  54.5880749  77.0858194  59.6745530  53.7137423  76.4374536
  58.5934732  54.7120428  77.4383520  60.0332351  55.8099116  76.3162865
  61.0569835  55.6864804  75.9630107  59.3688773  55.9460340  75.4629409
  59.9759057  56.6847811  76.9639103  58.5107943  54.1002911  80.0265062
  58.6955369  55.2028146  80.5514463  57.3118312  53.5087393  79.9677362
  57.2532210  52.6089217  79.5127721  56.0877266  54.0868466  80.5213507
  56.2761304  54.2732698  81.5786347  55.9260364  55.0351915  80.0089079
  54.8387511  53.2317037  80.3848342  54.9139504  52.0717320  79.9608440
  53.6727035  53.8147962  80.7659566  53.7591650  54.7428671  81.1549402
  52.3351842  53.1846124  80.7466043  52.2675449  52.4890288  79.9101310
  52.0847685  52.4132415  82.0461657  52.2968961  53.0876831  82.8757618
  51.0313233  52.1340169  82.0658355  52.8867339  51.2453116  82.1682367
  52.6872374  50.8054488  82.9978882  51.1944402  54.2064772  80.4841231
  51.4645284  55.3720058  80.1671870  49.9454254  53.7418710  80.6034251
  49.8567014  52.7671979  80.8529037  48.7219040  54.5217427  80.4042150
  48.6856678  55.2921934  81.1744045  48.7797311  54.9923210  79.4227306
  47.4547661  53.6885923  80.4787991  47.5156848  52.4819113  80.7567486
  46.2888921  54.3353571  80.2352233  46.3389521  55.3312430  80.0745852
  44.9569589  53.6943163  80.2523666  44.8250547  53.1435918  81.1837113
  43.8474772  54.7513342  80.1457953  42.9036569  54.2410705  80.3379758
  44.0305665  55.4838017  80.9319695  43.7811226  55.4122417  78.8889578
  43.0669397  56.0536247  78.9020151  44.8283545  52.6567462  79.1138333
  44.2869420  51.5594836  79.3057898  45.3487321  53.0432161  77.9361809
  45.7048441  53.9873042  77.9806930  45.4075008  52.3388698  76.6538239
  44.4268122  51.9509456  76.3783896  45.8687183  53.3510319  75.5594020
  45.8407122  52.8912703  74.5715082  45.1938560  54.2067252  75.5806117
  47.2761488  53.9016219  75.7438519  47.5257670  54.9427898  76.6315890
  46.6924714  55.3882486  77.1749902  48.8302147  55.4208824  76.8321828
  49.0075227  56.2409957  77.5279390  49.8878059  54.8538276  76.1496803
  50.9030715  55.2166786  76.3099139  49.6558672  53.8254189  75.2632245
  50.4903005  53.3774924  74.7236106  48.3523182  53.3546360  75.0539267
  48.1714994  52.5490341  74.3423018  46.3472393  51.0930538  76.7025374
  45.9556301  50.0081271  76.2554597  47.5613019  51.2882849  77.2457461
  47.7168976  52.2152006  77.6154982  48.6449568  50.3099833  77.3470533
  48.3667807  49.5722893  78.0997317  48.7504484  49.8191423  76.3795586
  49.9775676  50.9334332  77.7337467  50.0109994  51.8477556  78.5609970
  51.0923881  50.4684027  77.1234167  50.9980489  49.7152913  76.4570664
  52.4581286  50.9365023  77.4675108  52.4090435  51.6162034  78.3182141
  53.3718851  49.7419550  77.8402573  53.6183695  49.2432107  76.9029214
  54.2800609  50.1500840  78.2838197  52.7496003  48.7449900  78.7931752
  52.4261120  49.1404063  79.9380015  52.5997911  47.5662935  78.4019187
  53.1734048  51.7982243  76.4159019  52.7591317  51.8718213  75.2633008
  54.2678643  52.4431046  76.8517250  54.4334089  52.3935480  77.8468323
  55.1508686  53.2836565  76.0426447  54.8450837  53.2214516  74.9982668
  55.1627330  54.7636263  76.4883864  55.5438016  54.8317378  77.5073309
  56.0639240  55.5793125  75.5495489  55.6831968  55.5120562  74.5304199
  56.0701888  56.6222162  75.8664297  57.0788664  55.1833765  75.5845596
  53.7158728  55.3185497  76.4871284  53.4905330  55.5741597  75.4517606
  53.0757238  54.4956897  76.8052639  53.4787707  56.4583061  77.3226193
  54.1182746  57.2817798  77.0047740  52.4339578  56.7580465  77.2412495
  53.7034678  56.2033101  78.3582776  56.5315987  52.6369012  76.0648479
  57.0418892  52.3166136  77.1347360  57.1058335  52.4140995  74.8658055
  56.5851332  52.7238424  74.0577029  58.3907841  51.7578164  74.6506808
  58.8185620  51.4321395  75.5988579  58.1770637  50.5297280  73.7631655
  57.6299336  50.8268089  72.8684640  59.1823273  50.2129987  73.4852666
  57.4563119  49.3841082  74.4371210  56.0643847  49.3090919  74.4329574
  55.4968530  50.1062086  73.9527364  55.3967425  48.2389544  75.0288437
  54.3074856  48.1991055  75.0230686  56.1247452  47.2245868  75.6334498
  55.4810710  46.1539699  76.2202640  54.5249342  46.2090142  76.1541409
  57.5086756  47.2814942  75.6473150  58.0849752  46.4990270  76.1409994
  58.1641630  48.3438653  75.0272224  59.2534687  48.3699847  74.9983977
  59.4526826  52.6265104  73.9876789  59.1342486  53.5248198  73.2104781
  60.7218122  52.3113348  74.2591273  60.9035289  51.5972439  74.9498896
  61.8492274  52.9076963  73.5761596  61.6178638  53.9469086  73.3424760
  63.1174591  52.8696772  74.4357368  62.9287961  53.5845798  75.2366237
  63.2109785  51.8688734  74.8573359  64.4256900  53.2455341  73.7088444
  64.5622324  52.5521510  72.8789789  64.4037082  54.6557948  73.1851589
  64.2676536  55.3498301  74.0145581  65.3462557  54.8718680  72.6821505
  63.5812660  54.7688544  72.4788256  65.6083455  53.0812017  74.6110206
  65.6761539  52.0431777  74.9366088  66.5167175  53.3528558  74.0732795
  65.4947791  53.7277091  75.4812102  62.0298306  52.0006194  72.3474090
  62.0435689  50.7849295  72.4888417  62.0825224  52.5753298  71.1468568
  61.9651654  53.5747250  71.0600477  62.2566811  51.7898269  69.9272831
  62.5349343  50.7633581  70.1661053  60.9701503  51.7681107  69.1088255
  60.6836314  52.7884889  68.8541981  61.1303821  51.1972876  68.1941742
  60.1755524  51.3030123  69.6922610  63.4126734  52.3916996  69.1283888
  63.7819891  53.5467855  69.3342929  64.0102497  51.5919035  68.2627915
  63.7723929  50.6103193  68.2667976  65.1179091  52.0297539  67.4274330
  65.2154056  53.1110865  67.3309274  66.4710909  51.4273195  67.9339168
  66.6077404  51.7476653  68.9667798  66.5159282  49.9142928  67.8645874
  66.3798038  49.5931866  66.8318911  67.4804291  49.5617380  68.2300239
  65.7198503  49.4980233  68.4819032  67.6761820  52.0603709  67.2404938
  67.8785257  51.4552129  66.3567848  67.3673908  53.0594993  66.9331019
  68.9488795  52.1585028  68.0960768  69.2585643  51.1596541  68.4034798
  69.7446752  52.6216201  67.5126980  68.7474285  52.7639391  68.9797986
  64.8100057  51.7613415  65.9456313  64.3695512  50.6659227  65.5987836
  64.9814106  52.7846998  65.0875805  65.2179205  53.6860255  65.4771629
  64.8118915  52.6779385  63.6338095  63.8754209  52.1632548  63.4188153
  64.7775705  54.0677607  62.9594488  63.9302903  54.6094465  63.3799154
  65.7007194  54.5952295  63.1996003  64.6212779  54.0216653  61.4285109
  65.0904421  53.1282777  60.7411605  63.9752683  54.9896113  60.8486471
  63.8578817  54.9845528  59.8455047  63.5938629  55.7420306  61.4040713
  65.9787253  51.8434675  63.1172574  67.1205567  52.3129353  63.1079284
  65.6914102  50.5953927  62.7347663  64.7401083  50.2943813  62.8913423
  66.6661889  49.6044143  62.2629502  67.5511481  49.5336295  62.8953551
  66.0429448  48.1851822  62.0801359  66.7964887  47.5248744  61.6508743
  65.5651194  47.6100483  63.4348509  64.8111717  48.2696207  63.8645341
  65.1351592  46.6206696  63.2787590  66.4119567  47.5341423  64.1169096
  64.9313882  48.1816839  60.9917372  64.0159088  48.5408430  61.4618468
  65.2375893  48.8802793  60.2130814  64.6800752  46.8059814  60.3719361
  64.3733645  46.1069117  61.1499657  63.8924830  46.8829983  59.6223588
  65.5950463  46.4463468  59.9012020  67.4369703  50.0374548  60.9953916
  68.4589455  49.4090496  60.6503792  66.9593672  51.0900221  60.2984444
  66.0642477  51.5092574  60.5060550  67.6700385  51.5338753  59.1071739
  68.3226860  50.7563091  58.7102591  66.7488692  52.0078716  57.9966512
  67.3521917  52.1210833  57.0959375  65.6081487  51.0618951  57.7212713
  65.0040673  50.9485355  58.6214573  64.9899476  51.4616128  56.9174353
  66.0043487  50.0904811  57.4254992  66.2957404  53.2941965  58.3343559
  65.7096611  53.6178671  57.6463525  68.7563361  52.5772527  59.3821013
  69.6392987  52.7227741  58.5368897  68.7377540  53.2620950  60.5367648
  68.0293904  53.0789774  61.2330322  69.6733863  54.3615637  60.7718959
  70.6430514  54.1490118  60.3217065  69.0984067  55.6341348  60.1237359
  69.8173029  56.4531896  60.1446354  68.9089021  55.3440015  59.0902898
  67.8157825  56.1083312  60.7299527  67.5467242  55.9230914  61.9086142
  67.0311266  56.8169771  59.9632799  66.1531610  57.1611808  60.3249427
  67.3059509  57.0174901  59.0122978  70.0786928  54.6656660  62.2565027
  70.8868702  55.5770791  62.4820787  69.5049118  53.9494904  63.2280406
  68.8156266  53.2550999  62.9774272  69.8288406  54.1243853  64.6395097
  69.7412638  53.1400194  65.0993501  70.8677773  54.4518103  64.6782746
  68.9765001  55.1033012  65.4088713  69.1368683  55.2199928  66.6223370
  68.0529347  55.7987870  64.7262934  68.0191657  55.6597217  63.7264835
  67.1460239  56.7724487  65.3191346  67.7135761  57.5880801  65.7671627
  66.2162817  57.3566709  64.2321655  66.8649391  57.7382739  63.4436720
  65.6293113  56.5227582  63.8472560  65.2746212  58.4697349  64.7014735
  65.0015290  58.2395902  65.7313059  65.8486031  59.3960335  64.6766782
  64.0133253  58.6327621  63.8671720  63.6179435  57.6807138  63.1456146
  63.4140650  59.7279341  63.9406796  66.3390285  56.1353610  66.4397432
  65.8286230  55.0398130  66.2593913  66.2741900  56.8052208  67.6123194
  66.8432308  57.6362515  67.6876842  65.4975084  56.3829324  68.7878858
  65.2850874  55.3171527  68.7036833  66.2343831  56.6287648  70.0902836
  66.7660758  57.5765599  70.0061015  65.4970855  56.6961749  70.8902512
  67.2115971  55.5333745  70.4021201  66.6306051  54.6111254  70.3997323
  67.9262793  55.5140821  69.5793465  67.9566722  55.6567839  71.7146852
  67.6692011  56.5814315  72.5135677  68.8515782  54.8106371  71.9336826
  64.1633775  57.0920637  68.8041503  64.0937310  58.2943058  68.5784418
  63.1022222  56.3337362  69.0392390  63.2429604  55.3406364  69.1577507
  61.7355609  56.8447556  69.0491423  61.6709798  57.9119025  69.2615708
  60.9877802  56.5558576  67.7001460  59.9375878  56.8168946  67.8307407
  61.5700727  57.3566757  66.5386233  62.6201961  57.0958190  66.4071104
  61.0215516  57.1248240  65.6256776  61.4849126  58.4221111  66.7523915
  60.9471869  55.0699292  67.3784412  60.4273350  54.5390550  68.1759552
  60.4205125  54.9158011  66.4366566  61.9645814  54.6884751  67.2918264
  60.9523753  56.2695475  70.2411792  61.4061920  55.3367243  70.9043392
  59.7569817  56.8338274  70.4824950  59.4917696  57.6488930  69.9482385
  58.8272997  56.3318709  71.4812653  59.2611946  55.5750488  72.1347594
  58.2802675  57.4534841  72.3369595  57.8342546  58.2149319  71.6971394
  57.5222971  57.0585627  73.0134344  59.0896215  57.8960900  72.9176018
  57.7071664  55.6533854  70.6854137  57.3226661  56.1299614  69.6061579
  57.2443345  54.5040912  71.1900151  57.7213159  54.1369486  72.0010603
  56.1767937  53.7099274  70.5987449  55.6427518  54.2732876  69.8335497
  56.7194320  52.3937323  69.9610771  57.3539839  51.8927299  70.6921310
  55.5930660  51.4672159  69.5514092  54.9583048  51.9673895  68.8199684
  56.0092025  50.5610109  69.1112691  55.0000991  51.2056580  70.4278106
  57.5971028  52.6884766  68.7589083  58.4446638  53.3000096  69.0683752
  57.9606586  51.7521699  68.3355213  57.0173593  53.2252856  68.0080192
  55.1192569  53.4571387  71.6890167  55.3932475  52.7682274  72.6745904
  53.9324259  54.0590737  71.5207476  53.8308427  54.7050515  70.7510120
  52.7751680  53.8272644  72.3912069  53.1351545  53.6140083  73.3977012
  51.8143186  55.0420474  72.4557952  51.4394067  55.2003318  71.4446145
  50.9892177  54.7558092  73.1080039  52.4400111  56.3197683  72.9665937
  52.5393564  56.2556932  74.0501645  53.4268203  56.4336706  72.5178889
  51.5884855  57.5061292  72.6112052  52.1789120  58.1614815  71.9708858
  50.7226067  57.1423093  72.0580430  51.1243436  58.2729310  73.8224724
  51.9815670  58.4168102  74.4801709  50.7569191  59.2430464  73.4878464
  50.0485566  57.5643479  74.5601378  50.3889528  56.6655707  74.8706693
  49.7708244  58.1140798  75.3606124  49.2539776  57.4313054  73.9510048
  52.0739557  52.6220476  71.7610522  51.7900371  52.6110842  70.5564108
  51.8597734  51.5882142  72.5722270  52.1635445  51.7052147  73.5283302
  51.2446409  50.3242442  72.1932063  51.0511938  50.2869288  71.1211592
  52.2356584  49.1876346  72.5580185  53.1628018  49.7117132  72.7900660
  51.8424192  48.7273715  73.4644516  52.5081801  48.1130356  71.5230935
  51.5667044  47.6161548  71.2889272  53.1084258  48.6964683  70.2431340
  54.0502208  49.1931458  70.4764416  53.2887992  47.8944287  69.5273835
  52.4146669  49.4182413  69.8120394  53.4465347  47.0948471  72.0854331
  53.0011770  46.6386420  72.9695331  53.6389182  46.3252415  71.3379058
  54.3848761  47.5769806  72.3595896  49.9225958  50.1796259  72.9613283
  49.8880231  50.3751277  74.1801809  48.8399000  49.8740445  72.2444574
  48.9441403  49.7582671  71.2465451  47.5128408  49.7055894  72.8251103
  47.5921483  49.5842022  73.9054226  46.6476569  50.9362027  72.5328183
  47.0984778  51.7629056  73.0818375  46.7338259  51.1218467  71.4622057
  45.1788249  50.8186224  72.9100573  44.8748819  49.8427465  72.5313941
  45.0702007  50.8369173  73.9944766  44.3033781  51.8931714  72.2967659
  43.8051606  51.7010528  71.1608540  44.1726510  52.9600468  72.9357811
  46.8771378  48.4937735  72.2347799  46.8048370  48.3784494  71.0131732
  46.3660748  47.6041594  73.0862113  46.4388543  47.7264181  74.0861389
  45.6972781  46.4230419  72.5867182  46.3661943  45.8640588  71.9323573
  45.2889578  45.5265699  73.7441216  46.1674855  45.3354792  74.3603787
  44.5366091  46.0473804  74.3364288  44.7582630  44.2953253  73.2836558
  44.5102905  43.7525544  74.0356592  44.4583471  46.8492875  71.7978140
  43.8294125  47.8743270  72.0878507  44.1744504  46.1082679  70.7316758
  44.8201827  45.3723853  70.4834704  42.9523436  46.2466582  69.9516167
  42.7468565  47.3026857  69.7764597  43.0895500  45.5397991  68.5906900
  43.3537169  44.5001721  68.7843158  42.1181274  45.5816053  68.0980537
  44.1440767  46.1723734  67.6888824  43.7819189  47.1723994  67.4503648
  45.0861988  46.2476160  68.2318801  44.3883805  45.4293651  66.4019448
  45.5041291  44.9802301  66.1246800  43.3683656  45.3147834  65.5663337
  43.4886354  44.8241259  64.6917528  42.4744360  45.7185312  65.8071220
  42.0588703  45.4670300  70.9126861  42.5357988  44.4778306  71.4788431
  40.8593026  45.9576116  71.2266734  40.5478421  46.8201354  70.8034189
  40.0014683  45.3307999  72.2471480  38.9953286  45.7447964  72.1808988
  39.9211617  43.8134290  72.0442928  40.9407332  43.4282796  72.0290190
  39.3877623  43.3943633  72.8975038  39.2030518  43.4136500  70.7446020
  38.2308065  43.9063468  70.7351283  39.8010458  43.7749348  69.9079549
  39.0106801  41.9121575  70.6179589  38.6853576  41.5142222  71.5791622
  38.2464254  41.7149361  69.8662156  40.3218651  41.2357021  70.2027122
  41.0862216  41.5170395  70.9270802  40.1668841  40.1573906  70.2391047
  40.7675644  41.6291260  68.8296019  40.9116447  42.6282241  68.7957849
  41.6322584  41.1565685  68.6080308  40.0596225  41.3681346  68.1581849
  40.5017589  45.6867493  73.6757289  40.4059768  44.8850342  74.6103073
  41.0361303  46.9148600  73.8216750  41.1413836  47.4804389  72.9915295
  41.4583027  47.4786995  75.1024409  41.8270060  46.7352361  75.8091369
  42.5366358  48.5446851  74.9078298  42.1785760  49.3012128  74.2095755
  42.7623863  49.0130153  75.8658506  43.4389030  48.0809701  74.5091051
  40.1999044  48.1052033  75.7074043  39.3179451  48.5664804  74.9707597
  40.1155345  48.0795429  77.0427107  40.8677116  47.6059715  77.5223555
  39.0159127  48.6179795  77.8401064  38.0699242  48.1717039  77.5334417
  39.2583796  48.2867470  79.3358075  39.4184718  47.2096745  79.3846382
  40.1769619  48.8030881  79.6145520  38.1365539  48.6809670  80.3046020
  38.5307811  48.5696193  81.3146948  37.9057585  49.7299243  80.1187953
  36.8696825  47.8498336  80.1603212  36.8465158  47.3842498  79.1750324
  36.8490585  47.0761023  80.9277937  35.6817681  48.6898033  80.3097175
  35.3226847  48.8199099  81.2447206  35.0613288  49.2966912  79.3011764
  35.4874098  49.1343062  78.0548554  36.2876950  48.5463578  77.8705723
  35.0094330  49.5994204  77.2963657  34.0036320  50.0575897  79.5291610
  33.6660341  50.1779636  80.4734268  33.5384992  50.5146912  78.7579228
  38.8716280  50.1344315  77.6218311  37.7513918  50.6232825  77.4430196
  40.0170574  50.8628654  77.5986227  40.8842124  50.3801380  77.7860149
  40.0538368  52.3187658  77.4337827  39.0509488  52.6954809  77.2327837
  40.5813995  52.9853614  78.7142990  41.6231240  52.6932975  78.8469947
  40.5099059  54.0727096  78.6885571  39.8556619  52.5398154  79.9344164
  38.5883695  53.0080580  80.2283954  38.2350750  52.3975694  81.3446569
  37.2536879  52.6316079  81.7572151  39.1926594  51.5710725  81.7752749
  39.1859730  50.9938631  82.6040599  40.2239712  51.6394189  80.8714924
  41.1127323  51.0240401  81.0111843  40.8521681  52.7722388  76.1944997
  41.9912758  53.2575155  76.3509678  40.2687470  52.6450227  74.9604552
  39.0879326  51.9983459  74.5703880  38.2798257  52.3864197  75.1904382
  39.2156346  50.9335706  74.7654386  38.8866452  52.2953292  73.1011868
  38.3246897  53.2194512  72.9658960  38.3621833  51.4763892  72.6088673
  40.3180082  52.4274097  72.5681954  40.4330847  53.0625180  71.6898481
  40.7444317  51.4452571  72.3641396  41.0197980  53.0602823  73.7589915
  42.0074633  52.6047150  73.8302231  41.1682169  54.5759877  73.5904158
  40.2216758  55.3079128  73.8726402  42.3622733  55.0460454  73.1551077
  43.1169029  54.3808547  73.0648041  42.6564621  56.4618264  72.9380012
  41.7641581  56.9652370  72.5658851  43.0996371  57.1479802  74.2508157
  42.9840144  58.2206446  74.0955043  42.4067259  56.8165950  75.0242224
  44.5419262  56.8467018  74.6918627  44.6389362  55.7984896  74.9746012
  45.1845566  57.0525587  73.8358537  44.9918696  57.7003927  75.8475927
  44.3384300  57.7793634  76.8948054  46.1483101  58.3266144  75.6944173
  46.5029557  58.9141874  76.4354206  46.6705092  58.2138579  74.8372736
  43.6749913  56.7397189  71.8058461  43.7311383  57.8692241  71.3289180
  44.4672491  55.7391565  71.3911202  44.3601894  54.8645088  71.8847081
  45.5346499  55.8481908  70.3966731  46.2451172  56.6219866  70.6874917
  46.2742625  54.5205075  70.2984126  45.8438597  53.9303350  71.1074547
  46.0689515  54.0334968  69.3451193  47.7536850  54.6299410  70.4937751
  48.1626037  55.2646649  69.7076377  48.0839078  55.2229586  71.8411362
  47.6756851  54.5884972  72.6278457  49.1659938  55.2898618  71.9538960
  47.6489651  56.2195753  71.9165050  48.4089142  53.3150448  70.3024129
  48.2141270  52.9550452  69.2921863  49.4839042  53.4193733  70.4494272
  48.0114694  52.6019287  71.0246331  45.1064155  56.3465439  68.9953707
  45.7834146  57.2200471  68.4224706  43.9931340  55.8228976  68.4549146
  43.4984220  55.0630958  68.8999547  43.5013455  56.3103943  67.1715487
  44.3038392  56.2562867  66.4359024  42.3173598  55.4792469  66.6665617
  42.7529524  54.4889922  66.5333179  41.5553990  55.4387010  67.4449394
  41.6763023  55.9394652  65.3449905  41.3499176  56.9716351  65.4722662
  42.6375246  55.8529817  64.1669980  42.9640069  54.8209577  64.0388005
  42.1337207  56.1893643  63.2608362  43.5038303  56.4866334  64.3569986
  40.4351889  55.1604724  65.0542588  39.7168089  55.3061703  65.8609816
  40.0012018  55.5045301  64.1154400  40.6807055  54.1015262  64.9739251
  43.1036065  57.7843653  67.3223767  43.4699564  58.6000568  66.4854901
  42.3930438  58.1245977  68.4136381  42.0890257  57.3744379  69.0177346
  41.9612963  59.4809837  68.7256467  41.3903436  59.8854475  67.8898709
  41.0645977  59.4958212  69.9921353  40.2444281  58.8114946  69.7750676
  41.6330219  59.1222831  70.8438766  40.5054728  60.8662824  70.3200460
  39.5639904  61.4702041  69.4931213  39.2210141  60.9335699  68.6085364
  39.0608588  62.7352216  69.7776686  38.3249943  63.1917613  69.1157192
  39.5198534  63.4289887  70.8884935  39.0065362  64.6716328  71.1711225
  38.3431862  64.9562738  70.5382355  40.4667162  62.8534762  71.7204155
  40.8273061  63.3901411  72.5979496  40.9582808  61.5816727  71.4304688
  41.7102742  61.1278146  72.0759289  43.1783941  60.3946640  68.8720714
  43.2169032  61.4531594  68.2327009  44.1913531  59.9611702  69.6567179
  44.0665454  59.1144213  70.1929444  45.4472325  60.7028085  69.8105277
  45.2317469  61.6963469  70.2036519  46.4040494  59.9965509  70.7674763
  46.1612851  58.9340964  70.7486310  47.4151744  60.1444633  70.3882031
  46.3193094  60.5068574  72.1863545  46.0080062  61.5514315  72.1938490
  45.5601600  59.8984969  72.6779731  47.6324459  60.3671317  72.9240247
  47.9838475  59.2265976  73.2944095  48.3360002  61.3905725  73.0866262
  46.1408728  60.9201406  68.4657541  46.5717746  62.0264243  68.1986176
  46.2032260  59.8892303  67.5972427  45.8471739  58.9946319  67.9022341
  46.8306767  59.9745447  66.2670036  47.8688390  60.2898997  66.3712600
  46.8005846  58.6158475  65.5628868  47.6489365  58.5818097  64.8793375
  46.9193329  57.8477132  66.3270652  45.6015999  58.3824691  64.8403030
  45.6424395  57.5188826  64.4229897  46.1770568  61.0414395  65.3929609
  46.8757343  61.7054626  64.6292594  44.8363431  61.1851203  65.5083539
  44.3743706  60.5725196  66.1651653  44.0233416  62.1568836  64.7760134
  44.2678326  62.1167392  63.7145466  42.5374275  61.8495591  64.9464159
  42.3684895  61.6630533  66.0069699  41.9890489  62.7413683  64.6430065
  42.0565439  60.6698821  64.1475692  42.0033309  60.9356698  63.0918106
  42.7419056  59.8322060  64.2767206  40.6836590  60.2764261  64.6369008
  40.7625940  60.0306883  65.6959008  40.0240563  61.1351443  64.5118940
  40.1213594  59.1015064  63.8916620  39.7430725  59.4366204  62.9258990
  40.9091126  58.3642473  63.7367647  39.0171036  58.4886476  64.6690939
  38.2868573  59.1715191  64.8123650  38.6449393  57.6993977  64.1604896
  39.3675161  58.1776701  65.5638582  44.2734717  63.5469085  65.3038609
  44.4187726  64.4937429  64.5323415  44.2721931  63.6662656  66.6209810
  44.0079579  62.8479570  67.1507452  44.4755699  64.9040555  67.3314090
  43.8582915  65.7061162  66.9267298  44.0610238  64.6524074  68.7788905
  43.1139147  64.1328135  68.6336122  44.8010490  63.9549030  69.1712555
  43.8688422  65.7814206  69.7555612  44.7790421  65.8552858  70.3506922
  43.5864293  67.1238867  69.0908383  42.6760573  67.0509312  68.4958600
  43.4591883  67.8893273  69.8563519  44.4218218  67.3926708  68.4443284
  42.7768983  65.4459041  70.6818140  43.0272565  64.5343415  71.2244683
  42.6364773  66.2626607  71.3898337  41.8565036  65.2916841  70.1186189
  45.9141741  65.4476024  67.1301238  46.0568550  66.6591149  67.0159237
  46.9471676  64.5753285  66.9581682  46.7580842  63.5981881  67.1300504
  48.3305594  64.9733356  66.6289581  48.6098234  65.8249604  67.2493177
  49.3358061  63.8402650  66.8706850  48.7644667  62.9372939  66.6554786
  50.1727551  63.9141540  66.1763098  49.8601632  63.7785877  68.2860435
  50.7204705  64.7617065  68.7726459  50.9947344  65.5890265  68.1181076
  51.2289434  64.7009918  70.0713649  51.8945231  65.4827866  70.4372917
  50.8992541  63.6303376  70.8910469  51.3777294  63.5934218  72.1778179
  51.9230223  64.3524605  72.3971706  50.0761805  62.6166761  70.4149227
  49.8233508  61.7678028  71.0502114  49.5722827  62.6901332  69.1142798
  48.9418378  61.8892357  68.7280124  48.4428987  65.4784551  65.1976999
  49.3305921  66.2685137  64.9359636  47.5300449  65.0698979  64.2858529
  46.8397545  64.3894742  64.5697935  47.4952996  65.5604185  62.9050429
  48.4921826  65.4794591  62.4717197  46.5107357  64.7504105  62.0329564
  45.6604623  64.5006364  62.6675800  46.1830100  65.4120342  61.2311148
  47.0851499  63.4828033  61.4376502  47.8373565  63.7458071  60.6939332
  47.5481047  62.8936789  62.2292988  45.9798630  62.6650534  60.7755709
  45.1822091  62.5349650  61.5069560  45.6054906  63.2404852  59.9289169
  46.4480762  61.3129903  60.2966715  47.1413443  61.4595130  59.4684137
  46.9634857  60.8139023  61.1172587  45.3078567  60.4741337  59.8452203
  44.8303916  60.9362217  59.0845618  45.6525798  59.5780962  59.5315600
  44.6655547  60.3378862  60.6126732  47.0618623  67.0204059  62.8830441
  47.5908859  67.8086473  62.0884986  46.0441008  67.3554818  63.7034249
  45.5855538  66.6069306  64.2029297  45.5034312  68.7023481  63.8290298
  45.3828947  69.2040769  62.8689056  44.1231839  68.6500794  64.5672509
  44.2595266  68.0820630  65.4875055  43.5718489  70.0448903  64.9034325
  43.4347952  70.6133758  63.9835731  42.6140174  69.9442130  65.4138477
  44.2751950  70.5676299  65.5516198  43.0838978  67.8462239  63.7513215
  42.4797721  68.5749616  63.2108824  43.6457450  67.2414412  63.0395174
  42.1720756  66.9427224  64.5780901  41.6095211  67.5468927  65.2898559
  41.4793491  66.4219863  63.9169826  42.7754946  66.2133733  65.1184930
  46.5544298  69.6213223  64.5350115  46.7587923  70.7548558  64.0957258
  47.2310502  69.1145306  65.5853905  47.0036630  68.1791113  65.8909805
  48.1807793  69.8932353  66.3819811  47.8576277  70.9335873  66.4185883
  48.2698265  69.3546965  67.8218212  48.5627940  68.3203773  67.6416740
  49.0600517  69.8649539  68.3725313  46.9735596  69.3832707  68.6433834
  46.1548843  69.0195875  68.0224114  47.0967085  68.5271351  69.8509319
  47.9149408  68.8905045  70.4726693  46.1666646  68.5623090  70.4182783
  47.2990196  67.4994424  69.5492397  46.5476720  70.8066822  68.9828735
  46.3805164  71.3658152  68.0622603  45.6262459  70.7818104  69.5646437
  47.3312266  71.2918913  69.5648642  49.5811102  70.0266741  65.7852310
  50.3760958  70.8336106  66.2755628  49.8865083  69.2749381  64.7302661
  49.2476143  68.5573890  64.4187580  51.2018147  69.3507628  64.1017437
  51.9705774  69.2169679  64.8627970  51.3819021  68.2687644  63.0267046
  50.5686321  67.5520439  63.1407344  51.3039214  68.7542535  62.0539151
  52.7390831  67.5293171  63.1269502  52.6931553  66.6101735  62.5428556
  53.4764447  68.2015473  62.6881947  53.1777451  67.1839482  64.5444103
  53.9934933  67.9048354  65.1711914  52.6139940  66.1061573  65.0949639
  52.8678120  65.8307469  66.0329548  51.9362861  65.5711696  64.5709395
  51.5162658  70.7504020  63.5753818  50.6432156  71.4242435  62.9958803
  52.7347054  71.2038118  63.9012368  53.3449914  70.6058774  64.4398691
  53.2237355  72.5230851  63.5145155  54.1365939  72.3803615  62.9362261
  52.4637261  72.9853233  62.8845782  53.5184872  73.4377396  64.6810632
  54.3601724  74.3326215  64.5691278  52.8199507  73.2087016  65.7900890
  52.1269992  72.4740806  65.7742981  53.0007116  73.9576173  67.0198325
  52.9421345  75.0281506  66.8232968  52.2382903  73.6801168  67.7477106
  54.3530436  73.6382992  67.5838440  54.8851417  72.5551256  67.3287373
  54.9478533  74.5723890  68.3150464  54.5989153  75.5159787  68.4043775
  56.2434376  74.2491379  68.9238935  56.8263115  73.5516281  68.3223643
  57.1068179  75.5139931  69.1942944  58.1459330  75.2046350  69.3067073
  56.9963310  76.5294993  68.0458364  55.9574989  76.8396956  67.9331108
  57.6127422  77.4001996  68.2694851  57.3402860  76.0697896  67.1193033
  56.7602294  76.1520339  70.5137225  56.9343593  75.4390158  71.3195674
  57.3842087  77.0324899  70.6671721  55.7109135  76.4470391  70.5107374
  55.8844040  73.4169414  70.1855154  54.7627442  73.5515093  70.7203955
  56.7463625  72.5187534  70.6171702  57.6446414  72.3303449  70.1956294
  56.3586055  71.7469994  71.7934301  57.2528587  71.2361631  72.1504411
  56.0222268  72.4590101  72.5470809  55.2635420  70.7209253  71.5592428
  54.7230288  70.1816743  72.5155188  54.9253097  70.4328603  70.2904550
  55.3228436  71.0151225  69.5672421  53.9689053  69.3913915  69.8978452
  53.5352981  68.9500371  70.7952249  52.8306232  69.9213402  68.9789430
  53.2690696  70.2855158  68.0498352  51.8306211  68.8194998  68.6691132
  51.3913817  68.4551141  69.5977641  51.0437910  69.2127190  68.0253913
  52.3385084  67.9993456  68.1616719  52.1102618  71.1009714  69.6403980
  52.8513040  71.8889861  69.7745251  51.3456284  71.4373537  68.9401965
  51.4589332  70.7764082  70.9915134  52.2230684  70.4403755  71.6924265
  50.9730604  71.6692497  71.3850370  50.7173939  69.9887409  70.8580980
  54.8452784  68.3129155  69.2341633  55.4721655  68.6388944  68.2256901
  54.9931108  67.0702894  69.8055799  54.4329880  66.5158762  70.9594125
  53.3737127  66.7727824  70.9653618  54.9231889  66.9778828  71.8163559
  54.6682378  65.0234504  70.8961384  53.8562065  64.5251252  70.3666328
  54.7601325  64.6031422  71.8976361  55.9913841  64.9063850  70.1298736
  56.1378645  63.9774111  69.5788293  56.8344446  65.0663310  70.8020089
  55.8741852  66.0702879  69.1587693  56.8613086  66.5261631  69.0821960
  55.4182900  65.6059241  67.7726309  54.2267428  65.6179724  67.4301765
  56.3949844  65.2156114  66.9762998  57.3448533  65.3240560  67.3020116
  56.1830504  64.7244855  65.6349243  55.3392189  65.2384855  65.1746510
  57.4450154  64.9835915  64.7805066  57.6362147  66.0549224  64.7189259
  58.3023465  64.4876049  65.2355679  57.3584366  64.4854415  63.3809182
  56.6157807  65.1544455  62.4177829  56.7577603  64.4475565  61.3050238
  56.2464287  64.8070361  60.4120437  57.5364643  63.3798879  61.4988972
  57.8067271  62.6798622  60.8228632  57.9226621  63.3925582  62.8182427
  58.5673742  62.6033377  63.2049965  55.7953674  63.2302830  65.6971312
  56.3740744  62.4502728  66.4713026  54.7969608  62.8569625  64.8827885
  54.3048949  63.5850949  64.3849997  54.3171268  61.4862976  64.7545337
  54.7069728  60.8113955  65.5165222  52.7604973  61.4299386  64.7587988
  52.3988544  62.1122228  63.9895114  52.2188761  60.0197819  64.4871399
  52.5797417  59.3369794  65.2563327  51.1291520  60.0394972  64.5017475
  52.5625406  59.6799807  63.5101400  52.1837819  62.0279896  66.0608646
  52.4860541  63.0750898  66.0431579  51.1023616  61.9604844  65.9422367
  52.5984302  61.3897375  67.4248481  53.6797454  61.4572904  67.5444053
  52.1092602  61.9232066  68.2398468  52.2960546  60.3426837  67.4434830
  54.9292499  60.8728026  63.5071468  54.7929412  61.4394372  62.4201182
  55.6109232  59.7230642  63.6679203  55.6791720  59.3383266  64.5992733
  56.2577695  59.0040704  62.5720764  56.6661212  59.7240460  61.8628634
  57.4066300  58.1038479  63.0784045  56.9236254  57.3065414  63.6433011
  57.8655606  57.6867408  62.1820205  58.4636273  58.7489363  63.9275804
  57.9550032  59.2859530  64.7282148  59.0702425  57.9503538  64.3546472
  59.3528289  59.7043023  63.1665034  59.6766491  59.2426246  62.2337155
  58.8058546  60.6211680  62.9467854  60.5364640  60.0426465  63.9578447
  61.4042050  59.5807253  63.7259960  60.5344741  60.9277733  64.9487835
  59.4201759  61.5651396  65.2812195  58.5650692  61.3770953  64.7776999
  59.4317019  62.2357039  66.0364083  61.6521564  61.1713129  65.6258955
  62.5019560  60.6816633  65.3846822  61.6464395  61.8448837  66.3784700
  55.2945496  58.1165107  61.8343297  55.4062846  58.0061285  60.6184115
  54.4433935  57.3747031  62.5716518  54.4202005  57.5240271  63.5702828
  53.5480742  56.3681852  61.9996290  53.0494015  56.7597958  61.1130255
  54.3800176  55.1254887  61.5917667  55.2289304  55.3670054  60.9521449
  54.7416118  54.7227416  62.5378874  53.6312683  54.0166784  60.9111735
  53.2652963  53.9637835  59.5970150  53.5026590  54.8327034  58.9832260
  52.6472682  52.7649224  59.3268311  52.2896707  52.4826165  58.4254284
  52.6173159  52.0044849  60.4709533  52.1015986  50.7213777  60.6964146
  51.6162148  50.2038747  59.8689535  52.2424673  50.1901888  61.9630366
  51.8612486  49.1906348  62.1719956  52.8643979  50.9054412  62.9882094
  52.9617562  50.4810405  63.9874616  53.3771550  52.1770071  62.7671113
  53.8291331  52.7003170  63.6097044  53.2581460  52.7469889  61.4845437
  52.4879889  55.9331745  63.0017497  52.7657281  55.7569611  64.1911389
  51.2726328  55.7422813  62.5003083  51.0843088  56.0912605  61.5714128
  50.1798954  55.1570971  63.2482878  50.5980154  54.7365422  64.1628414
  49.0437003  56.1385384  63.6291378  49.5330570  56.8179143  64.3270473
  48.6465136  56.7066567  62.7879576  47.9101885  55.4211521  64.3339193
  48.0007351  55.0950348  65.6841556  48.8523614  55.4645058  66.2554026
  47.0317210  54.3141284  66.3063917  47.1223205  54.0585422  67.3621233
  45.9428554  53.8694931  65.5780338  44.9717342  53.1207369  66.1784542
  45.1432330  52.9607984  67.1093717  45.8340808  54.1714362  64.2353702
  44.9843801  53.8076494  63.6576434  46.8134259  54.9425336  63.6205540
  46.7318358  55.1833894  62.5606334  49.6653663  53.9844980  62.4350226
  49.4411769  54.1078700  61.2210323  49.4967329  52.8562014  63.1010284
  49.7178853  52.7952843  64.0846340  48.9887703  51.6730349  62.4366196
  48.0255231  51.9115804  61.9856760  49.6920266  51.3807911  61.6567969
  48.8123032  50.5310190  63.3855590  48.7937347  50.7250888  64.5945214
  48.6856759  49.3402735  62.8303286  48.7012650  49.2932724  61.8215436
  48.4954117  48.1013074  63.5778597  48.4578738  48.3252303  64.6439500
  47.1789982  47.3936170  63.1743678  47.2066805  47.2821796  62.0904330
  47.2009295  46.4088047  63.6410193  45.8926491  48.1225090  63.5801492
  45.0626415  47.4272937  63.4541975  45.9735816  48.4045401  64.6299161
  45.6095435  49.3663979  62.7655895  45.6325959  49.3549142  61.5301654
  45.3434444  50.4719285  63.4452640  45.1473700  51.3303623  62.9505442
  45.3378680  50.4512610  64.4550377  49.6665698  47.1809399  63.3270464
  50.2372875  47.1879635  62.2332178  50.0298733  46.4008128  64.3476043
  49.5502614  46.5736412  65.2195000  51.0699095  45.3854376  64.3226263
  51.1041295  44.9376781  63.3294296  52.4629782  45.9697103  64.6492283
  52.6868685  46.7021711  63.8736810  52.3748188  46.4750589  65.6109719
  53.5895687  44.9395249  64.7169111  54.4565621  45.4318707  65.1573867
  53.1699329  44.2338368  65.4338555  54.0150913  44.1920527  63.4581475
  53.7567197  44.6914965  62.3370154  54.6910788  43.1460523  63.6048105
  50.6264277  44.3353645  65.3313207  50.5423043  44.6293483  66.5279241
  50.2999714  43.1215216  64.8303849  50.3305723  43.0415130  63.8240243
  49.7895449  41.9826231  65.6040805  49.5961159  41.1563765  64.9199745
  50.7869334  41.4985423  66.7006766  50.8295504  42.2906418  67.4482469
  50.3466320  40.6051139  67.1434186  52.2046389  41.1807076  66.2121459
  52.5405004  42.0509052  65.6481831  52.8212403  41.0660296  67.1036356
  52.3305290  39.9280779  65.3402339  52.1317920  39.0661217  65.9771281
  51.5656767  39.9913124  64.5662173  53.7000738  39.7733879  64.6892799
  53.6900953  38.8341387  64.1362773  53.8217853  40.6031094  63.9929699
  54.8388060  39.7674381  65.6622566  54.7264428  38.9984149  66.3072973
  55.7093105  39.6620311  65.1610469  54.8484888  40.6378559  66.1744852
  48.3978605  42.3628310  66.1590527  47.5746796  42.8778789  65.3902245
  48.1452699  42.1692382  67.4707257  48.8138006  41.6602547  68.0311735
  46.8623358  42.5329030  68.0790990  46.1223838  42.7084500  67.2982318
  46.3508376  41.3980382  68.9991079  46.3998418  40.4868936  68.4028584
  47.0343788  41.3158359  69.8441606  44.9262715  41.5930057  69.5141451
  43.9760706  41.5409756  68.6876071  44.7630016  41.8240383  70.7392087
  46.9371035  43.9137718  68.7857681  46.2105569  44.1737608  69.7446872
  47.7945692  44.8132035  68.2679814  48.3236409  44.5463981  67.4500588
  47.9930932  46.1527338  68.8142713  47.2914470  46.3249856  69.6304338
  49.4186802  46.3105384  69.3527140  50.0455641  46.0458996  68.5011965
  49.5948930  47.3516058  69.6233201  49.7590701  45.4249333  70.5199155
  49.5343322  45.8455599  71.8243250  49.0794077  46.8223380  71.9887870
  49.8779975  45.0464170  72.9102949  49.6878384  45.3913165  73.9266539
  50.4665121  43.8115025  72.6970678  50.7990581  43.0014819  73.7645975
  50.5787844  43.3910058  74.6139210  50.7201262  43.3839795  71.4031752
  51.1843208  42.4136147  71.2270614  50.3800492  44.1981609  70.3271031
  50.6007101  43.8765875  69.3092626  47.8002227  47.2498220  67.8044038
  48.0194689  47.0523054  66.6126918  47.4414888  48.4302591  68.3170638
  47.1999261  48.3894795  69.2969024  47.3892813  49.7164827  67.6489822
  47.3287961  49.5595015  66.5720432  46.1716013  50.5357220  68.0939546
  46.1413315  50.5335914  69.1835318  46.2814476  51.5594114  67.7360528
  44.8715666  49.9818535  67.5755864  44.7485848  49.6120663  66.3943528
  43.8665953  49.9235884  68.4471269  42.9700613  49.5609019  68.1559482
  44.0054397  50.2423455  69.3953974  48.6929182  50.3636011  68.1178177
  49.0680117  50.2238927  69.2924242  49.4203946  50.9992594  67.1837986
  49.0211313  51.0755070  66.2592044  50.7590681  51.5444709  67.4082176
  51.0678053  51.5558908  68.4535167  51.8082382  50.7231296  66.5855139
  51.6116603  50.8739024  65.5240413  53.2252409  51.1613051  66.9042558
  53.4227266  51.0103888  67.9655402  53.9291999  50.5718589  66.3168076
  53.3433503  52.2169441  66.6597601  51.6570701  49.2164426  66.7740172
  50.6634480  48.9070725  66.4498146  52.4101364  48.6981229  66.1804386
  51.7894878  48.9663525  67.8266431  50.8520266  53.0074212  67.0317549
  50.5103748  53.3760201  65.9104761  51.3948703  53.8219938  67.9398475
  51.5635259  53.4759936  68.8736240  51.6710847  55.2240765  67.6630813
  51.4530078  55.4126657  66.6119030  50.8288873  56.2153760  68.5344222
  49.7967805  55.8873483  68.4109204  51.1426218  56.0460239  69.5644662
  50.9336855  57.7299695  68.2038157  51.9886696  57.9971295  68.1427021
  50.2546006  58.0615676  66.8973699  49.1994085  57.7950963  66.9578809
  50.3483866  59.1293081  66.6992912  50.7248733  57.5001183  66.0900791
  50.3007193  58.5817815  69.2824644  50.8058265  58.4017769  70.2314452
  50.3936274  59.6346149  69.0159848  49.2461064  58.3234173  69.3780599
  53.1737643  55.4173947  67.8533968  53.6883349  55.2612799  68.9667011
  53.8818711  55.6904216  66.7393326  53.3978659  55.6318699  65.8547932
  55.3214946  55.9493683  66.7263016  55.7735585  55.6680727  67.6774116
  56.0833174  55.2252084  65.5806609  55.7720600  55.6510205  64.6267730
  57.5944553  55.3919573  65.7440222  57.9065513  54.9659374  66.6975442
  58.1072565  54.8772695  64.9314756  57.8483150  56.4517043  65.7196671
  55.7040015  53.7403405  65.5187596  54.6330134  53.6455569  65.3395875
  56.2514278  53.2584261  64.7087086  55.9576151  53.2603105  66.4639327
  55.5094591  57.4656735  66.6952388  54.9386884  58.1553659  65.8438551
  56.2821186  57.9825183  67.6514969  56.6937195  57.3575017  68.3297581
  56.5163340  59.4089015  67.7980823  56.4450298  59.9046088  66.8299453
  55.4552922  60.0121620  68.7397223  55.7450996  61.0464545  68.9250596
  54.5059592  59.9917135  68.2045131  55.3021638  59.2685356  70.0915849
  54.9584043  58.2550501  69.8847580  56.2805931  59.2291649  70.5703625
  54.1219566  60.0836366  71.2095095  55.1379510  61.4315441  71.8570022
  55.4678728  62.0660269  71.0343953  54.5517589  62.0239149  72.5595521
  56.0076622  61.0185305  72.3680047  57.9091510  59.7292143  68.3208351
  58.6754837  58.8212000  68.6533680  58.1910987  61.0407889  68.4603757
  57.4520874  61.6765189  68.1961618  59.4302977  61.6036028  69.0055953
  60.2576564  61.3912946  68.3284675  59.3102810  63.1487596  69.1765205
  58.3069135  63.2069557  69.5983809  60.0344378  63.4958407  69.9135631
  59.3899584  64.0249137  67.9367578  60.0056633  63.5814124  66.9271697
  58.9473761  65.2230695  68.0165362  59.6943687  61.0486957  70.3888691
  58.7828260  61.0226855  71.2117812  60.9385680  60.6396298  70.6554103
  61.6251491  60.6217362  69.9148797  61.3576641  60.2483949  71.9964866
  60.5661123  59.6638027  72.4653116  62.6251365  59.4096303  71.9610951
  62.4227502  58.5708839  71.2950293  63.3992905  60.0408238  71.5247690
  63.0921644  58.8919116  73.2884445  63.0999794  59.7125116  74.0058394
  62.1767849  57.8020449  73.7825565  62.1688067  56.9808386  73.0658590
  62.5314086  57.4384654  74.7470008  61.1669390  58.1972143  73.8927969
  64.4492470  58.3435229  73.1647133  65.1284193  59.1260043  72.8262650
  64.7803893  57.9697733  74.1336082  64.4473801  57.5272840  72.4423217
  61.6452675  61.5720695  72.7343136  62.4411909  62.3974507  72.2601166
  60.9465645  61.8003314  73.8466215  60.2492038  61.1315035  74.1406563
  61.1225324  63.0123511  74.6424114  61.7583524  63.7181253  74.1078882
  59.7518668  63.6841401  74.9086974  59.2321577  62.9278752  75.4969705
  59.9189881  64.5694481  75.5222120  58.8997485  64.0593539  73.6932798
  58.8228686  63.1928145  73.0365455  57.5410528  64.4837099  74.1128390
  57.6170965  65.3505501  74.7692720  56.9536473  64.7454757  73.2327628
  57.0530096  63.6672435  74.6450955  59.5591958  65.1442285  72.8397393
  60.5242324  64.7875142  72.4797966  58.9185238  65.3777017  71.9893683
  59.7053571  66.0415433  73.4410395  61.8128416  62.6385016  75.9462426
  61.8734505  61.4552288  76.2989648  62.3141655  63.6432076  76.6483974
  62.2132272  64.5689517  76.2573620  62.9914298  63.5053317  77.9278915
  63.7020602  62.6831659  77.8433510  63.5306515  64.4323903  78.1225751
  62.0579706  63.2302418  79.0781917  60.9535885  62.7088041  78.8775928
  62.5121024  63.5192209  80.3214557  63.8821057  63.5322400  80.7334878
  64.1954253  64.5684714  80.8605926  64.4827130  63.0647031  79.9532448
  63.9126398  62.7532650  82.0291314  64.7591304  63.0579651  82.6445261
  63.9717765  61.6822403  81.8354556  62.5785071  63.1167599  82.6923925
  62.5854878  64.0684988  83.2236583  62.2332500  62.3296086  83.3626834
  61.6622989  63.2068616  81.4831013  61.2396363  62.2146932  81.3248089
  60.5369464  64.2094608  81.6909752  60.6110498  65.3480203  81.2132796
  59.4953047  63.7788412  82.4167508  59.4576764  62.8208813  82.7345501
  58.3905471  64.6543378  82.7445028  58.1292370  65.2625470  81.8785364
  57.1747008  63.8383526  83.1493422  56.2899271  64.4707091  83.0758578
  57.0763355  62.9957936  82.4648580  57.3011760  63.3583590  84.4707991
  56.5219658  62.8472981  84.7015540  58.8012653  65.5954529  83.8979112
  59.8265724  65.3646599  84.5548906  57.9566292  66.6105187  84.1651137
  57.1797058  66.7521337  83.5354832  58.1550973  67.5687634  85.2427493
  59.1705274  67.9611393  85.1875935  57.1713517  68.7414888  85.1562584
  56.2129387  68.2305724  85.0640181  57.1935802  69.3054776  86.0887404
  57.3533361  69.6954781  83.9813954  57.2239769  69.1414937  83.0516275
  56.3305072  70.8243700  84.0464965  56.4595562  71.3791329  84.9758421
  56.4752397  71.4957489  83.2000901  55.3244860  70.4063967  84.0101636
  58.7843932  70.2361519  83.9058233  59.4808442  69.4065282  83.7842506
  58.8734815  70.9122343  83.0554838  59.0187131  70.7750101  84.8238783
  58.0786804  66.8988553  86.5932098  58.7899504  67.3181891  87.4905365
  57.2902564  65.8038042  86.7155647  56.7031306  65.5603386  85.9306398
  57.1868413  65.0080758  87.9252901  57.0724248  65.6634020  88.7887457
  55.9815513  64.0816132  87.8548271  55.1143841  64.7048930  87.6365550
  56.1550594  63.3975976  87.0240939  55.7226751  63.2756930  89.1351852
  54.9289034  62.5658052  88.9026196  56.6643543  62.7402236  89.2560649
  55.3856770  64.0083431  90.4283248  54.9873693  65.1941900  90.3811298
  55.4639702  63.3600427  91.4955824  58.4938676  64.2218684  88.1428516
  58.9430498  64.0966890  89.2821625  59.1196658  63.7266127  87.0598223
  58.6819085  63.8442568  86.1572550  60.3974755  63.0044617  87.1253832
  60.3184878  62.2032828  87.8602115  60.7765785  62.3883434  85.7633850
  60.7772400  63.2417725  85.0853307  61.7857527  61.9831887  85.8376629
  59.8413337  61.3201594  85.2301212  59.1349437  60.6766163  86.0523896
  59.8541856  61.0812732  83.9945354  61.4911246  63.9638147  87.5635003
  62.3017729  63.6200714  88.4235408  61.4837973  65.1798453  86.9962040
  60.8311316  65.3519601  86.2448697  62.4643937  66.2112178  87.3093039
  63.4541080  65.7591885  87.3743756  62.4944300  67.3018527  86.2358053
  61.4624663  67.6480207  86.1782039  63.1336744  68.1202167  86.5670860
  62.9482487  66.8280368  84.8608627  62.5344508  65.8356700  84.6817532
  62.4911072  67.7573507  83.7891998  62.9049067  68.7498822  83.9673854
  62.8311114  67.3910545  82.8205280  61.4024806  67.8117693  83.7947735
  64.4311789  66.6644536  84.8021473  64.7456297  65.9284611  85.5421035
  64.7207443  66.3254812  83.8074862  64.9112926  67.6198273  85.0139278
  62.2598858  66.7724340  88.7077895  63.2477589  67.0780265  89.3796086
  60.9808806  66.8511028  89.1599487  60.2416862  66.6599658  88.4987697
  60.6088481  67.3064555  90.5119756  61.0947690  68.2603712  90.7169754
  59.0813144  67.4914481  90.6474839  58.6462827  68.0077869  89.7917732
  58.7085045  66.4677498  90.6814635  58.5527410  68.1881457  91.8904210
  58.8415914  69.5272777  92.1348136  59.5006167  70.0645110  91.4527828
  58.2966331  70.1829703  93.2402912  58.5680363  71.2176512  93.4497582
  57.4124119  69.5191498  94.0693342  56.9745758  70.0366071  94.9229368
  57.0849325  68.2081576  93.8186201  56.3705871  67.6935823  94.4612890
  57.6630980  67.5390248  92.7477929  57.4241320  66.4910571  92.5667991
  61.1943399  66.3243499  91.5324504  61.8867008  66.7653894  92.4480064
  61.0251184  64.9991205  91.2893368  60.4051851  64.7680157  90.5262034
  61.5924620  63.8960617  92.0882559  61.2788081  63.9981227  93.1271514
  61.1146008  62.5410776  91.5643697  61.2422284  62.5849208  90.4827560
  61.7247173  61.7336613  91.9692607  59.6576975  62.2474660  91.8691125
  59.0920178  62.6700003  92.9014134  59.0331917  61.4543264  91.0049394
  58.0616304  61.2198090  91.1504382  59.5329701  61.0896671  90.2065999
  63.1309950  63.9550802  92.1323793  63.7065212  63.9218465  93.2132850
  63.7736879  64.1133807  90.9709350  63.1860046  64.0857315  90.1499824
  65.2169539  64.2772211  90.7862691  65.7467710  63.3817965  91.1112428
  65.5134086  64.5098411  89.2869481  65.1567322  63.6617439  88.7024720
  65.0015911  65.4155640  88.9616651  66.9678620  64.6894852  88.9419635
  67.8195291  63.5945197  88.8582701  67.4186906  62.5921960  89.0091862
  69.1789295  63.7695915  88.5833856  69.8428599  62.9056907  88.5521995
  69.6809758  65.0349789  88.3515122  70.7411750  65.1720556  88.1387035
  68.8411271  66.1229474  88.3894195  69.2326298  67.1197858  88.1865922
  67.4871782  65.9516250  88.6875468  66.8233287  66.8154328  88.7227595
  65.7485491  65.4482330  91.6296046  66.8255091  65.3432284  92.2154556
  64.9675171  66.5465125  91.7124596  64.1561264  66.5429423  91.1110181
  65.2559320  67.7611827  92.4849763  66.3332327  67.8754110  92.6052852
  64.7152704  68.9857716  91.7700782  63.6439165  68.8901049  91.5935909
  64.9084302  69.8891566  92.3485977  65.4651026  69.2569837  90.1553557
  64.7726914  70.3542689  89.8630712  64.7691063  67.6991610  93.9312114
  64.6499611  68.7435434  94.5875739  64.5136385  66.4784500  94.4304498
  64.5517472  65.7150407  93.7702580  64.0487087  66.1982732  95.7879947
  63.7489480  65.1525810  95.8570641  65.1449627  66.4623256  96.8234084
  65.2979548  67.5387926  96.9002944  64.8141100  66.0731963  97.7863284
  66.3629568  65.8373518  96.4547566  67.0303185  66.0194438  97.1203922
  62.7365932  66.9234351  96.1384663  62.6353581  67.4712659  97.2427180
  61.7213233  66.8901957  95.2047232  61.9681363  66.5111457  94.3016707
  60.3681037  67.4440888  95.3834523  59.8044747  67.4326189  94.4505590
  59.6444032  66.5419634  96.4088772  59.7332930  65.5437740  95.9801398
  60.2701988  66.6117252  97.2986037  58.1811681  66.8059889  96.7908780
  58.1467911  67.4777941  97.6485474  57.6648115  67.2663177  95.9485151
  57.4915865  65.4788878  97.1514679  58.0642438  64.9495704  97.9130358
  56.4826743  65.6645508  97.5198764  57.4073576  64.6370324  95.9593380
  58.1568427  63.9811335  95.7915042  56.4103188  64.7003934  95.0803396
  55.3527960  65.4763981  95.3147094  55.3075885  66.0199296  96.1647858
  54.6012589  65.5175118  94.6412101  56.4519171  63.9784887  93.9709158
  57.2440074  63.3778257  93.7923185  55.6913628  64.0318999  93.3084936
  60.4363572  68.9538587  95.7931769  59.6913345  69.4397593  96.6383260
  61.3567169  69.6790701  95.1801505  61.9761883  69.2042307  94.5391496
  61.6002075  71.0833506  95.4602104  60.6666494  71.5907312  95.7033840
  62.5664929  71.2028381  96.6823730  61.9150679  71.2103613  97.5562654
  63.1486807  70.2814020  96.6717495  63.5259099  72.4192607  96.7429043
  64.2313325  72.2188260  97.5493195  64.0586513  72.4424589  95.7922464
  62.8464463  73.7776983  96.9825765  62.0552280  73.9050324  96.2437541
  62.4124774  73.7769577  97.9824614  63.7785479  74.9096359  96.8744390
  64.7638255  74.6899743  96.8416320  63.4108693  76.1893984  96.8328758
  62.1240408  76.5212893  96.8670633  61.4206865  75.7987612  96.9249070
  61.8556388  77.4944461  96.8350347  64.3257232  77.1450817  96.7409533
  65.3049138  76.9005472  96.7023689  64.0390605  78.1130499  96.7099560
  62.1126332  71.7972753  94.1901236  63.1034811  71.3567063  93.5920171
  61.3762421  72.8558903  93.7562302  60.4996286  73.0131309  94.2325951
  61.7356321  73.7501831  92.6400831  62.7185038  73.4473363  92.2790481
  60.7482742  73.7368654  91.4529766  59.7578193  73.8207019  91.9002682
  60.9386927  74.6086992  90.8270799  60.7055735  72.5442435  90.5302986
  61.7834546  71.6657876  90.4444120  62.6590780  71.8272836  91.0731429
  61.7478244  70.5835675  89.5602626  62.5941581  69.8989874  89.5039595
  60.6401443  70.3811105  88.7574956  60.6178071  69.5399013  88.0646982
  59.5674525  71.2393857  88.8322551  58.6902539  71.0711850  88.2074900
  59.6024376  72.3231283  89.7062425  58.7598153  73.0129840  89.7530028
  61.8467467  75.1922305  93.1429237  61.0014595  75.6438651  93.9442337
  62.8710866  75.9266322  92.6254414  63.5387957  75.4586349  92.0294191
  63.1081475  77.3244837  92.9645803  62.8707944  77.5670603  94.0003985
  64.5549702  77.7752569  92.6715265  64.6248531  78.8403543  92.8923978
  65.5612352  77.0344072  93.4795312  65.4922659  75.9692133  93.2588398
  66.5608478  77.3920931  93.2326821  65.3687290  77.1984688  94.5397792
  64.8673959  77.7131896  91.2694338  65.7727576  78.0005348  91.1303176
  62.0996279  78.1606961  92.2386113  61.5406328  77.7102286  91.2336647
  61.8608062  79.3839610  92.7368895  62.2520289  79.6463780  93.6302996
  60.9367115  80.2998613  92.0949460  59.9587812  79.8293891  91.9929284
  60.7831664  81.5667577  92.9285348  60.5638774  81.2545754  93.9495901
  61.7421297  82.0844025  92.9054430  59.6875257  82.5057243  92.4384101
  59.5803178  83.2852962  93.1926480  60.0444627  82.9475890  91.5081125
  58.0844349  81.7349628  92.1512245  57.6787339  81.2139224  93.8849831
  57.6426878  82.0920053  94.5297855  56.7099410  80.7145400  93.8975561
  58.4448794  80.5286640  94.2476719  61.3564926  80.5735976  90.6331220
  60.4805629  80.6465951  89.7618532  62.6919260  80.5863694  90.3453814
  63.3323995  80.5598284  91.1258868  63.2464286  80.7582156  88.9937688
  62.8190716  81.6535726  88.5423257  64.7845946  80.9050099  89.0211511
  65.0332472  81.7209743  89.6997329  65.2051866  79.9747035  89.4029001
  65.3649646  81.1964611  87.6427143  64.9155027  80.4927197  86.9421197
  65.0752667  82.2120312  87.3729096  66.8405485  81.0730723  87.5879289
  67.2941623  81.8538792  88.1983991  67.1386278  80.0960438  87.9682753
  67.3072640  81.2201235  86.1492150  67.1647194  80.2645968  85.6444870
  66.6929903  81.9804374  85.6668357  68.7411487  81.6153995  86.0675226
  69.3105577  80.9107952  86.5140714  69.0116784  81.7024001  85.0983247
  68.8733706  82.5009962  86.5347858  62.8058982  79.6289273  88.0331117
  62.4093110  79.9220005  86.9062680  62.8741228  78.3545300  88.4740401
  63.3721918  78.1821532  89.3356159  62.4303593  77.2007710  87.6845927
  62.8439720  77.3172028  86.6828605  62.9366222  75.8700490  88.2748695
  62.7144710  75.8737289  89.3419850  62.2886626  74.6437258  87.6227223
  62.5107812  74.6391103  86.5556039  62.6846076  73.7367870  88.0796563
  61.2091220  74.6818964  87.7684472  64.3352922  75.7928533  88.0104738
  64.6834577  74.9721779  88.3666660  60.9123123  77.2650757  87.4612272
  60.4662526  77.2474401  86.3258080  60.1411526  77.4197006  88.5138643
  60.5634694  77.3480733  89.4285322  58.6766881  77.5203953  88.4281530
  58.2290344  76.6691254  87.9152739  58.0167624  77.6554614  89.8460208
  58.4904322  78.4908945  90.3615669  56.5038601  77.8980005  89.7622979
  56.0294067  77.0627042  89.2472493  56.0930256  77.9845668  90.7681914
  56.3129632  78.8192587  89.2118951  58.3187866  76.4363459  90.6944827
  59.3973167  76.3356637  90.8158832  57.8525199  76.5496101  91.6731891
  57.9240321  75.5458001  90.2054042  58.2545045  78.6283320  87.4438160
  57.3736261  78.3922713  86.5918985  58.9001920  79.8094430  87.5301905
  59.5327095  79.9945438  88.2955393  58.5644661  80.9155072  86.6194984
  57.4812706  80.9732628  86.5124890  59.0752692  82.2561313  87.1401261
  60.1068113  81.9660342  87.3397856  59.0613992  83.0749676  86.4208106
  58.4024355  82.7171183  88.4618064  58.3837567  81.8697464  89.1471624
  59.1511011  83.8840526  89.1134238  59.1697947  84.7320132  88.4287982
  58.6444803  84.1724489  90.0344361  60.1724748  83.5791691  89.3413321
  56.9069921  82.9254512  88.2944047  56.4418556  81.9899831  87.9835235
  56.4761019  83.2473901  89.2424502  56.7284929  83.6886739  87.5369564
  58.9815733  80.6764978  85.1634867  58.1901036  81.0094700  84.2771943
  60.1782889  80.0765182  84.9019775  60.7996250  79.8692247  85.6707884
  60.6176494  79.7312610  83.5327482  60.5559546  80.6206962  82.9056932
  62.0642805  79.2080670  83.5029548  62.1712531  78.5127392  84.3355264
  62.1920066  78.6710548  82.5630591  63.1158750  80.2904098  83.6119413
  62.8227202  81.0853353  82.9261902  63.0802925  80.6629435  84.6356867
  64.8027860  79.7669969  83.2284439  65.0866116  78.5490788  84.5057163
  64.3529219  77.7481807  84.4142798  66.0896734  78.1362301  84.3983680
  64.9905553  79.0191138  85.4844612  59.7089913  78.6581266  82.9285644
  59.4579352  78.6591508  81.7286516  59.2371025  77.7362949  83.7600860
  59.5741934  77.7422921  84.7121538  58.3506308  76.6636623  83.3512827
  58.7153356  76.2407012  82.4152306  58.2721418  75.5299163  84.4112622
  58.1951144  76.0906045  85.3428172  57.3568557  74.9591172  84.2546106
  59.4677323  74.5683772  84.4900653  60.3712335  75.1565902  84.6506639
  59.3087101  73.5601060  85.6256193  58.4056059  72.9711655  85.4654610
  60.1743300  72.8980706  85.6482517  59.2325108  74.0902827  86.5749384
  59.6966420  73.8641577  83.1806898  59.8971330  74.6000210  82.4019678
  60.5498829  73.1922093  83.2732456  58.8090161  73.2892327  82.9167192
  56.9912589  77.2070743  83.0239107  56.4287626  76.8378088  81.9829367
  56.4650371  78.0982195  83.8964999  57.0062934  78.2750443  84.7306905
  55.1459979  78.7269731  83.7775436  54.4209571  77.9173375  83.8606412
  54.9086907  79.7116354  84.9154362  55.6213712  80.5329544  84.8404590
  53.8940643  80.1046527  84.8508537  55.0405987  79.2028436  85.8703344
  54.9238970  79.3896571  82.4261550  53.8443926  79.2589459  81.8547463
  55.9608617  80.0268821  81.8928198  56.8052033  80.0426968  82.4468383
  55.9555051  80.7387222  80.6209456  55.1735889  81.4980511  80.6097231
  57.3158223  81.4312230  80.4325796  57.6436088  81.9340918  81.3424028
  57.9814640  80.5945232  80.2205541  57.3496464  82.4113550  79.2724163
  56.6285057  83.4511106  79.3403393  58.1743929  82.2044107  78.3494562
  55.6564499  79.8063717  79.4667807  54.7629246  80.0796536  78.6717062
  56.4001241  78.6754443  79.4042360  57.1754661  78.6174274  80.0488895
  56.2397425  77.6099066  78.4144845  56.1442527  78.0426760  77.4186474
  57.4445119  76.6842814  78.4281190  57.6365651  76.4050823  79.4641029
  57.1855257  75.7943117  77.8545510  58.6910583  77.3233604  77.8362938
  58.4081350  77.8499327  76.9248242  59.1282911  78.0293681  78.5423269
  59.7259807  76.2848807  77.4907211  59.5172260  75.4378375  76.6074316
  60.8554198  76.3181070  78.2041657  61.5865699  75.6466054  78.0181371
  60.9727477  77.0145703  78.9261591  54.9338621  76.8195657  78.5645628
  54.3479548  76.4973662  77.5597786  54.4733822  76.5411415  79.7862875
  55.0873785  76.7688084  80.5552320  53.2231533  75.8353597  80.0809087
  53.1653966  74.9239270  79.4858846  53.1550143  75.4561061  81.5672861
  53.3608390  76.3611601  82.1387866  52.1360382  75.1246803  81.7671478
  54.1415989  74.3545152  81.9809250  53.9122369  73.4882387  81.3603939
  55.1364882  74.7248011  81.7335676  54.1048695  73.8619760  83.7335163
  54.9605646  75.0177718  84.3304198  54.4787507  75.9728075  84.1209894
  55.0497098  74.8850983  85.4086367  55.9531143  75.0056709  83.8800867
  51.9540812  76.6015061  79.6455721  50.9959073  75.9730081  79.2000095
  51.9421667  77.9437060  79.7559050  52.7214679  78.3762613  80.2309680
  50.8275086  78.8047867  79.3118033  49.8653129  78.3837102  79.6033050
  50.9379271  80.2818457  79.8478810  51.9424134  80.6496202  79.6384777
  49.9071806  81.2039006  79.1833207  48.9023645  80.8370043  79.3926827
  50.0142876  82.2140258  79.5786382  50.0716103  81.2166249  78.1058699
  50.8076752  80.3280166  81.3897379  49.7430591  80.2158992  81.5949767
  51.3416370  79.4499188  81.7529576  51.3200452  81.5398053  82.0805918
  50.7861986  82.4183170  81.7182041  51.1655231  81.4388815  83.1548527
  52.3847767  81.6523378  81.8761828  50.7982454  78.7328332  77.7832947
  49.7331165  78.4643444  77.2140468  51.9698564  78.9211409  77.1354799
  52.7665597  79.2177660  77.6808025  52.1114620  78.8537230  75.6789733
  51.4026852  79.5416572  75.2180165  53.5143191  79.2300879  75.2319213
  54.2471428  78.5991673  75.7349202  53.6073824  79.1049361  74.1531366
  53.7470118  80.5888826  75.5722758  54.6309186  80.8412377  75.2954628
  51.6885989  77.5160772  75.0945595  50.9713675  77.5116664  74.0874678
  52.1022630  76.3834158  75.7285564  52.7535414  76.4892526  76.4932356
  51.7404392  75.0269448  75.3065089  52.0203590  74.8919756  74.2617470
  52.4528566  73.9544096  76.1489124  52.2162446  74.2020747  77.1836955
  51.9693775  73.0149464  75.8810376  53.9924327  73.8080923  75.9904869
  54.4179854  74.7202539  76.4087773  54.2716384  72.9585110  76.6136706
  54.5219200  73.6014763  74.5921239  55.4154466  72.9774108  74.6079798
  53.7656697  73.1363199  73.9598150  54.8667602  74.8915990  74.0306957
  54.1521095  75.3494935  73.4832412  56.0380597  75.4958178  74.1741076
  57.0366719  74.8824302  74.8018325  56.9014930  73.9519987  75.1707822
  57.9259020  75.3496930  74.9068796  56.2211386  76.7166052  73.7059472
  55.4644642  77.1926723  73.2359428  57.1170235  77.1688094  73.8199660
  50.2093457  74.8190068  75.3291509  49.6594116  74.3722486  74.3245786
  49.5168158  75.1833859  76.4392208  50.0686134  75.4434930  77.2441823
  48.0316658  75.1122117  76.5912262  47.6534053  74.1403295  76.2742669
  47.5763583  75.3945332  78.0618596  47.9299384  76.3857800  78.3456048
  46.0512701  75.3353045  78.2073652  45.6969727  74.3441421  77.9242201
  45.7764529  75.5367614  79.2427354  45.5945781  76.0828399  77.5587340
  48.2371186  74.4188588  79.0559850  47.7582624  73.4533489  78.8929262
  49.2857710  74.3575014  78.7650161  48.1392571  74.7952970  80.5482394
  47.0908311  74.8563933  80.8400786  48.6393318  74.0354067  81.1487319
  48.6183381  75.7605476  80.7121680  47.3620291  76.0632770  75.5642586
  46.4368240  75.6675461  74.8457298  47.8900762  77.3002700  75.4546052
  48.6338436  77.5571379  76.0877940  47.4082005  78.2977544  74.5198984
  46.3947891  78.6006118  74.7832877  48.3030058  79.5151344  74.5641079
  48.3826192  79.8677369  75.5924232  49.2931824  79.2492328  74.1940449
  47.7239233  80.6021304  73.7062551  47.6535010  80.1443039  72.7195756
  46.7224261  80.8183284  74.0782241  48.5072875  81.8772380  73.6105094
  49.5190426  82.0187676  74.3362360  48.0682931  82.7572524  72.8339893
  47.3144197  77.7778790  73.0824797  46.2939614  78.0022165  72.4041505
  48.3731831  77.0735628  72.6205308  49.2067953  76.9990298  73.1858934
  48.4059234  76.5357169  71.2693180  48.1723612  77.3269404  70.5569184
  49.7771812  75.9736474  70.9379528  50.4069592  76.8624731  70.8996409
  50.1649590  75.2863650  71.6898646  49.7801901  75.2977408  69.5907728
  49.7799984  76.0442751  68.4164672  49.8430798  77.1303797  68.4835264
  49.7009387  75.4261471  67.1689635  49.7234411  76.0225945  66.2569076
  49.5831151  74.0426898  67.0922733  49.5119429  73.3887046  65.8916423
  49.5520464  73.9822920  65.1382199  49.5445665  73.2878612  68.2499839
  49.4364298  72.2045371  68.1969197  49.6445575  73.9173794  69.4870408
  49.6173144  73.3268839  70.4028317  47.2878520  75.5232998  71.0292887
  46.5858470  75.6147780  70.0177856  47.1231229  74.5634139  71.9623575
  47.8342982  74.4987727  72.6766057  46.0709841  73.5533897  71.9407022
  46.1201020  72.9600818  71.0276456  46.1736970  72.5909990  73.1677752
  46.1395921  73.1871729  74.0796484  45.0349507  71.5832975  73.1785353
  45.0686776  70.9863983  72.2671217  45.1360945  70.9291928  74.0445708
  44.0826543  72.1109465  73.2316358  47.5011011  71.8502406  73.1682580
  48.3189180  72.5691057  73.2183625  47.5474381  71.1871805  74.0321468
  47.5901253  71.2625165  72.2546082  44.7032068  74.2615790  71.8296559
  43.8871661  73.8802580  70.9973225  44.5052960  75.3456681  72.6100360
  45.2055293  75.5308328  73.3139441  43.3080905  76.1872083  72.5840121
  42.4181511  75.5641131  72.6726653  43.3246893  77.1854062  73.7463900
  44.2731151  77.7226059  73.7484653  42.5064986  77.8942481  73.6190819
  43.1651217  76.5830323  75.1260240  43.2374144  77.3661086  76.2705459
  43.0476977  76.5458555  77.2903804  43.0510472  76.9776965  78.2911806
  42.8816073  75.2952891  76.8833868  42.7335790  74.4743967  77.4528806
  42.9467869  75.3011298  75.5037192  42.8269631  74.3708167  74.9485066
  43.1001943  76.9083060  71.2182339  41.9628855  77.0245155  70.7533229
  44.1820977  77.3367045  70.5443818  45.1035237  77.3131194  70.9573191
  44.0218817  77.9836048  69.2299003  43.1837330  78.6784987  69.1776642
  45.2926592  78.7127314  68.7728389  45.0945122  79.1373173  67.7886820
  45.7220417  79.8223567  69.7280103  45.9208263  79.3984375  70.7123257
  46.6260105  80.2991118  69.3490063  44.9264696  80.5633544  69.8060368
  46.3423040  77.7663255  68.5263301  47.1321641  78.2315516  68.2412231
  43.5403352  77.0015425  68.1878232  42.9123012  77.4067335  67.2032748
  43.8448237  75.7030912  68.4054652  44.4772133  75.5032744  69.1672105
  43.4380065  74.6019352  67.5361372  43.2670620  74.9817061  66.5288382
  44.5255437  73.4992954  67.4718457  44.7185300  73.1802704  68.4960911
  44.1050856  72.6679399  66.9060162  45.8325640  73.9456423  66.8237867
  46.1710421  74.8667434  67.2982403  46.5843776  73.1686704  66.9623256
  45.6274124  74.1840226  65.3663222  45.5845926  73.2094318  64.8800732
  44.6685671  74.6894273  65.2510773  46.7015219  75.0065251  64.7372504
  46.8188614  75.9353819  65.2954233  47.6392767  74.4512106  64.7557097
  46.3375702  75.3172168  63.3296319  45.4688722  75.8321576  63.3123304
  47.0673925  75.8738854  62.9082300  46.2292120  74.4566611  62.8121364
  42.0500925  74.0414404  67.9286743  41.6908407  72.9566664  67.4769085
  41.2629154  74.7919256  68.7538495  41.7242071  75.5900093  69.1666105
  39.8834258  74.4860685  69.1761302  39.4728459  75.3264672  69.7358207
  38.9922200  74.2298837  67.9506656  39.1622757  73.2517488  67.5007407
  37.9751557  74.2784332  68.3396685  39.1518798  75.2881313  66.8815040
  39.0661884  76.4929237  67.1366303  39.4952705  74.8628397  65.6791767
  39.6156874  75.5265191  64.9274260  39.6358625  73.8759000  65.5170511
  39.7340991  73.3468344  70.1778869  38.6253315  72.8752891  70.3799448
  40.8102366  72.9550838  70.8575145  41.7036806  73.3864829  70.6684326
  40.7557825  71.8881959  71.8379118  39.7379658  71.5056156  71.9139417
  41.6858887  70.7332379  71.4223010  42.6361623  71.1359990  71.0717832
  41.8627750  70.0727657  72.2711754  41.1446303  69.8678456  70.3061390
  41.1898717  70.2993808  68.9842345  41.6421764  71.2636835  68.7526297
  40.6640720  69.5119973  67.9604558  40.6549736  69.8844314  66.9360971
  40.1547939  68.2600808  68.2445999  39.8000801  67.6225783  67.4347428
  40.0944608  67.8167744  69.5462145  39.6658610  66.8406745  69.7734396
  40.5847573  68.6221298  70.5780885  40.5315276  68.2773271  71.6107441
  41.1322087  72.3497687  73.2198202  41.9525091  73.2479576  73.3684472
  40.5643863  71.6918664  74.2390730  39.7761624  71.1138211  73.9847779
  40.9151339  71.8054273  75.6625789  41.6961135  72.5490743  75.8211954
  39.6993068  72.1203473  76.5936744  39.9823495  71.9326579  77.6294156
  39.2802430  73.5989605  76.4345061  38.9965979  73.7873114  75.3990497
  38.4326803  73.8091740  77.0868468  40.1153934  74.2449968  76.7051719
  38.5212242  71.1333519  76.3361699  38.1623356  71.3958252  75.3409776
  38.9940690  70.1517757  76.3041473  37.4058556  71.1013662  77.2580180
  36.9321871  72.0825391  77.2902296  36.6802910  70.3589470  76.9256495
  37.7639212  70.8384917  78.2534003  41.6209671  70.4574377  75.9742655
  41.2136499  69.4513422  75.4147248  42.6930738  70.4410226  76.7829085
  43.0220635  71.3333243  77.1230009  43.4873012  69.2384158  77.0940367
  43.5853443  68.6113015  76.2079135  44.9018804  69.6577286  77.5622421
  45.3472364  70.3056651  76.8073013  44.8601884  70.1859144  78.5148079
  45.8379754  68.5157848  77.7491665  45.8502211  67.7815838  78.9262276
  46.7821967  66.8539815  78.7557409  46.9609478  66.1647975  79.5810726
  47.3499606  66.9439586  77.5525048  48.0824686  66.3633827  77.1697991
  46.7525344  67.9939032  76.8968195  47.0578238  68.2470329  75.8815241
  42.7889023  68.2938427  78.0986046  42.7242913  67.0858544  77.8801928
  42.2984051  68.8504657  79.1987716  42.5808538  69.8121665  79.3230834
  41.5398486  68.2016391  80.2783331  41.2392442  68.9573155  81.0040667
  40.2885807  67.4984696  79.7597907  40.6003965  66.7644875  79.0167293
  39.8191186  66.9870817  80.6001405  39.3049309  68.4507980  79.1405671
  39.3108177  69.3884795  79.6962824  39.5884301  68.6407776  78.1053676
  37.9397364  67.8596232  79.1801842  37.6279053  67.7182295  80.2150118
  37.2354161  68.5214799  78.6762218  37.9280506  66.5670072  78.5084170
  38.8107684  66.2167619  78.1645612  36.8414326  65.8374252  78.3161471
  35.6587708  66.2674392  78.7463399  35.5903958  67.1556679  79.2222335
  34.8344106  65.7038073  78.5951807  36.9247149  64.6682729  77.7019192
  37.8213891  64.3333841  77.3795453  36.0912212  64.1162156  77.5583233
  42.3499895  67.2561055  81.1620005  41.7698140  66.5614180  81.9898499
  43.6659586  67.2616799  81.0427898  44.1080664  67.7764524  80.2946926
  44.4932846  66.4367218  81.8864543  44.0503350  66.3674958  82.8799846
  44.6217473  65.0086912  81.3013260  43.6557315  64.7308718  80.8797469
  45.3470308  65.1309491  80.4968902  45.0936124  63.9181668  82.2462476
  44.8054593  64.0169624  83.4768443  45.6976253  62.9397081  81.7558559
  45.8357915  67.1447195  82.1040213  46.9142024  66.5964032  81.8326689
  45.7491875  68.3946429  82.5966310  44.8306318  68.8042312  82.6893250
  46.9176499  69.2267887  82.9117469  47.7694532  69.0710810  82.2497157
  46.5392371  70.7439299  82.9256193  45.7289402  70.8918201  83.6395154
  47.7418711  71.6210435  83.3251105  48.5524599  71.4740332  82.6113637
  47.4436800  72.6694625  83.3245931  48.0812463  71.3408541  84.3223154
  45.8903537  71.2057261  81.5854937  45.0297635  70.5568367  81.4229271
  45.5484950  72.2279538  81.7476125  46.7913971  71.1621881  80.3700286
  47.1333051  70.1401231  80.2069889  46.2386281  71.5038049  79.4949037
  47.6520383  71.8112388  80.5316756  47.5013878  68.7252559  84.2563524
  46.8446729  68.8181326  85.2984759  48.7043568  68.1226240  84.2010950
  49.1195703  67.9909490  83.2898548  49.4007339  67.5730607  85.3680985
  49.2571950  68.2373855  86.2202536  48.8573158  66.1582956  85.7415052
  49.4192498  65.8390169  86.6192241  47.8103837  66.2965942  86.0115175
  48.9656710  65.0903001  84.6504842  48.5289158  65.4739090  83.7284268
  50.0164677  64.8537517  84.4832320  48.2266394  63.8353968  85.0759061
  48.5824369  63.5625221  86.0694083  47.1648643  64.0770071  85.1244603
  48.4358882  62.6776006  84.1316275  48.3209738  63.0408097  83.1103663
  49.4484703  62.2986741  84.2701608  47.4589285  61.5837921  84.3814686
  46.5205984  61.9345959  84.2527320  47.6274364  60.8274393  83.7336759
  47.5655347  61.2468030  85.3276042  50.9009990  67.5513202  85.0976897
  51.2595738  67.5064563  83.9255150  51.7993911  67.6010395  86.1220141
  51.5808056  67.3657358  87.4727108  50.7742577  66.6369491  87.5530278
  51.2657591  68.3067342  87.9236728  52.8824694  66.8572146  88.0498715
  52.9477402  65.7727233  87.9620224  52.9791024  67.1428401  89.0973358
  53.9457993  67.5533019  87.1925454  54.9078249  67.0491654  87.1006105
  54.1011142  68.5665717  87.5630331  53.2535229  67.5961260  85.8398339
  53.4759961  68.5659632  85.3948399  53.7674095  66.4753912  84.9121771
  54.7087377  66.6968289  84.1352528  53.1217240  65.2935340  84.9721189
  52.4213898  65.2101487  85.6950837  53.4311290  64.1072717  84.1616775
  54.4991348  63.8954986  84.2128155  52.6636265  62.8836864  84.6774409
  51.8165169  63.2709472  85.2435978  52.2987933  62.2971660  83.8342383
  53.5108738  62.0046573  85.5747195  54.7109371  61.7522429  85.2181512
  52.9810819  61.5293715  86.6100619  53.2119616  64.2562797  82.6574673
  53.8325022  63.5186094  81.8920250  52.3461305  65.1962769  82.2258276
  51.7883032  65.6842067  82.9120145  52.0586707  65.4262314  80.8032251
  52.3775061  64.5627637  80.2193871  50.5568454  65.6393740  80.5823339
  50.2489962  66.3530508  81.3465286  50.3417151  66.0491636  79.5954745
  49.7601051  64.3659156  80.7611479  50.2287489  63.2609427  80.4841698
  48.5183888  64.4876476  81.1448668  47.9505247  63.6628342  81.2764457
  48.1312967  65.4060809  81.3083926  52.9135573  66.5405091  80.1850416
  52.8018203  66.8217939  78.9906226  53.7977622  67.1392137  80.9746666
  53.7812327  66.9138262  81.9590581  54.7574947  68.1340374  80.5090612
  54.5480676  68.3708826  79.4659199  54.6838844  69.4259946  81.3286362
  54.6868337  69.1279924  82.3771042  55.5418332  70.0688481  81.1317524
  53.4527960  70.2744583  81.1244382  53.3896943  71.1914667  80.0828952
  54.2369472  71.2886962  79.4040661  52.2525501  71.9861498  79.9007911
  52.2014540  72.6705391  79.0539729  51.1935950  71.9057280  80.7919232
  50.3148732  72.5370993  80.6603248  51.2555784  71.0211151  81.8494123
  50.4295410  70.9592593  82.5578869  52.3821147  70.2014425  82.0123072
  52.4273937  69.4959098  82.8419296  56.1429599  67.4754227  80.6089942
  56.5341264  67.0359135  81.6938723  56.8000472  67.2808769  79.4432695
  56.3536938  67.6851335  78.6324399  58.0778689  66.5807503  79.2581435
  58.4545705  66.2505660  80.2262207  57.9100400  65.3424517  78.3440440
  57.1661032  65.6310645  77.6015079  58.8823061  65.2389269  77.8622957
  57.5141486  64.0241621  78.9670791  58.2080275  63.8142466  79.7810621
  56.0890191  64.0411888  79.5065649  55.3944793  64.2505998  78.6930169
  55.8538204  63.0707667  79.9436727  55.9979675  64.8143971  80.2694273
  57.5761263  62.9319900  77.9559744  58.5922556  62.8507131  77.5700018
  57.2880664  61.9890788  78.4207769  56.8934725  63.1558744  77.1362436
  59.0562051  67.4967863  78.5992730  58.6484678  68.2632671  77.7423532
  60.3426736  67.4374713  78.9931745  60.6115195  66.8417280  79.7631818
  61.3730232  68.2400921  78.3487472  60.9395572  69.1884918  78.0313444
  62.5631048  68.5331228  79.3049040  62.8908756  67.5724422  79.7020922
  63.3573830  68.9636506  78.6950943  62.2356633  69.4908636  80.4763684
  61.4279643  69.0175670  81.0346815  63.1322836  69.5262644  81.0951745
  61.7430513  71.1937921  80.0348699  63.1724557  71.8971663  79.7761425
  63.6920204  71.3795764  78.9697603  63.0198385  72.9401757  79.4987618
  63.7722407  71.8474507  80.6849261  61.8183706  67.4314131  77.1418458
  61.6116298  66.2326242  77.1204124  62.3568181  68.0768594  76.1235756
  62.4567392  69.0818556  76.1334720  62.8227510  67.3489802  74.9534524
  62.1268637  66.5352351  74.7493467  62.8424240  68.0312904  74.1036495
  64.2142798  66.7708726  75.1560880  64.7941339  66.8712593  76.2507358
  64.7594642  66.1449642  74.0919608  64.1798536  66.0294973  73.2729258
  66.0926466  65.5335408  74.0921668  66.6208811  65.7059994  75.0298904
  65.9964844  64.0042002  73.8253481  65.3453401  63.8558537  72.9638930
  67.3613252  63.3637341  73.5499542  68.0129142  63.5112778  74.4112110
  67.2328319  62.2962529  73.3708618  67.8103073  63.8275149  72.6716481
  65.3107963  63.2935456  74.9826366  65.9687270  63.3626792  75.8489209
  64.3806494  63.8224900  75.1903478  65.0054706  61.8184608  74.6890054
  65.9352470  61.2887293  74.4816405  64.5168334  61.3689670  75.5534637
  64.3471708  61.7485401  73.8230653  66.9961506  66.2425952  73.0960727
  66.5429685  66.6790741  72.0463641  68.2583329  66.3694446  73.4619387
  68.5108659  66.0219086  74.3760203  69.2959547  66.9702384  72.6431384
  70.2516174  66.8459780  73.1524197  69.3243566  66.4491549  71.6861824
  69.0605566  68.4306398  72.3967620  69.1433917  69.2326862  73.3224369
  68.7581769  68.7703225  71.1456505  68.7828248  68.0317874  70.4571320
  68.4646976  70.1413948  70.6898132  69.3017599  70.7988599  70.9246871
  68.2360321  70.1576990  69.1490042  67.9463573  71.1775278  68.8957514
  69.2014838  69.9317304  68.6962999  67.1748148  69.1741899  68.6139869
  67.5288606  68.1586323  68.7911735  66.2485023  69.3368003  69.1649906
  66.9216603  69.3695529  67.1311800  66.5515498  70.3807213  66.9619002
  67.8559457  69.2294082  66.5875169  65.9329602  68.4157377  66.6196256
  66.0803985  67.4398769  66.8342344  64.8516950  68.7565302  65.9172390
  64.6137865  70.0313971  65.6253146  65.2557101  70.7460194  65.9373226
  63.7921972  70.2795370  65.0928511  64.0146055  67.8259397  65.4808235
  64.1967857  66.8529766  65.6814560  63.1984843  68.0941494  64.9496847
  67.2465154  70.7401945  71.4293839  67.2006741  71.9426472  71.6941275
  66.2860881  69.8752722  71.7785970  66.4281299  68.9146758  71.5007876
  65.0457075  70.2221694  72.4420798  64.8078193  71.2757941  72.2958493
  63.9171613  69.3732826  71.8287703  64.1859561  68.3202970  71.7446880
  63.0099385  69.4696366  72.4252287  63.5753624  69.8366747  70.4555149
  62.4772289  69.2958468  69.7827096  62.4640537  69.8741838  68.6018397
  61.6895636  69.5723149  67.8967586  63.4516795  70.7641908  68.4891598
  63.6463253  71.3623666  67.6989708  64.1816778  70.7343279  69.6551361
  65.0589818  71.3717379  69.7653514  65.0838586  70.0613695  73.9460751
  64.0172009  70.0225544  74.5471373  66.2819785  70.0078752  74.5722988
  67.1213012  70.0177602  74.0105701  66.4119561  69.7676581  76.0082809
  65.7626436  68.9405419  76.2952850  67.8426167  69.4168664  76.3879340
  67.8945623  69.1150391  77.4340225  68.2151503  68.6088844  75.7582643
  69.0153927  70.7798120  76.2006248  70.0835794  70.1013146  76.6099130
  65.8465367  70.8977187  76.9047864  65.5516218  70.6154450  78.0679926
  65.6716954  72.1426791  76.3869988  66.0121657  72.3395348  75.4567154
  65.0968364  73.2492085  77.1680998  64.9434372  72.9065051  78.1913897
  65.9883759  74.4901141  77.1971473  65.8466240  74.9663242  76.2269774
  65.6453784  75.1614346  77.9844093  67.4434588  74.2308898  77.3925507
  68.1993433  74.3862982  76.4478535  67.8613709  73.7857365  78.5805734
  68.8434417  73.6045233  78.7315654  67.1933852  73.6323922  79.3224503
  63.7037067  73.6196608  76.6788936  63.1536436  74.6520332  77.0922612
  63.1413671  72.7785441  75.7898093  63.7065672  72.0120530  75.4534473
  61.8067070  72.9495298  75.2313835  61.4461955  73.9457916  75.4874947
  61.7779541  72.7935798  73.6893722  62.5787362  73.4154057  73.2891474
  61.9868318  71.7467364  73.4689431  60.4416879  73.1976282  73.0402039
  59.7583890  72.3553946  73.1490436  60.0549900  74.0525747  73.5948509
  60.5677034  73.5677027  71.5474980  59.8776896  74.3910785  71.3630201
  61.5905808  73.9088865  71.3880776  60.2588485  72.4207127  70.5883276
  61.1248990  71.7588855  70.5947962  59.3953387  71.8922339  70.9922585
  59.9681092  72.8503629  69.1790252  60.7682951  73.3397076  68.8044001
  59.7751289  72.0370314  68.6121474  59.1653793  73.4632940  69.1727592
  60.9201781  71.9516231  75.9218549  61.2610304  70.7646200  76.0248759
  59.8190923  72.4661442  76.4679740  59.7045484  73.4667600  76.3921646
  58.8111319  71.7112779  77.1872159  59.2315229  70.7944172  77.6004191
  58.2952079  72.5856684  78.3506783  59.2046079  72.9550457  78.8246521
  57.7648341  73.4169220  77.8861127  57.4161440  71.9478202  79.3853127
  56.6235533  71.4032198  78.8721741  58.1733749  71.0154972  80.2540463
  58.9659041  71.5595030  80.7679083  57.4999108  70.5751347  80.9893203
  58.6119142  70.2253176  79.6446204  56.7877808  72.9921586  80.2291798
  56.1855705  73.6514354  79.6040428  56.1511410  72.5206486  80.9778248
  57.5639509  73.5733657  80.7270326  57.6859326  71.3240220  76.2140040
  57.2685742  72.1385799  75.4020955  57.2203510  70.0700795  76.2939288
  57.6367586  69.4877207  77.0063628  56.1839806  69.4827558  75.4309408
  55.8652102  70.2101909  74.6844003  56.7468863  68.2220989  74.6926513
  57.1525728  67.4951785  75.3962879  55.9149346  67.7750793  74.1484730
  57.8378233  68.4941490  73.6716356  59.1465561  68.7226927  74.0722194
  59.3948771  68.6778598  75.1326093  60.1360211  69.0063127  73.1381034
  61.1496353  69.2341518  73.4679159  59.8342237  68.9991968  71.7937639
  60.6126894  69.2150185  71.0619770  58.5574515  68.7213347  71.3753976
  58.3218362  68.7044732  70.3113012  57.5624121  68.4607328  72.3125289
  56.5504702  68.2264051  71.9821289  54.9817585  69.0847348  76.2371357
  55.1614876  68.4106450  77.2417383  53.7670657  69.4810889  75.8203888
  53.6949299  70.1209428  75.0422611  52.5223761  69.0307549  76.4738327
  52.7645574  68.7277718  77.4924831  51.4153038  70.1172852  76.5294719
  51.8249340  70.8526617  77.2219484  51.3486505  70.5546858  75.5333102
  50.0083448  69.6956611  77.0007060  49.6497844  68.9126432  76.3325605
  50.0060993  69.1817970  78.4289793  50.3641249  69.9644696  79.0978142
  48.9923983  68.8983032  78.7120737  50.6601610  68.3130891  78.5041474
  49.0363890  70.8526041  76.8813835  48.9785338  71.1734144  75.8412715
  48.0496703  70.5351178  77.2185628  49.3810133  71.6824480  77.4983860
  52.0736504  67.8444758  75.6458779  51.9503346  67.9695859  74.4306649
  51.9080111  66.6791776  76.2854846  52.1648616  66.6281810  77.2609468
  51.5483785  65.4381003  75.5964886  51.1675838  65.6385980  74.5950421
  52.7827604  64.4562980  75.5033888  52.4393676  63.4849196  75.1475719
  53.8167971  65.0039010  74.5503950  54.1610292  65.9751261  74.9058196
  54.6615158  64.3171610  74.4961790  53.3757927  65.1155130  73.5598613
  53.4576713  64.1497259  76.8445516  54.5040371  63.9406049  76.6220928
  53.3882203  65.0603510  77.4395624  52.8937980  63.0465015  77.5860480
  52.9633161  62.1353692  76.9918215  53.4443067  62.9150169  78.5175796
  51.8474980  63.2551147  77.8092892  50.2785717  64.8151537  76.2174977
  49.6589870  65.4572627  77.0519118  49.8645786  63.6034267  75.7521543
  50.3595490  63.3075596  74.9229582  48.7206745  62.8011205  76.2034825
  48.6380524  61.9091729  75.5824331  48.8842263  62.3626070  77.6804441
  49.9366567  62.0900027  77.7590335  48.6873050  63.2333593  78.3058340
  48.0168835  61.1902079  78.1501866  46.9649971  60.9074804  77.4869392
  48.3590976  60.5798473  79.2064733  47.3687286  63.4905810  75.9161195
  46.6852216  64.0041411  76.8147453  46.9435696  63.3976459  74.6575819
  47.5480945  62.9373759  73.9921492  45.7367019  64.0371398  74.1638947
  45.4262303  64.8326162  74.8413338  46.0094200  64.6494463  72.7786646
  46.4253469  63.9419300  72.0613608  45.0938385  65.0806115  72.3738100
  47.0017671  65.7774830  72.8965852  46.5848789  67.0615084  73.2667758
  45.5247704  67.2415720  73.4452329  47.5072954  68.1077404  73.4089596
  47.1673130  69.1033499  73.6940462  48.8466564  67.8745663  73.1872505
  49.5675003  68.6846340  73.2980394  49.2788475  66.6044420  72.8218122
  50.3386558  66.4243384  72.6416198  48.3562983  65.5569281  72.6848571
  48.7006104  64.5598903  72.4101487  44.5005707  63.1372638  74.1597942
  43.5050650  63.4885801  73.5319699  44.5512122  62.0415408  74.9122146
  45.3966480  61.8655025  75.4359972  43.4541324  61.0805003  75.0228730
  43.2379701  60.7357016  74.0116920  43.8277835  60.2473743  75.6181756
  42.1742764  61.6017771  75.6512208  41.0884904  61.0698366  75.3930557
  42.2803189  62.6345167  76.4967206  43.1932097  62.9761075  76.7613815
  41.1036123  63.2379631  77.1266001  40.2381434  62.6059184  76.9276469
  41.2599357  63.3941096  78.6562128  42.1584340  64.0082738  78.7162326
  40.4111589  63.9534767  79.0496420  41.4577559  62.1168437  79.4829945
  42.2930594  61.5561484  79.0634834  41.7507957  62.4476018  80.9525457
  40.9156747  63.0079338  81.3729025  41.8863378  61.5229542  81.5135768
  42.6588186  63.0471920  81.0164713  40.2717984  61.1658131  79.3482846
  40.1504008  60.8813696  78.3030794  40.4507030  60.2738008  79.9486249
  39.3660512  61.6620574  79.6967995  40.7726215  64.5984036  76.4872366
  39.8310075  65.2595688  76.9346934  41.5278283  65.0142773  75.4462982
  42.3018650  64.4474385  75.1306080  41.3035317  66.2982588  74.7985470
  41.3354758  67.0859346  75.5513056  42.3851957  66.5732356  73.7592709
  42.3597581  65.7977605  72.9937049  42.2078041  67.5446444  73.2977544
  43.3622349  66.5741182  74.2424818  39.9235234  66.3372514  74.1666407
  39.4771773  65.3111176  73.6497756  39.2244250  67.4861512  74.2437109
  39.6129593  68.2500438  74.7781346  37.8848313  67.6518318  73.6649255
  37.6898105  66.8548013  72.9474240  36.7997987  67.5916347  74.7839280
  36.9179958  66.6208957  75.2653782  37.0536203  68.3808900  75.4915655
  35.3408030  67.7627870  74.3270041  35.2874002  68.7177820  73.8042867
  35.1362763  66.9535508  73.6259993  34.3000810  67.7380722  75.4537254
  33.3140907  67.7333909  74.9890748  34.4427590  66.8124660  76.0113951
  34.4072354  68.9167328  76.3971834  35.4605335  69.0692131  76.6325840
  34.0184182  69.7976312  75.8863622  33.6453316  68.6969837  77.6550994
  34.0057462  67.8810171  78.1288076  33.7435478  69.5045868  78.2536233
  32.6692265  68.5560960  77.4372262  37.8271768  68.9660382  72.8620392
  38.5264264  69.9354703  73.1832267  37.0184638  68.9820451  71.7939456
  36.5555626  68.1333563  71.5014578  36.8139412  70.1879511  71.0030504
  37.7676378  70.6961542  70.8606021  36.2232990  69.8489710  69.6165007
  36.4611667  68.8089063  69.3933780  35.1414395  69.9699346  69.6717094
  36.7780415  70.7432227  68.5165827  36.5897222  71.7723180  68.8225232
  37.8530109  70.5666864  68.4794622  36.1782694  70.5063850  67.1403068
  36.3551510  69.4631297  66.8787150  35.1055207  70.6853542  67.2129678
  36.7684770  71.4027634  66.0691588  36.9000149  72.3976965  66.4944898
  37.7400629  70.9978984  65.7859550  35.8902304  71.4900924  64.8553695
  34.9900309  71.8656298  65.1174999  36.3210666  72.0950881  64.1709279
  35.7685662  70.5683283  64.4608470  35.8688946  71.0824830  71.8392619
  34.8880939  70.5704477  72.4012699  36.2081851  72.3826878  72.0071138
  37.0995345  72.7219667  71.6747205  35.3557469  73.3030129  72.7930921
  34.5557482  72.7238099  73.2542051  36.1347087  74.0523423  73.9111194
  35.3640191  74.5440072  74.5047543  36.6781167  73.3443183  74.5368269
  37.0921707  75.0867810  73.3750336  36.6674476  76.3841349  73.1079809
  35.6305892  76.6492195  73.3147519  37.5414894  77.3395896  72.5848412
  37.1996599  78.3611695  72.4186217  38.8468729  76.9899468  72.2880083
  39.6735241  77.9238528  71.7256796  39.2430829  78.7705896  71.5865511
  39.2963885  75.7069460  72.5500285  40.3353884  75.4379986  72.3596419
  38.4095807  74.7536375  73.0617041  38.7442014  73.7287725  73.2222678
  34.6178475  74.2764671  71.8716278  33.7235456  74.9599769  72.3202162
  35.0033337  74.3480529  70.6037962  35.8148101  73.8234431  70.3098748
  34.3731068  75.2460836  69.6399888  33.2947885  75.2453416  69.7991376
  34.8968322  76.7036111  69.7898866  34.2363317  77.3510824  69.2131550
  34.8337318  76.9685652  70.8453096  36.3285760  76.8814164  69.3075124
  36.9753612  76.3727850  70.0223997  36.4050765  76.3917321  68.3367091
  36.7565315  78.3206060  69.1789073  36.1126480  78.8403682  68.4694284
  36.7015522  78.8153046  70.1486238  38.1453653  78.3879302  68.6928401
  38.4386945  77.6225048  68.1027712  39.0300132  79.3491949  68.9777126
  38.6870465  80.3689010  69.7611973  37.7531016  80.4167656  70.1427151
  39.3622916  81.0901985  69.9706579  40.2581243  79.3059202  68.4663837
  40.5227801  78.5427653  67.8600405  40.9197485  80.0364343  68.6870677
  34.5282347  74.7444591  68.1944241  35.5194864  74.0761209  67.8881858
  33.5557688  75.0961863  67.3039309  32.7546890  75.6044200  67.6504404
  33.5987554  74.7526491  65.8736221  33.8331457  73.6933798  65.7682225
  32.2568976  75.0307218  65.1762159  31.5529329  74.3449593  65.6476633
  31.9347380  76.0574545  65.3498048  32.3029039  74.7606291  63.6823242
  32.2743797  73.5723574  63.2925619  32.4422452  75.7333191  62.9057084
  34.6986546  75.5696323  65.2199448  34.8411537  76.7458096  65.5459463
  35.4903582  74.9515023  64.3200393  35.3769260  73.9593720  64.1686793
  36.6139304  75.6281956  63.6713942  37.2556610  76.0594577  64.4397001
  37.4548111  74.6738447  62.8077392  37.8322845  73.9024796  63.4790133
  36.8380836  74.2131644  62.0360393  38.6394875  75.3596493  62.1391624
  39.5199896  75.9532530  62.7910801  38.6641835  75.3413661  60.8137546
  39.4273075  75.7815620  60.3198221  37.9197599  74.8873246  60.3040678
  36.2147099  76.8807432  62.8781970  36.8620778  77.9183490  63.0529822
  35.1639441  76.8090451  62.0414177  34.7026117  75.9299215  61.8559095
  34.7972157  77.9701322  61.2291092  35.6888571  78.5730094  61.0570221
  34.1984929  77.5724429  59.8612396  33.7934066  78.4904521  59.4354891
  35.0388168  77.2318933  59.2562754  33.1106757  76.4937559  59.8769269
  33.5520343  75.5755409  60.2644636  32.3168016  76.8253253  60.5462010
  32.5321650  76.2336562  58.4943400  33.3512289  76.0529604  57.7982206
  31.8936039  75.3514739  58.5400962  31.7374582  77.3640748  58.0017907
  32.2327746  78.0968772  57.5141825  30.4228695  77.4856187  58.1636750
  29.7332953  76.5440538  58.7964539  30.2097822  75.7299517  59.1574221
  28.7353668  76.6461625  58.9139785  29.7851409  78.5471219  57.6851793
  30.3012695  79.2646477  57.1964378  28.7867730  78.6322898  57.8120908
  33.9128362  78.9991623  61.9781959  34.3164955  80.1581352  62.0836043
  32.7423383  78.5863374  62.5050158  32.4698127  77.6293402  62.3318526
  31.7872568  79.4709970  63.2010423  31.6273016  80.4097255  62.6706628
  30.4278839  78.7694978  63.3809149  29.6886202  79.5327155  63.6239956
  29.9907109  78.0223996  62.1527630  30.7293004  77.2586475  61.9093132
  29.0268107  77.5487328  62.3388686  29.8984308  78.7170754  61.3178914
  30.4834630  77.8901780  64.4982535  29.6342460  77.4556496  64.6060302
  32.2965204  80.0377100  64.5572064  31.7990648  81.0672844  65.0178879
  33.2621545  79.3474562  65.1847584  33.4871185  78.4734697  64.7312850
  33.8618046  79.6256567  66.5067195  34.5253090  78.7989670  66.7605802
  34.6737309  80.9457647  66.5560330  33.9876183  81.7461697  66.2790843
  34.9899947  81.0806790  67.5903808  35.9046403  80.9844580  65.6347438
  35.8497403  80.1331560  64.9562368  35.8711545  81.9096760  65.0594591
  37.1991901  80.9234318  66.4164813  37.1966430  81.7463280  67.1312779
  37.2199737  79.9756477  66.9544152  38.4122821  81.0221983  65.5876894
  38.8043034  81.9457528  65.4716476  39.0292341  79.9901027  65.0056807
  38.5322128  78.7609128  65.1098102  37.6820784  78.6058612  65.6326205
  39.0071820  77.9881367  64.6656019  40.1354715  80.1833547  64.2990879
  40.5121998  81.1153460  64.2012715  40.5957522  79.3975843  63.8622752
  32.7970743  79.5018243  67.6366468  33.0361923  79.9650282  68.7568993
  31.6480176  78.8171531  67.3459369  31.5248018  78.5017940  66.3943772
  30.5745574  78.5556881  68.3091727  30.2484634  79.4937723  68.7583496
  29.3699546  77.8972054  67.6180196  29.1391202  78.5133992  66.7490432
  29.7046730  76.9140815  67.2870651  28.1126167  77.7441703  68.4847881
  27.3905888  77.1373062  67.9384434  28.3925513  77.2333447  69.4060893
  27.4612494  79.0684054  68.8428233  27.5946939  79.5756590  69.9687080
  26.7410218  79.6608631  67.8922829  26.2881550  80.5434166  68.0823155
  26.6509278  79.2249506  66.9856602  31.0980920  77.6547196  69.4483744
  31.5714976  76.5441310  69.1865880  31.0275632  78.1438475  70.7010043
  30.6829351  79.0836330  70.8356666  31.4756331  77.4008436  71.8664984
  32.4367294  76.9314925  71.6564922  31.6375614  78.3254288  73.0615643
  32.0380857  79.3032345  72.7940282  30.6439187  78.4460673  73.4930972
  32.5099745  77.7889966  74.1436861  33.8167299  78.2177856  74.2961049
  34.3095423  77.5090015  75.3003349  35.3377859  77.7106370  75.6005970
  33.4114583  76.6418434  75.7762340  33.5296745  75.9750185  76.5255466
  32.2586678  76.8146668  75.0501713  31.3793410  76.2097651  75.2714846
  30.5009830  76.2770590  72.1972165  29.3100161  76.3616604  71.9125352
  31.0154158  75.2209821  72.7854150  32.0186614  75.1808983  72.8949172
  30.2290402  74.0566834  73.1811662  29.5414087  73.7267083  72.4024631
  31.1107926  72.8516536  73.6417584  30.4765750  72.0984320  74.1092257
  31.8211006  72.2418315  72.4390729  32.4559092  72.9943801  71.9713237
  32.4344236  71.4021473  72.7659767  31.0816891  71.8922167  71.7185597
  32.0844001  73.2451347  74.7926194  32.9211076  73.7558522  74.3159760
  31.5383482  73.9502603  75.4192969  32.6098203  72.1046615  75.6520660
  33.1564216  71.3993166  75.0261144  33.2762863  72.5028237  76.4171733
  31.7736614  71.5937229  76.1294338  29.2104976  74.4452943  74.2487441
  29.5111171  75.3484791  75.0341409  28.0149487  73.7918101  74.2936454
  27.5519090  72.7073855  73.5402142  28.3769137  72.0042371  73.4259787
  27.2573655  73.0833978  72.5604398  26.3882330  72.1179922  74.3052526
  26.7326571  71.3675225  75.0167765  25.6657231  71.6678921  73.6244511
  25.7837255  73.3316316  75.0204415  25.2452970  73.1239600  75.9451394
  25.1347122  73.8805942  74.3381501  27.0304834  74.1487193  75.3206555
  26.7770801  75.1956175  75.1536551  27.4887421  73.9609115  76.7648079
  28.3847461  73.1656885  77.0617255  26.8344117  74.7057149  77.6577507
  26.1627461  75.3711402  77.3025412  27.0510848  74.6477298  79.0790235
  28.1040814  74.4499879  79.2795116  26.6653165  75.9711488  79.7482604
  27.2106126  76.7743156  79.2526048  25.5966993  76.0966876  79.5739125
  26.9426927  76.0168026  81.2377909  28.2331899  76.1940204  81.7228680
  29.0506615  76.2828702  81.0073644  28.4936931  76.2588211  83.0890993
  29.5123452  76.4149874  83.4441512  27.4599038  76.1175328  83.9955922
  27.7361618  76.1620104  85.3421320  28.6684208  76.2936745  85.5296348
  26.1638459  75.9411764  83.5404206  25.3440817  75.8263968  84.2495841
  25.9086573  75.9106197  82.1656977  24.8863542  75.8021707  81.8034334
  26.2210607  73.4950519  79.6147917  24.9855167  73.4282877  79.4513761
  26.9365467  72.5418688  80.1832068  27.9415582  72.6386204  80.2094845
  26.3410069  71.3670159  80.7980912  25.2548169  71.4503652  80.7614382
  26.7564705  70.0920753  80.0730240  27.8350715  70.1545762  79.9287573
  26.5275912  69.2645645  80.7445448  26.0875169  69.8614873  78.7493110
  25.0170926  70.0468138  78.8384561  26.5103224  70.5302869  77.9996146
  26.3173061  68.4257764  78.3308769  25.9125184  68.2542126  77.3334744
  27.3832407  68.1980192  78.3339501  25.6437793  67.5294295  79.2706327
  25.3649401  67.9299120  80.1549188  25.3933806  66.2470685  79.0503131
  25.7607561  65.6774063  77.9072973  26.2335029  66.2252095  77.2026541
  25.5655343  64.6992640  77.7484710  24.7581730  65.5250086  79.9641522
  24.4653979  65.9556251  80.8295725  24.5702766  64.5479967  79.7902519
  26.8198183  71.2645691  82.2239111  27.8564533  71.8194403  82.6111473
  26.0468728  70.5512322  82.9979283  25.1504153  70.2837005  82.6172839
  26.3505649  70.1813721  84.3667539  27.3950906  70.4070849  84.5815068
  25.4677044  70.9548180  85.3571215  24.4386838  70.9269355  84.9987383
  25.5267271  70.4652754  86.3292143  25.9185497  72.4001476  85.4899401
  26.9697697  72.3079039  85.7629389  25.8386595  72.8553717  84.5027786
  25.2086918  73.2693766  86.5047350  23.9983737  73.0445048  86.7419310
  25.8529793  74.2106847  87.0245684  26.1456774  68.6687896  84.3858687
  25.9671106  68.0761131  83.3073223  26.2209859  68.0253194  85.5523471
  26.4698580  68.5197045  86.3971816  26.0195266  66.5675193  85.6295406
  26.1652931  66.2277330  86.6549170  24.6059531  66.2020091  85.1915721
  24.4521215  66.5941295  84.1862480  24.5419432  65.1140961  85.1704064
  23.5410980  66.7516809  86.1153879  23.5808430  66.5785206  87.3505530
  22.5955666  67.4051164  85.6332776  27.0543604  65.7580108  84.7908226
  26.7107872  64.7599067  84.1478384  28.3198101  66.2171814  84.7977876
  28.5141822  67.0622893  85.3155824  29.4314179  65.5522120  84.1092901
  29.0274160  64.8043766  83.4269238  30.2953572  66.5428789  83.2999983
  30.7161599  67.2305969  84.0335296  31.0948715  65.9443797  82.8633341
  29.5941897  67.3403664  82.1965216  28.6025766  67.5896053  82.5742573
  30.1705596  68.2552347  82.0589873  29.4605416  66.6103284  80.8467572
  29.0138999  65.6387565  81.0580821  28.7754561  67.1997675  80.2373979
  30.7480838  66.4170775  80.1050914  31.2653903  67.3742611  80.0395625
  31.3678024  65.7064307  80.6519271  30.4904780  65.8981003  78.7346919
  29.9166050  66.5566574  78.2276691  31.3684512  65.7744144  78.2509927
  30.0115159  65.0109511  78.7951945  30.3085971  64.9030249  85.1675244
  30.5699517  65.5243139  86.2025910  30.7628876  63.6576036  84.9200114
  30.4607541  63.1684011  84.0896527  31.6810470  62.9723443  85.8352268
  31.3826003  63.1806338  86.8626723  31.6730624  61.4477803  85.6200113
  31.6322109  61.2988943  84.5410009  32.5957337  61.0187451  86.0107883
  30.4960624  60.7272762  86.2542658  29.7167313  61.2941399  87.0420834
  30.3679600  59.4351021  85.9598632  29.6038477  58.9041461  86.3526963
  31.0354862  58.9917932  85.3450568  33.0425069  63.5575011  85.5394832
  33.2721502  63.9669700  84.3966235  33.9239644  63.6557150  86.5572890
  33.6162372  63.4236002  87.4908446  35.2631931  64.2380489  86.3895758
  35.1776021  65.1657173  85.8237095  35.9411483  64.5476705  87.7487665
  35.3075914  65.3316225  88.1636450  35.8294861  63.6395028  88.3411034
  37.4217912  65.0079163  87.7828739  38.0316850  64.2139970  87.3518025
  37.6462727  66.2989035  87.0059322  37.0370184  67.0934563  87.4367382
  38.6984405  66.5782647  87.0607137  37.3642067  66.1500249  85.9636394
  37.8790231  65.2114970  89.1883090  37.7888186  64.2754543  89.7394775
  38.9201857  65.5341131  89.1890884  37.2625996  65.9738736  89.6646524
  36.1851599  63.4106734  85.4785890  36.2860328  62.1806511  85.5976805
  36.8554473  64.1577709  84.5681440  36.5843226  65.1296140  84.6140968
  37.8271287  63.7565729  83.5521373  37.9067955  62.6728085  83.4672419
  37.3780127  64.3326789  82.1743392  37.1873456  65.3973342  82.3094519
  38.4093267  64.1389749  81.0781753  38.6001843  63.0744692  80.9421583
  38.0339198  64.5622187  80.1464921  39.3357267  64.6408998  81.3573796
  36.1548739  63.7095435  81.7740520  35.8778872  64.0638143  80.9258946
  39.2124477  64.2755776  83.9971836  39.3791631  65.4805765  84.2421240
  40.1795167  63.3627106  84.0815484  39.9609971  62.4005750  83.8655771
  41.5456178  63.6903308  84.4732598  42.2284177  63.1060676  83.8563968
  41.7093567  64.7522328  84.2898118  41.8225185  63.3944245  85.9287691
  40.9835916  62.7917321  86.6050711  43.0167787  63.7826752  86.4277589
  43.7076022  64.1928500  85.8156978  43.3866179  63.5364868  87.8337448
  42.9719244  62.6003200  88.2075365  44.9007795  63.5273819  88.0636591
  45.0748950  63.3296054  89.1213303  45.6147921  62.4901583  87.2346101
  45.4415111  62.6875640  86.1767328  46.6842113  62.5323787  87.4411506
  45.2356070  61.4995666  87.4857025  45.4225477  64.8306679  87.8230255
  46.3717313  64.8268877  87.9666798  42.7222654  64.5443366  88.7563035
  42.6760543  65.7400742  88.4444877  42.2464827  64.0594947  89.9040857
  42.3112250  63.0621340  90.0496175  41.5564315  64.8628728  90.9103158
  40.7568055  65.3770278  90.3770785  40.9333478  63.9565899  91.9671091
  41.7220383  63.4416727  92.5156778  40.3427345  64.5570755  92.6589856
  40.2893601  63.2224375  91.4829610  42.4262835  65.9302599  91.5811483
  41.8826585  66.9440120  92.0232010  43.7566755  65.7007081  91.6796820
  44.1224737  64.8120255  91.3689823  44.6696614  66.6330077  92.3458405
  44.2814245  66.8714369  93.3360540  46.0764145  66.0310936  92.5013330
  45.9484454  64.9835223  92.7739455  46.5621531  66.0958949  91.5277013
  46.9454564  66.7299039  93.5530323  46.8802291  67.8065307  93.3958031
  46.5576906  66.4834401  94.5414630  48.3930000  66.2922310  93.4551044
  48.6799707  66.2915357  92.4035596  49.0056724  67.0120174  93.9979115
  48.6358610  64.9550385  94.0097645  47.8696386  64.5088694  94.4934335
  49.7914786  64.3019934  93.9118767  50.8157464  64.8388006  93.2596969
  50.7181385  65.7496281  92.8342960  51.6878488  64.3338771  93.1919532
  49.9317737  63.1095488  94.4676728  49.1584556  62.6946596  94.9676189
  50.8115413  62.6196635  94.3894425  44.7300187  68.0093758  91.6822494
  44.7488322  69.0199254  92.3906190  44.7396453  68.0525572  90.3476211
  44.7677110  67.2096597  89.7918914  44.8610356  69.3254686  89.6699693
  45.0138522  70.1188973  90.4015547  46.0633076  69.3120890  88.6969374
  45.7619936  68.7820239  87.7934220  46.2769821  70.3527040  88.4528805
  47.3076551  68.6622362  89.2729954  48.1806144  69.3768478  90.0945751
  47.9790620  70.4312779  90.2833959  49.2959526  68.7649626  90.6709310
  49.9406252  69.3218298  91.3509296  49.5667250  67.4360370  90.3929366
  50.6871911  66.8198206  90.8987450  51.2244394  67.4034431  91.4394378
  48.7157189  66.7117139  89.5743141  48.9187339  65.6604916  89.3698223
  47.6020846  67.3265020  89.0134395  46.9404867  66.7614696  88.3568371
  43.5676021  69.7750947  88.9749204  43.5965982  70.7887420  88.2835773
  42.4352366  69.0576589  89.1820809  42.5029750  68.2368489  89.7667020
  41.1299780  69.3829279  88.5843844  41.2324878  69.4230717  87.4999585
  40.1177441  68.3122213  88.9355765  39.9974319  68.2662432  90.0179401
  39.1598218  68.5516639  88.4738923  40.4665323  67.3471735  88.5679779
  40.6147286  70.7361375  89.0577817  40.8721276  71.1139175  90.1973364
  39.8942655  71.4800642  88.1935202  39.7663958  71.1984958  87.2320277
  39.3531574  72.7722017  88.6157166  40.1133681  73.3258461  89.1667671
  38.9257431  73.6018292  87.4061918  38.6485788  74.5943902  87.7612998
  39.7811423  73.6822400  86.7354263  37.8327576  73.0269962  86.7106454
  37.6020563  73.5822379  85.9622582  38.1833742  72.5598299  89.6074785
  37.6822734  71.4372670  89.7261694  37.7700388  73.6118108  90.3318734
  38.3005399  74.4711321  90.3165476  36.6410364  73.5089819  91.2599147
  36.7272136  72.6441185  91.9177020  36.5093076  74.7950174  92.1130929
  36.7258152  75.6491234  91.4714327  35.0961568  74.9545323  92.7245345
  34.8791024  74.1009689  93.3667319  35.0557394  75.8710179  93.3131951
  34.3571631  75.0040885  91.9248273  37.5848412  74.8138578  93.2054865
  37.2040439  74.2307617  94.0439930  38.4695526  74.3259931  92.7963737
  37.9381037  76.1571321  93.6663483  37.0539337  76.6454852  94.0760486
  38.7044322  76.0871357  94.4383200  38.3194404  76.7407176  92.8284282
  35.3539292  73.1469845  90.4827178  34.6146718  72.2506182  90.9084371
  35.1238897  73.8138624  89.3247469  35.7313930  74.5832389  89.0816444
  33.9433920  73.5778796  88.5010124  33.0654709  73.5481037  89.1463551
  33.7384813  74.6621954  87.4496491  34.6834576  74.8397770  86.9362449
  32.9971571  74.3084957  86.7331052  33.2569259  75.9657209  88.0379472
  32.5277691  75.9941850  89.0461858  33.6604278  77.0777709  87.4257455
  33.3680630  77.9784583  87.7770072  34.2568982  77.0151939  86.6130906
  33.9236976  72.1931288  87.8995947  32.8497002  71.5857317  87.8687979
  35.0948072  71.6483995  87.4966403  35.9388398  72.2030072  87.5075338
  35.1707440  70.2747237  86.9818368  34.4769839  70.1599639  86.1489945
  36.5714979  69.9518264  86.4943126  37.2764021  70.0534752  87.3194656
  36.5989557  68.9293838  86.1175404  36.8464375  70.6404207  85.6953474
  34.7327030  69.2828357  88.0837294  34.0691263  68.3021671  87.7583971
  35.0445163  69.5800448  89.3778040  35.6392446  70.3799445  89.5407706
  34.6330948  68.7711620  90.5330775  34.8757877  67.7271225  90.3351359
  35.3362425  69.2018917  91.8348126  35.4604867  70.2818902  91.9139698
  34.7175397  68.8464984  92.6588287  36.6952739  68.5984858  92.0275531
  36.8591277  67.2437609  92.2532687  38.1612016  67.0589261  92.4018270
  38.5073768  66.0397360  92.5736215  38.8317517  68.2049247  92.3090536
  39.8291257  68.3471923  92.3805025  37.9073457  69.1984253  92.0919631
  38.2316404  70.2356503  92.0077108  33.1122771  68.8079095  90.7354983
  32.5157148  67.7698678  91.0237688  32.4850258  69.9861669  90.5349012
  33.0713745  70.7846794  90.3382484  31.0311181  70.1989856  90.6534710
  30.6573560  69.7171209  91.5569131  30.7178328  71.7077845  90.7336973
  31.0487307  72.0791950  89.7638210  29.6365497  71.8187428  90.8150318
  31.3931720  72.5045414  91.8383467  32.4721334  72.3743370  91.7547418
  31.0561436  73.9618651  91.7316944  29.9773153  74.0929168  91.8156799
  31.5516528  74.5095286  92.5333403  31.3941389  74.3439384  90.7684293
  31.0177873  71.9829726  93.2066881  31.3253526  70.9410783  93.2959031
  31.5185496  72.5759013  93.9720468  29.9384103  72.0553352  93.3401349
  30.2185789  69.5538090  89.4977772  28.9840502  69.6041125  89.4961984
  30.9278215  68.9572892  88.5417897  31.9345218  68.9517890  88.6231749
  30.3269583  68.3136369  87.3870576  31.0224060  67.5469937  87.0454294
  29.4035952  67.8420192  87.7233263  30.0129523  69.2457630  86.2315477
  29.4426162  68.7998640  85.2314498  30.3705441  70.5513117  86.3629235
  30.6985454  70.8276197  87.2773459  30.1981233  71.5969147  85.3361715
  29.2249151  71.6044239  84.8453471  30.4746785  73.0054937  85.9702190
  31.4172665  72.9422056  86.5139312  30.5585415  74.1350189  84.9288488
  29.6160870  74.1992282  84.3850131  30.7513997  75.0816700  85.4335845
  31.3676323  73.9254900  84.2291568  29.4425964  73.3245681  87.0928909
  28.4775738  73.3916438  86.5905633  29.4497177  72.4552396  87.7503989
  29.6827729  74.6276165  87.9436083  29.6753218  75.4974717  87.2868008
  28.8920293  74.7276189  88.6871292  30.6474674  74.5610683  88.4466348
  31.0937989  71.2387656  84.1090418  32.1569692  70.6203520  84.2816095
  30.6386573  71.5487455  82.8748876  29.7058099  71.9134508  82.7449453
  31.4269427  71.2049868  81.6789708  31.8100655  70.1911006  81.7945167
  30.5996751  71.2752577  80.3725955  29.6765752  70.7198176  80.5383426
  30.3643329  72.3236080  80.1890858  31.3284021  70.6996963  79.1646237
  31.8737374  71.5303557  78.7166112  32.0363679  69.9867434  79.5872131
  30.4923393  70.0120531  78.1015810  29.4630556  70.5768242  77.6615919
  30.8894284  68.8980370  77.6907106  32.7085007  72.0284012  81.5975843
  32.7006539  73.2452374  81.8473101  33.8138504  71.3379868  81.2807955
  33.7335371  70.3341738  81.2032811  35.1318781  71.9364993  81.1453898
  35.2827156  72.6579928  81.9483808  36.2393514  70.8844496  81.2192765
  36.0331810  70.1363961  80.4537643  37.1818804  71.3835722  80.9942973
  36.3369354  70.2046795  82.5803393  36.0876999  70.8617928  83.4135167
  35.6004814  69.4035861  82.5171976  37.6905939  69.5950845  82.8362608
  38.7150150  70.2875976  82.8924041  37.7106576  68.3081010  83.1250441
  38.5913723  67.8478904  83.3057353  36.8452122  67.7888917  83.1641246
  35.2795148  72.7676521  79.8819749  34.7204243  72.4401540  78.8362178
  36.0196270  73.8678998  80.0014111  36.3160830  74.1227602  80.9326787
  36.3469875  74.7617055  78.9067087  36.3914002  74.1953437  77.9764610
  35.3011043  75.8572534  78.7595584  35.5560917  76.4573646  77.8860899
  34.3312665  75.3845499  78.6044258  35.2424462  76.6887382  79.9013422
  34.5736071  77.3649041  79.7707526  37.7626768  75.3141873  79.1503551
  38.4574298  74.8406732  80.0624705  38.1949765  76.2894846  78.3412641
  37.5982685  76.5746779  77.5779138  39.5353158  76.8642729  78.4245645
  40.2703286  76.0969499  78.1815196  39.7082879  78.0213966  77.4639401
  38.8805920  78.7131323  77.6205300  40.6476094  78.5190786  77.7049542
  39.7288512  77.5799234  76.0188070  40.6192363  76.9850210  75.8153215
  38.8398276  76.9932069  75.7875003  39.7476737  78.8041682  75.1751510
  40.4878666  79.5045191  75.5620902  40.0014566  78.5382124  74.1490120
  38.4456051  79.4522921  75.1801415  37.7680666  79.1530469  75.8667951
  38.1016351  80.4067440  74.3257855  38.9617005  80.8270006  73.4067751
  39.8836948  80.4175958  73.3576408  38.6903588  81.5543363  72.7606668
  36.8962916  80.9561263  74.3891572  36.2394102  80.6456479  75.0907341
  36.6407372  81.6824806  73.7355517  39.9563316  77.2647282  79.8029485
  41.0621784  76.9275923  80.1945403  39.0737673  77.9247002  80.5534064
  38.2161936  78.1937244  80.0926541  39.2884014  78.3658317  81.9401610
  40.1195686  79.0703099  81.9713178  38.0351618  79.0579083  82.5077800
  38.2422382  79.2922811  83.5519486  37.8976794  79.9833758  81.9485765
  36.7803729  78.2261759  82.4189307  36.5355159  78.0743126  81.3677012
  36.9663817  77.2615465  82.8911521  35.6385903  78.9027746  83.1028200
  35.9592519  79.2600679  84.0813988  35.3011052  79.7466956  82.5011552
  34.5207180  77.9810415  83.2845529  34.6090601  77.0502449  82.9025678
  33.4033298  78.2999000  83.9201839  33.2597149  79.5090087  84.4554659
  34.0059831  80.1849421  84.3761068  32.4050530  79.7456634  84.9388366
  32.4207405  77.4164606  84.0275252  32.5258399  76.4971506  83.6226507
  31.5715709  77.6667821  84.5136824  39.7346698  77.2565950  82.8993536
  40.5613968  77.5064525  83.7819678  39.2240860  76.0404895  82.6997697
  38.5176322  75.9388799  81.9851384  39.5224021  74.8887433  83.5474407
  39.5559790  75.1901600  84.5943981  38.4301151  73.8277671  83.3782082
  38.4392177  73.3550206  82.3961048  38.6647949  73.0849613  84.1406155
  37.0453434  74.4139604  83.6480151  36.7293785  74.7010574  84.8506283
  36.3191062  74.6903928  82.6619230  40.9243864  74.3386650  83.3259395
  41.5476460  73.9139770  84.2879918  41.4463629  74.4145628  82.0775449
  40.8591525  74.7463122  81.3257300  42.8250139  74.0215328  81.7621801
  43.0073357  73.0112077  82.1283783  43.0797913  74.0476931  80.2293565
  42.4940854  74.9038857  79.8947193  44.1389213  74.2461712  80.0651920
  42.6671257  72.8113783  79.4411142  42.2884142  71.7865026  80.0747421
  42.7787304  72.8411273  78.2075258  43.7812450  74.9907628  82.4581881
  44.7584601  74.5595934  83.0697972  43.4646589  76.2924428  82.3838961
  42.6812852  76.5275481  81.7913165  44.2183759  77.3797328  82.9971825
  45.2675222  77.2969826  82.7133804  43.6893566  78.7623303  82.5399173
  42.6561602  78.8388243  82.8786696  44.2926404  79.5188959  83.0416713
  43.7473640  78.9840605  81.0324519  42.9064599  78.4388023  80.6038790
  43.6084475  80.0526330  80.8682662  45.2826891  78.4493443  80.2198625
  46.3635193  79.7748232  80.5886722  46.4628370  79.8733320  81.6696583
  47.3422599  79.5788529  80.1507645  45.9597734  80.6992333  80.1756873
  44.2392337  77.2732209  84.5207419  45.2917770  77.4727944  85.1265176
  43.0963472  76.9235559  85.1318318  42.2611343  76.8019863  84.5770891
  42.9834076  76.8191680  86.5924648  43.4258929  77.6961846  87.0648501
  41.5119124  76.7353182  86.9991344  40.9655151  77.4388476  86.3709658
  41.1773696  75.7206341  86.7832702  41.2514514  77.0530330  88.4569942
  42.0885372  76.6630955  89.0360770  41.2179201  78.1382520  88.5532993
  39.9611144  76.4613960  88.9761445  38.8766267  76.7986450  88.4510544
  40.0380898  75.6478636  89.9173718  43.8129639  75.6338407  87.1275177
  44.5021999  75.7616798  88.1448416  43.7778810  74.5066494  86.3979816
  43.1070812  74.4961543  85.6429871  44.5796034  73.3090235  86.6279001
  44.3723623  72.9155688  87.6230602  44.2538680  72.2326794  85.6016609
  44.2798102  72.6632106  84.6006269  44.9873415  71.4293001  85.6702058
  42.9606825  71.7143018  85.8590882  42.7536246  71.0353307  85.2127716
  46.0640086  73.6470445  86.5745722  46.7947338  73.2133949  87.4604614
  46.4957789  74.4794402  85.6021048  45.8627706  74.7161585  84.8515288
  47.8812766  74.9429243  85.5135300  48.5484295  74.0811094  85.4967544
  48.1194304  75.7739021  84.2407018  47.9435224  75.0221970  83.4712247
  47.3773854  76.5670836  84.1494201  49.5259224  76.3663199  84.0653093
  49.6680701  77.1402138  84.8196190  50.6265023  75.2897569  84.2177362
  50.4852795  74.5157058  83.4634155  51.6059959  75.7496693  84.0866884
  50.5647440  74.8443265  85.2106502  49.6288972  77.1363586  82.7467636
  48.9020775  77.9486458  82.7420703  50.6330667  77.5474109  82.6429326
  49.4249932  76.4622454  81.9148421  48.3320453  75.7023135  86.7930442
  49.4846101  75.5279987  87.2186610  47.4118719  76.4872237  87.3974165
  46.5103028  76.5766660  86.9510168  47.6402229  77.2075096  88.6458287
  48.5009026  77.8637559  88.5167149  46.7573260  77.8066525  88.8685850
  47.9059745  76.2662229  89.8099178  48.7571852  76.5299335  90.6678613
  47.2101229  75.1274564  89.8129776  46.4779277  74.9836141  89.1323169
  47.4052470  74.1145708  90.8422061  47.4442100  74.5954770  91.8196059
  46.2609995  73.0909835  90.8443421  46.2052553  72.6729326  89.8392425
  46.4954850  72.2980949  91.5545845  44.9313308  73.7134612  91.2053417
  44.8555293  74.7593726  92.1225164  45.7756565  75.1151765  92.5860560
  43.6402747  75.3472786  92.4502112  43.6066128  76.1919409  93.1383349
  42.4708950  74.8683386  91.8842930  41.2811224  75.4398155  92.2495345
  41.3857073  76.1468289  92.8904664  42.5142584  73.8172410  90.9808980
  41.5966452  73.4401699  90.5293408  43.7438705  73.2409269  90.6502891
  43.7842647  72.4082530  89.9480622  48.7484114  73.4366764  90.6930670
  49.3957727  73.1781119  91.7123304  49.1670664  73.1667463  89.4205751
  48.4957954  73.3479789  88.6880116  50.4328215  72.5127560  89.0596002
  50.5746547  71.5891691  89.6208220  50.5190131  72.1884902  87.5358520
  50.3746657  73.1148070  86.9797942  51.8650096  71.5759488  87.1620198
  52.0098753  70.6492900  87.7173741  51.8843649  71.3649589  86.0928102
  52.6640014  72.2752563  87.4083583  49.3915341  71.2571147  87.1157845
  48.4319984  71.7324581  87.3193577  49.4726130  71.0454149  86.0496189
  49.4611438  70.3253088  87.6770269  51.5905697  73.3735879  89.5849691
  52.4620708  72.8450800  90.2792387  51.5283619  74.7101316  89.3443695
  50.7863100  75.0266067  88.7366675  52.5201252  75.6968241  89.8085985
  53.5185640  75.3532063  89.5381435  52.2895359  77.0827536  89.1791780
  51.2901995  77.2791289  89.5675886  52.9810764  77.8341227  89.5603816
  52.2634844  77.1424982  87.6677370  51.6890997  76.2953305  87.2929172
  51.6213995  78.4515609  87.1817351  52.1955391  79.2992276  87.5557989
  51.6143761  78.4706963  86.0919253  50.5982607  78.5144825  87.5523135
  53.6425377  76.8485545  87.0765992  53.9628025  75.8513709  87.3785176
  53.5905181  76.8991460  85.9890167  54.3588399  77.5852910  87.4402329
  52.5906634  75.8090073  91.3285088  53.6861518  75.9278132  91.8767491
  51.4324169  75.7576151  92.0058290  50.5718210  75.8011625  91.4789726
  51.3543736  75.8091962  93.4805296  52.0411960  76.5756200  93.8396519
  49.9435169  76.1373687  93.9893635  49.2459989  75.4569214  93.5009382
  49.9277439  75.9625359  95.0651352  49.5293296  77.5902182  93.7002627
  49.2606519  77.6563595  92.6459674  48.6558212  77.8154731  94.3121005
  50.8449551  78.8044148  94.0618996  51.2055821  78.4133549  95.9511942
  51.5295696  77.3776068  96.0529640  51.9897175  79.0763770  96.3167541
  50.2980125  78.5686006  96.5345616  51.9158648  74.5708271  94.1162682
  52.6147909  74.6602472  95.1194468  51.7092084  73.4340086  93.4570945
  51.0789444  73.4951818  92.6702499  52.2593248  72.1230304  93.8052700
  52.0366875  71.8772863  94.8436060  51.6180159  71.0570450  92.8992181
  50.5709103  70.9234537  93.1709213  51.6811819  71.5087463  91.9092302
  52.3088054  69.7150985  92.8845809  52.1474300  68.8158738  93.9368385
  51.5555195  69.1198129  94.8001822  52.7261334  67.5483193  93.8999190
  52.5902664  66.8580525  94.7324896  53.4656317  67.1643695  92.7979090
  54.0297123  65.9211629  92.7881990  53.8452725  65.4193312  93.5855362
  53.6347364  68.0364506  91.7313519  54.2193435  67.7373938  90.8613518
  53.0509796  69.3024573  91.7777089  53.1708657  69.9889079  90.9395484
  53.7987153  72.1419625  93.6701384  54.4603800  71.5312399  94.4773967
  54.3836623  72.8087260  92.6401047  53.8579884  73.2000502  91.8715791
  55.8538383  72.8937582  92.5957318  56.2670621  71.9118709  92.8264756
  56.3786235  73.3354994  91.2337953  55.9032931  74.2982605  91.0460420
  57.4613991  73.4606121  91.2404273  56.0520439  72.4530154  90.0486992
  56.0921776  71.0649874  90.1583060  56.3587877  70.6142991  91.1142866
  55.7968879  70.2552815  89.0654774  55.7995542  69.1710581  89.1775189
  55.5021156  70.8201300  87.8460437  55.2731302  70.1813311  86.9930481
  55.4959753  72.1944330  87.7014216  55.2614731  72.6424941  86.7358389
  55.7911749  73.0095593  88.7961505  55.8195957  74.0926769  88.6772033
  56.3766449  73.8449611  93.7035835  57.4145079  73.5659102  94.3104178
  55.5921527  74.9128938  94.0107086  54.7773641  75.0270992  93.4248963
  55.8974691  75.9582574  94.9833168  56.9223299  76.3041249  94.8486494
  54.9510082  77.1472454  94.7948486  54.0014745  76.6916783  94.5138794
  54.8198987  77.7238702  95.7104982  55.3835256  78.0885152  93.6871005
  56.5492190  78.1438601  93.3140727  54.4813032  78.9261619  93.2057308
  54.7348371  79.5671071  92.4674831  53.5425860  78.9213570  93.5784072
  55.9309899  75.4432295  96.4229222  56.9481667  75.5901331  97.1030557
  54.8251376  74.8469645  96.8714117  54.0756808  74.7678621  96.1989857
  54.6704815  74.1799477  98.1636033  55.2548491  74.6967459  98.9248741
  53.1985227  74.1951675  98.5828820  52.7397228  73.3651627  98.0455795
  53.2033295  73.9775743  99.6509316  52.4007166  75.4677183  98.3278255
  52.5364747  76.1440607  99.1717636  52.7734103  75.9414274  97.4196398
  50.9097386  75.1494258  98.1630145  50.3440735  76.0802339  98.2044652
  50.7559024  74.6742161  97.1941958  50.4136716  74.2507493  99.2115067
  50.4852214  73.2591152  99.0336251  49.8924858  74.6515533 100.3652617
  49.7330793  75.9439718 100.6174322  50.0098179  76.6278401  99.9276206
  49.3356959  76.2382705 101.4980992  49.5184553  73.7634663 101.2719901
  49.6302873  72.7773031 101.0847045  49.1228428  74.0758324 102.1472141
  54.9923485  72.7214678  97.8471116  54.4418212  72.2323331  96.8707684
  55.8047580  71.9914468  98.6239746  56.3384588  72.3795820  99.3885751
  56.0417089  70.5749445  98.2479167  56.5866601  70.4834139  97.3083692
  56.8112611  69.8492891  99.3244549  56.8445134  68.7920291  99.0614038
  58.2338937  70.3798436  99.4783684  58.2014441  71.4370105  99.7418920
  58.7458885  69.8254218 100.2648650  58.7718758  70.2565754  98.5384318
  56.0771737  69.9583725 100.5508522  56.5516796  69.5019168 101.2494886
  54.7387700  69.8150617  97.8644843  54.6774692  69.1566962  96.8210040
  53.6856951  69.9911574  98.6893653  53.8305494  70.5741917  99.5012690
  52.3743456  69.3763733  98.5036640  52.3592294  68.7884619  97.5859327
  52.0726262  68.4503028  99.6821430  51.4073009  67.6520857  99.3530671
  53.0035035  68.0183671 100.0495653  51.4494966  69.1858879 100.7233678
  51.2620471  68.6005191 101.4607997  51.2388715  70.4166628  98.3799010
  51.4445967  71.6023871  98.6195758  50.0252955  69.9258748  98.0930102
  49.9811069  68.9485997  97.8418524  48.8037888  70.7100469  98.0268695
  49.0433505  71.7726036  98.0678896  48.0603020  70.4275814  96.7239295
  48.1728378  69.3492445  96.6115717  47.0032264  70.6734623  96.8250925
  48.6256408  71.1237149  95.5034177  49.7117436  71.1650395  95.5857211
  48.2478552  70.3761422  94.2636507  47.1618254  70.3347980  94.1804119
  48.6594140  70.8852502  93.3921410  48.6467126  69.3629861  94.3139284
  48.1940709  72.5824280  95.4488323  48.5501164  73.1007668  96.3391445
  48.6162859  73.0538177  94.5613485  47.1063357  72.6387282  95.4068619
  47.9141001  70.4540484  99.2642424  48.0028614  69.3734882  99.8626078
  47.0704060  71.4309252  99.6840971  46.9161619  72.7319872  99.1803943
  46.2248673  72.7010368  98.3382221  47.8868747  73.0923959  98.8399221
  46.3788651  73.5346286 100.3433202  45.8136002  74.3972453  99.9905213
  47.1900627  73.8716788 100.9886549  45.4755384  72.5346485 101.0762714
  44.4600694  72.4069414 100.7012877  45.4412441  72.8055593 102.1315111
  46.2583996  71.2442465 100.8974028  46.9722020  71.1847094 101.7190108
  45.3257283  70.0221797 100.9400161  44.9891860  69.5656564 102.0378371
  44.9200490  69.5018564  99.7585039  45.2778772  69.9772383  98.9423726
  44.0094054  68.3678551  99.5599114  43.5145706  68.1104173 100.4963747
  42.9378454  68.7495371  98.5271752  42.3947536  67.8426430  98.2612925
  42.2387796  69.4906079  98.9147591  43.4931365  69.3103176  97.2454946
  43.9549134  68.6121083  96.1705157  43.8855611  67.5254976  96.2211851
  44.4295800  69.4784176  95.2128055  44.8031594  69.2117406  94.3131271
  44.2680947  70.7650489  95.6581992  44.5418002  71.9843381  95.0307447
  44.9617250  71.9696107  94.0249888  44.2604629  73.1358320  95.7306721
  44.4727069  74.1041527  95.2774533  43.7073651  73.0948062  97.0128365
  43.4861786  74.0127151  97.5574640  43.4234423  71.8874420  97.6305239
  42.9923735  71.9120303  98.6313615  43.6898247  70.6936826  96.9420410
  44.7153294  67.0993238  99.0924109  44.0476150  66.1628323  98.6324522
  46.0572165  67.0639970  99.2000269  46.5345294  67.8907230  99.5298692
  46.8632630  65.9376280  98.7364486  46.4561957  65.5582365  97.7991880
  48.3122947  66.3629919  98.5028211  48.3131293  67.4306350  98.2831927
  48.8638421  66.1819313  99.4253788  48.9769764  65.6086424  97.3576429
  49.2279859  64.6037336  97.6971327  48.2984327  65.5452998  96.5069560
  50.2366579  66.2942807  96.9162229  50.2447902  67.4959717  96.6405229
  51.3288987  65.5487561  96.8217874  52.1993756  65.9686047  96.5283618
  51.2854701  64.5643951  97.0437080  46.8020536  64.6980317  99.6255653
  46.5547809  63.6111705  99.1019224  47.0305061  64.8593624 100.9285848
  47.1932056  65.7918110 101.2809592  47.0569131  63.7436720 101.8778402
  47.4495173  62.8816240 101.3385497  47.7508341  64.0223366 102.6708843
  45.7232374  63.3729118 102.4968966  45.6412897  63.1389283 103.7113864
  44.6666361  63.3501127 101.6587606  44.8550629  63.6052986 100.6998681
  43.2861917  63.0339706 102.0350815  43.2012456  63.0300036 103.1217589
  42.2856879  64.0766866 101.4624520  42.2982727  63.8603762 100.3942055
  41.3131987  63.8087426 101.8754542  42.5396315  65.5703106 101.6833978
  43.4763948  65.8458031 101.1989608  41.4140080  66.3899309 101.1033924
  40.4769207  66.1153087 101.5876948  41.6117211  67.4488495 101.2698310
  41.3388160  66.1987580 100.0329255  42.6960166  65.9096998 103.1481560
  43.5398785  65.3573389 103.5615492  42.8744361  66.9795028 103.2567342
  41.7866579  65.6373235 103.6838582  42.9257026  61.6300530 101.5379405
  42.5729091  61.4475666 100.3661946  43.0412741  60.6372848 102.4233926
  43.4699202  60.8293034 103.3175350  42.7183464  59.2561354 102.0951591
  42.7695243  59.1211222 101.0147650  43.7052418  58.2681645 102.7646328
  43.9668947  58.6797715 103.7394233  43.1788400  57.3232388 102.8992309
  44.9883278  58.0286766 101.9478318  45.2991010  58.9758839 101.5070154
  45.7656194  57.6702080 102.6226800  44.7601802  56.9888402 100.8262994
  44.5555548  56.0338591 101.3102813  43.8809211  57.3076522 100.2665122
  45.9280874  56.8342826  99.8828112  46.1740717  57.8161320  99.4783805
  46.7774864  56.4518431 100.4488152  45.6163584  55.9011997  98.7648657
  44.8295841  56.2556143  98.2400075  46.4192655  55.8239520  98.1570227
  45.3888127  54.9912228  99.1393843  41.2547684  58.9087152 102.3894100
  40.6324855  59.4644888 103.3005113  40.7107373  58.0165119 101.5527180
  41.3276914  57.7186069 100.8106132  39.3657136  57.4503781 101.6039581
  39.0224500  57.2389443 102.6166600  38.3745519  58.3876032 100.9422085
  38.6999165  58.6014466  99.9241176  37.3908784  57.9186785 100.9177909
  38.3192747  59.3174398 101.5082894  39.4249430  56.1175750 100.8533745
  40.2152165  55.9844634  99.9049911  38.6256445  55.1278134 101.2963676
  38.0765813  55.3042102 102.1255317  38.5866664  53.7885330 100.7111543
  39.5666742  53.3464106 100.8906302  37.5322087  52.9395283 101.4157009
  36.5444095  53.3645460 101.2376199  37.5648848  51.9219128 101.0264822
  37.7331401  52.9248842 102.4869205  38.3622947  53.7928399  99.1852995
  39.2220593  53.3072488  98.4341728  37.2413469  54.3830402  98.7352579
  36.5613621  54.6965274  99.4130822  36.8835712  54.4369471  97.3183949
  37.5286706  53.7900199  96.7238941  35.4124966  54.0030065  97.1018308
  35.3356281  52.9537169  97.3867567  34.4162355  54.8199033  97.9060443
  34.4921965  55.8693121  97.6213152  33.4063746  54.4618392  97.7058687
  34.6341099  54.7156753  98.9689496  35.0990888  54.1083225  95.7151440
  34.1882717  53.8410219  95.5717464  37.2183819  55.7938091  96.6803164
  37.2590966  56.8184727  97.3705163  37.4398904  55.7808191  95.3470459
  37.4499836  54.8746670  94.9010797  37.7427650  56.9596816  94.5315998
  38.6362508  57.4470938  94.9217428  37.9917586  56.5808031  93.0597934
  37.0629543  56.1577399  92.6771196  38.2170535  57.5039556  92.5258161
  39.1248193  55.5862125  92.8531221  40.0140067  55.9683228  93.3545585
  38.8351087  54.6361859  93.3021425  39.4261936  55.3776784  91.3746793
  38.5108879  55.0494445  90.8821583  39.7434106  56.3312631  90.9526023
  40.5110445  54.3463114  91.1606381  41.4059001  54.6791634  91.6865124
  40.1712073  53.4015306  91.5849010  40.8247805  54.1577326  89.7195314
  41.1401114  55.0329721  89.3263113  41.5515071  53.4632428  89.6212844
  39.9958255  53.8488933  89.2321395  36.6281934  58.0144303  94.6349117
  36.9352169  59.1984837  94.6189385  35.3486249  57.5952770  94.7762480
  35.1764974  56.6013929  94.7246169  34.1902923  58.5000387  94.9032632
  34.2091123  59.2383173  94.1015839  32.8793214  57.7109158  94.8117683
  32.8959820  57.1503288  93.8771220  32.8529798  57.0160749  95.6511742
  31.6300939  58.6073383  94.8493263  31.5988111  59.0961970  95.8230508
  31.7356985  59.3604730  94.0684692  30.3429925  57.8297759  94.6317933
  30.4413053  57.2264997  93.7293016  30.1740740  57.1768109  95.4880659
  29.1560035  58.7885986  94.4785279  29.3713715  59.4552154  93.6434595
  28.2730939  58.1922794  94.2483691  28.9030549  59.5982517  95.7096736
  29.7209051  60.1512137  95.9228729  28.1143412  60.2097208  95.5543145
  28.7030487  58.9807532  96.4834902  34.2351315  59.3418935  96.1940362
  33.7509570  60.4842217  96.2095390  34.8136400  58.7507339  97.2709690
  35.1050357  57.7946002  97.1260683  35.0167146  59.3478148  98.5996533
  34.1741904  59.9902467  98.8556482  35.1275602  58.2310787  99.6632505
  35.8185437  57.4803598  99.2797636  35.5425256  58.6784289 100.5664567
  33.7922920  57.5723246  99.9901939  33.1664129  58.3553220 100.4183191
  33.3357954  57.2048938  99.0711142  33.8796078  56.4255708 100.9804269
  34.8970340  55.7324372 101.1413578  32.7728855  56.1740239 101.6459410
  32.7536577  55.4249433 102.3231484  31.9476638  56.7311704 101.4765351
  36.2956933  60.2238425  98.6043493  36.3447835  61.2512210  99.2893073
  37.3318832  59.7737019  97.8583561  37.1745509  58.8967809  97.3825877
  38.6383089  60.4227373  97.7061629  39.1322656  60.5109199  98.6738043
  39.5304202  59.5714852  96.7713527  39.1976933  58.5392732  96.8805794
  39.3289396  59.9120859  95.7557264  41.0322583  59.6546226  97.0480482
  41.5472553  59.6651687  96.0874401  41.2224757  60.5913190  97.5719941
  41.5536467  58.4730701  97.8992343  42.4936232  58.7914739  98.3499693
  40.8182569  58.2922351  98.6831986  41.7778936  57.1948869  97.1117199
  40.8244324  56.8902885  96.6801736  42.4864275  57.4089780  96.3115674
  42.3096352  56.0968347  97.9641313  41.6530414  55.8980050  98.7053809
  42.4433548  55.2686648  97.4016780  43.1933397  56.3787154  98.3637672
  38.4804151  61.8417642  97.1262896  39.1969123  62.7498550  97.5416990
  37.5217264  62.0153763  96.1819614  37.0053641  61.1756907  95.9619675
  37.1939759  63.2467767  95.4498448  38.1048059  63.8033374  95.2291002
  36.4958458  62.9020995  94.1249626  35.6646163  62.2194452  94.3014275
  36.1081785  63.8772414  93.8301535  37.3737251  62.3529932  93.0196345
  38.3610908  61.4088138  93.2863687  38.5303076  61.1068792  94.3199550
  39.1270737  60.8509401  92.2623076  39.9000833  60.1178787  92.4929131
  38.9052145  61.2341961  90.9491410  39.6653406  60.7218702  89.9253874
  40.3309028  60.0995031  90.2275229  37.9030775  62.1424060  90.6590615
  37.7123554  62.4354647  89.6266651  37.1356336  62.6836379  91.6910546
  36.3298933  63.3813442  91.4628251  36.3000166  64.1820510  96.2485711
  36.4527069  65.3966454  96.1286866  35.3545121  63.6316358  97.0311854
  35.2158925  62.6324189  96.9816915  34.4320902  64.4224531  97.8559325
  33.9219105  65.1449219  97.2188653  33.3741672  63.5500721  98.5554255
  33.9116965  62.7342517  99.0387458  32.9054487  64.1759043  99.3148576
  32.2968943  62.9748629  97.6327867  31.7880581  63.8103015  97.1519240
  32.8084990  62.3783438  96.8774558  31.2757393  62.1082464  98.3575758
  31.0571114  60.9400209  97.9468679  30.6922156  62.5911855  99.3514470
  35.2030957  65.2967057  98.8582668  34.7541037  66.3952500  99.1934556
  36.3823955  64.8062224  99.3013392  36.6092535  63.8612585  99.0262429
  37.2754352  65.4894306 100.2366010  36.6816458  66.0705751 100.9421393
  38.1418559  64.4845154 101.0302549  38.5256102  63.7476437 100.3246686
  38.9741505  65.0365026 101.4669422  37.3636083  63.7706137 102.1413679
  36.9379243  64.5379120 102.7880110  36.5590772  63.2077763 101.6680331
  38.2240184  62.8250431 102.9733244  38.6293491  62.0554773 102.3163812
  39.0426273  63.3955615 103.4120586  37.4184150  62.1748654 104.0723991
  37.0176167  62.9609419 104.7123561  36.5960261  61.6259687 103.6136092
  38.2400625  61.2448451 104.8871032  39.0019148  61.7533518 105.3126637
  37.6660587  60.8323443 105.6085342  38.6111964  60.5161301 104.2943697
  38.1135794  66.5413010  99.5093624  38.1083987  67.6948210  99.9266619
  38.7909815  66.1509313  98.4032472  38.7872134  65.1616051  98.1999771
  39.5934294  67.0357024  97.5457796  40.4060027  67.5158463  98.0910187
  40.1745817  66.2504148  96.3354349  39.3730391  65.6660085  95.8836617
  40.7725442  67.2083782  95.2784339  41.5745185  67.7928354  95.7293747
  41.1702973  66.6285793  94.4455315  39.9947976  67.8797522  94.9144746
  41.2216423  65.2097271  96.8081877  42.0694682  65.7812855  97.1858292
  40.7578966  64.6631588  97.6293470  41.7124884  64.2075786  95.7332577
  42.1768000  64.7534191  94.9119340  42.4412315  63.5280207  96.1751105
  40.8652274  63.6352938  95.3554499  38.7429288  68.2398159  97.1071758
  39.1375302  69.3872112  97.3435838  37.5548543  67.9575059  96.5199458
  37.3541317  66.9803812  96.3617146  36.5909634  68.9482547  96.0462401
  37.0398189  69.5492534  95.2553997  35.3450854  68.2646843  95.4915200
  35.5739187  67.8880293  94.4945919  35.0902414  67.4303081  96.1449501
  34.2465191  69.1601531  95.4179146  33.4813009  68.6995731  95.0659104
  36.2044265  69.9353510  97.1390599  36.2869455  71.1479297  96.9210840
  35.7879738  69.4123903  98.3184000  35.6406611  68.4148660  98.3762244
  35.3860267  70.2387245  99.4538472  34.7737241  71.0631484  99.0884571
  34.5767385  69.4508623 100.4997581  35.0769536  68.4919630 100.6353907
  34.6193391  70.0171058 101.4301631  33.1111548  69.2126165 100.1130898
  33.1945195  68.6464381  99.1854082  32.7066606  68.5701004 100.8951747
  32.1791829  70.4031706  99.9003190  32.4423366  71.4952937 100.4575938
  31.1581377  70.2294402  99.1949592  36.5666118  70.9859182 100.0823705
  36.3725081  72.1024732 100.5556227  37.7915913  70.4095752 100.0352638
  37.8573760  69.4599860  99.6975479  39.0051916  71.0482157 100.5555827
  38.7802138  71.5146956 101.5146867  40.1460354  70.0321940 100.7577245
  39.7542599  69.2464899 101.4036969  40.3716335  69.6158629  99.7759537
  41.4251279  70.6090342 101.3737590  42.1584681  69.8034082 101.4095351
  41.7803461  71.3935915 100.7056334  41.2315791  71.1840123 102.7766614
  40.3567545  71.8341464 102.7663365  41.0621962  70.3587881 103.4683360
  42.4375393  71.9719399 103.2207372  43.2498608  71.2717457 103.4155768
  42.7236072  72.6433231 102.4111022  42.1629557  72.7629206 104.4446528
  41.8982779  72.1409511 105.1951189  42.9930259  73.2744155 104.7081988
  41.4105563  73.4120964 104.2641955  39.4104825  72.2065098  99.6447436
  39.7311892  73.2797295 100.1502660  39.3200026  72.0125511  98.3066246
  39.0702926  71.0868652  97.9890557  39.5688999  73.0528049  97.2967072
  40.5954687  73.4101971  97.3774940  39.3560175  72.4869435  95.8853480
  38.4414502  71.8942215  95.9039640  39.2270120  73.3319629  95.2090345
  40.4999728  71.6302008  95.4059786  41.3843600  72.2628255  95.3301753
  40.6724630  70.8531778  96.1506829  40.2284317  71.0035236  94.0937384
  39.5765274  70.1397229  94.2239992  39.7480172  71.7241025  93.4318717
  41.5264076  70.5624868  93.4925977  42.0230277  71.4379238  93.0741732
  42.1431698  70.1400014  94.2858250  41.3310216  69.5559907  92.4338116
  40.7598973  69.9474192  91.6984882  42.2280404  69.2863265  92.0560043
  40.8712399  68.7445349  92.8214189  38.6224970  74.2374465  97.5026843
  39.0363399  75.4011094  97.4325926  37.3458992  73.9244808  97.7701531
  37.0840675  72.9492803  97.7471825  36.3006735  74.9149578  97.9858852
  36.4155197  75.7401057  97.2830051  34.9375132  74.2818232  97.7721858
  34.8471949  73.4429956  98.4623380  34.1811200  75.0299353  98.0094570
  34.7366699  73.7960772  96.3654723  34.9045950  74.6299684  95.6839097
  35.4643253  73.0100977  96.1633441  33.0818893  73.1484553  96.1092675
  32.1670740  74.7219669  95.9179482  32.5669608  75.2742513  95.0675533
  31.1111250  74.5107372  95.7492640  32.2775147  75.3194008  96.8229216
  36.3842222  75.5948350  99.3463706  35.9294075  76.7354631  99.4802039
  36.9413621  74.9034378 100.3629974  37.1904480  73.9331690 100.2340242
  37.0927469  75.4880746 101.6984125  36.3042523  76.2233245 101.8589836
  37.0016118  74.4280805 102.7931732  37.0335387  74.9427841 103.7534649
  36.0417392  73.9233185 102.6838116  38.0481190  73.4714620 102.7345683
  37.9387762  72.8337341 103.4437559  38.3870717  76.2956451 101.8070128
  38.4632767  77.1735683 102.6648663  39.3813258  76.0238607 100.9070733
  39.2397072  75.2219709 100.3095649  40.6798470  76.7088416 100.8572054
  40.9139031  77.1441194 101.8287249  41.8271773  75.7420241 100.4572726
  41.6877483  75.4756277  99.4095642  43.2016924  76.3500774 100.6446473
  43.3420413  76.6163224 101.6922709  43.9625018  75.6277593 100.3488015
  43.2911015  77.2443568 100.0279050  41.7554778  74.5497900 101.2271089
  42.4688441  73.9604288 100.9714485  40.6455632  77.9751090  99.9743088
  40.7453652  77.8599440  98.7419977  40.5626481  79.1937131 100.5811615
  40.1953200  79.5689463 101.9293489  41.0956692  79.5565238 102.5436104
  39.4878375  78.8310504 102.3076041  39.5861280  80.9483935 101.8198427
  39.6792233  81.4890502 102.7617146  38.5345943  80.8860724 101.5396744
  40.4101398  81.6119046 100.7093949  41.3631262  81.9918609 101.0775648
  39.8832166  82.4057093 100.1799369  40.6485915  80.4355701  99.7762299
  39.8443394  80.4396145  99.0405259  41.9937982  80.5109435  99.0588493
  42.9777188  79.9741103  99.5827589  42.0382788  81.1285726  97.8454690
  41.1653352  81.4148508  97.4258102  43.2664413  81.1972557  97.0247932
  43.7714528  80.2362082  96.9275820  43.0988779  81.8177536  95.6047753
  43.9082556  81.4316167  94.9851745  41.7596660  81.4997757  94.9474007
  40.9497609  81.8860374  95.5662356  41.7178911  81.9656694  93.9628711
  41.6530047  80.4200727  94.8426791  43.3869817  83.2954704  95.5838140
  44.4129714  83.4707657  95.9074167  43.2555719  83.6774679  94.5714361
  42.7012644  83.8094534  96.2573970  44.4234443  81.8313135  97.8386113
  45.5585496  81.3682354  97.7546440  44.0894186  82.8183390  98.6867955
  43.1133014  83.0762708  98.6591236  44.9800032  83.5620618  99.5840448
  45.8059231  83.9959917  99.0204311  44.1942874  84.7040120 100.2667347
  43.3010525  84.2574326 100.7035384  44.8297572  85.0954922 101.0611032
  43.7887561  85.8429169  99.3311488  43.3712724  86.6085604  99.9850588
  44.7426473  86.1875417  98.9318687  42.8238945  85.5756727  98.1816218
  41.9643049  84.6679848  98.2981874  42.9199015  86.3020718  97.1650894
  45.6078470  82.6493290 100.6444036  46.7375040  82.9012654 101.0765889
  44.8735444  81.5875318 101.0507304  43.9104756  81.5343767 100.7511102
  45.3479590  80.6151741 102.0239206  46.0276478  81.0773898 102.7397970
  44.1927115  79.9188978 102.8105918  43.5014322  79.4833417 102.0891190
  44.7178897  78.8202570 103.7422534  45.4089268  79.2551590 104.4643537
  43.8823556  78.3611734 104.2706713  45.2362773  78.0622867 103.1550081
  43.3821904  80.9394439 103.6084328  42.9493927  81.6726117 102.9278056
  42.5839168  80.4290157 104.1472481  44.0342825  81.4457162 104.3201667
  46.2986245  79.6450033 101.3311078  47.3911844  79.3882249 101.8464862
  45.9008519  79.1281357 100.1590584  44.9660773  79.3236532  99.8303202
  46.7398111  78.2315585  99.3678500  47.0181328  77.3580600  99.9574571
  45.9619933  77.7577282  98.1207841  45.2211353  77.0626566  98.5158843
  45.4573262  78.6369244  97.7202528  46.7692353  77.0655388  96.9908270
  47.6767137  77.6434575  96.8159163  47.1353285  75.6575774  97.3474704
  46.2282890  75.0788831  97.5220874  47.6994245  75.2099098  96.5292466
  47.7450592  75.6578990  98.2509796  45.9980182  77.0446490  95.7119119
  45.7755629  78.0664485  95.4044402  46.5888725  76.5535834  94.9387061
  45.0659986  76.4986489  95.8579337  48.0914134  78.8960192  98.9522576
  49.1441605  78.2517900  99.0558840  48.0463261  80.1810517  98.5084033
  47.1302345  80.6033463  98.4579777  49.1924944  80.9361182  97.9788046
  49.9696699  80.2450202  97.6524905  48.7673932  81.7930538  96.7846395
  48.0629244  82.5628579  97.0996388  49.6364903  82.2630247  96.3243162
  47.9436020  80.8678381  95.4705017  47.7471298  81.9104948  94.6685267
  49.9469992  81.7765623  99.0210101  50.8220626  82.5704000  98.6321235
  49.6469681  81.5877877 100.3219507  48.9081821  80.9378079 100.5495927
  50.2787872  82.3354311 101.4172809  50.1714640  83.4051411 101.2375552
  49.6213015  81.9940070 102.7746254  48.5426718  81.9578718 102.6218137
  49.9778559  81.0098283 103.0785354  49.9470336  83.0130670 103.8663820
  50.9243793  83.4423184 103.6458385  49.1904064  83.7969339 103.8321776
  49.9687009  82.3899019 105.2539312  48.9781778  81.9866403 105.4645090
  50.6979734  81.5798031 105.2549383  50.3365579  83.3987394 106.3142236
  51.2913550  83.8482539 106.0414605  49.5656402  84.1690347 106.3349648
  50.4492549  82.7742388 107.6593839  51.1638523  82.0607310 107.6404925
  50.6959375  83.4799090 108.3385578  49.5644997  82.3580211 107.9125048
  51.7793712  82.0909466 101.4764991  52.2142888  80.9412954 101.4221875
  52.5400902  83.1799087 101.5722712  52.0795885  84.0782665 101.6037470
  53.9993887  83.1470785 101.6341345  54.3326039  84.0105800 102.2098357
  54.2952260  82.2324069 102.1479005  54.6583045  83.1808590 100.2666232
  55.8871336  83.2781676 100.1615711  53.8380795  83.1047409  99.2039582
  52.8541558  82.9515883  99.3728896  54.3092363  83.1130736  97.8248719
  55.3953738  83.0232155  97.8067053  53.7013572  81.9291414  97.0326620
  52.6194681  81.8328033  97.1239546  53.9686345  82.0363717  95.9813940
  54.2926233  80.6191104  97.4974386  55.5508348  80.2186235  97.0723844
  56.0978892  80.8377028  96.3613484  56.1188938  79.0310050  97.5484132
  57.0990924  78.7200635  97.1869900  55.4437193  78.2535284  98.4721331
  55.8972850  77.3408372  98.8586210  54.1981921  78.6355278  98.9015831
  53.6574611  78.0188472  99.6195073  53.6207581  79.8176884  98.4180497
  52.6321581  80.1217146  98.7620525  54.0376223  84.4521124  97.1678065
  53.2221273  85.2002447  97.7078684  54.6968743  84.8070394  96.0293581
  55.8027315  84.2043735  95.3328471  55.4107239  83.4458193  94.6553327
  56.4561082  83.7325731  96.0667424  56.4821394  85.3402525  94.6020956
  57.0238597  84.9715126  93.7310795  57.1714715  85.8673541  95.2617064
  55.3147399  86.2468310  94.1930553  54.8014873  85.9087952  93.2928317
  55.6107929  87.2888791  94.0722748  54.3957295  86.1047302  95.3962149
  54.6580141  86.8966672  96.0977424  52.9169046  86.2267065  95.0196809
  52.2769098  85.2370883  94.6610049  52.3692429  87.4423016  95.1620786
  52.9712031  88.1621648  95.5356294  50.9727432  87.7769867  94.8952422
  50.3772400  87.2848644  95.6641965  50.7733234  89.2766581  95.0132220
  51.3563259  89.7828789  94.2438400  49.7175220  89.5146139  94.8837583
  51.1026752  89.6112326  95.9969326  50.4718987  87.2895756  93.5432414
  49.2859936  86.9774961  93.4230736  51.3753568  87.1965043  92.5465356
  52.3079056  87.4999466  92.7881441  51.1081617  86.7916737  91.1426756
  50.3993218  87.4854119  90.6905998  52.3907715  86.8018737  90.3209012
  53.1598438  86.3020512  90.9098022  52.2009514  86.2304738  89.4122921
  52.8635810  88.1978510  89.9514252  53.5016576  88.0595995  89.0785875
  51.9398409  88.6923089  89.6509009  53.5868425  89.0559531  90.9765118
  53.7885238  88.6086502  92.1304086  53.9830084  90.1824021  90.6023203
  50.4148608  85.4374952  91.0172552  49.5634199  85.2712131  90.1397766
  50.7799075  84.4806808  91.8977682  51.5828107  84.6682388  92.4810930
  50.1766631  83.1573077  91.9587100  50.1366213  82.7251873  90.9588261
  50.9950713  82.2320515  92.8580770  51.2150082  82.6665190  93.8332514
  50.4715401  81.2854846  92.9923388  52.3236656  81.9041503  92.2219528
  52.4086693  80.9619101  91.1873704  51.5063630  80.4353240  90.8764841
  53.6330107  80.6921836  90.5534921  53.6824047  79.9668472  89.7413664
  54.7767728  81.3497964  90.9627043  55.7323199  81.1403471  90.4819126
  54.7057065  82.2851242  91.9955632  55.6100360  82.8035284  92.3142249
  53.4831528  82.5598504  92.6221062  53.4364077  83.2915058  93.4287010
  48.7010428  83.2164667  92.3624661  47.8747440  82.5049465  91.7700353
  48.3513428  84.1084072  93.3248351  49.0661040  84.6203343  93.8219733
  46.9635809  84.3082167  93.7130889  46.4725676  83.3407794  93.8183048
  46.8727212  85.0447115  95.0369386  47.3521637  86.0192594  94.9447909
  45.8253884  85.1797055  95.3070698  47.3752623  84.4648853  95.8111177
  46.2278067  85.0682233  92.6112122  45.1101623  84.6943540  92.2737532
  46.8742205  86.0816988  92.0007052  47.7735158  86.3591079  92.3673269
  46.3064961  86.8560111  90.8781018  45.3787980  87.3271584  91.2029026
  47.2742838  87.9563988  90.3896196  48.2349905  87.4787655  90.1972441
  46.8711135  88.3493615  89.4562739  47.4632222  89.0906934  91.3745749
  46.5187281  89.6271319  91.4654898  47.7329948  88.6646903  92.3409321
  48.7599977  90.2494798  90.8498488  48.9609206  91.2495690  92.3939412
  49.2606113  90.5968065  93.2138105  49.7257114  92.0103579  92.2377494
  48.0149472  91.7314281  92.6410189  45.9176601  85.9298442  89.7094053
  44.8344360  86.0870051  89.1323567  46.7999554  84.9441358  89.4044546
  47.6809375  84.9804590  89.8970503  46.6270912  83.9297431  88.3703142
  46.4247724  84.4145145  87.4152421  47.9001913  83.0603742  88.2240953
  48.7395201  83.7063296  87.9664752  48.0834451  82.5965924  89.1933344
  47.7507424  81.9872126  87.1734640  47.1231446  80.7760910  87.4703454
  46.8087425  80.5859303  88.4965470  46.8971901  79.8226092  86.4872763
  46.3620088  78.9032123  86.7247465  47.3702365  80.0351993  85.2076554
  47.1648547  79.0788275  84.2574863  46.6878627  78.3152827  84.5907692
  48.0283019  81.2146593  84.8930747  48.4005982  81.3859392  83.8830454
  48.2124615  82.1838584  85.8772156  48.7258335  83.1146831  85.6361456
  45.3786246  83.0816553  88.6325797  44.4893824  83.0709188  87.7806083
  45.2914832  82.4125833  89.8175400  46.1067486  82.4108541  90.4137268
  44.1384471  81.5742943  90.2053084  43.9195470  80.8735764  89.3995936
  44.4158868  80.7796398  91.4821422  44.9320151  81.5305601  92.0803307
  43.5034642  80.4728125  91.9934563  45.3284978  79.5627300  91.2918776
  46.1247090  79.8322161  90.5979569  45.9353158  79.1144826  92.6076736
  45.1396737  78.8443720  93.3020026  46.5767188  78.2499077  92.4367546
  46.5262653  79.9265775  93.0312075  44.6106725  78.4365521  90.5370478
  44.3038185  78.7950736  89.5544988  45.2861640  77.5892199  90.4194009
  43.7312683  78.1240347  91.1001464  42.8143490  82.3493332  90.3087482
  41.7915963  81.8561027  89.8294919  42.8330407  83.5601907  90.8730562
  43.6763698  83.8690822  91.3350967  41.6522541  84.4142666  90.9451918
  40.8216684  83.8554121  91.3763625  41.9215763  85.6427026  91.8190938
  42.9385289  85.9566426  91.5838317  41.2248503  86.4351814  91.5458717
  41.8221145  85.4045349  93.3067515  41.0411607  84.5720668  93.7987161
  42.5992262  86.1833433  94.0490721  42.5920525  86.0875734  95.0544956
  43.1942013  86.8681958  93.6051324  41.1216660  84.8364973  89.5593519
  39.9032753  84.9045337  89.3653487  42.0337129  85.1207042  88.6019957
  43.0076954  85.1179807  88.8692971  41.6919362  85.5016747  87.2328240
  41.0324402  86.3694271  87.2458561  42.9693515  85.8621949  86.4313919
  43.2941813  86.8150825  86.8492316  43.7512016  85.1168025  86.5769963
  42.6991542  86.0265344  84.9525961  42.2945085  87.2499956  84.4294463
  42.2259748  88.1092058  85.0966496  41.9784185  87.3898764  83.0750717
  41.6733607  88.3589094  82.6800825  42.0237479  86.2869612  82.2422180
  41.7035922  86.4142320  80.9188831  41.4625444  87.3111333  80.6758529
  42.4223321  85.0625411  82.7399250  42.4719514  84.1937181  82.0835829
  42.7619731  84.9392433  84.0865310  43.0850435  83.9759031  84.4811208
  40.8934759  84.3770767  86.5228104  39.8683406  84.6572938  85.8848370
  41.4120044  83.1157598  86.6304803  42.2729559  83.0828386  87.1575267
  40.9247980  81.8757786  86.0159741  40.7546703  82.0315267  84.9506580
  41.9549540  80.7578843  86.1882300  42.1649429  80.5924583  87.2449410
  41.5916615  79.8324764  85.7413086  43.5521379  81.0998691  85.4064303
  44.1296794  79.9564601  85.7641454  39.5896624  81.4644686  86.5485517
  38.7326319  80.9555867  85.8139580  39.4273218  81.6539169  87.8533329
  40.2129281  81.9727367  88.4022191  38.2068633  81.2969182  88.5448081
  37.7932434  80.3791292  88.1268594  38.4995008  81.0698374  90.0273433
  39.2024413  81.8337478  90.3596305  37.5659929  81.1703072  90.5810298
  39.0894706  79.6982936  90.2781047  38.3071527  78.9697756  90.0651703
  39.9085864  79.5682506  89.5708281  39.6019900  79.4904344  91.6867787
  39.8415607  78.4339178  91.8071019  40.5080991  80.0840267  91.8080795
  38.6447510  79.8764814  92.7277427  37.8498280  80.4270507  92.4360745
  38.7720167  79.5786611  94.0200567  39.7953482  78.8309454  94.4400994
  40.4746673  78.4905532  93.7746981  39.8854419  78.6091499  95.4213178
  37.8687616  79.9917965  94.8963303  37.0779214  80.5363727  94.5831074
  37.9750116  79.7603439  95.8736937  37.1255099  82.3338015  88.2880889
  35.9363631  82.0357988  88.4275677  37.5627186  83.5167167  87.8568706
  38.5659191  83.6151701  87.7936644  36.7302549  84.6546236  87.4774643
  35.8540254  84.6589901  88.1257713  37.3092898  85.5629740  87.6439503
  36.2738645  84.6181568  86.0305894  35.4050275  85.4056196  85.6444825
  36.8359365  83.7062271  85.2121461  37.5849264  83.1152301  85.5435611
  36.4365907  83.6001673  83.8007216  36.3392228  84.6080945  83.3973588
  37.4437548  82.8141308  82.9289968  37.4988179  81.8525638  83.4393459
  36.9636412  82.6832098  81.9592284  38.8468685  83.3622589  82.7292731
  39.2167927  83.7538646  83.6768500  39.7643414  82.2709498  82.2451772
  39.3952962  81.8791396  81.2973432  40.7672818  82.6742133  82.1052132
  39.7955740  81.4683430  82.9820268  38.8712124  84.5006405  81.7692727
  38.2419531  85.3072869  82.1453760  39.8940188  84.8604300  81.6573810
  38.4955067  84.1685397  80.8014642  35.0552852  82.9705071  83.6178227
  34.6795444  82.0333891  84.3464809  34.3192466  83.4648026  82.5907958
  34.6615531  84.2652784  82.0787762  33.0382005  82.8964525  82.2051481
  32.4745499  82.6387905  83.1018128  32.2103208  83.8844777  81.3725670
  32.8384553  84.1906778  80.5360338  31.3496673  83.3312945  80.9965828
  31.7292586  85.1225246  82.1276623  31.1105383  84.7831238  82.9583808
  32.6092172  85.6350309  82.5163938  30.9219304  86.0875228  81.2501769
  29.9279341  85.6667345  81.0984946  30.8367177  87.0402314  81.7728476
  31.5391658  86.3245314  79.9356381  31.2531274  85.6976816  79.1971663
  32.4260232  87.2817570  79.6511752  32.8289623  88.1289447  80.5985227
  32.4613640  88.0458700  81.5355767  33.4999571  88.8499217  80.3747867
  32.9170185  87.3992429  78.4200316  32.6171821  86.7609115  77.6970301
  33.5872834  88.1262089  78.2142061  33.3397987  81.6322832  81.3939610
  34.4068394  81.5084181  80.7928074  32.3883001  80.7042887  81.3825370
  31.6047343  80.8795997  81.9952279  32.4364728  79.4347166  80.6684032
  33.1182728  78.7489092  81.1713109  31.0292489  78.7943034  80.6317699
  30.7223644  78.5459456  81.6477618  30.3000153  79.4720385  80.1879304
  30.9676240  77.5121508  79.8362222  31.6017398  76.3581879  80.2925333
  32.1255848  76.3828577  81.2480843  31.5722781  75.1845482  79.5452503
  32.0691219  74.2882728  79.9166493  30.9191641  75.1563443  78.3438475
  30.9138277  74.2423251  77.7500123  30.2671757  76.2832762  77.8827514
  29.7259352  76.2469709  76.9373198  30.2997069  77.4622024  78.6208894
  29.7985069  78.3543299  78.2453803  33.0375025  79.5282774  79.2655009
  34.0163479  78.8458821  79.0035060  32.4574491  80.3485044  78.3818134
  31.6311966  80.8321940  78.7034506  32.8744047  80.5358723  76.9893978
  33.2781498  79.6111335  76.5771512  31.6463321  80.9419432  76.1696216
  31.8978088  80.7635649  75.1241361  30.8387990  80.2732718  76.4677304
  31.1962051  82.3957929  76.3453620  32.0626982  82.9478101  75.9812637
  30.3641007  82.5296128  75.6541358  30.8024496  82.9190858  77.7209525
  30.1806522  82.1669075  78.5124231  31.0832587  84.1120674  77.9840099
  34.0301877  81.5686162  76.7775093  34.5015278  81.7491128  75.6435528
  34.4597216  82.2452889  77.8625497  33.9764943  82.0637580  78.7306725
  35.4749780  83.2947018  77.8416702  35.3224331  83.9441076  76.9796369
  35.3828303  84.1371513  79.1084590  34.3273027  84.3712101  79.2469403
  35.7240495  83.5024610  79.9262839  36.1896914  85.4251205  79.0965970
  37.2233908  85.1475079  78.8904477  35.8024199  86.0212280  78.2702945
  36.1301355  86.2372418  80.3772414  35.3651454  85.8730757  81.3028516
  36.8653449  87.2480748  80.4541690  36.9106342  82.8007224  77.6169895
  37.3948051  81.8541950  78.2475333  37.5978011  83.5060137  76.7229253
  37.1048590  84.2686098  76.2807096  38.9781296  83.2702317  76.3474668
  39.1862875  82.2067125  76.2304351  39.2581165  83.9683134  75.0262896
  39.0629441  85.0356509  75.1302058  40.3008328  83.8155700  74.7478789
  38.6116025  83.5549417  74.2521820  39.9179901  83.8213510  77.4049184
  39.8179602  85.0104294  77.7568098  40.9024263  83.0276830  77.8647297
  40.9864526  81.5653820  77.9256849  41.5840963  81.2184505  77.0827373
  39.9784563  81.1579705  77.8478491  41.6300141  81.2597122  79.2580500
  42.1334830  80.2932945  79.2324585  40.8873302  81.2608858  80.0558724
  42.6308152  82.4080980  79.4398881  43.5379020  82.2205663  78.8653234
  42.8961661  82.6406332  80.4712057  41.8618803  83.5685007  78.8277780
  41.3339523  84.0700812  79.6388312  42.7636526  84.5802698  78.1011200
  42.9455793  84.4856642  76.8998388  43.2351083  85.6129932  78.7998232
  42.9589177  85.6854520  79.7686203  44.1643147  86.6138880  78.2649336
  43.9992559  86.7286553  77.1936338  43.9554960  87.9837582  78.9458390
  42.8833612  88.1377244  78.8236883  44.1881384  87.8756904  80.0052251
  44.7099164  89.1851260  78.3791616  45.6818289  88.9824726  77.6235508
  44.3697385  90.3357575  78.7593328  45.5162012  86.0366113  78.6496043
  46.0034289  86.2806478  79.7721462  46.0778202  85.2094629  77.7392865
  45.5523552  84.9961563  76.9035316  47.3568457  84.5270053  77.9484857
  47.3270022  83.9844186  78.8933710  47.6489218  83.5295461  76.8191728
  47.8464487  84.1426673  75.9398749  48.5458206  82.9668117  77.0780212
  46.5182055  82.5669728  76.5195138  46.4183292  81.3453307  77.1835049
  47.1629573  81.0895800  77.9373086  45.3827889  80.4543548  76.8946324
  45.3154518  79.5014128  77.4194840  44.4465924  80.7773521  75.9131000
  43.4037324  79.9512440  75.5967215  43.3932602  79.1443675  76.1167602
  44.5355437  81.9751928  75.2364942  43.8029515  82.2307279  74.4709153
  45.5677354  82.8604016  75.5353431  45.6479186  83.8054322  74.9981393
  48.5280574  85.4906479  78.1228251  49.4584239  85.1858703  78.8831900
  48.4837055  86.6413731  77.4211511  47.7307160  86.7752235  76.7614616
  49.5208661  87.6585282  77.4996378  50.4849262  87.1873599  77.3080971
  49.3189708  88.8046299  76.4789894  49.1803012  88.3508074  75.4977070
  48.4134019  89.3413791  76.7617354  50.5191140  89.8014104  76.4259901
  50.3739045  90.4670869  75.5751730  50.5206358  90.3846207  77.3468405
  52.1484346  88.9350540  76.2507214  52.0063722  88.5003417  74.4433754
  51.9047414  89.4132060  73.8564777  52.9005226  87.9632405  74.1269608
  51.1306731  87.8700537  74.2884902  49.6128178  88.1997268  78.8982496
  50.7109141  88.2914906  79.4269215  48.4472358  88.5240585  79.5028258
  47.6305347  88.5068059  78.9088552  48.2942108  88.9884497  80.8710389
  48.8807611  89.8950679  81.0197041  46.8051394  89.3047860  81.1783800
  46.5480037  90.2111298  80.6301817  46.2150237  88.4709921  80.7980495
  46.5084409  89.5030659  82.6452474  46.8011668  90.7056506  83.2835205
  47.2229861  91.5215285  82.6965697  46.5647460  90.8772380  84.6457308
  46.8508546  91.8086612  85.1342945  46.0566081  89.8254539  85.3983829
  45.7651405  90.0022355  86.7379026  45.9513974  90.8914271  87.0481384
  45.7484499  88.6231793  84.7779634  45.3647727  87.7867288  85.3621233
  45.9311014  88.4872054  83.4026560  45.6196236  87.5719036  82.8993626
  48.8922904  87.9823645  81.8457914  49.7271427  88.3620396  82.6558220
  48.5207284  86.7050753  81.7404969  47.7955903  86.4682217  81.0785495
  49.0193689  85.6540048  82.6294054  48.9117456  85.9684733  83.6674931
  48.2256433  84.3470952  82.4254324  48.4011812  84.1572763  81.3665394
  48.6597628  83.5400023  83.0155521  46.7013709  84.4182532  82.6910908
  46.2760975  85.2225517  82.0908014  46.0353082  83.1152369  82.3289375
  46.4597636  82.3104801  82.9291899  44.9652052  83.1872501  82.5233453
  46.1986836  82.9045104  81.2720537  46.3838239  84.8670994  84.1779286
  46.8090115  85.8543478  84.3586373  45.3043033  84.9047209  84.3239465
  46.8195037  84.1512925  84.8749957  50.5249770  85.4159805  82.5136179
  51.1634970  85.2110817  83.5356770  51.0949595  85.4733820  81.2802668
  50.4823763  85.5753106  80.4837420  52.5331157  85.3213846  81.0364027
  52.8933960  84.4356495  81.5596336  52.8403733  85.1689830  79.5538925
  52.0242110  85.6206816  78.9900249  53.7666108  85.7033602  79.3426461
  52.9928813  83.7033644  79.1439527  53.6054630  83.2106797  79.8990064
  51.9985117  83.2569763  79.1356581  53.6407943  83.5296422  77.7694716
  54.6751961  83.8721153  77.7981794  53.6139174  82.4808697  77.4737467
  52.9204354  84.3095005  76.7816750  53.1928532  85.2737775  76.6549561
  51.9112594  83.8392586  76.0664649  51.5641470  82.5592130  76.1554269
  52.0735964  81.9426929  76.7722448  50.7925508  82.2090085  75.6057946
  51.2602834  84.6373054  75.2279438  51.5377927  85.6042375  75.1377718
  50.4906999  84.2736192  74.6842783  53.2969557  86.4925232  81.6209675
  54.3137865  86.2820116  82.2928403  52.7723457  87.7256220  81.3951081
  51.9711241  87.7235410  80.7801781  53.2553304  89.0076833  81.8978045
  54.2676523  89.1884160  81.5363641  52.3511230  90.1490757  81.4145392
  51.3282334  89.7739273  81.4470942  52.4623306  90.9622605  82.1318003
  52.6571204  90.6592271  80.0223222  52.5976299  89.8041377  79.3489844
  51.9301655  91.4121329  79.7177379  54.0359827  91.2542724  79.9233738
  54.2294363  92.4297631  80.2516470  55.0025440  90.4693873  79.4247993
  55.9438986  90.8252466  79.3392586  54.7846540  89.5260473  79.1371625
  53.3392977  89.0655524  83.4064614  54.2798430  89.6830179  83.9179141
  52.3440959  88.4788366  84.1381792  51.5823917  88.0324016  83.6476675
  52.3476734  88.4349396  85.6091385  52.2286682  89.4484383  85.9922279
  51.2082476  87.5563014  86.1742137  51.2684790  86.6737160  85.5374136
  51.5140770  87.2944198  87.1871236  49.7769661  88.0699662  86.1940277
  49.4549456  88.2941680  85.1771024  48.8681350  87.0033915  86.7904071
  49.1892710  86.7789787  87.8075646  47.8410341  87.3679616  86.8063171
  48.9226887  86.0987570  86.1847993  49.6655407  89.3655386  86.9741318
  50.2986347  90.1235565  86.5129374  48.6299356  89.7055318  86.9688323
  49.9878453  89.2001164  88.0021660  53.6580428  87.8207621  86.0607844
  54.3849542  88.4351787  86.8475938  53.9880034  86.6300542  85.4808071
  53.3041537  86.2075794  84.8692812  55.1882262  85.8646959  85.8116969
  55.3767900  85.9293223  86.8833154  55.0259669  84.4011948  85.4344547
  54.8600712  84.3133280  84.3607428  55.9035128  83.8186264  85.7148605
  53.8379665  83.7485409  86.1114567  53.6356939  83.8821966  87.4824469
  54.3244285  84.4978523  88.0609904  52.5690816  83.2413037  88.1179807
  52.4375154  83.3416786  89.1953460  51.6862071  82.4847697  87.3855144
  50.8594187  81.9800410  87.8852843  51.8453276  82.3627597  86.0139896
  51.1276424  81.7869393  85.4296447  52.9287059  82.9798039  85.3799195
  53.0698373  82.8632741  84.3053951  56.4753495  86.4576769  85.2501454
  57.5067807  86.3822458  85.9184011  56.4214329  87.0749814  84.0709100
  55.5571541  87.0346701  83.5498567  57.5765804  87.7035498  83.4447369
  58.4369333  87.0354725  83.4842959  57.2607495  88.0124566  81.9692419
  57.0209943  87.0663327  81.4839933  56.3843392  88.6603550  81.9539908
  58.3974761  88.6845172  81.2297149  58.0815368  89.6890005  80.9481184
  59.2559280  88.7482738  81.8983685  58.7748611  87.9254200  80.0118245
  59.0235427  86.8988740  80.2810081  57.9433407  87.9244231  79.3070748
  59.9328055  88.5328473  79.3671519  60.4730847  89.2036459  79.8946243
  60.3187594  88.2392792  78.1373786  59.6304173  87.3791623  77.4091245
  58.8045945  86.9434061  77.7941354  59.9329775  87.1610742  76.4705115
  61.3938501  88.8206412  77.6194296  61.9166893  89.4884622  78.1678404
  61.6840629  88.5924855  76.6793124  58.0373306  88.9422900  84.2204495
  59.2430806  89.1249852  84.4264479  57.0702208  89.7759807  84.6760857
  56.1360035  89.6203003  84.3252282  57.3202826  90.9820608  85.4897029
  58.1765100  91.5360534  85.1049094  56.0752525  91.9179270  85.5370371
  55.2079768  91.3300447  85.8375826  56.2836295  93.0611951  86.5288930
  57.1505174  93.6498434  86.2287278  55.3991540  93.6981067  86.5410371
  56.4500928  92.6524395  87.5255413  55.7592996  92.4791432  84.1075196
  56.5116657  93.2378780  83.8921880  55.8711495  91.6490528  83.4099962
  54.3707204  93.0847243  83.9566383  54.2582801  93.9152339  84.6535679
  54.2405023  93.4467321  82.9367889  53.6177636  92.3264087  84.1713786
  57.8781130  90.5726406  86.8692380  58.7961492  91.2231154  87.3633494
  57.3808590  89.4587585  87.4501160  56.5749720  89.0282690  87.0196229
  57.8801668  88.8963627  88.7059395  57.9129527  89.6699275  89.4731564
  56.9466251  87.7580571  89.1900109  56.0579309  88.3345393  89.4468965
  56.7220473  87.0998518  88.3507073  57.3792064  86.9120200  90.4050153
  58.2997517  86.3914535  90.1409932  57.6103437  87.7458949  91.6358269
  56.6900473  88.2664401  91.9007535  57.9127121  87.1008696  92.4608217
  58.3959617  88.4753524  91.4388588  56.4026562  85.8157884  90.6475789
  56.3508454  85.1735225  89.7684262  56.7219563  85.2278665  91.5081000
  55.4188107  86.2418272  90.8441444  59.3363502  88.4141575  88.5623143
  60.1690931  88.7615764  89.4011041  59.6413461  87.6518490  87.4722344
  58.8674813  87.4472005  86.8563193  60.9613226  87.1021082  87.1380008
  61.2975895  86.3894426  87.8910821  60.8257753  86.3875695  85.8302384
  59.8902282  85.8355138  85.7403202  60.8476239  87.1874517  85.0900958
  61.9262655  85.4315897  85.4629485  61.9506399  84.1394434  85.9871543
  61.1841578  83.8421085  86.7028337  62.9325675  83.2379974  85.6091883
  62.9723214  82.2471916  86.0617634  63.8613476  83.5983534  84.6569634
  64.6124828  82.8760117  84.3374038  63.8445021  84.8637236  84.1089804
  64.5926905  85.1501696  83.3698843  62.8703717  85.7748799  84.5011910
  62.8418981  86.7685255  84.0540248  62.0470699  88.2016129  87.0302084
  63.1569368  88.0625505  87.5737368  61.6843912  89.3080552  86.3729081
  60.7534804  89.2868659  85.9816850  62.4845595  90.5023561  86.1795565
  63.4201748  90.2662527  85.6726261  61.6834212  91.4812978  85.3025864
  61.5160904  90.9791193  84.3497400  60.7279217  91.6365314  85.8036086
  62.3513837  92.8270445  85.0561803  62.6179179  93.2619619  86.0194597
  63.2554295  92.6618422  84.4700818  61.4346397  93.7729860  84.3125830
  62.0419924  94.4925201  83.7634997  60.8301649  93.1981732  83.6109422
  60.5400170  94.5044028  85.2133615  60.8604424  94.6650957  86.1576097
  59.3505432  94.9830299  84.8562479  58.8854873  94.7786372  83.6269410
  59.4382177  94.2574670  82.9613805  57.9817673  95.1455477  83.3647074
  58.6060479  95.6510816  85.7322952  58.9454810  95.7954326  86.6725335
  57.7045279  96.0111014  85.4534654  62.7715954  91.1241811  87.5495234
  63.9282274  91.4055402  87.8706472  61.7072771  91.3249327  88.3487983
  60.8074689  91.1711339  87.9166057  61.7411295  91.8810928  89.7125013
  62.2295440  92.8554977  89.7217563  60.3071917  92.0475921  90.2235730
  59.8497085  91.0585928  90.2498381  60.2331933  92.6757720  91.6035350
  60.6900988  93.6650558  91.5779494  59.1901392  92.7656052  91.9069609
  60.7661348  92.0483560  92.3179740  59.6204993  92.8806567  89.2934709
  58.7143899  93.0062240  89.5846733  62.6595646  91.0620233  90.6647266
  63.3764624  91.6449135  91.4720498  62.6738781  89.7349840  90.5170521
  61.9833723  89.3317659  89.9000301  63.5180019  88.8350926  91.2905607
  63.6427768  89.2199190  92.3027064  62.8701328  87.4343414  91.3711815
  62.6861687  87.1659640  90.3308786  63.5813753  86.7324692  91.8066232
  61.5430109  87.3777191  92.1595997  60.8870604  88.1651560  91.7884220
  60.8626712  86.0414955  92.0019982  61.5178714  85.2535476  92.3734139
  59.9323946  86.0376024  92.5700396  60.6451968  85.8659388  90.9484398
  61.7416577  87.6763914  93.6246281  62.1619658  88.6756253  93.7385233
  60.7823799  87.6254112  94.1396895  62.4243878  86.9442857  94.0559051
  64.9743959  88.7836855  90.7837936  65.8158420  88.1274660  91.4194079
  65.2716240  89.5016622  89.6603307  64.4475019  89.8471195  89.1896063
  66.5847236  89.6840884  89.0012754  66.4551051  90.3307141  88.1334197
  67.6407373  90.3252485  89.9452806  67.7946069  89.6144141  90.7571537
  68.5723184  90.4537862  89.3941592  67.2419719  91.6599280  90.5396825
  67.4616957  91.9275977  91.7268322  66.6131856  92.5190485  89.7342919
  66.3282798  93.4214332  90.0873220  66.4252453  92.2627225  88.7756073
  67.1177090  88.4134095  88.3385658  68.3260618  88.2278591  88.2194960
  66.1953449  87.6108845  87.7996102  65.2389416  87.9101385  87.9254636
  66.4422495  86.3600093  87.0799921  67.3887683  85.9241698  87.3997501
  65.2981757  85.3416650  87.3787111  64.3223958  85.7232683  87.0781587
  65.5308189  84.4462537  86.8023296  65.1679310  84.9095123  88.8088518
  66.2801350  84.7113025  89.6148723  65.8065199  84.3244544  90.7863506
  66.5274156  84.1378425  91.5823307  64.4804481  84.2320065  90.7713601
  63.8714509  83.9564123  91.5285062  64.0609285  84.5859564  89.5108298
  62.9996735  84.5631693  89.2632016  66.5315289  86.5544370  85.5455889
  65.8182146  87.3813208  84.9686427  67.3528245  85.7209221  84.8883512
  67.8623400  85.0506162  85.4461893  67.5468839  85.7062941  83.4342591
  67.0375088  86.5628988  82.9928245  69.0288076  85.7787049  83.0701852
  69.4071177  84.7615453  83.1720042  69.0603218  86.0742462  82.0214897
  69.9037140  86.7368619  83.8996911  69.8379120  86.3814591  84.9280197
  70.9377434  86.6761087  83.5602884  69.4673770  88.1798683  83.8596856
  69.0749893  88.7090875  82.8130257  69.5770350  88.8637991  84.9967234
  69.2993244  89.8343837  85.0274459  69.9374265  88.4089036  85.8233366
  66.9799645  84.4040886  82.8761084  66.9961829  83.3759050  83.5573848
  66.4726576  84.4370709  81.6423399  66.3803977  85.3164387  81.1541802
  65.9483194  83.2360173  81.0065997  65.5530284  82.5577120  81.7627387
  64.8090495  83.6029410  80.0280074  65.2303476  84.4539535  79.4928579
  64.6458703  82.7808198  79.3311650  63.4813390  84.0059341  80.6573178
  62.5653687  83.0368214  81.0911296  62.8258562  81.9843905  80.9787247
  61.3365032  83.3975440  81.6594165  60.6715221  82.6328152  82.0607788
  60.9696988  84.7394910  81.7178448  59.7395454  85.0890144  82.2359229
  59.2244684  84.3314616  82.5229930  61.8436992  85.7179809  81.2452955
  61.5575079  86.7692664  81.2768178  63.0937941  85.3465773  80.7284792
  63.7850284  86.1103945  80.3722789  67.1410672  82.4825789  80.3206571
  67.1173697  82.2622782  79.1124158  68.1942891  82.1183924  81.1215946
  68.1241966  82.4648439  82.0677224  69.4259913  81.4010818  80.7270201
  69.7089751  81.6948811  79.7162277  70.5840010  81.7270704  81.6734217
  71.4574504  81.1808325  81.3173183  70.7430328  82.7963366  81.5338561
  70.3714789  81.4350463  83.1509373  69.3983675  80.7057654  83.4889024
  71.2030379  81.8993461  83.9714940  69.2845455  79.8716876  80.5845010
  70.2701783  79.1970501  80.2522867  68.0742783  79.3388716  80.8265305
  67.4056387  79.9887711  81.2146686  67.7060286  77.9159025  80.7596206
  66.7039738  77.7976101  81.1719218  67.7166609  77.3550416  79.3167151
  68.6885727  77.3735747  78.8236196  67.4019727  76.3212849  79.4596079
  66.7042751  78.0748202  78.4595928  65.3350998  77.9079769  78.6758110
  65.0066321  77.1660452  79.4036474  64.3937765  78.6685060  77.9815704
  63.3295171  78.5299018  78.1719456  64.8167267  79.6148517  77.0551748
  63.9081512  80.3739447  76.3518503  62.9969214  80.1715588  76.5761268
  66.1708613  79.7933679  76.8202077  66.5083528  80.5175765  76.0787754
  67.1041623  79.0415113  77.5372173  68.1706036  79.2044328  77.3814620
  68.5052444  77.0403600  81.7378177  68.6933966  75.8410291  81.5130221
  68.9163263  77.6455422  82.8559283  68.8513463  78.6514034  82.9201163
  69.5740448  76.9315825  83.9269507  69.9273512  75.9774227  83.5359866
  70.7781385  77.7103744  84.4854033  70.4137214  78.6623142  84.8715524
  71.4854853  76.9644801  85.5798823  71.8506156  76.0125684  85.1943389
  72.3267878  77.5570991  85.9392037  70.7932642  76.7815352  86.4017470
  71.7124326  77.9208560  83.4315503  72.4694620  78.4064260  83.7673012
  68.4543429  76.6258561  84.9200469  68.0794602  77.4915342  85.7156432
  67.8422638  75.4338576  84.7905453  68.1133053  74.8212003  84.0347101
  66.7818624  74.9962006  85.6875855  66.1902242  75.8553281  86.0037555
  65.8584533  73.9979381  84.9870139  66.5034196  73.1845757  84.6545095
  65.0969744  73.6049382  85.6606615  65.1352806  74.5008619  83.7660127
  63.9353524  75.1954315  83.8838577  63.5224526  75.3806913  84.8754687
  63.2580860  75.6555786  82.7449526  62.3452754  76.2404127  82.8582959
  63.7448180  75.3695640  81.4799982  63.2030591  75.7049474  80.5956255
  64.9190520  74.6579123  81.3412485  65.3149470  74.4426468  80.3487627
  65.6079607  74.2083360  82.4889692  66.5220963  73.6243626  82.3820520
  67.4432709  74.3593095  86.8994228  68.6701349  74.3173634  86.9609967
  66.6630692  73.8884054  87.8724944  65.6601376  73.9861702  87.8041591
  67.2209771  73.2592229  89.0769023  67.9445776  73.9301519  89.5398880
  66.1180698  72.9568629  90.0896100  65.3860915  72.3789731  89.5253846
  66.5331843  72.3384105  90.8854093  65.4476647  74.1660897  90.6911194
  66.0314863  75.2683574  90.6305607  64.3701742  74.0051579  91.2684720
  67.9628509  71.9708187  88.7483071  68.9895320  71.6620708  89.3751178
  67.4166408  71.2044121  87.7863376  66.5402197  71.4954354  87.3773255
  67.9772936  69.9179301  87.3799848  68.3102928  69.3720485  88.2627214
  66.9413676  69.0717822  86.6453823  67.4059323  68.1793951  86.2259492
  66.1506718  68.7786980  87.3360355  66.2746317  69.7832565  85.5073486
  66.7530403  69.9393173  84.2413545  67.7349272  69.5146431  84.0324289
  65.8480298  70.6305494  83.4723323  66.0008002  70.9337952  82.5211211
  64.7348186  70.8964400  84.2218841  63.5454287  71.5512511  83.8800420
  63.3972189  71.8686842  82.8478750  62.6282413  71.7533817  84.8870706
  61.6952297  72.2717191  84.6659017  62.8660241  71.3050832  86.2028646
  62.1255436  71.4669809  86.9861763  64.0358873  70.6509044  86.5409238
  64.1696286  70.3231363  87.5718370  64.9952929  70.4285504  85.5351721
  69.2200363  70.0911469  86.5596779  70.0913988  69.2203531  86.5989527
  69.3144931  71.2178079  85.8353528  68.5012495  71.8164953  85.8178162
  70.4562605  71.5767065  84.9994819  70.7205003  70.8050153  84.2764540
  70.1259976  72.8711245  84.2379976  69.7361532  73.5868950  84.9617339
  71.3236331  73.4736182  83.5256103  71.7137682  72.7585543  82.8013330
  71.0196021  74.3840165  83.0090454  72.0986224  73.7114713  84.2542515
  69.0709210  72.5854234  83.3073349  68.8491349  73.3825314  82.8204775
  71.6830431  71.6574384  85.8993601  72.7273174  71.0637785  85.5999605
  71.4875603  72.2950144  87.0599429  70.5801941  72.7296251  87.1488206
  72.4627456  72.5117998  88.1176095  73.3970205  72.8871454  87.7000626
  71.9226628  73.5388160  89.1013785  70.9612190  73.1817974  89.4705163
  72.6246365  73.6147046  89.9317843  71.7446493  74.8993130  88.4664830
  72.7077015  75.1780499  88.0387717  71.0127347  74.7828764  87.6672048
  71.1964042  76.1978092  89.5864062  72.4946427  76.1308161  90.8831551
  73.4677642  76.3302422  90.4344205  72.2861736  76.8811309  91.6458273
  72.5017615  75.1412465  91.3401044  72.9084995  71.2336704  88.8286410
  74.0966028  71.1061604  89.1055992  71.9834832  70.2950781  89.1255015
  71.0108340  70.5000049  88.9464544  72.3188814  69.0218367  89.7878839
  72.9357680  69.2267249  90.6628531  71.0616380  68.2622738  90.2403133
  70.4536845  68.2215102  89.3365267  71.3590745  67.2525586  90.5233444
  70.2523323  68.8874693  91.3681381  70.0995388  69.9445466  91.1505549
  68.9182526  68.2054312  91.5015939  69.0702384  67.1483367  91.7196545
  68.3538195  68.6656806  92.3125727  68.3626296  68.3073570  90.5693952
  71.0019240  68.8390855  92.6815426  71.9395755  69.3865594  92.5857226
  70.3945699  69.2938998  93.4640809  71.2124076  67.8018917  92.9423578
  73.1870596  68.1321848  88.9046359  73.9239080  67.2900443  89.4157082
  73.1168820  68.3616361  87.5811352  72.3897776  69.0038182  87.3000290
  73.8878675  67.6847859  86.5356835  74.2123744  66.7068431  86.8912427
  73.0226106  67.4875405  85.2627869  72.6799022  68.4663868  84.9273618
  73.6473748  67.0378234  84.4910847  71.8096387  66.5846655  85.5293516
  72.2108441  65.6111411  85.8111058  71.2861748  67.0213201  86.3798928
  70.8304398  66.4150268  84.3580624  70.4838585  67.3928782  84.0237166
  71.3282254  65.9050343  83.5333100  69.6426516  65.5882252  84.8213975
  70.0394516  64.7274603  85.3596671  69.0649433  66.2093821  85.5058801
  68.7651940  65.1201348  83.7174154  69.3002164  64.5441850  83.0832762
  68.0018951  64.5804634  84.0998151  68.3970660  65.9175964  83.2187814
  75.2275568  68.4470859  86.2724873  76.0265198  68.0423390  85.4225913
  75.4652686  69.5298619  87.0467652  74.7173613  69.7398533  87.6922399
  76.6626170  70.3745941  87.0721274  77.3867144  69.9983792  86.3494626
  76.3235677  71.8384223  86.7147570  75.5064960  72.1358295  87.3720560
  77.2104111  72.4272291  86.9490972  75.9195347  72.0819173  85.2548404
  76.8260886  71.9768061  84.6588433  75.1961266  71.3251048  84.9514963
  75.3214239  73.4604125  84.9933366  75.1363053  74.2892860  85.8987099
  74.9694381  73.7295347  83.7401162  74.5684463  74.6283624  83.5133661
  75.1045992  73.0339586  83.0203893  77.1692924  70.3144021  88.5160893
  76.5175825  70.2237002  89.2685322  78.1490715  70.3655730  88.7097399
  44.7074878  58.7340898  92.3765200  43.3423782  50.7057774  95.0094512
  63.5193097  78.9444666  68.2143101  77.5167865  69.7943291  71.8619942
  32.2401371  60.6727890  75.1345299  35.2349166  66.3097229  60.9167989
  76.4983295  46.8084212  40.0354471  77.1026054  47.3449935  40.5484507
  75.6763166  47.2987980  40.0430172  86.2324544  50.9407216  42.7493079
  86.8367303  51.4772939  43.2623115  85.4104416  51.4310984  42.7568780
  70.8690620  56.1597265  32.6684565  71.4733379  56.6962988  33.1814601
  70.0470491  56.6501032  32.6760266  85.5381582  59.0303182  23.9778062
  86.1424341  59.5668905  24.4908098  84.7161454  59.5206949  23.9853763
  88.1588044  51.9855556  22.3258392  88.7630803  52.5221279  22.8388428
  87.3367916  52.4759324  22.3334093  54.0877359  47.1005219  61.4518766
  54.6920118  47.6370942  61.9648802  53.2657230  47.5908987  61.4594467
  61.4731009  57.9113294  61.5498337  62.0773768  58.4479017  62.0628373
  60.6510880  58.4017062  61.5574038  55.6861034  43.7032443  73.4109177
  56.2903793  44.2398165  73.9239213  54.8640905  44.1936210  73.4184878
  62.9349581  60.7334380  68.2150389  63.5392340  61.2700102  68.7280425
  62.1129452  61.2238147  68.2226090  68.0911184  59.2759444  71.9635034
  68.6953943  59.8125167  72.4765070  67.2691055  59.7663212  71.9710735
  50.9296512  61.5549558  74.0522025  51.5339271  62.0915281  74.5652061
  50.1076383  62.0453326  74.0597726  38.6398271  57.9950828  67.3556683
  39.2441030  58.5316551  67.8686719  37.8178142  58.4854596  67.3632384
  57.0444676  75.1262670  65.0123242  57.6487435  75.6628393  65.5253278
  56.2224547  75.6166438  65.0198943  64.0633539  62.4571925  70.1543787
  64.6676298  62.9937648  70.6673823  63.2413411  62.9475693  70.1619488
  56.0644583  60.6944531  91.5238492  56.6687342  61.2310254  92.0368528
  55.2424454  61.1848298  91.5314193  60.0516804  59.7492447  89.0921220
  60.6559563  60.2858170  89.6051256  59.2296675  60.2396215  89.0996921
  59.8862066  64.1379956  94.9608276  60.4904825  64.6745679  95.4738312
  59.0641937  64.6283723  94.9683977  57.9707669  71.9146898  96.3861125
  58.5750427  72.4512621  96.8991161  57.1487540  72.4050666  96.3936826
  65.7842562  72.5285607  93.8882046  66.3885321  73.0651330  94.4012082
  64.9622433  73.0189375  93.8957747  63.5394295  79.7999470  95.4388728
  64.1437053  80.3365192  95.9518764  62.7174166  80.2903237  95.4464429
  59.6496399  73.9053493  95.8510590  60.2539158  74.4419216  96.3640625
  58.8276270  74.3957260  95.8586291  59.0623144  77.7042814  94.1572738
  59.6665903  78.2408537  94.6702774  58.2403016  78.1946582  94.1648439
  64.7822850  81.2773753  92.5266118  65.3865609  81.8139476  93.0396153
  63.9602721  81.7677521  92.5341819  66.3271517  77.5945918  87.7876099
  66.9314276  78.1311641  88.3006135  65.5051388  78.0849686  87.7951800
  57.8831038  83.5404873  83.4468976  58.4873797  84.0770596  83.9599012
  57.0610910  84.0308640  83.4544677  61.3386567  78.8100741  79.6950487
  61.9429326  79.3466464  80.2080523  60.5166439  79.3004508  79.7026188
  56.6962078  81.2200214  76.2895034  57.3004837  81.7565936  76.8025070
  55.8741949  81.7103981  76.2970735  55.6742437  83.9412545  81.8642396
  56.2785196  84.4778268  82.3772432  54.8522308  84.4316312  81.8718097
  57.1172688  85.9936035  77.9730549  57.7215447  86.5301757  78.4860585
  56.2952559  86.4839802  77.9806250  60.7361082  80.8981188  78.1835090
  61.3403840  81.4346911  78.6965125  59.9140953  81.3884955  78.1910791
  58.5966843  78.4343921  73.7365452  59.2009602  78.9709644  74.2495488
  57.7746715  78.9247689  73.7441153  47.3559709  78.5310878  66.1704373
  47.9602468  79.0676600  66.6834409  46.5339580  79.0214645  66.1780074
  66.2593527  73.5652890  73.9773162  66.8636286  74.1018613  74.4903198
  65.4373398  74.0556658  73.9848863  64.3058012  65.5577862  68.1501720
  64.9100771  66.0943584  68.6631756  63.4837883  66.0481629  68.1577421
  41.8160329  80.3658847  73.1167408  42.4203087  80.9024570  73.6297444
  40.9940200  80.8562615  73.1243109  29.4716049  80.8797932  71.4223425
  30.0758807  81.4163655  71.9353461  28.6495920  81.3701699  71.4299126
  36.2596303  78.4572787  76.9168312  36.8639062  78.9938510  77.4298348
  35.4376174  78.9476555  76.9244013  22.6690578  70.4064375  82.5791619
  23.2733337  70.9430098  83.0921655  21.8470449  70.8968143  82.5867320
  36.8712183  79.6225038  79.2691825  37.4754942  80.1590761  79.7821861
  36.0492054  80.1128805  79.2767526  41.6678207  76.8343468  95.7968491
  42.2720966  77.3709191  96.3098527  40.8458078  77.3247235  95.8044192
  53.5389620  90.8488804  88.0455513  54.1432379  91.3854526  88.5585549
  52.7169491  91.3392571  88.0531215  56.3221830  92.0176145  90.7451252
  56.9264589  92.5541868  91.2581288  55.5001702  92.5079913  90.7526953
  44.2907986  88.4039792  93.3853969  44.8950745  88.9405515  93.8984005
  43.4687857  88.8943560  93.3929671  38.4216810  86.9845004  85.5633847
  39.0259569  87.5210727  86.0763882  37.5996681  87.4748771  85.5709548
  38.3542317  88.4299069  83.2801837  38.9585076  88.9664792  83.7931873
  37.5322188  88.9202837  83.2877538  45.8594738  86.9562261  74.9361238
  46.4637497  87.4927984  75.4491274  45.0374609  87.4466029  74.9436939
  55.1136297  87.7926530  78.1697271  55.7179056  88.3292253  78.6827307
  54.2916168  88.2830297  78.1772972  61.2381522  90.8616271  81.2862212
  61.8424281  91.3981994  81.7992248  60.4161393  91.3520039  81.2937913
  63.1937103  90.9633110  79.3503116  63.7979862  91.4998833  79.8633152
  62.3716974  91.4536877  79.3578817  59.5015178  92.7184064  81.9065957
  60.1057937  93.2549787  82.4195993  58.6795049  93.2087832  81.9141658
  58.6997136  95.5538288  88.6400465  59.3039894  96.0904011  89.1530501
  57.8777007  96.0442055  88.6476166  55.7225676  96.7600270  85.2876430
  56.3268435  97.2965992  85.8006466  54.9005547  97.2504037  85.2952131
  64.6747855  94.0030950  90.7041717  65.2790614  94.5396673  91.2171753
  63.8527726  94.4934718  90.7117418  68.6846899  55.7750277 132.4460193
  68.0108598  56.0781974 133.0545151  69.0712721  56.5779357 132.0965650
  70.7754369  47.5658490 130.9807633  70.1583540  46.8405318 130.8840686
  70.3070857  48.3267850 130.6374707  72.6503640  53.3535761 133.7200016
  73.3454544  53.9742453 133.9387331  72.9926790  52.5031112 133.9952394
  66.7418508  53.4597512 132.6275110  66.1692475  54.0787699 132.1745582
  67.3151302  54.0096874 133.1615032  69.9615768  53.7434662 133.7583692
  70.8946441  53.6780224 133.9616567  69.8738981  54.5790929 133.2998225
  72.5903785  53.0600533 130.7187640  72.5117416  52.7260396 131.6123397
  73.4113451  53.5522301 130.7179112  70.1607736  50.3768528 130.3397618
  70.8643587  50.5818531 130.9555273  69.4370385  50.9445290 130.6046701
  72.0694434  50.8151057 132.3896078  72.9040038  50.3832256 132.2073553
  71.9078777  50.6433071 133.3172972  73.5308289  57.2688605 132.9031031
  72.6945601  57.6063291 133.2240305  73.3913059  57.1337584 131.9658167
  73.4046669  57.1135832 130.1028937  72.5276136  56.9924633 129.7391184
  73.8804422  56.3221910 129.8507826  71.1065138  58.0534835 133.6610593
  70.4134383  58.1279190 133.0050629  70.8616890  57.2895178 134.1832110
  76.1501978  58.0500219 129.9046047  75.2433434  57.7533332 129.9808761
  76.4277959  57.7530037 129.0380334  74.9200763  54.9087154 130.0458027
  75.7819927  55.2342053 130.3053844  75.1051107  54.1218650 129.5331092
  75.8730206  52.1483197 133.3337736  75.8608876  53.0925037 133.4906006
  76.7653628  51.9653343 133.0397197  68.6846900  32.7812400 119.1705500
  68.0108599  33.0844096 119.7790457  69.0712722  33.5841480 118.8210957
  70.7754370  24.5720613 117.7052940  70.1583541  23.8467441 117.6085992
  70.3070859  25.3329973 117.3620014  72.6503641  30.3597883 120.4445323
  73.3454546  30.9804576 120.6632637  72.9926791  29.5093234 120.7197701
  66.7418509  30.4659635 119.3520416  66.1692477  31.0849822 118.8990888
  67.3151303  31.0158997 119.8860338  69.9615769  30.7496785 120.4828999
  70.8946442  30.6842347 120.6861874  69.8738982  31.5853052 120.0243531
  72.5903786  30.0662655 117.4432946  72.5117417  29.7322519 118.3368704
  73.4113453  30.5584423 117.4424419  70.1607738  27.3830651 117.0642925
  70.8643588  27.5880653 117.6800580  69.4370386  27.9507413 117.3292008
  72.0694435  27.8213180 119.1141385  72.9040039  27.3894378 118.9318859
  71.9078778  27.6495194 120.0418279  80.6978710  38.3382831 129.2096561
  81.3357120  38.2189578 128.5059901  80.5799553  39.2863675 129.2684513
  77.5068416  38.2910259 129.1458086  77.1686928  38.1751324 128.2578621
  78.3758185  37.8901424 129.1259092  73.3655232  40.1445736 125.1354977
  72.8020097  40.0535672 124.3671265  73.2507627  39.3245640 125.6157469
  78.9454791  43.8116703 120.4469442  78.2942771  44.3970784 120.0603456
  79.7399154  44.3422898 120.5064479  72.8710418  40.9005840 120.8456576
  73.6441294  40.3534827 120.7069452  73.2235817  41.7650090 121.0571038
  75.2076696  37.0598506 118.4775026  75.4602217  36.5380028 117.7158489
  74.2701255  36.8964652 118.5801710  80.2519979  36.0634285 126.2849769
  81.0383068  35.6453708 125.9340186  80.5158683  36.9680377 126.4531418
  80.4230056  41.5007135 120.9838426  79.7875889  41.5741762 121.6959331
  80.0927462  42.0900734 120.3057505  74.9272985  38.9626612 120.6799401
  74.8109243  38.2871516 121.3480485  75.0375245  38.4758986 119.8631554
  77.2704526  38.4236760 124.3846090  76.9062733  37.8967381 125.0959012
  78.1271641  38.0335229 124.2112576  76.9110013  33.4526659 119.3807439
  77.0784415  34.3206896 119.7477910  76.7207182  33.6153941 118.4568728
  79.6685346  41.9143638 131.0473269  79.3686069  42.8168677 130.9389076
  79.3236405  41.6475821 131.8994422  76.8899233  35.9084317 120.3654106
  76.7698859  36.3541368 121.2039586  76.1951822  36.2569634 119.8067644
  74.6506126  48.6787958 124.0144237  74.5730155  49.6295784 124.0932717
  74.0467769  48.3333831 124.6719163  82.5884300  36.3805790 121.1934440
  83.5002156  36.6133177 121.0182137  82.0793947  36.9642834 120.6309518
  81.1953882  41.3631608 128.5848021  80.5662744  41.5277323 127.8824089
  80.8079544  41.7773218 129.3558985  85.0743114  42.2986046 125.9392385
  84.3894152  42.6784948 125.3889418  85.1586963  42.9081373 126.6724333
  76.7481844  41.1006016 125.8498106  77.2120189  41.3793719 125.0602729
  76.4838642  40.1989461 125.6671197  75.6850730  37.2229169 122.6587671
  76.3874773  37.6750212 123.1261598  75.3531358  36.5812988 123.2867565
  83.4439873  42.8217961 130.7110086  84.2657317  42.4198148 130.4292767
  83.4402276  42.7186195 131.6626202  76.9244494  44.0370111 122.7349777
  76.7890169  44.8821647 123.1634624  77.4654307  44.2389389 121.9715710
  70.3773892  41.5545549 123.3077702  70.8898412  42.3488800 123.4583266
  71.0296605  40.8571840 123.2411303  72.1868777  44.6711306 125.3900455
  72.3635405  45.5929270 125.2021439  72.9825610  44.3569725 125.8194835
  73.3100092  46.1889480 131.3910797  73.8607517  46.0606543 130.6187791
  72.4711568  46.4884369 131.0405690  68.3422809  39.8834204 124.0837272
  69.1798031  40.2931212 123.8670980  68.5201076  38.9433646 124.0537466
  80.2387241  37.5509284 119.7721105  79.7233864  38.3213889 120.0109493
  79.9664549  36.8774421 120.3954167  77.8234352  32.3958985 124.8306344
  76.9675948  32.0065836 124.6511982  78.2361304  32.4750946 123.9706129
  85.2121515  40.3041639 121.7074279  84.4350958  39.9652799 121.2629441
  85.8912996  40.3094262 121.0329244  80.0273544  35.4236377 121.5980886
  79.7223679  35.7382526 122.4491030  80.9803986  35.5017796 121.6408219
  78.4719976  41.5826600 123.2473840  77.9441337  40.8479359 122.9347078
  77.9707478  42.3601276 123.0013809  83.4512822  39.7775620 128.3640887
  82.7936496  40.4674882 128.4521015  84.2553221  40.1672052 128.7074873
  82.2618281  38.1319993 126.4144828  82.7750162  38.7649985 126.9166538
  82.9119504  37.5321189 126.0488188  73.5308290  34.2750727 119.6276337
  72.6945603  34.6125414 119.9485612  73.3913060  34.1399707 118.6903474
  76.6172576  39.4006810 116.2508813  75.7099638  39.1696064 116.4499962
  77.1143608  38.6044429 116.4382795  79.5240655  48.1104317 119.1705500
  78.8502354  48.4136014 119.7790457  79.9106477  48.9133398 118.8210957
  79.5234159  37.0060864 123.7905849  80.2705978  37.5182261 123.4812971
  79.7925749  36.6844917 124.6510243  77.7960809  39.5019405 120.7732803
  76.8872029  39.2178438 120.8705273  77.8255893  39.9218484 119.9136110
  83.0280077  43.1125994 124.5423971  82.5742404  42.2716904 124.5989162
  82.3974043  43.7487393 124.8798751  81.9712996  34.0417981 125.7724638
  81.2335753  33.5295367 126.1034881  82.2239770  33.6018362 124.9607915
  81.4713016  44.9502491 125.4773789  81.7635990  45.5107548 124.7586155
  81.9811637  45.2431052 126.2326948  76.3445703  37.1148026 126.8742599
  76.3994313  36.1621862 126.7985075  75.5336905  37.2707465 127.3583897
  77.4936897  41.0428149 118.1120882  77.0556327  40.3264008 117.6526519
  78.2347338  41.2704263 117.5505973  74.2838063  35.7325085 124.6332978
  73.4705929  36.0319256 125.0398170  74.7797057  35.3380774 125.3507460
  76.4346641  45.7282842 126.5667242  76.3922820  45.9543689 125.6375774
  77.3509340  45.4946217 126.7153044  85.6110012  39.3185346 124.1697201
  85.4727911  39.5086942 123.2418390  85.2546231  40.0804729 124.6265252
  74.5512442  42.6045871 126.3629205  75.3453040  42.1096191 126.1611780
  73.8404134  42.0763734 125.9996911  79.3707286  44.9863967 130.7141573
  79.4244309  45.5554903 131.4819289  78.5022068  45.1565852 130.3495610
  70.8595205  36.7488953 122.4388958  69.9292794  36.6873409 122.6558920
  70.9552677  36.2264906 121.6425599  77.1283718  43.1774893 130.0427042
  76.9894804  42.8093678 130.9152980  76.3398314  43.6922533 129.8711000
  77.7231870  48.2783990 121.3852579  77.8983626  47.8072033 122.1998201
  77.0364658  48.9049756 121.6133839  78.6788933  42.5556496 127.4315880
  78.3438766  42.5157266 128.3273530  78.1792879  41.8901212 126.9586290
  81.6148125  39.9012530 117.7052940  80.9977295  39.1759358 117.6085992
  81.1464613  40.6621891 117.3620014  72.2892955  51.4273352 128.1592439
  72.5289553  52.0591877 128.8371457  71.4462152  51.0761393 128.4457798
  73.4046671  34.1197955 116.8274244  72.5276137  33.9986755 116.4636491
  73.8804424  33.3284033 116.5753133  76.8020817  47.2352475 130.5633943
  76.7290989  48.0407446 131.0753247  76.3598210  47.4344441 129.7381964
  76.5910597  46.4724245 124.0736764  75.8078119  47.0145925 124.1674989
  77.2903342  46.9898225 124.4731006  79.9007247  32.2818874 126.7170970
  80.3975946  31.5288837 126.3972040  79.1294228  32.3183191 126.1514179
  79.2619501  47.1339309 132.7192102  79.9747473  47.7686774 132.6468003
  78.7709529  47.2303175 131.9032103  80.9837028  41.0390562 124.2909393
  80.0493306  41.1592024 124.1214098  81.1613696  40.1363028 124.0269403
  84.3709579  36.8807881 124.8259427  84.8370031  37.7135873 124.7519730
  84.8217079  36.4152862 125.5304686  82.4385810  43.2251702 121.8245579
  82.7145654  43.1108297 122.7339453  81.5690309  42.8269187 121.7857752
  79.0739874  47.4738053 125.4678393  79.2562269  46.6559709 125.9306145
  79.8972860  47.6905745 125.0303283  79.4082039  46.4006238 122.7293441
  79.9369806  45.8898693 122.1163604  79.6710259  46.0848768 123.5938975
  72.7637787  47.4521355 125.4891217  72.0948163  47.9367483 125.0055257
  72.6250657  47.6990575 126.4034596  76.9043056  49.4865098 132.0873876
  77.4561364  49.6496720 132.8522961  77.2449249  50.0769536 131.4153901
  68.1325365  35.7139810 122.2687150  68.4278806  34.8050488 122.2154203
  67.2313400  35.6927549 121.9468152  80.0411443  47.4347074 129.0737558
  79.9162583  46.6336814 128.5648503  80.6990534  47.9293267 128.5851528
  82.1046352  45.2356094 130.7017108  81.1576687  45.1161445 130.6295435
  82.4529125  44.3478592 130.7843369  69.8613206  33.3953907 122.3926475
  69.5325912  32.5151286 122.2101581  70.2152577  33.3401576 123.2802864
  79.1092785  45.0308810 126.9021460  78.9617747  44.1025518 127.0829030
  79.9346278  45.0528901 126.4178536  72.9755029  33.6826877 122.7601952
  73.3151102  34.2112799 122.0380561  73.4227150  34.0207283 123.5360519
  82.7126907  45.8537369 127.9886333  83.6373454  45.6480230 127.8510784
  82.5442210  45.6053770 128.8975675  74.9623176  32.1801499 120.9595245
  75.6831539  32.5582752 120.4558962  74.3388481  32.8990376 121.0630223
  79.1054299  32.8846648 121.8953578  79.3217914  33.7671286 121.5942406
  78.6248366  32.4932861 121.1659219  82.5022223  46.3723036 123.3448424
  82.6759101  45.8069459 122.5922277  82.9951114  47.1723931 123.1627914
  75.1086799  31.7149289 123.7892782  75.2302711  30.7865936 123.9883669
  74.8188842  31.7287975 122.8771097  88.3561614  39.1359459 124.9638724
  88.7992760  38.3866785 124.5657847  87.4788124  39.1269596 124.5812456
  83.4897396  45.6889801 120.4445323  84.1848300  46.3096493 120.6632637
  83.8320546  44.8385152 120.7197701  85.3888819  43.1389506 121.9732654
  85.9140143  43.4776779 121.2481974  85.3011171  42.2036522 121.7895788
  77.0729479  49.2061490 126.3327907  76.6334470  48.7137868 127.0260763
  77.8237596  48.6634457 126.0919982  69.5521818  45.3973030 126.3352535
  70.3779838  45.0976802 125.9551178  69.2015870  44.6280653 126.7842323
  74.5203352  44.7499499 128.4050208  73.8983361  44.0870204 128.1052436
  75.1908218  44.7760631 127.7223856  67.7530423  43.3159357 127.2941468
  66.9162332  42.8881531 127.1125470  67.7254069  43.5091800 128.2312260
  74.0816858  43.3003422 121.8808669  74.2304979  43.9838886 121.2275342
  74.8883302  43.2808512 122.3958125  71.8369491  39.3268600 122.8869738
  71.5915533  38.4230930 123.0849948  72.0065406  39.3285750 121.9449216
  71.1065139  35.0596957 120.3855899  70.4134384  35.1341312 119.7295935
  70.8616891  34.2957301 120.9077416  77.5812264  45.7951552 119.3520416
  77.0086231  46.4141740 118.8990888  78.1545058  46.3450914 119.8860338
  80.8009524  46.0788703 120.4828999  81.7340197  46.0134264 120.6861874
  80.7132737  46.9144969 120.0243531  83.4297540  45.3954573 117.4432946
  83.3511172  45.0614437 118.3368704  84.2507207  45.8876341 117.4424419
  77.9659062  37.1312365 116.6936469  78.9118167  37.0018573 116.7624887
  77.5873307  36.3927027 117.1705897  76.1501980  35.0562342 116.6291354
  75.2433435  34.7595454 116.7054068  76.4277961  34.7592160 115.7625640
  77.7664045  29.5999231 122.7835595  76.9564774  29.2546316 123.1590841
  78.4548462  29.2906775 123.3723207  74.9200764  31.9149277 116.7703333
  75.7819928  32.2404175 117.0299151  75.1051108  31.1280773 116.2576399
  83.0733401  30.7877803 123.9138556  82.4932070  31.4462607 123.5316609
  82.8069333  29.9655148 123.5025974  81.8558279  32.9477894 122.9694905
  80.9684134  33.2327544 122.7515099  82.2712268  32.7871657 122.1222181
  69.8642529  47.5285645 128.0566349  69.7296997  46.7686046 127.4904347
  69.4474591  48.2526545 127.5895138  81.0001492  42.7122568 117.0642925
  81.7037342  42.9172571 117.6800580  80.2764141  43.2799330 117.3292008
  81.8299302  38.4632430 123.1845195  81.7734504  38.9200981 122.3452827
  82.3827645  37.7023114 123.0068037  85.6404108  34.2522161 124.0095314
  85.3841043  33.8518797 124.8403522  85.0156976  34.9665955 123.8845453
  73.0211655  48.4254962 128.2684792  72.9044039  49.3700394 128.1663482
  72.2004101  48.1228523 128.6570591  82.9088190  43.1505098 119.1141385
  83.7433794  42.7186296 118.9318859  82.7472533  42.9787111 120.0418279
  82.5634082  39.6537211 120.4797724  82.5082886  39.4881482 119.5386168
  81.9380137  40.3613244 120.6359914  75.8730207  29.1545320 120.0583042
  75.8608877  30.0987160 120.2151313  76.7653629  28.9715465 119.7642503
  74.0466169  49.0783224 131.4840720  74.9493416  49.1106834 131.8007215
  73.8203539  48.1483675 131.4987056  75.8019771  47.8314210 128.1450799
  74.8515402  47.8316072 128.0315171  76.1052257  47.0846945 127.6286834
  88.3462171  53.6202177 129.1458086  88.0080683  53.5043241 128.2578621
  89.2151939  53.2193342 129.1259092  84.2048987  55.4737653 125.1354977
  83.6413852  55.3827590 124.3671265  84.0901382  54.6537558 125.6157469
  81.7513419  56.9688845 127.9739197  82.5434711  56.6279669 127.5585497
  81.9910069  57.0783820 128.8941351  89.7848545  59.1408621 120.4469442
  89.1336525  59.7262701 120.0603456  90.5792908  59.6714816 120.5064479
  83.7104173  56.2297758 120.8456576  84.4835049  55.6826745 120.7069452
  84.0629571  57.0942007 121.0571038  86.0470450  52.3890424 118.4775026
  86.2995971  51.8671945 117.7158489  85.1095009  52.2256570 118.5801710
  91.0913733  51.3926203 126.2849769  91.8776822  50.9745626 125.9340186
  91.3552438  52.2972295 126.4531418  91.2623811  56.8299053 120.9838426
  90.6269644  56.9033679 121.6959331  90.9321217  57.4192652 120.3057505
  85.7666739  54.2918530 120.6799401  85.6502997  53.6163433 121.3480485
  85.8768999  53.8050904 119.8631554  88.1098280  53.7528677 124.3846090
  87.7456487  53.2259298 125.0959012  88.9665396  53.3627146 124.2112576
  87.7503767  48.7818577 119.3807439  87.9178169  49.6498813 119.7477910
  87.5600936  48.9445859 118.4568728  83.9591582  53.6949353 127.0809974
  83.0342078  53.5625567 127.2887665  84.2075995  54.4743572 127.5779916
  87.7292988  51.2376234 120.3654106  87.6092613  51.6833285 121.2039586
  87.0345576  51.5861552 119.8067644  81.3200393  53.3382626 127.9153763
  81.4492774  53.5917105 128.8293174  80.6397844  53.9310334 127.5958418
  85.4899880  64.0079876 124.0144237  85.4123910  64.9587701 124.0932717
  84.8861524  63.6625749 124.6719163  93.4278054  51.7097708 121.1934440
  94.3395910  51.9425094 121.0182137  92.9187701  52.2934752 120.6309518
  87.5875598  56.4297934 125.8498106  88.0513944  56.7085637 125.0602729
  87.3232396  55.5281379 125.6671197  84.4799679  55.9769416 128.7877870
  85.0501036  56.4056684 128.1495354  85.0707791  55.6952000 129.4862055
  86.5244484  52.5521087 122.6587671  87.2268528  53.0042130 123.1261598
  86.1925113  51.9104905 123.2867565  80.2669818  50.8104639 127.9604805
  79.4768872  51.0662168 127.4844916  80.7581066  51.6252977 128.0656846
  82.2184564  51.1749218 124.9188282  81.4215727  51.2867913 125.4371777
  81.9910156  51.5135871 124.0529172  78.5507521  51.0635130 130.3919796
  78.8015560  51.9482140 130.6577372  79.0867070  50.8839731 129.6194888
  87.7638249  59.3662029 122.7349777  87.6283924  60.2113565 123.1634624
  88.3048061  59.5681307 121.9715710  81.2167646  56.8837467 123.3077702
  81.7292167  57.6780717 123.4583266  81.8690359  56.1863758 123.2411303
  83.0262531  60.0003223 125.3900455  83.2029159  60.9221188 125.2021439
  83.8219365  59.6861643 125.8194835  79.1816563  55.2126121 124.0837272
  80.0191785  55.6223130 123.8670980  79.3594831  54.2725564 124.0537466
  91.0780995  52.8801202 119.7721105  90.5627619  53.6505807 120.0109493
  90.8058304  52.2066338 120.3954167  88.6628106  47.7250903 124.8306344
  87.8069703  47.3357753 124.6511982  89.0755058  47.8042864 123.9706129
  86.4370139  45.3435976 128.2364085  87.3023136  45.1478785 127.8769975
  86.5047648  45.1146328 129.1633442  96.0515269  55.6333557 121.7074279
  95.2744712  55.2944716 121.2629441  96.7306750  55.6386180 121.0329244
  90.8667298  50.7528294 121.5980886  90.5617434  51.0674443 122.4491030
  91.8197741  50.8309714 121.6408219  89.3113730  56.9118518 123.2473840
  88.7835092  56.1771277 122.9347078  88.8101233  57.6893194 123.0013809
  84.0432458  47.5738184 125.6080452  84.6176210  47.3513365 124.8753645
  84.6303440  47.6426878 126.3609053  93.1012035  53.4611911 126.4144828
  93.6143917  54.0941903 126.9166538  93.7513259  52.8613106 126.0488188
  84.3702045  49.6042645 119.6276337  83.5339357  49.9417331 119.9485612
  84.2306815  49.4691625 118.6903474  86.3455126  44.4479433 124.3355521
  85.6919538  44.1328450 123.7112136  86.3035600  43.8255173 125.0615344
  87.4566330  54.7298728 116.2508813  86.5493392  54.4987981 116.4499962
  87.9537362  53.9336347 116.4382795  90.3634409  63.4396235 119.1705500
  89.6896108  63.7427932 119.7790457  90.7500231  64.2425315 118.8210957
  89.5792866  50.9361366 128.6603169  88.6615427  51.1576313 128.5024857
  89.9953010  51.0107677 127.8014876  90.3627914  52.3352782 123.7905849
  91.1099733  52.8474179 123.4812971  90.6319503  52.0136835 124.6510243
  88.6354564  54.8311323 120.7732803  87.7265783  54.5470355 120.8705273
  88.6649648  55.2510401 119.9136110  92.8106751  49.3709898 125.7724638
  92.0729508  48.8587284 126.1034881  93.0633524  48.9310280 124.9607915
  79.2042734  52.5516837 124.7548006  79.0067134  51.9586197 124.0299072
  78.6489398  52.2469047 125.4723944  87.1839458  52.4439943 126.8742599
  87.2388068  51.4913780 126.7985075  86.3730660  52.5999382 127.3583897
  88.3330652  56.3720066 118.1120882  87.8950082  55.6555925 117.6526519
  89.0741093  56.5996181 117.5505973  85.1231818  51.0617003 124.6332978
  84.3099683  51.3611174 125.0398170  85.6190812  50.6672692 125.3507460
  96.4503766  54.6477263 124.1697201  96.3121665  54.8378859 123.2418390
  96.0939985  55.4096646 124.6265252  84.6145893  48.6335359 130.2494213
  85.2545272  48.4924118 129.5517176  83.7823423  48.3469872 129.8732815
  85.3906196  57.9337789 126.3629205  86.1846795  57.4388109 126.1611780
  84.6797889  57.4055652 125.9996911  81.6988960  52.0780871 122.4388958
  80.7686548  52.0165326 122.6558920  81.7946432  51.5556823 121.6425599
  81.6174509  48.6035684 125.0267199  81.8781326  49.5181017 124.9176360
  82.4391681  48.1360126 125.1763812  83.0899434  50.0173441 132.1966024
  83.7622488  49.8090803 131.5478673  82.2629221  49.8195527 131.7571256
  88.5625624  63.6075907 121.3852579  88.7377380  63.1363951 122.1998201
  87.8758412  64.2341674 121.6133839  92.4541879  55.2304448 117.7052940
  91.8371050  54.5051276 117.6085992  91.9858368  55.9913808 117.3620014
  84.2440425  49.4489872 116.8274244  83.3669891  49.3278673 116.4636491
  84.7198178  48.6575951 116.5753133  75.7642565  54.2367032 126.9215751
  76.4513605  53.9228762 126.3336766  75.6090694  55.1408397 126.6483002
  80.5677287  49.1257229 131.3500775  80.4835476  48.5182898 130.6151185
  79.7459994  49.6166247 131.3510271  87.4304351  61.8016163 124.0736764
  86.6471873  62.3437843 124.1674989  88.1297096  62.3190142 124.4731006
  90.7401001  47.6110792 126.7170970  91.2369701  46.8580754 126.3972040
  89.9687983  47.6475109 126.1514179  91.8230782  56.3682479 124.2909393
  90.8887061  56.4883942 124.1214098  92.0007450  55.4654946 124.0269403
  87.3235970  49.7528175 126.4442654  86.9533758  49.1999215 127.1323560
  87.8195063  49.1486309 125.8917654  95.2103333  52.2099799 124.8259427
  95.6763786  53.0427790 124.7519730  95.6610834  51.7444780 125.5304686
  93.2779564  58.5543620 121.8245579  93.5539408  58.4400214 122.7339453
  92.4084063  58.1561105 121.7857752  90.2475794  61.7298156 122.7293441
  90.7763560  61.2190610 122.1163604  90.5104014  61.4140686 123.5938975
  75.3410541  52.3167625 129.1933218  75.3794641  51.7831216 129.9870336
  74.8350834  51.7902831 128.5744195  82.7201304  47.1632166 132.6895760
  82.7842630  48.0246997 132.2773158  82.6568424  46.5506168 131.9568119
  78.9719119  51.0431728 122.2687150  79.2672560  50.1342406 122.2154203
  78.0707155  51.0219467 121.9468152  82.5013366  49.1187724 128.2514698
  81.7799952  49.7323692 128.1122171  83.2906622  49.6545489 128.1731344
  80.7006961  48.7245825 122.3926475  80.3719667  47.8443204 122.2101581
  81.0546331  48.6693494 123.2802864  83.8148784  49.0118795 122.7601952
  84.1544856  49.5404716 122.0380561  84.2620904  49.3499201 123.5360519
  85.8016931  47.5093417 120.9595245  86.5225293  47.8874669 120.4558962
  85.1782235  48.2282293 121.0630223  89.9448054  48.2138566 121.8953578
  90.1611668  49.0963203 121.5942406  89.4642121  47.8224779 121.1659219
  84.6847275  51.1724279 128.4724322  84.5391856  51.4864582 129.3648604
  84.2072479  51.7909179 127.9195221  86.5443658  48.1626827 128.5205212
  86.5305227  47.2667920 128.1837510  87.2616086  48.1697490 129.1543498
  88.3969789  48.5964167 130.5658339  88.1387567  49.5181238 130.5642670
  87.8654829  48.1994601 131.2558803  79.1592937  53.7129623 131.4111983
  78.6146405  54.4889431 131.5432258  80.0372287  54.0600428 131.2531105
  85.9480554  47.0441207 123.7892782  86.0696465  46.1157853 123.9883669
  85.6582596  47.0579893 122.8771097  88.8171744  44.7296117 126.9259502
  88.8393441  44.7935451 125.9711481  89.2339803  43.8900626 127.1200008
  94.3291150  61.0181718 120.4445323  95.0242055  61.6388411 120.6632637
  94.6714300  60.1677070 120.7197701  96.2282573  58.4681424 121.9732654
  96.7533897  58.8068697 121.2481974  96.1404926  57.5328439 121.7895788
  80.3915573  60.7264948 126.3352535  81.2173593  60.4268720 125.9551178
  80.0409625  59.9572571 126.7842323  78.5924178  58.6451275 127.2941468
  77.7556086  58.2173449 127.1125470  78.5647823  58.8383718 128.2312260
  84.9210613  58.6295340 121.8808669  85.0698733  59.3130804 121.2275342
  85.7277056  58.6100430 122.3958125  82.6763246  54.6560517 122.8869738
  82.4309288  53.7522847 123.0849948  82.8459160  54.6577668 121.9449216
  81.9458893  50.3888875 120.3855899  81.2528138  50.4633230 119.7295935
  81.7010645  49.6249219 120.9077416  88.4206018  61.1243470 119.3520416
  87.8479986  61.7433657 118.8990888  88.9938812  61.6742832 119.8860338
  91.6403278  61.4080620 120.4828999  92.5733951  61.3426182 120.6861874
  91.5526491  62.2436887 120.0243531  94.2691295  60.7246491 117.4432946
  94.1904926  60.3906354 118.3368704  95.0900962  61.2168259 117.4424419
  88.8052817  52.4604283 116.6936469  89.7511922  52.3310491 116.7624887
  88.4267062  51.7218945 117.1705897  86.9895734  50.3854259 116.6291354
  86.0827190  50.0887372 116.7054068  87.2671715  50.0884077 115.7625640
  77.9073674  51.7060623 127.0790400  77.5876459  50.8525931 126.7864774
  77.3607103  51.9209201 127.8348368  81.6853582  54.4223064 130.7959907
  81.9039592  55.3540172 130.8147941  82.0979356  54.0631038 131.5814711
  88.6057800  44.9291149 122.7835595  87.7958528  44.5838234 123.1590841
  89.2942217  44.6198693 123.3723207  90.5348348  44.0069196 124.4059892
  91.0879387  44.4264649 125.0649915  90.7718434  43.0804944 124.4482848
  85.7594519  47.2441195 116.7703333  86.6213683  47.5696093 117.0299151
  85.9444863  46.4572690 116.2576399  77.7761934  55.3263534 129.0483522
  77.0825406  54.9117487 128.5353476  78.5234925  55.3684071 128.4516941
  93.9127155  46.1169721 123.9138556  93.3325824  46.7754525 123.5316609
  93.6463088  45.2947066 123.5025974  79.6898677  55.2581788 126.9249537
  79.6669365  55.3569475 125.9731420  79.9999314  56.1046939 127.2466703
  92.6952033  48.2769811 122.9694905  91.8077888  48.5619462 122.7515099
  93.1106022  48.1163575 122.1222181  91.8395247  58.0414486 117.0642925
  92.5431097  58.2464489 117.6800580  91.1157895  58.6091248 117.3292008
  92.6693057  53.7924347 123.1845195  92.6128258  54.2492899 122.3452827
  93.2221399  53.0315032 123.0068037  96.4797863  49.5814079 124.0095314
  96.2234797  49.1810715 124.8403522  95.8550731  50.2957873 123.8845453
  93.7481944  58.4797015 119.1141385  94.5827548  58.0478214 118.9318859
  93.5866287  58.3079029 120.0418279  93.4027836  54.9829129 120.4797724
  93.3476640  54.8173400 119.5386168  92.7773892  55.6905161 120.6359914
  78.1920351  50.2197193 134.3059146  78.8379215  49.7096147 134.7946371
  77.9837502  50.9565875 134.8802571  86.7123962  44.4837238 120.0583042
  86.7002632  45.4279077 120.2151313  87.6047384  44.3007383 119.7642503
  90.5276081  41.0780014 124.3128979  89.7608477  40.5238501 124.4585661
  90.9386786  41.1501883 125.1743131  95.2095799  64.9334563 119.6276337
  94.3733112  65.2709249 119.9485612  95.0700569  64.7983542 118.6903474
  95.0834180  64.7781790 116.8274244  94.2063646  64.6570591 116.4636491
  95.5591933  63.9867868 116.5753133  92.7852648  65.7180793 120.3855899
  92.0921893  65.7925148 119.7295935  92.5404400  64.9541136 120.9077416
  97.8289489  65.7146177 116.6291354  96.9220944  65.4179290 116.7054068
  98.1065470  65.4175995 115.7625640  96.5988273  62.5733112 116.7703333
  97.4607437  62.8988011 117.0299151  96.7838617  61.7864608 116.2576399
  97.5517716  59.8129155 120.0583042  97.5396386  60.7570995 120.2151313
  98.4441138  59.6299301 119.7642503  68.6846902   9.7874522 105.8950806
  68.0108600  10.0906219 106.5035764  69.0712724  10.5903603 105.5456263
  70.7754372   1.5782735 104.4298246  70.1583542   0.8529563 104.3331299
  70.3070860   2.3392095 104.0865321  72.6503642   7.3660006 107.1690629
  73.3454547   7.9866698 107.3877944  72.9926792   6.5155357 107.4443007
  66.7418511   7.4721757 106.0765723  66.1692478   8.0911945 105.6236195
  67.3151304   8.0221119 106.6105645  69.9615771   7.7558908 107.2074305
  70.8946444   7.6904469 107.4107181  69.8738983   8.5915174 106.7488838
  72.5903787   7.0724778 104.1678253  72.5117419   6.7384641 105.0614011
  73.4113454   7.5646546 104.1669725  70.1607739   4.3892773 103.7888231
  70.8643589   4.5942776 104.4045887  69.4370388   4.9569535 104.0537315
  72.0694436   4.8275302 105.8386691  72.9040040   4.3956501 105.6564166
  71.9078779   4.6557316 106.7663586  80.6978711  15.3444954 115.9341868
  81.3357121  15.2251701 115.2305208  80.5799554  16.2925798 115.9929820
  77.5068418  15.2972382 115.8703393  77.1686929  15.1813446 114.9823928
  78.3758186  14.8963547 115.8504399  73.3655233  17.1507858 111.8600284
  72.8020099  17.0597795 111.0916571  73.2507628  16.3307763 112.3402776
  78.9454792  20.8178826 107.1714749  78.2942772  21.4032906 106.7848762
  79.7399155  21.3485021 107.2309786  72.8710419  17.9067963 107.5701883
  73.6441295  17.3596950 107.4314759  73.2235818  18.7712212 107.7816344
  75.2076697  14.0660629 105.2020333  75.4602218  13.5442150 104.4403796
  74.2701256  13.9026775 105.3047016  80.2519980  13.0696407 113.0095076
  81.0383069  12.6515831 112.6585493  80.5158684  13.9742500 113.1776724
  80.4230057  18.5069258 107.7083733  79.7875890  18.5803884 108.4204637
  80.0927464  19.0962857 107.0302812  74.9272986  15.9688735 107.4044708
  74.8109244  15.2933638 108.0725792  75.0375246  15.4821109 106.5876861
  77.2704527  15.4298882 111.1091397  76.9062734  14.9029503 111.8204318
  78.1271643  15.0397351 110.9357882  76.9110014  10.4588782 106.1052745
  77.0784416  11.3269018 106.4723217  76.7207183  10.6216064 105.1814035
  79.6685347  18.9205761 117.7718576  79.3686070  19.8230800 117.6634383
  79.3236406  18.6537944 118.6239729  76.8899235  12.9146439 107.0899412
  76.7698860  13.3603490 107.9284893  76.1951823  13.2631757 106.5312950
  74.6506127  25.6850081 110.7389544  74.5730156  26.6357906 110.8178024
  74.0467770  25.3395954 111.3964470  82.5884301  13.3867913 107.9179746
  83.5002157  13.6195299 107.7427444  82.0793948  13.9704957 107.3554825
  81.1953883  18.3693731 115.3093328  80.5662746  18.5339445 114.6069396
  80.8079545  18.7835341 116.0804292  85.0743115  19.3048169 112.6637692
  84.3894153  19.6847070 112.1134725  85.1586964  19.9143495 113.3969639
  76.7481845  18.1068139 112.5743413  77.2120191  18.3855842 111.7848035
  76.4838643  17.2051584 112.3916504  75.6850731  14.2291291 109.3832978
  76.3874774  14.6812335 109.8506904  75.3531360  13.5875110 110.0112871
  83.4439875  19.8280083 117.4355392  84.2657318  19.4260271 117.1538074
  83.4402277  19.7248317 118.3871508  76.9244496  21.0432234 109.4595083
  76.7890170  21.8883770 109.8879931  77.4654308  21.2451512 108.6961017
  70.3773893  18.5607672 110.0323008  70.8898414  19.3550922 110.1828573
  71.0296606  17.8633963 109.9656610  72.1868778  21.6773428 112.1145762
  72.3635406  22.5991393 111.9266745  72.9825611  21.3631848 112.5440141
  73.3100093  23.1951602 118.1156104  73.8607518  23.0668666 117.3433098
  72.4711569  23.4946491 117.7650997  68.3422810  16.8896326 110.8082579
  69.1798032  17.2993335 110.5916287  68.5201078  15.9495769 110.7782773
  80.2387242  14.5571407 106.4966412  79.7233865  15.3276012 106.7354799
  79.9664550  13.8836543 107.1199473  77.8234353   9.4021108 111.5551650
  76.9675949   9.0127958 111.3757289  78.2361305   9.4813069 110.6951436
  85.2121516  17.3103762 108.4319585  84.4350959  16.9714921 107.9874747
  85.8912997  17.3156385 107.7574550  80.0273545  12.4298499 108.3226193
  79.7223681  12.7444648 109.1736336  80.9803987  12.5079919 108.3653526
  78.4719977  18.5888722 109.9719147  77.9441339  17.8541482 109.6592384
  77.9707480  19.3663399 109.7259115  83.4512823  16.7837743 115.0886193
  82.7936497  17.4737004 115.1766322  84.2553222  17.1734175 115.4320180
  82.2618282  15.1382116 113.1390135  82.7750164  15.7712107 113.6411845
  82.9119506  14.5383311 112.7733495  73.5308292  11.2812850 106.3521644
  72.6945604  11.6187536 106.6730919  73.3913061  11.1461830 105.4148781
  76.6172577  16.4068933 102.9754120  75.7099639  16.1758186 103.1745269
  77.1143609  15.6106552 103.1628102  79.5240656  25.1166440 105.8950806
  78.8502355  25.4198137 106.5035764  79.9106478  25.9195520 105.5456263
  79.5234160  14.0122987 110.5151156  80.2705979  14.5244384 110.2058278
  79.7925750  13.6907040 111.3755549  77.7960811  16.5081528 107.4978110
  76.8872030  16.2240560 107.5950580  77.8255894  16.9280606 106.6381417
  83.0280078  20.1188117 111.2669278  82.5742405  19.2779027 111.3234468
  82.3974045  20.7549515 111.6044058  81.9712998  11.0480103 112.4969945
  81.2335754  10.5357489 112.8280188  82.2239771  10.6080485 111.6853222
  81.4713017  21.9564614 112.2019096  81.7635992  22.5169671 111.4831461
  81.9811638  22.2493175 112.9572255  76.3445705  14.1210148 113.5987905
  76.3994314  13.1683985 113.5230382  75.5336907  14.2769587 114.0829204
  77.4936898  18.0490271 104.8366189  77.0556328  17.3326130 104.3771826
  78.2347339  18.2766386 104.2751280  74.2838065  12.7387208 111.3578284
  73.4705930  13.0381378 111.7643476  74.7797059  12.3442897 112.0752767
  76.4346642  22.7344965 113.2912549  76.3922821  22.9605811 112.3621081
  77.3509341  22.5008339 113.4398350  85.6110013  16.3247468 110.8942507
  85.4727912  16.5149064 109.9663696  85.2546232  17.0866851 111.3510558
  74.5512443  19.6107994 113.0874512  75.3453042  19.1158314 112.8857087
  73.8404136  19.0825857 112.7242217  79.3707288  21.9926089 117.4386879
  79.4244310  22.5617026 118.2064595  78.5022069  22.1627974 117.0740917
  70.8595207  13.7551076 109.1634264  69.9292795  13.6935531 109.3804227
  70.9552679  13.2327028 108.3670906  77.1283719  20.1837016 116.7672349
  76.9894805  19.8155800 117.6398287  76.3398315  20.6984655 116.5956307
  77.7231871  25.2846112 108.1097885  77.8983627  24.8134156 108.9243508
  77.0364659  25.9111879 108.3379146  78.6788934  19.5618619 114.1561187
  78.3438767  19.5219389 115.0518837  78.1792880  18.8963334 113.6831597
  81.6148126  16.9074653 104.4298246  80.9977297  16.1821481 104.3331299
  81.1464614  17.6684013 104.0865321  72.2892956  28.4335475 114.8837746
  72.5289555  29.0653999 115.5616764  71.4462153  28.0823515 115.1703105
  73.4046672  11.1260077 103.5519551  72.5276138  11.0048878 103.1881797
  73.8804425  10.3346155 103.2998439  76.8020818  24.2414598 117.2879250
  76.7290990  25.0469569 117.7998554  76.3598211  24.4406563 116.4627271
  76.5910598  23.4786368 110.7982071  75.8078120  24.0208048 110.8920296
  77.2903343  23.9960347 111.1976312  79.9007248   9.2880997 113.4416276
  80.3975948   8.5350959 113.1217347  79.1294230   9.3245314 112.8759486
  79.2619502  24.1401432 119.4437408  79.9747474  24.7748896 119.3713310
  78.7709531  24.2365298 118.6277410  80.9837029  18.0452684 111.0154700
  80.0493308  18.1654147 110.8459404  81.1613697  17.1425151 110.7514710
  84.3709580  13.8870004 111.5504734  84.8370032  14.7197995 111.4765037
  84.8217081  13.4214985 112.2549992  82.4385811  20.2313825 108.5490886
  82.7145655  20.1170419 109.4584760  81.5690310  19.8331310 108.5103059
  79.0739875  24.4800176 112.1923700  79.2562270  23.6621832 112.6551452
  79.8972861  24.6967868 111.7548590  79.4082041  23.4068361 109.4538748
  79.9369807  22.8960815 108.8408910  79.6710260  23.0910891 110.3184281
  72.7637789  24.4583477 112.2136524  72.0948164  24.9429605 111.7300564
  72.6250658  24.7052698 113.1279903  76.9043057  26.4927221 118.8119182
  77.4561365  26.6558842 119.5768268  77.2449251  27.0831659 118.1399207
  68.1325366  12.7201932 108.9932456  68.4278807  11.8112611 108.9399510
  67.2313402  12.6989672 108.6713459  80.0411445  24.4409197 115.7982865
  79.9162584  23.6398936 115.2893810  80.6990536  24.9355390 115.3096835
  82.1046353  22.2418217 117.4262415  81.1576688  22.1223568 117.3540741
  82.4529126  21.3540715 117.5088676  69.8613207  10.4016030 109.1171781
  69.5325914   9.5213409 108.9346887  70.2152578  10.3463699 110.0048171
  79.1092786  22.0370933 113.6266767  78.9617749  21.1087640 113.8074337
  79.9346280  22.0591024 113.1423842  72.9755031  10.6889000 109.4847259
  73.3151103  11.2174921 108.7625867  73.4227151  11.0269406 110.2605826
  82.7126908  22.8599492 114.7131640  83.6373456  22.6542353 114.5756091
  82.5442211  22.6115893 115.6220981  74.9623178   9.1863621 107.6840552
  75.6831540   9.5644874 107.1804269  74.3388482   9.9052498 107.7875530
  79.1054301   9.8908770 108.6198884  79.3217915  10.7733408 108.3187712
  78.6248368   9.4994984 107.8904526  82.5022224  23.3785159 110.0693731
  82.6759102  22.8131581 109.3167584  82.9951116  24.1786054 109.8873221
  75.1086801   8.7211412 110.5138088  75.2302712   7.7928058 110.7128976
  74.8188843   8.7350098 109.6016404  88.3561615  16.1421582 111.6884031
  88.7992761  15.3928907 111.2903154  87.4788126  16.1331718 111.3057763
  83.4897397  22.6951923 107.1690629  84.1848301  23.3158616 107.3877944
  83.8320547  21.8447275 107.4443007  85.3888820  20.1451629 108.6977960
  85.9140144  20.4838902 107.9727280  85.3011172  19.2098644 108.5141095
  77.0729481  26.2123612 113.0573213  76.6334471  25.7199991 113.7506070
  77.8237598  25.6696580 112.8165289  69.5521820  22.4035153 113.0597841
  70.3779840  22.1038925 112.6796485  69.2015872  21.6342776 113.5087630
  74.5203353  21.7561621 115.1295515  73.8983362  21.0932326 114.8297743
  75.1908220  21.7822753 114.4469163  67.7530425  20.3221480 114.0186775
  66.9162333  19.8943654 113.8370776  67.7254070  20.5153923 114.9557566
  74.0816860  20.3065545 108.6053976  74.2304980  20.9901009 107.9520648
  74.8883303  20.2870635 109.1203431  71.8369493  16.3330722 109.6115044
  71.5915535  15.4293052 109.8095255  72.0065407  16.3347873 108.6694522
  71.1065140  12.0659080 107.1101206  70.4134385  12.1403435 106.4541242
  70.8616892  11.3019423 107.6322723  77.5812265  22.8013675 106.0765723
  77.0086232  23.4203862 105.6236195  78.1545059  23.3513037 106.6105645
  80.8009525  23.0850825 107.2074305  81.7340198  23.0196387 107.4107181
  80.7132738  23.9207092 106.7488838  83.4297542  22.4016696 104.1678253
  83.3511173  22.0676559 105.0614011  84.2507208  22.8938463 104.1669725
  77.9659064  14.1374488 103.4181775  78.9118168  14.0080696 103.4870194
  77.5873309  13.3989150 103.8951204  76.1501981  12.0624464 103.3536661
  75.2433436  11.7657577 103.4299374  76.4277962  11.7654282 102.4870947
  77.7664047   6.6061354 109.5080902  76.9564775   6.2608439 109.8836148
  78.4548464   6.2968898 110.0968514  74.9200766   8.9211399 103.4948640
  75.7819929   9.2466298 103.7544457  75.1051110   8.1342895 102.9821706
  83.0733402   7.7939926 110.6383863  82.4932071   8.4524730 110.2561915
  82.8069335   6.9717270 110.2271280  81.8558280   9.9540016 109.6940211
  80.9684135  10.2389667 109.4760406  82.2712269   9.7933780 108.8467488
  69.8642530  24.5347767 114.7811656  69.7296998  23.7748168 114.2149654
  69.4474593  25.2588667 114.3140445  81.0001493  19.7184691 103.7888231
  81.7037344  19.9234693 104.4045887  80.2764142  20.2861453 104.0537315
  81.8299304  15.4694552 109.9090501  81.7734505  15.9263104 109.0698134
  82.3827646  14.7085237 109.7313344  85.6404110  11.2584284 110.7340621
  85.3841044  10.8580920 111.5648829  85.0156978  11.9728078 110.6090760
  73.0211656  25.4317084 114.9930099  72.9044040  26.3762517 114.8908789
  72.2004103  25.1290646 115.3815898  82.9088191  20.1567220 105.8386691
  83.7433795  19.7248419 105.6564166  82.7472534  19.9849234 106.7663586
  82.5634083  16.6599333 107.2043031  82.5082887  16.4943605 106.2631475
  81.9380138  17.3675366 107.3605220  75.8730209   6.1607442 106.7828349
  75.8608878   7.1049282 106.9396620  76.7653630   5.9777588 106.4887810
  74.0466170  26.0845346 118.2086027  74.9493417  26.1168957 118.5252522
  73.8203541  25.1545797 118.2232363  75.8019772  24.8376333 114.8696106
  74.8515403  24.8378194 114.7560478  76.1052259  24.0909067 114.3532140
  91.5372466  30.6736871 115.9341868  92.1750876  30.5543619 115.2305208
  91.4193309  31.6217715 115.9929820  88.3462172  30.6264299 115.8703393
  88.0080684  30.5105364 114.9823928  89.2151940  30.2255464 115.8504399
  84.2048988  32.4799776 111.8600284  83.6413853  32.3889713 111.0916571
  84.0901383  31.6599680 112.3402776  81.7513420  33.9750967 114.6984504
  82.5434712  33.6341792 114.2830803  81.9910070  34.0845942 115.6186657
  89.7848547  36.1470743 107.1714749  89.1336526  36.7324824 106.7848762
  90.5792909  36.6776938 107.2309786  83.7104174  33.2359881 107.5701883
  84.4835050  32.6888868 107.4314759  84.0629573  34.1004130 107.7816344
  85.5489216  34.5636263 120.7768782  85.2579082  35.4681894 120.6615448
  86.1846201  34.6052791 121.4912852  86.4745423  31.9413111 117.3670142
  87.0708995  31.7169134 116.6527105  86.5320395  31.1997857 117.9695590
  86.0470452  29.3952547 105.2020333  86.2995972  28.8734068 104.4403796
  85.1095011  29.2318692 105.3047016  91.0913734  28.3988325 113.0095076
  91.8776824  27.9807748 112.6585493  91.3552439  29.3034417 113.1776724
  91.2623812  33.8361175 107.7083733  90.6269645  33.9095802 108.4204637
  90.9321218  34.4254774 107.0302812  85.7666740  31.2980653 107.4044708
  85.6502998  30.6225556 108.0725792  85.8769000  30.8113027 106.5876861
  88.1098281  30.7590800 111.1091397  87.7456489  30.2321421 111.8204318
  88.9665397  30.3689269 110.9357882  87.7503768  25.7880700 106.1052745
  87.9178171  26.6560936 106.4723217  87.5600937  25.9507981 105.1814035
  90.5079101  34.2497678 117.7718576  90.2079825  35.1522717 117.6634383
  90.1630161  33.9829862 118.6239729  83.9591583  30.7011475 113.8055280
  83.0342079  30.5687689 114.0132972  84.2075996  31.4805695 114.3025223
  87.7292989  28.2438357 107.0899412  87.6092614  28.6895408 107.9284893
  87.0345578  28.5923675 106.5312950  81.3200394  30.3444749 114.6399069
  81.4492775  30.5979228 115.5538481  80.6397845  30.9372457 114.3203724
  85.4899881  41.0141999 110.7389544  85.4123911  41.9649824 110.8178024
  84.8861525  40.6687871 111.3964470  93.4278055  28.7159830 107.9179746
  94.3395911  28.9487217 107.7427444  92.9187702  29.2996874 107.3554825
  86.2363483  30.9955318 122.9568877  86.9778168  31.5340362 122.6803701
  85.5300469  31.6221606 123.1140429  88.0649893  28.0757065 118.9274596
  88.9111088  28.4996478 119.0709245  88.0048531  27.4190689 119.6213159
  92.0347638  33.6985649 115.3093328  91.4056500  33.8631363 114.6069396
  91.6473300  34.1127258 116.0804292  95.9136870  34.6340086 112.6637692
  95.2287908  35.0138988 112.1134725  95.9980719  35.2435413 113.3969639
  87.5875599  33.4360057 112.5743413  88.0513945  33.7147760 111.7848035
  87.3232398  32.5343501 112.3916504  84.4799681  32.9831538 115.5123176
  85.0501038  33.4118807 114.8740661  85.0707792  32.7014123 116.2107362
  86.5244486  29.5583209 109.3832978  87.2268529  30.0104253 109.8506904
  86.1925114  28.9167028 110.0112871  80.2669820  27.8166762 114.6850112
  79.4768873  28.0724290 114.2090222  80.7581067  28.6315100 114.7902152
  94.2833629  35.1572001 117.4355392  95.1051073  34.7552188 117.1538074
  94.2796032  35.0540235 118.3871508  82.2184565  28.1811341 111.6433588
  81.4215728  28.2930035 112.1617084  81.9910157  28.5197993 110.7774479
  88.0490233  34.7056044 119.5916103  88.1134665  35.1676451 120.4274275
  87.3401156  34.0753409 119.7198413  78.5507522  28.0697252 117.1165102
  78.8015561  28.9544262 117.3822678  79.0867071  27.8901854 116.3440194
  87.7638250  36.3724152 109.4595083  87.6283925  37.2175687 109.8879931
  88.3048063  36.5743429 108.6961017  81.2167648  33.8899590 110.0323008
  81.7292168  34.6842840 110.1828573  81.8690360  33.1925880 109.9656610
  83.0262532  37.0065346 112.1145762  83.2029161  37.9283311 111.9266745
  83.8219366  36.6923765 112.5440141  82.3114889  29.0529978 121.9907925
  82.1968404  28.1515235 122.2915024  81.4559407  29.2993675 121.6392741
  89.3906727  36.9947718 123.5895425  88.9470581  36.2084097 123.2716330
  90.0523940  37.1826869 122.9239316  84.1493848  38.5243520 118.1156104
  84.7001273  38.3960583 117.3433098  83.3105324  38.8238409 117.7650997
  87.9461019  34.7894648 122.4600335  88.4789356  34.0282936 122.2299643
  87.4175100  34.4968299 123.2024489  79.1816564  32.2188244 110.8082579
  80.0191786  32.6285252 110.5916287  79.3594832  31.2787686 110.7782773
  91.0780996  29.8863325 106.4966412  90.5627620  30.6567929 106.7354799
  90.8058305  29.2128461 107.1199473  88.6628107  24.7313025 111.5551650
  87.8069704  24.3419876 111.3757289  89.0755059  24.8104986 110.6951436
  86.4370140  22.3498098 114.9609392  87.3023137  22.1540907 114.6015281
  86.5047649  22.1208450 115.8878748  96.0515271  32.6395679 108.4319585
  95.2744713  32.3006839 107.9874747  96.7306752  32.6448303 107.7574550
  90.8667300  27.7590417 108.3226193  90.5617435  28.0736566 109.1736336
  91.8197742  27.8371837 108.3653526  89.3113731  33.9180640 109.9719147
  88.7835093  33.1833400 109.6592384  88.8101234  34.6955316 109.7259115
  94.2906577  32.1129661 115.0886193  93.6330252  32.8028922 115.1766322
  95.0946977  32.5026093 115.4320180  84.0432459  24.5800306 112.3325759
  84.6176211  24.3575488 111.5998951  84.6303442  24.6489001 113.0854360
  93.1012036  30.4674033 113.1390135  93.6143918  31.1004025 113.6411845
  93.7513260  29.8675229 112.7733495  84.3702046  26.6104767 106.3521644
  83.5339358  26.9479454 106.6730919  84.2306816  26.4753747 105.4148781
  86.3455127  21.4541555 111.0600828  85.6919539  21.1390572 110.4357443
  86.3035601  20.8317296 111.7860651  87.4566332  31.7360850 102.9754120
  86.5493393  31.5050104 103.1745269  87.9537364  30.9398470 103.1628102
  90.3634411  40.4458358 105.8950806  89.6896109  40.7490054 106.5035764
  90.7500233  41.2487438 105.5456263  89.5792867  27.9423489 115.3848476
  88.6615429  28.1638436 115.2270164  89.9953011  28.0169799 114.5260183
  90.3627915  29.3414905 110.5151156  91.1099734  29.8536302 110.2058278
  90.6319504  29.0198957 111.3755549  88.6354565  31.8373445 107.4978110
  87.7265784  31.5532478 107.5950580  88.6649649  32.2572524 106.6381417
  93.8673833  35.4480035 111.2669278  93.4136160  34.6070945 111.3234468
  93.2367799  36.0841433 111.6044058  92.8106752  26.3772021 112.4969945
  92.0729509  25.8649407 112.8280188  93.0633526  25.9372402 111.6853222
  92.3106772  37.2856531 112.2019096  92.6029746  37.8461589 111.4831461
  92.8205392  37.5785092 112.9572255  79.2042735  29.5578959 111.4793312
  79.0067135  28.9648320 110.7544379  78.6489399  29.2531170 112.1969251
  87.1839459  29.4502066 113.5987905  87.2388069  28.4975902 113.5230382
  86.3730661  29.6061505 114.0829204  88.3330653  33.3782189 104.8366189
  87.8950083  32.6618048 104.3771826  89.0741094  33.6058304 104.2751280
  85.1231819  28.0679126 111.3578284  84.3099685  28.3673296 111.7643476
  85.6190813  27.6734814 112.0752767  87.2740397  38.0636883 113.2912549
  87.2316576  38.2897729 112.3621081  88.1903096  37.8300257 113.4398350
  96.4503768  31.6539386 110.8942507  96.3121666  31.8440982 109.9663696
  96.0939986  32.4158769 111.3510558  84.6145894  25.6397481 116.9739519
  85.2545273  25.4986240 116.2762483  83.7823424  25.3531995 116.5978121
  85.3906198  34.9399912 113.0874512  86.1846796  34.4450232 112.8857087
  84.6797890  34.4117775 112.7242217  90.2101042  37.3218007 117.4386879
  90.2638064  37.8908943 118.2064595  89.3415824  37.4919892 117.0740917
  81.6988961  29.0842993 109.1634264  80.7686549  29.0227449 109.3804227
  81.7946433  28.5618946 108.3670906  81.6174510  25.6097806 111.7512506
  81.8781328  26.5243139 111.6421667  82.4391683  25.1422249 111.9009119
  83.0899436  27.0235563 118.9211331  83.7622489  26.8152925 118.2723980
  82.2629222  26.8257649 118.4816563  89.1689142  31.4878269 118.9973811
  90.0981202  31.6389429 118.8242779  88.7480172  31.5762290 118.1422458
  87.9677474  35.5128934 116.7672349  87.8288559  35.1447718 117.6398287
  87.1792070  36.0276573 116.5956307  88.5625626  40.6138030 108.1097885
  88.7377381  40.1426073 108.9243508  87.8758414  41.2403796 108.3379146
  89.5182689  34.8910536 114.1561187  89.1832521  34.8511306 115.0518837
  89.0186635  34.2255252 113.6831597  83.4926933  30.2978166 119.6813768
  83.3546731  29.5658405 120.2825307  84.4031856  30.2087066 119.3997956
  92.4541881  32.2366571 104.4298246  91.8371051  31.5113399 104.3331299
  91.9858369  32.9975931 104.0865321  86.1209233  30.0098126 119.1697447
  86.8308852  29.3691318 119.1284066  86.0778542  30.2611020 120.0923628
  84.8338167  26.9963343 120.9893087  84.2975524  26.5454082 121.6414683
  84.2454876  27.1309252 120.2463551  83.1286711  43.7627393 114.8837746
  83.3683309  44.3945917 115.5616764  82.2855907  43.4115433 115.1703105
  84.2440426  26.4551995 103.5519551  83.3669893  26.3340796 103.1881797
  84.7198179  25.6638073 103.2998439  75.7642567  31.2429155 113.6461058
  76.4513606  30.9290885 113.0582073  75.6090695  32.1470519 113.3728309
  80.5677289  26.1319351 118.0746081  80.4835477  25.5245021 117.3396491
  79.7459995  26.6228369 118.0755578  87.6414573  39.5706515 117.2879250
  87.5684744  40.3761487 117.7998554  87.1991966  39.7698481 116.4627271
  87.4304352  38.8078285 110.7982071  86.6471874  39.3499965 110.8920296
  88.1297098  39.3252265 111.1976312  90.7401003  24.6172915 113.4416276
  91.2369702  23.8642877 113.1217347  89.9687984  24.6537231 112.8759486
  90.1013256  39.4693349 119.4437408  90.8141229  40.1040814 119.3713310
  89.6103285  39.5657215 118.6277410  91.8230783  33.3744602 111.0154700
  90.8887062  33.4946064 110.8459404  92.0007452  32.4717069 110.7514710
  87.3235971  26.7590298 113.1687961  86.9533759  26.2061338 113.8568867
  87.8195064  26.1548431 112.6162961  95.2103335  29.2161921 111.5504734
  95.6763787  30.0489913 111.4765037  95.6610835  28.7506903 112.2549992
  85.1525170  37.2187793 120.2642979  85.8534629  37.8524276 120.4172373
  84.6820285  37.5602524 119.5038618  93.2779566  35.5605742 108.5490886
  93.5539410  35.4462337 109.4584760  92.4084064  35.1623227 108.5103059
  89.9133630  39.8092093 112.1923700  90.0956024  38.9913749 112.6551452
  90.7366616  40.0259786 111.7548590  90.2475795  38.7360278 109.4538748
  90.7763562  38.2252733 108.8408910  90.5104015  38.4202809 110.3184281
  80.7492888  36.7524148 117.1974082  81.3346325  36.0067836 117.3301986
  80.5517726  37.0628104 118.0810746  83.6031543  39.7875395 112.2136524
  82.9341918  40.2721523 111.7300564  83.4644413  40.0344616 113.1279903
  75.3410543  29.3229748 115.9178525  75.3794642  28.7893339 116.7115643
  74.8350836  28.7964953 115.2989502  87.7436812  41.8219139 118.8119182
  88.2955120  41.9850760 119.5768268  88.0843005  42.4123576 118.1399207
  82.7201305  24.1694288 119.4141067  82.7842631  25.0309119 119.0018465
  82.6568425  23.5568290 118.6813426  78.9719120  28.0493850 108.9932456
  79.2672561  27.1404529 108.9399510  78.0707156  28.0281590 108.6713459
  90.8805199  39.7701114 115.7982865  90.7556338  38.9690854 115.2893810
  91.5384290  40.2647308 115.3096835  82.5013367  26.1249847 114.9760005
  81.7799953  26.7385814 114.8367478  83.2906623  26.6607612 114.8976651
  92.9440107  37.5710134 117.4262415  91.9970443  37.4515485 117.3540741
  93.2922881  36.6832632 117.5088676  80.7006962  25.7307948 109.1171781
  80.3719668  24.8505327 108.9346887  81.0546333  25.6755616 110.0048171
  89.9486541  37.3662850 113.6266767  89.8011503  36.4379558 113.8074337
  90.7740034  37.3882941 113.1423842  83.8148785  26.0180918 109.4847259
  84.1544858  26.5466839 108.7625867  84.2620905  26.3561324 110.2605826
  93.5520663  38.1891409 114.7131640  94.4767210  37.9834271 114.5756091
  93.3835966  37.9407810 115.6220981  85.8016932  24.5155539 107.6840552
  86.5225295  24.8936792 107.1804269  85.1782236  25.2344416 107.7875530
  89.9448055  25.2200688 108.6198884  90.1611669  26.1025326 108.3187712
  89.4642122  24.8286902 107.8904526  84.6847276  28.1786401 115.1969629
  84.5391857  28.4926704 116.0893910  84.2072480  28.7971302 114.6440527
  86.5443659  25.1688949 115.2450518  86.5305228  24.2730043 114.9082816
  87.2616087  25.1759613 115.8788804  88.3969790  25.6026290 117.2903646
  88.1387568  26.5243360 117.2887976  87.8654830  25.2056724 117.9804110
  93.3415979  38.7077077 110.0693731  93.5152856  38.1423499 109.3167584
  93.8344870  39.5077972 109.8873221  79.1592939  30.7191746 118.1357290
  78.6146407  31.4951554 118.2677564  80.0372288  31.0662550 117.9776411
  85.9480555  24.0503330 110.5138088  86.0696466  23.1219976 110.7128976
  85.6582598  24.0642016 109.6016404  88.8171746  21.7358240 113.6504808
  88.8393442  21.7997573 112.6956788  89.2339805  20.8962749 113.8445314
  99.1955370  31.4713500 111.6884031  99.6386516  30.7220825 111.2903154
  98.3181880  31.4623636 111.3057763  94.3291151  38.0243841 107.1690629
  95.0242056  38.6450534 107.3877944  94.6714301  37.1739192 107.4443007
  79.9458960  29.8461642 121.0287447  79.2040696  29.9944277 121.6152077
  79.6251705  30.1069908 120.1654196  96.2282574  35.4743547 108.6977960
  96.7533898  35.8130819 107.9727280  96.1404927  34.5390562 108.5141095
  87.8902623  39.3877620 120.8267837  88.1989750  39.1426767 121.6990536
  88.6878105  39.5924259 120.3386707  87.9123235  41.5415530 113.0573213
  87.4728225  41.0491909 113.7506070  88.6631352  40.9988498 112.8165289
  80.3915574  37.7327071 113.0597841  81.2173594  37.4330843 112.6796485
  80.0409626  36.9634693 113.5087630  85.3597107  37.0853539 115.1295515
  84.7377117  36.4224244 114.8297743  86.0301974  37.1114671 114.4469163
  78.5924179  35.6513397 114.0186775  77.7556087  35.2235572 113.8370776
  78.5647825  35.8445841 114.9557566  84.9210614  35.6357462 108.6053976
  85.0698735  36.3192927 107.9520648  85.7277058  35.6162552 109.1203431
  82.6763247  31.6622640 109.6115044  82.4309289  30.7584970 109.8095255
  82.8459162  31.6639790 108.6694522  81.9458895  27.3950998 107.1101206
  81.2528140  27.4695353 106.4541242  81.7010647  26.6311341 107.6322723
  88.4206020  38.1305593 106.0765723  87.8479987  38.7495780 105.6236195
  88.9938813  38.6804954 106.6105645  91.6403279  38.4142743 107.2074305
  92.5733953  38.3488305 107.4107181  91.5526492  39.2499010 106.7488838
  94.2691296  37.7308613 104.1678253  94.1904928  37.3968477 105.0614011
  95.0900963  38.2230381 104.1669725  88.8052818  29.4666406 103.4181775
  89.7511923  29.3372614 103.4870194  88.4267063  28.7281067 103.8951204
  86.9895735  27.3916382 103.3536661  86.0827191  27.0949495 103.4299374
  87.2671716  27.0946200 102.4870947  77.9073676  28.7122745 113.8035707
  77.5876460  27.8588054 113.5110081  77.3607104  28.9271323 114.5593674
  81.6853583  31.4285186 117.5205214  81.9039593  32.3602294 117.5393247
  82.0979357  31.0693161 118.3060017  88.6057801  21.9353272 109.5080902
  87.7958529  21.5900357 109.8836148  89.2942218  21.6260815 110.0968514
  90.5348349  21.0131318 111.1305199  91.0879388  21.4326772 111.7895222
  90.7718436  20.0867067 111.1728155  85.7594520  24.2503317 103.4948640
  86.6213684  24.5758215 103.7544457  85.9444864  23.4634813 102.9821706
  77.7761936  32.3325657 115.7728829  77.0825407  31.9179610 115.2598783
  78.5234927  32.3746193 115.1762248  93.9127156  23.1231844 110.6383863
  93.3325826  23.7816648 110.2561915  93.6463089  22.3009188 110.2271280
  79.6898678  32.2643911 113.6494844  79.6669366  32.3631598 112.6976727
  79.9999315  33.1109061 113.9712010  82.3486056  34.3220066 117.7641458
  83.3029310  34.2904008 117.6971390  82.1498580  33.8610689 118.5791684
  82.9385438  32.8921182 120.3312256  83.7578327  33.3865260 120.3547093
  83.2122246  31.9753150 120.3029823  92.6952034  25.2831934 109.6940211
  91.8077890  25.5681585 109.4760406  93.1106024  25.1225697 108.8467488
  80.7036285  39.8639685 114.7811656  80.5690753  39.1040086 114.2149654
  80.2868347  40.5880585 114.3140445  91.8395248  35.0476609 103.7888231
  92.5431098  35.2526611 104.4045887  91.1157897  35.6153371 104.0537315
  92.6693058  30.7986470 109.9090501  92.6128260  31.2555021 109.0698134
  93.2221401  30.0377154 109.7313344  96.4797864  26.5876202 110.7340621
  96.2234798  26.1872837 111.5648829  95.8550732  27.3019996 110.6090760
  83.8605411  40.7609002 114.9930099  83.7437795  41.7054435 114.8908789
  83.0397857  40.4582564 115.3815898  93.7481945  35.4859138 105.8386691
  94.5827549  35.0540336 105.6564166  93.5866288  35.3141152 106.7663586
  93.4027838  31.9891251 107.2043031  93.3476641  31.8235523 106.2631475
  92.7773893  32.6967284 107.3605220  78.1920353  27.2259316 121.0304453
  78.8379216  26.7158269 121.5191678  77.9837504  27.9627997 121.6047878
  86.7123963  21.4899360 106.7828349  86.7002633  22.4341200 106.9396620
  87.6047385  21.3069506 106.4887810  84.8859925  41.4137264 118.2086027
  85.7887172  41.4460874 118.5252522  84.6597295  40.4837715 118.2232363
  86.6413527  40.1668251 114.8696106  85.6909158  40.1670112 114.7560478
  86.9446013  39.4200985 114.3532140  90.5276082  18.0842137 111.0374286
  89.7608478  17.5300623 111.1830968  90.9386787  18.1564006 111.8988437
 102.3766220  46.0028789 115.9341868 103.0144630  45.8835536 115.2305208
 102.2587063  46.9509633 115.9929820  99.1855927  45.9556217 115.8703393
  98.8474438  45.8397282 114.9823928 100.0545695  45.5547382 115.8504399
  95.0442742  47.8091693 111.8600284  94.4807608  47.7181630 111.0916571
  94.9295137  46.9891598 112.3402776  92.5907174  49.3042885 114.6984504
  93.3828466  48.9633710 114.2830803  92.8303825  49.4137860 115.6186657
 100.6242301  51.4762661 107.1714749  99.9730281  52.0616742 106.7848762
 101.4186664  52.0068856 107.2309786  94.5497928  48.5651798 107.5701883
  95.3228804  48.0180785 107.4314759  94.9023327  49.4296048 107.7816344
  96.3882971  49.8928181 120.7768782  96.0972837  50.7973811 120.6615448
  97.0239955  49.9344708 121.4912852  97.3139178  47.2705029 117.3670142
  97.9102750  47.0461052 116.6527105  97.3714149  46.5289775 117.9695590
  96.8864206  44.7244464 105.2020333  97.1389727  44.2025986 104.4403796
  95.9488765  44.5610610 105.3047016 101.9307489  43.7280243 113.0095076
 102.7170578  43.3099666 112.6585493 102.1946193  44.6326335 113.1776724
 102.1017566  49.1653093 107.7083733 101.4663399  49.2387720 108.4204637
 101.7714973  49.7546692 107.0302812  96.6060495  46.6272570 107.4044708
  96.4896753  45.9517474 108.0725792  96.7162755  46.1404944 106.5876861
  98.9492036  46.0882717 111.1091397  98.5850243  45.5613338 111.8204318
  99.8059152  45.6981187 110.9357882  98.5897523  41.1172617 106.1052745
  98.7571925  41.9852854 106.4723217  98.3994692  41.2799899 105.1814035
 101.3472856  49.5789596 117.7718576 101.0473579  50.4814635 117.6634383
 101.0023915  49.3121779 118.6239729  94.7985337  46.0303393 113.8055280
  93.8735834  45.8979607 114.0132972  95.0469751  46.8097612 114.3025223
  98.5686744  43.5730275 107.0899412  98.4486369  44.0187325 107.9284893
  97.8739332  43.9215592 106.5312950  92.1594148  45.6736666 114.6399069
  92.2886530  45.9271145 115.5538481  91.4791600  46.2664374 114.3203724
  96.3293636  56.3433916 110.7389544  96.2517665  57.2941742 110.8178024
  95.7255279  55.9979789 111.3964470 104.2671810  44.0451748 107.9179746
 105.1789666  44.2779135 107.7427444 103.7581457  44.6288792 107.3554825
  97.0757238  46.3247235 122.9568877  97.8171922  46.8632279 122.6803701
  96.3694223  46.9513524 123.1140429  98.9043648  43.4048982 118.9274596
  99.7504843  43.8288396 119.0709245  98.8442285  42.7482607 119.6213159
 102.8741392  49.0277566 115.3093328 102.2450255  49.1923280 114.6069396
 102.4867054  49.4419176 116.0804292 106.7530624  49.9632004 112.6637692
 106.0681662  50.3430906 112.1134725 106.8374473  50.5727331 113.3969639
  98.4269354  48.7651974 112.5743413  98.8907700  49.0439677 111.7848035
  98.1626152  47.8635419 112.3916504  95.3193435  48.3123456 115.5123176
  95.8894792  48.7410724 114.8740661  95.9101547  48.0306041 116.2107362
  97.3638240  44.8875127 109.3832978  98.0662283  45.3396170 109.8506904
  97.0318869  44.2458946 110.0112871  91.1063574  43.1458679 114.6850112
  90.3162628  43.4016208 114.2090222  91.5974821  43.9607017 114.7902152
 105.1227384  50.4863919 117.4355392 105.9444827  50.0844106 117.1538074
 105.1189786  50.3832153 118.3871508  93.0578319  43.5103259 111.6433588
  92.2609483  43.6221953 112.1617084  92.8303912  43.8489911 110.7774479
  98.8883987  50.0347962 119.5916103  98.9528420  50.4968369 120.4274275
  98.1794911  49.4045327 119.7198413  89.3901277  43.3989170 117.1165102
  89.6409315  44.2836180 117.3822678  89.9260825  43.2193771 116.3440194
  98.6032005  51.7016069 109.4595083  98.4677679  52.5467605 109.8879931
  99.1441817  51.9035347 108.6961017  92.0561402  49.2191507 110.0323008
  92.5685923  50.0134758 110.1828573  92.7084115  48.5217798 109.9656610
  93.8656287  52.3357264 112.1145762  94.0422915  53.2575228 111.9266745
  94.6613120  52.0215683 112.5440141  93.1508643  44.3821896 121.9907925
  93.0362158  43.4807153 122.2915024  92.2953161  44.6285592 121.6392741
 100.2300481  52.3239636 123.5895425  99.7864335  51.5376014 123.2716330
 100.8917695  52.5118786 122.9239316  94.9887602  53.8535437 118.1156104
  95.5395027  53.7252501 117.3433098  94.1499078  54.1530327 117.7650997
  98.7854773  50.1186565 122.4600335  99.3183110  49.3574854 122.2299643
  98.2568854  49.8260217 123.2024489  90.0210319  47.5480162 110.8082579
  90.8585541  47.9577170 110.5916287  90.1988587  46.6079604 110.7782773
 101.9174751  45.2155242 106.4966412 101.4021374  45.9859847 106.7354799
 101.6452059  44.5420379 107.1199473  99.5021862  40.0604943 111.5551650
  98.6463458  39.6711794 111.3757289  99.9148814  40.1396904 110.6951436
  97.2763894  37.6790016 114.9609392  98.1416891  37.4832825 114.6015281
  97.3441403  37.4500368 115.8878748 106.8909025  47.9687597 108.4319585
 106.1138468  47.6298757 107.9874747 107.5700506  47.9740220 107.7574550
 101.7061054  43.0882334 108.3226193 101.4011190  43.4028484 109.1736336
 102.6591496  43.1663754 108.3653526 100.1507486  49.2472558 109.9719147
  99.6228848  48.5125317 109.6592384  99.6494989  50.0247234 109.7259115
 105.1300332  47.4421578 115.0886193 104.4724006  48.1320840 115.1766322
 105.9340731  47.8318010 115.4320180  94.8826214  39.9092224 112.3325759
  95.4569965  39.6867406 111.5998951  95.4697196  39.9780919 113.0854360
 103.9405791  45.7965951 113.1390135 104.4537673  46.4295943 113.6411845
 104.5907015  45.1967146 112.7733495  95.2095801  41.9396685 106.3521644
  94.3733113  42.2771372 106.6730919  95.0700570  41.8045665 105.4148781
  97.1848881  36.7833473 111.0600828  96.5313294  36.4682490 110.4357443
  97.1429355  36.1609213 111.7860651  98.2960086  47.0652768 102.9754120
  97.3887148  46.8342022 103.1745269  98.7931118  46.2690387 103.1628102
 101.2028165  55.7750275 105.8950806 100.5289864  56.0781972 106.5035764
 101.5893987  56.5779356 105.5456263 100.4186622  43.2715407 115.3848476
  99.5009183  43.4930354 115.2270164 100.8346765  43.3461717 114.5260183
 101.2021669  44.6706822 110.5151156 101.9493488  45.1828219 110.2058278
 101.4713259  44.3490875 111.3755549  99.4748320  47.1665363 107.4978110
  98.5659539  46.8824396 107.5950580  99.5043403  47.5864441 106.6381417
 104.7067587  50.7771952 111.2669278 104.2529914  49.9362862 111.3234468
 104.0761554  51.4133351 111.6044058 103.6500507  41.7063938 112.4969945
 102.9123263  41.1941325 112.8280188 103.9027280  41.2664320 111.6853222
 103.1500526  52.6148449 112.2019096 103.4423501  53.1753506 111.4831461
 103.6599147  52.9077010 112.9572255  90.0436490  44.8870877 111.4793312
  89.8460890  44.2940238 110.7544379  89.4883154  44.5823087 112.1969251
  98.0233214  44.7793984 113.5987905  98.0781823  43.8267820 113.5230382
  97.2124416  44.9353423 114.0829204  99.1724407  48.7074107 104.8366189
  98.7343837  47.9909966 104.3771826  99.9134848  48.9350221 104.2751280
  95.9625574  43.3971043 111.3578284  95.1493439  43.6965214 111.7643476
  96.4584568  43.0026732 112.0752767  98.1134151  53.3928800 113.2912549
  98.0710330  53.6189647 112.3621081  99.0296850  53.1592175 113.4398350
 107.2897522  46.9831304 110.8942507 107.1515421  47.1732900 109.9663696
 106.9333741  47.7450686 111.3510558  95.4539648  40.9689399 116.9739519
  96.0939028  40.8278158 116.2762483  94.6217179  40.6823912 116.5978121
  96.2299952  50.2691829 113.0874512  97.0240551  49.7742149 112.8857087
  95.5191645  49.7409692 112.7242217 101.0494797  52.6509925 117.4386879
 101.1031819  53.2200861 118.2064595 100.1809578  52.8211810 117.0740917
  92.5382716  44.4134911 109.1634264  91.6080304  44.3519366 109.3804227
  92.6340188  43.8910864 108.3670906  92.4568265  40.9389724 111.7512506
  92.7175082  41.8535057 111.6421667  93.2785437  40.4714166 111.9009119
  93.9293190  42.3527481 118.9211331  94.6016243  42.1444843 118.2723980
  93.1022977  42.1549567 118.4816563 100.0082896  46.8170187 118.9973811
 100.9374956  46.9681346 118.8242779  99.5873926  46.9054208 118.1422458
  98.8071228  50.8420851 116.7672349  98.6682314  50.4739636 117.6398287
  98.0185824  51.3568491 116.5956307  99.4019380  55.9429948 108.1097885
  99.5771136  55.4717991 108.9243508  98.7152168  56.5695714 108.3379146
 100.3576443  50.2202454 114.1561187 100.0226276  50.1803224 115.0518837
  99.8580389  49.5547170 113.6831597  94.3320687  45.6270084 119.6813768
  94.1940485  44.8950323 120.2825307  95.2425611  45.5378984 119.3997956
 103.2935635  47.5658488 104.4298246 102.6764806  46.8405316 104.3331299
 102.8252123  48.3267849 104.0865321  96.9602988  45.3390043 119.1697447
  97.6702607  44.6983235 119.1284066  96.9172296  45.5902938 120.0923628
  95.6731922  42.3255261 120.9893087  95.1369279  41.8746000 121.6414683
  95.0848630  42.4601170 120.2463551  93.9680465  59.0919310 114.8837746
  94.2077064  59.7237835 115.5616764  93.1249662  58.7407350 115.1703105
  95.0834181  41.7843913 103.5519551  94.2063647  41.6632713 103.1881797
  95.5591934  40.9929991 103.2998439  86.6036321  46.5721072 113.6461058
  87.2907361  46.2582802 113.0582073  86.4484450  47.4762437 113.3728309
  91.4071043  41.4611269 118.0746081  91.3229232  40.8536938 117.3396491
  90.5853750  41.9520287 118.0755578  98.4808327  54.8998433 117.2879250
  98.4078499  55.7053404 117.7998554  98.0385720  55.0990399 116.4627271
  98.2698107  54.1370203 110.7982071  97.4865629  54.6791883 110.8920296
  98.9690852  54.6544183 111.1976312 101.5794757  39.9464832 113.4416276
 102.0763457  39.1934795 113.1217347 100.8081739  39.9829149 112.8759486
 100.9407011  54.7985267 119.4437408 101.6534983  55.4332732 119.3713310
 100.4497039  54.8949133 118.6277410 102.6624538  48.7036520 111.0154700
 101.7280816  48.8237982 110.8459404 102.8401206  47.8008986 110.7514710
  98.1629726  42.0882215 113.1687961  97.7927513  41.5353256 113.8568867
  98.6588818  41.4840349 112.6162961 106.0497089  44.5453839 111.5504734
 106.5157541  45.3781830 111.4765037 106.5004590  44.0798820 112.2549992
  95.9918924  52.5479710 120.2642979  96.6928384  53.1816193 120.4172373
  95.5214039  52.8894442 119.5038618 104.1173320  50.8897660 108.5490886
 104.3933164  50.7754255 109.4584760 103.2477819  50.4915145 108.5103059
 100.7527384  55.1384011 112.1923700 100.9349779  54.3205667 112.6551452
 101.5760370  55.3551703 111.7548590 101.0869550  54.0652196 109.4538748
 101.6157316  53.5544651 108.8408910 101.3497769  53.7494726 110.3184281
  91.5886642  52.0816065 117.1974082  92.1740079  51.3359753 117.3301986
  91.3911481  52.3920022 118.0810746  94.4425298  55.1167313 112.2136524
  93.7735673  55.6013440 111.7300564  94.3038167  55.3636533 113.1279903
  86.1804297  44.6521666 115.9178525  86.2188397  44.1185256 116.7115643
  85.6744590  44.1256871 115.2989502  98.5830566  57.1511056 118.8119182
  99.1348874  57.3142678 119.5768268  98.9236760  57.7415494 118.1399207
  93.5595059  39.4986206 119.4141067  93.6236386  40.3601037 119.0018465
  93.4962180  38.8860208 118.6813426  89.8112875  43.3785768 108.9932456
  90.1066316  42.4696446 108.9399510  88.9100911  43.3573507 108.6713459
 101.7198954  55.0993032 115.7982865 101.5950093  54.2982772 115.2893810
 102.3778045  55.5939225 115.3096835  93.3407122  41.4541764 114.9760005
  92.6193708  42.0677732 114.8367478  94.1300378  41.9899529 114.8976651
 103.7833862  52.9002052 117.4262415 102.8364197  52.7807403 117.3540741
 104.1316635  52.0124550 117.5088676  91.5400716  41.0599865 109.1171781
  91.2113422  40.1797244 108.9346887  91.8940087  41.0047534 110.0048171
 100.7880295  52.6954768 113.6266767 100.6405258  51.7671476 113.8074337
 101.6133789  52.7174859 113.1423842  94.6542539  41.3472835 109.4847259
  94.9938612  41.8758756 108.7625867  95.1014660  41.6853241 110.2605826
 104.3914417  53.5183327 114.7131640 105.3160965  53.3126188 114.5756091
 104.2229720  53.2699728 115.6220981  96.6410687  39.8447457 107.6840552
  97.3619049  40.2228710 107.1804269  96.0175991  40.5636334 107.7875530
 100.7841810  40.5492606 108.6198884 101.0005424  41.4317244 108.3187712
 100.3035877  40.1578819 107.8904526  95.5241031  43.5078319 115.1969629
  95.3785612  43.8218622 116.0893910  95.0466235  44.1263219 114.6440527
  97.3837414  40.4980867 115.2450518  97.3698983  39.6021960 114.9082816
  98.1009842  40.5051531 115.8788804  99.2363545  40.9318207 117.2903646
  98.9781322  41.8535278 117.2887976  98.7048585  40.5348642 117.9804110
 104.1809733  54.0368994 110.0693731 104.3546611  53.4715417 109.3167584
 104.6738624  54.8369889 109.8873221  89.9986693  46.0483663 118.1357290
  89.4540161  46.8243471 118.2677564  90.8766043  46.3954468 117.9776411
  96.7874310  39.3795247 110.5138088  96.9090221  38.4511893 110.7128976
  96.4976352  39.3933933 109.6016404  99.6565500  37.0650158 113.6504808
  99.6787197  37.1289491 112.6956788 100.0733559  36.2254666 113.8445314
 110.0349124  46.8005417 111.6884031 110.4780270  46.0512742 111.2903154
 109.1575635  46.7915554 111.3057763 105.1684906  53.3535759 107.1690629
 105.8635810  53.9742451 107.3877944 105.5108056  52.5031110 107.4443007
  90.7852715  45.1753560 121.0287447  90.0434451  45.3236195 121.6152077
  90.4645459  45.4361825 120.1654196 107.0676329  50.8035464 108.6977960
 107.5927653  51.1422737 107.9727280 106.9798681  49.8682480 108.5141095
  98.7296378  54.7169538 120.8267837  99.0383504  54.4718685 121.6990536
  99.5271860  54.9216176 120.3386707  98.7516990  56.8707448 113.0573213
  98.3121980  56.3783826 113.7506070  99.5025107  56.3280415 112.8165289
  91.2309329  53.0618988 113.0597841  92.0567349  52.7622760 112.6796485
  90.8803381  52.2926611 113.5087630  96.1990862  52.4145457 115.1295515
  95.5770871  51.7516162 114.8297743  96.8695729  52.4406589 114.4469163
  89.4317934  50.9805315 114.0186775  88.5949842  50.5527489 113.8370776
  89.4041579  51.1737758 114.9557566  95.7604369  50.9649380 108.6053976
  95.9092489  51.6484844 107.9520648  96.5670812  50.9454470 109.1203431
  93.5157002  46.9914558 109.6115044  93.2703044  46.0876888 109.8095255
  93.6852916  46.9931708 108.6694522  92.7852649  42.7242915 107.1101206
  92.0921894  42.7987270 106.4541242  92.5404401  41.9603259 107.6322723
  99.2599774  53.4597510 106.0765723  98.6873741  54.0787698 105.6236195
  99.8332568  54.0096872 106.6105645 102.4797034  53.7434661 107.2074305
 103.4127707  53.6780222 107.4107181 102.3920247  54.5790927 106.7488838
 105.1085051  53.0600531 104.1678253 105.0298682  52.7260395 105.0614011
 105.9294717  53.5522299 104.1669725  99.6446573  44.7958323 103.4181775
 100.5905677  44.6664531 103.4870194  99.2660818  44.0572985 103.8951204
  97.8289490  42.7208300 103.3536661  96.9220945  42.4241412 103.4299374
  98.1065471  42.4238118 102.4870947  88.7467430  44.0414663 113.8035707
  88.4270215  43.1879971 113.5110081  88.2000858  44.2563241 114.5593674
  92.5247338  46.7577104 117.5205214  92.7433348  47.6894212 117.5393247
  92.9373112  46.3985078 118.3060017  99.4451556  37.2645189 109.5080902
  98.6352284  36.9192274 109.8836148 100.1335973  36.9552733 110.0968514
 101.3742104  36.3423236 111.1305199 101.9273142  36.7618690 111.7895222
 101.6112190  35.4158984 111.1728155  96.5988274  39.5795235 103.4948640
  97.4607438  39.9050133 103.7544457  96.7838619  38.7926731 102.9821706
  88.6155690  47.6617574 115.7728829  87.9219162  47.2471527 115.2598783
  89.3628681  47.7038111 115.1762248 104.7520911  38.4523761 110.6383863
 104.1719580  39.1108565 110.2561915 104.4856844  37.6301106 110.2271280
  90.5292433  47.5935828 113.6494844  90.5063121  47.6923516 112.6976727
  90.8393069  48.4400979 113.9712010  93.1879811  49.6511983 117.7641458
  94.1423064  49.6195926 117.6971390  92.9892334  49.1902607 118.5791684
  93.7779193  48.2213099 120.3312256  94.5972082  48.7157178 120.3547093
  94.0516000  47.3045067 120.3029823 103.5345789  40.6123852 109.6940211
 102.6471644  40.8973502 109.4760406 103.9499778  40.4517615 108.8467488
  91.5430039  55.1931603 114.7811656  91.4084507  54.4332004 114.2149654
  91.1262102  55.9172503 114.3140445 102.6789002  50.3768526 103.7888231
 103.3824853  50.5818529 104.4045887 101.9551651  50.9445288 104.0537315
 103.5086813  46.1278388 109.9090501 103.4522014  46.5846939 109.0698134
 104.0615155  45.3669072 109.7313344 107.3191619  41.9168119 110.7340621
 107.0628553  41.5164755 111.5648829 106.6944487  42.6311913 110.6090760
  94.6999165  56.0900920 114.9930099  94.5831549  57.0346352 114.8908789
  93.8791612  55.7874481 115.3815898 104.5875700  50.8151056 105.8386691
 105.4221304  50.3832254 105.6564166 104.4260043  50.6433069 106.7663586
 104.2421592  47.3183169 107.2043031 104.1870396  47.1527440 106.2631475
 103.6167647  48.0259202 107.3605220  89.0314107  42.5551233 121.0304453
  89.6772971  42.0450187 121.5191678  88.8231258  43.2919915 121.6047878
  97.5517717  36.8191278 106.7828349  97.5396387  37.7633118 106.9396620
  98.4441139  36.6361423 106.4887810  95.7253679  56.7429182 118.2086027
  96.6280926  56.7752792 118.5252522  95.4991049  55.8129633 118.2232363
  97.4807281  55.4960168 114.8696106  96.5302912  55.4962030 114.7560478
  97.7839768  54.7492903 114.3532140 101.3669837  33.4134054 111.0374286
 100.6002233  32.8592541 111.1830968 101.7780542  33.4855923 111.8988437
 110.0249681  61.2848135 115.8703393 109.6868193  61.1689199 114.9823928
 110.8939449  60.8839300 115.8504399 105.8836497  63.1383611 111.8600284
 105.3201362  63.0473548 111.0916571 105.7688892  62.3183516 112.3402776
 103.4300929  64.6334803 114.6984504 104.2222221  64.2925627 114.2830803
 103.6697579  64.7429778 115.6186657 111.4636056  66.8054579 107.1714749
 110.8124035  67.3908659 106.7848762 112.2580418  67.3360774 107.2309786
 105.3891683  63.8943716 107.5701883 106.1622559  63.3472703 107.4314759
 105.7417082  64.7587965 107.7816344 107.7257961  60.0536382 105.2020333
 107.9783481  59.5317903 104.4403796 106.7882520  59.8902528 105.3047016
 112.7701243  59.0572160 113.0095076 113.5564333  58.6391584 112.6585493
 113.0339948  59.9618253 113.1776724 112.9411321  64.4945011 107.7083733
 112.3057154  64.5679637 108.4204637 112.6108727  65.0838610 107.0302812
 107.4454249  61.9564488 107.4044708 107.3290507  61.2809391 108.0725792
 107.5556509  61.4696862 106.5876861 109.7885790  61.4174635 111.1091397
 109.4243998  60.8905256 111.8204318 110.6452906  61.0273104 110.9357882
 109.4291277  56.4464535 106.1052745 109.5965680  57.3144771 106.4723217
 109.2388446  56.6091817 105.1814035 105.6379092  61.3595311 113.8055280
 104.7129588  61.2271525 114.0132972 105.8863505  62.1389530 114.3025223
 109.4080498  58.9022192 107.0899412 109.2880123  59.3479243 107.9284893
 108.7133087  59.2507510 106.5312950 102.9987903  61.0028584 114.6399069
 103.1280284  61.2563063 115.5538481 102.3185354  61.5956292 114.3203724
 107.1687390  71.6725834 110.7389544 107.0911420  72.6233659 110.8178024
 106.5649034  71.3271707 111.3964470 115.1065564  59.3743666 107.9179746
 116.0183420  59.6071052 107.7427444 114.5975211  59.9580710 107.3554825
 109.2663108  64.0943892 112.5743413 109.7301454  64.3731595 111.7848035
 109.0019907  63.1927337 112.3916504 106.1587190  63.6415374 115.5123176
 106.7288547  64.0702642 114.8740661 106.7495301  63.3597958 116.2107362
 108.2031995  60.2167044 109.3832978 108.9056038  60.6688088 109.8506904
 107.8712623  59.5750863 110.0112871 101.9457328  58.4750597 114.6850112
 101.1556382  58.7308126 114.2090222 102.4368576  59.2898935 114.7902152
 103.8972074  58.8395176 111.6433588 103.1003237  58.9513871 112.1617084
 103.6697666  59.1781829 110.7774479 100.2295031  58.7281088 117.1165102
 100.4803070  59.6128097 117.3822678 100.7654580  58.5485689 116.3440194
 109.4425759  67.0307987 109.4595083 109.3071434  67.8759523 109.8879931
 109.9835572  67.2327265 108.6961017 102.8955157  64.5483425 110.0323008
 103.4079677  65.3426675 110.1828573 103.5477869  63.8509716 109.9656610
 104.7050041  67.6649181 112.1145762 104.8816670  68.5867146 111.9266745
 105.5006875  67.3507601 112.5440141 100.8604073  62.8772079 110.8082579
 101.6979295  63.2869088 110.5916287 101.0382341  61.9371522 110.7782773
 112.7568505  60.5447160 106.4966412 112.2415129  61.3151765 106.7354799
 112.4845814  59.8712296 107.1199473 110.3415616  55.3896861 111.5551650
 109.4857213  55.0003711 111.3757289 110.7542568  55.4688822 110.6951436
 108.1157649  53.0081934 114.9609392 108.9810646  52.8124743 114.6015281
 108.1835158  52.7792286 115.8878748 117.7302780  63.2979515 108.4319585
 116.9532222  62.9590674 107.9874747 118.4094261  63.3032138 107.7574550
 112.5454809  58.4174252 108.3226193 112.2404944  58.7320401 109.1736336
 113.4985251  58.4955672 108.3653526 110.9901240  64.5764475 109.9719147
 110.4622602  63.8417235 109.6592384 110.4888743  65.3539152 109.7259115
 105.7219968  55.2384142 112.3325759 106.2963720  55.0159323 111.5998951
 106.3090951  55.3072836 113.0854360 114.7799545  61.1257869 113.1390135
 115.2931427  61.7587860 113.6411845 115.4300769  60.5259064 112.7733495
 106.0489555  57.2688603 106.3521644 105.2126867  57.6063289 106.6730919
 105.9094325  57.1337583 105.4148781 108.0242636  52.1125391 111.0600828
 107.3707048  51.7974408 110.4357443 107.9823110  51.4901131 111.7860651
 109.1353841  62.3944686 102.9754120 108.2280902  62.1633939 103.1745269
 109.6324873  61.5982305 103.1628102 112.0421920  71.1042193 105.8950806
 111.3683618  71.4073890 106.5035764 112.4287741  71.9071273 105.5456263
 111.2580376  58.6007324 115.3848476 110.3402938  58.8222271 115.2270164
 111.6740520  58.6753635 114.5260183 112.0415424  59.9998740 110.5151156
 112.7887243  60.5120137 110.2058278 112.3107013  59.6782793 111.3755549
 110.3142074  62.4957281 107.4978110 109.4053293  62.2116313 107.5950580
 110.3437158  62.9156359 106.6381417 114.4894261  57.0355856 112.4969945
 113.7517018  56.5233242 112.8280188 114.7421035  56.5956238 111.6853222
 100.8830244  60.2162795 111.4793312 100.6854644  59.6232155 110.7544379
 100.3276908  59.9115005 112.1969251 108.8626968  60.1085901 113.5987905
 108.9175578  59.1559738 113.5230382 108.0518170  60.2645340 114.0829204
 110.0118162  64.0366024 104.8366189 109.5737592  63.3201883 104.3771826
 110.7528603  64.2642139 104.2751280 106.8019328  58.7262961 111.3578284
 105.9887194  59.0257132 111.7643476 107.2978322  58.3318650 112.0752767
 118.1291277  62.3123221 110.8942507 117.9909175  62.5024817 109.9663696
 117.7727495  63.0742604 111.3510558 106.2933403  56.2981316 116.9739519
 106.9332782  56.1570076 116.2762483 105.4610933  56.0115830 116.5978121
 107.0693707  65.5983747 113.0874512 107.8634305  65.1034067 112.8857087
 106.3585399  65.0701610 112.7242217 103.3776470  59.7426829 109.1634264
 102.4474058  59.6811284 109.3804227 103.4733942  59.2202781 108.3670906
 103.2962019  56.2681641 111.7512506 103.5568837  57.1826975 111.6421667
 104.1179192  55.8006084 111.9009119 104.7686945  57.6819399 118.9211331
 105.4409998  57.4736761 118.2723980 103.9416731  57.4841485 118.4816563
 110.2413135  71.2721865 108.1097885 110.4164890  70.8009909 108.9243508
 109.5545923  71.8987632 108.3379146 114.1329389  62.8950406 104.4298246
 113.5158560  62.1697234 104.3331299 113.6645878  63.6559766 104.0865321
 105.9227935  57.1135830 103.5519551 105.0457402  56.9924631 103.1881797
 106.3985688  56.3221909 103.2998439  97.4430076  61.9012990 113.6461058
  98.1301115  61.5874720 113.0582073  97.2878204  62.8054355 113.3728309
 102.2464798  56.7903187 118.0746081 102.1622986  56.1828856 117.3396491
 101.4247504  57.2812205 118.0755578 109.1091861  69.4662121 110.7982071
 108.3259383  70.0083801 110.8920296 109.8084607  69.9836100 111.1976312
 112.4188512  55.2756750 113.4416276 112.9157211  54.5226712 113.1217347
 111.6475493  55.3121067 112.8759486 113.5018292  64.0328437 111.0154700
 112.5674571  64.1529900 110.8459404 113.6794961  63.1300904 110.7514710
 109.0023480  57.4174133 113.1687961 108.6321268  56.8645173 113.8568867
 109.4982573  56.8132267 112.6162961 116.8890844  59.8745757 111.5504734
 117.3551296  60.7073748 111.4765037 117.3398344  59.4090738 112.2549992
 114.9567075  66.2189578 108.5490886 115.2326919  66.1046172 109.4584760
 114.0871573  65.8207063 108.5103059 111.9263304  69.3944114 109.4538748
 112.4551071  68.8836568 108.8408910 112.1891524  69.0786644 110.3184281
  97.0198052  59.9813583 115.9178525  97.0582151  59.4477174 116.7115643
  96.5138344  59.4548789 115.2989502 104.3988814  54.8278124 119.4141067
 104.4630140  55.6892955 119.0018465 104.3355934  54.2152125 118.6813426
 100.6506629  58.7077685 108.9932456 100.9460070  57.7988364 108.9399510
  99.7494665  58.6865425 108.6713459 104.1800876  56.7833682 114.9760005
 103.4587462  57.3969650 114.8367478 104.9694132  57.3191447 114.8976651
 102.3794471  56.3891783 109.1171781 102.0507177  55.5089162 108.9346887
 102.7333842  56.3339452 110.0048171 105.4936294  56.6764753 109.4847259
 105.8332366  57.2050674 108.7625867 105.9408414  57.0145159 110.2605826
 107.4804441  55.1739375 107.6840552 108.2012804  55.5520627 107.1804269
 106.8569745  55.8928251 107.7875530 111.6235564  55.8784523 108.6198884
 111.8399178  56.7609161 108.3187712 111.1429631  55.4870737 107.8904526
 106.3634785  58.8370237 115.1969629 106.2179366  59.1510540 116.0893910
 105.8859989  59.4555137 114.6440527 108.2231168  55.8272785 115.2450518
 108.2092737  54.9313878 114.9082816 108.9403596  55.8343448 115.8788804
 110.0757299  56.2610125 117.2903646 109.8175077  57.1827196 117.2887976
 109.5442339  55.8640559 117.9804110 100.8380448  61.3775581 118.1357290
 100.2933916  62.1535389 118.2677564 101.7159797  61.7246386 117.9776411
 107.6268064  54.7087165 110.5138088 107.7483975  53.7803811 110.7128976
 107.3370107  54.7225851 109.6016404 110.4959255  52.3942075 113.6504808
 110.5180951  52.4581409 112.6956788 110.9127314  51.5546584 113.8445314
 116.0078660  68.6827676 107.1690629 116.7029565  69.3034369 107.3877944
 116.3501810  67.8323028 107.4443007 117.9070083  66.1327382 108.6977960
 118.4321407  66.4714655 107.9727280 117.8192436  65.1974397 108.5141095
 102.0703083  68.3910906 113.0597841 102.8961103  68.0914678 112.6796485
 101.7197135  67.6218529 113.5087630 100.2711688  66.3097233 114.0186775
  99.4343596  65.8819407 113.8370776 100.2435334  66.5029676 114.9557566
 106.5998123  66.2941298 108.6053976 106.7486244  66.9776762 107.9520648
 107.4064567  66.2746388 109.1203431 104.3550756  62.3206475 109.6115044
 104.1096798  61.4168805 109.8095255 104.5246671  62.3223626 108.6694522
 103.6246404  58.0534833 107.1101206 102.9315649  58.1279188 106.4541242
 103.3798156  57.2895177 107.6322723 110.0993529  68.7889428 106.0765723
 109.5267496  69.4079615 105.6236195 110.6726322  69.3388790 106.6105645
 113.3190788  69.0726578 107.2074305 114.2521462  69.0072140 107.4107181
 113.2314001  69.9082845 106.7488838 115.9478805  68.3892449 104.1678253
 115.8692437  68.0552312 105.0614011 116.7688472  68.8814216 104.1669725
 110.4840327  60.1250241 103.4181775 111.4299432  59.9956449 103.4870194
 110.1054572  59.3864903 103.8951204 108.6683244  58.0500217 103.3536661
 107.7614700  57.7533330 103.4299374 108.9459225  57.7530035 102.4870947
  99.5861185  59.3706581 113.8035707  99.2663969  58.5171889 113.5110081
  99.0394613  59.5855159 114.5593674 103.3641092  62.0869022 117.5205214
 103.5827102  63.0186129 117.5393247 103.7766866  61.7276996 118.3060017
 110.2845310  52.5937107 109.5080902 109.4746038  52.2484192 109.8836148
 110.9729727  52.2844651 110.0968514 112.2135858  51.6715154 111.1305199
 112.7666897  52.0910607 111.7895222 112.4505945  50.7450902 111.1728155
 107.4382029  54.9087152 103.4948640 108.3001193  55.2342051 103.7544457
 107.6232373  54.1218648 102.9821706  99.4549445  62.9909492 115.7728829
  98.7612916  62.5763445 115.2598783 100.2022436  63.0330029 115.1762248
 115.5914665  53.7815679 110.6383863 115.0113334  54.4400483 110.2561915
 115.3250598  52.9593024 110.2271280 101.3686187  62.9227746 113.6494844
 101.3456875  63.0215433 112.6976727 101.6786824  63.7692897 113.9712010
 114.3739543  55.9415769 109.6940211 113.4865398  56.2265420 109.4760406
 114.7893533  55.7809533 108.8467488 113.5182757  65.7060444 103.7888231
 114.2218607  65.9110446 104.4045887 112.7945406  66.2737206 104.0537315
 114.3480567  61.4570305 109.9090501 114.2915769  61.9138857 109.0698134
 114.9008910  60.6960990 109.7313344 118.1585373  57.2460037 110.7340621
 117.9022307  56.8456673 111.5648829 117.5338241  57.9603831 110.6090760
 115.4269454  66.1442973 105.8386691 116.2615058  65.7124172 105.6564166
 115.2653797  65.9724987 106.7663586 115.0815347  62.6475086 107.2043031
 115.0264150  62.4819358 106.2631475 114.4561402  63.3551119 107.3605220
  99.8707862  57.8843151 121.0304453 100.5166725  57.3742105 121.5191678
  99.6625013  58.6211833 121.6047878 108.3911472  52.1483196 106.7828349
 108.3790142  53.0925035 106.9396620 109.2834894  51.9653341 106.4887810
 112.2063591  48.7425972 111.0374286 111.4395987  48.1884459 111.1830968
 112.6174296  48.8147841 111.8988437 116.8883310  72.5980520 106.3521644
 116.0520622  72.9355207 106.6730919 116.7488079  72.4629500 105.4148781
 116.7621690  72.4427748 103.5519551 115.8851156  72.3216549 103.1881797
 117.2379443  71.6513826 103.2998439 114.4640158  73.3826751 107.1101206
 113.7709403  73.4571106 106.4541242 114.2191910  72.6187094 107.6322723
 119.5076999  73.3792135 103.3536661 118.6008454  73.0825248 103.4299374
 119.7852980  73.0821953 102.4870947 118.2775783  70.2379070 103.4948640
 119.1394947  70.5633968 103.7544457 118.4626128  69.4510566 102.9821706
 119.2305226  67.4775113 106.7828349 119.2183896  68.4216953 106.9396620
 120.1228648  67.2945259 106.4887810  74.6506128   2.6912204  97.4634850
  74.5730158   3.6420029  97.5423331  74.0467772   2.3458076  98.1209776
  72.2892958   5.4397598 101.6083052  72.5289556   6.0716122 102.2862071
  71.4462154   5.0885638 101.8948411  72.7637790   1.4645600  98.9381831
  72.0948165   1.9491728  98.4545871  72.6250660   1.7114821  99.8525209
  76.9043059   3.4989344 105.5364489  77.4561367   3.6620965 106.3013574
  77.2449252   4.0893781 104.8644514  77.0729482   3.2185735  99.7818520
  76.6334472   2.7262113 100.4751377  77.8237599   2.6758702  99.5410595
  69.8642532   1.5409890 101.5056962  69.7297000   0.7810291 100.9394961
  69.4474594   2.2650790 101.0385751  73.0211658   2.4379207 101.7175405
  72.9044042   3.3824640 101.6154095  72.2004104   2.1352769 102.1061204
  74.0466172   3.0907469 104.9331334  74.9493418   3.1231079 105.2497829
  73.8203542   2.1607920 104.9477669  88.3462174   7.6326422 102.5948699
  88.0080685   7.5167487 101.7069234  89.2151942   7.2317587 102.5749705
  84.2048989   9.4861898  98.5845590  83.6413854   9.3951835  97.8161878
  84.0901384   8.6661803  99.0648083  81.7513421  10.9813090 101.4229811
  82.5434713  10.6403915 101.0076110  81.9910071  11.0908065 102.3431964
  89.7848548  13.1532866  93.8960055  89.1336528  13.7386946  93.5094069
  90.5792911  13.6839061  93.9555093  83.7104175  10.2422003  94.2947189
  84.4835051   9.6950990  94.1560065  84.0629574  11.1066253  94.5061651
  85.5489218  11.5698385 107.5014089  85.2579084  12.4744016 107.3860755
  86.1846202  11.6114913 108.2158158  86.4745424   8.9475234 104.0915448
  87.0708997   8.7231256 103.3772411  86.5320396   8.2059979 104.6940896
  86.0470453   6.4014669  91.9265639  86.2995974   5.8796191  91.1649102
  85.1095012   6.2380815  92.0292323  91.2623813  10.8423298  94.4329039
  90.6269646  10.9157925  95.1449944  90.9321219  11.4316897  93.7548119
  85.7666742   8.3042775  94.1290014  85.6503000   7.6287679  94.7971099
  85.8769002   7.8175149  93.3122167  88.1098283   7.7652922  97.8336704
  87.7456490   7.2383543  98.5449625  88.9665398   7.3751391  97.6603189
  90.5079103  11.2559801 104.4963882  90.2079826  12.1584840 104.3879690
  90.1630162  10.9891984 105.3485035  83.9591584   7.7073598 100.5300587
  83.0342081   7.5749812 100.7378279  84.2075997   8.4867817 101.0270529
  81.3200395   7.3506871 101.3644376  81.4492776   7.6041350 102.2783788
  80.6397847   7.9434579 101.0449031  85.4899883  18.0204121  97.4634850
  85.4123912  18.9711946  97.5423331  84.8861526  17.6749994  98.1209776
  86.2363485   8.0017440 109.6814184  86.9778169   8.5402484 109.4049008
  85.5300470   8.6283729 109.8385736  92.0347639  10.7047771 102.0338634
  91.4056501  10.8693485 101.3314702  91.6473301  11.1189381 102.8049598
  95.9136871  11.6402209  99.3882998  95.2287909  12.0201110  98.8380032
  95.9980720  12.2497536 100.1214946  87.5875601  10.4422179  99.2988720
  88.0513946  10.7209882  98.5093342  87.3232399   9.5405624  99.1161810
  84.4799682   9.9893661 102.2368483  85.0501039  10.4180929 101.5985967
  85.0707794   9.7076246 102.9352668  86.5244487   6.5645332  96.1078285
  87.2268530   7.0166375  96.5752211  86.1925115   5.9229151  96.7358178
  80.2669821   4.8228884 101.4095418  79.4768875   5.0786413 100.9335529
  80.7581068   5.6377222 101.5147459  94.2833630  12.1634124 104.1600699
  95.1051074  11.7614311 103.8783381  94.2796033  12.0602358 105.1116815
  82.2184566   5.1873464  98.3678895  81.4215729   5.2992158  98.8862391
  81.9910158   5.5260116  97.5019785  88.0490234  11.7118167 106.3161410
  88.1134666  12.1738574 107.1519581  87.3401158  11.0815532 106.4443719
  78.5507524   5.0759375 103.8410409  78.8015562   5.9606385 104.1067985
  79.0867072   4.8963976 103.0685501  87.7638251  13.3786274  96.1840390
  87.6283926  14.2237810  96.6125238  88.3048064  13.5805552  95.4206324
  81.2167649  10.8961712  96.7568315  81.7292169  11.6904963  96.9073880
  81.8690362  10.1988003  96.6901916  83.0262534  14.0127469  98.8391068
  83.2029162  14.9345433  98.6512052  83.8219367  13.6985888  99.2685448
  82.3114890   6.0592101 108.7153231  82.1968405   5.1577358 109.0160330
  81.4559408   6.3055797 108.3638048  89.3906728  14.0009841 110.3140732
  88.9470582  13.2146219 109.9961636  90.0523941  14.1888991 109.6484623
  84.1493849  15.5305642 104.8401410  84.7001274  15.4022706 104.0678404
  83.3105325  15.8300531 104.4896303  87.9461020  11.7956770 109.1845642
  88.4789357  11.0345058 108.9544950  87.4175101  11.5030422 109.9269796
  79.1816566   9.2250367  97.5327886  80.0191788   9.6347375  97.3161593
  79.3594833   8.2849809  97.5028079  96.0515272   9.6457802  95.1564892
  95.2744715   9.3068961  94.7120054  96.7306753   9.6510425  94.4819857
  89.3113733  10.9242763  96.6964454  88.7835094  10.1895522  96.3837691
  88.8101235  11.7017439  96.4504422  94.2906579   9.1191783 101.8131500
  93.6330253   9.8091045 101.9011629  95.0946978   9.5088215 102.1565486
  87.4566333   8.7422973  89.6999427  86.5493395   8.5112226  89.8990576
  87.9537365   7.9460592  89.8873408  90.3634412  17.4520480  92.6196113
  89.6896111  17.7552177  93.2281071  90.7500234  18.2549561  92.2701570
  88.6354566   8.8435568  94.2223417  87.7265786   8.5594601  94.3195887
  88.6649650   9.2634646  93.3626724  93.8673834  12.4542157  97.9914584
  93.4136161  11.6133067  98.0479775  93.2367800  13.0903556  98.3289364
  92.3106773  14.2918654  98.9264402  92.6029747  14.8523711  98.2076768
  92.8205394  14.5847215  99.6817562  79.2042737   6.5641082  98.2038619
  79.0067137   5.9710443  97.4789686  78.6489401   6.2593292  98.9214558
  88.3330654  10.3844312  91.5611495  87.8950084   9.6680170  91.1017133
  89.0741095  10.6120426  90.9996587  87.2740398  15.0699005 100.0157856
  87.2316577  15.2959851  99.0866388  88.1903097  14.8362380 100.1643657
  85.3906199  11.9462034  99.8119818  86.1846797  11.4512354  99.6102393
  84.6797891  11.4179897  99.4487524  90.2101043  14.3280130 104.1632186
  90.2638066  14.8971066 104.9309902  89.3415825  14.4982015 103.7986223
  81.6988962   6.0905116  95.8879571  80.7686551   6.0289571  96.1049533
  81.7946434   5.5681069  95.0916212  89.1689143   8.4940392 105.7219118
  90.0981203   8.6451551 105.5488085  88.7480173   8.5824413 104.8667764
  87.9677475  12.5191056 103.4917655  87.8288561  12.1509841 104.3643594
  87.1792071  13.0338696 103.3201613  88.5625627  17.6200153  94.8343192
  88.7377383  17.1488196  95.6488815  87.8758415  18.2465919  95.0624453
  89.5182690  11.8972659 100.8806493  89.1832523  11.8573429 101.7764143
  89.0186636  11.2317375 100.4076903  83.4926934   7.3040289 106.4059074
  83.3546732   6.5720528 107.0070613  84.4031858   7.2149189 106.1243262
  92.4541882   9.2428693  91.1543553  91.8371052   8.5175521  91.0576606
  91.9858370  10.0038053  90.8110627  86.1209235   7.0160248 105.8942754
  86.8308853   6.3753440 105.8529372  86.0778543   7.2673143 106.8168935
  83.1286712  20.7689515 101.6083052  83.3683310  21.4008040 102.2862071
  82.2855909  20.4177555 101.8948411  75.7642568   8.2491277 100.3706364
  76.4513608   7.9353007  99.7827380  75.6090697   9.1532642 100.0973616
  87.6414574  16.5768638 104.0124556  87.5684746  17.3823609 104.5243861
  87.1991967  16.7760604 103.1872578  87.4304354  15.8140408  97.5227378
  86.6471876  16.3562088  97.6165602  88.1297099  16.3314387  97.9221619
  90.1013258  16.4755472 106.1682715  90.8141230  17.1102937 106.0958616
  89.6103286  16.5719338 105.3522717  91.8230785  10.3806725  97.7400006
  90.8887063  10.5008187  97.5704711  92.0007453   9.4779191  97.4760016
  85.1525171  14.2249915 106.9888286  85.8534631  14.8586398 107.1417680
  84.6820286  14.5664647 106.2283925  93.2779567  12.5667865  95.2736193
  93.5539411  12.4524460  96.1830067  92.4084066  12.1685350  95.2348366
  89.9133631  16.8154216  98.9169006  90.0956026  15.9975872  99.3796759
  90.7366617  17.0321908  98.4793896  90.2475796  15.7422401  96.1784055
  90.7763563  15.2314856  95.5654217  90.5104016  15.4264931  97.0429588
  80.7492889  13.7586270 103.9219388  81.3346326  13.0129958 104.0547293
  80.5517728  14.0690227 104.8056052  83.6031544  16.7937518  98.9381831
  82.9341920  17.2783645  98.4545871  83.4644414  17.0406738  99.8525209
  75.3410544   6.3291871 102.6423831  75.3794643   5.7955461 103.4360950
  74.8350837   5.8027076 102.0234809  87.7436813  18.8281261 105.5364489
  88.2955121  18.9912883 106.3013574  88.0843006  19.4185699 104.8644514
  78.9719122   5.0555973  95.7177763  79.2672563   4.1466651  95.6644817
  78.0707157   5.0343712  95.3958765  90.8805200  16.7763237 102.5228171
  90.7556340  15.9752977 102.0139117  91.5384291  17.2709430 102.0342141
  92.9440109  14.5772257 104.1507721  91.9970444  14.4577608 104.0786048
  93.2922882  13.6894755 104.2333983  89.9486542  14.3724973 100.3512074
  89.8011504  13.4441681 100.5319644  90.7740035  14.3945064  99.8669149
  93.5520664  15.1953532 101.4376946  94.4767211  14.9896393 101.3001397
  93.3835967  14.9469933 102.3466288  84.6847278   5.1848524 101.9214935
  84.5391858   5.4988827 102.8139217  84.2072481   5.8033424 101.3685834
  93.3415980  15.7139199  96.7939038  93.5152858  15.1485622  96.0412890
  93.8344871  16.5140094  96.6118528  79.1592940   7.7253868 104.8602597
  78.6146408   8.5013676 104.9922871  80.0372290   8.0724673 104.7021718
  94.3291153  15.0305964  93.8935936  95.0242057  15.6512656  94.1123251
  94.6714303  14.1801315  94.1688314  79.9458962   6.8523765 107.7532753
  79.2040698   7.0006400 108.3397384  79.6251706   7.1132030 106.8899503
  96.2282576  12.4805669  95.4223267  96.7533900  12.8192942  94.6972587
  96.1404928  11.5452685  95.2386401  87.8902624  16.3939743 107.5513143
  88.1989751  16.1488890 108.4235843  88.6878106  16.5986381 107.0632014
  87.9123236  18.5477652  99.7818520  87.4728227  18.0554031 100.4751377
  88.6631353  18.0050620  99.5410595  80.3915575  14.7389193  99.7843148
  81.2173595  14.4392965  99.4041792  80.0409627  13.9696816 100.2332937
  85.3597109  14.0915662 101.8540822  84.7377118  13.4286367 101.5543050
  86.0301975  14.1176793 101.1714469  78.5924180  12.6575520 100.7432082
  77.7556089  12.2297694 100.5616083  78.5647826  12.8507963 101.6802873
  84.9210615  12.6419585  95.3299282  85.0698736  13.3255049  94.6765955
  85.7277059  12.6224675  95.8448738  82.6763248   8.6684763  96.3360351
  82.4309290   7.7647093  96.5340561  82.8459163   8.6701913  95.3939829
  88.4206021  15.1367715  92.8011030  87.8479988  15.7557902  92.3481501
  88.9938815  15.6867077  93.3350952  91.6403281  15.4204865  93.9319612
  92.5733954  15.3550427  94.1352487  91.5526494  16.2561132  93.4734145
  94.2691297  14.7370736  90.8923559  94.1904929  14.4030599  91.7859317
  95.0900964  15.2292504  90.8915032  77.9073677   5.7184868 100.5281014
  77.5876461   4.8650176 100.2355388  77.3607105   5.9333446 101.2838981
  81.6853585   8.4347309 104.2450520  81.9039594   9.3664417 104.2638554
  82.0979358   8.0755283 105.0305324  77.7761937   9.3387779 102.4974135
  77.0825408   8.9241732 101.9844090  78.5234928   9.3808316 101.9007554
  79.6898680   9.2706033 100.3740150  79.6669368   9.3693720  99.4222033
  79.9999316  10.1171184 100.6957316  82.3486057  11.3282188 104.4886765
  83.3029311  11.2966131 104.4216696  82.1498581  10.8672812 105.3036991
  82.9385440   9.8983304 107.0557562  83.7578329  10.3927383 107.0792400
  83.2122247   8.9815272 107.0275130  80.7036286  16.8701808 101.5056962
  80.5690754  16.1102209 100.9394961  80.2868348  17.5942708 101.0385751
  91.8395249  12.0538731  90.5133538  92.5431099  12.2588734  91.1291193
  91.1157898  12.6215493  90.7782621  83.8605412  17.7671125 101.7175405
  83.7437796  18.7116557 101.6154095  83.0397858  17.4644686 102.1061204
  93.7481947  12.4921260  92.5631998  94.5827551  12.0602459  92.3809473
  93.5866290  12.3203274  93.4908892  93.4027839   8.9953374  93.9288337
  93.3476643   8.8297645  92.9876781  92.7773894   9.7029407  94.0850527
  78.1920354   4.2321438 107.7549759  78.8379217   3.7220392 108.2436985
  77.9837505   4.9690120 108.3293185  84.8859926  18.4199387 104.9331334
  85.7887173  18.4522997 105.2497829  84.6597296  17.4899838 104.9477669
  86.6413528  17.1730373 101.5941412  85.6909159  17.1732235 101.4805784
  86.9446014  16.4263108 101.0777447 102.3766222  23.0090912 102.6587175
 103.0144632  22.8897659 101.9550515 102.2587065  23.9571755 102.7175127
  99.1855928  22.9618340 102.5948699  98.8474440  22.8459404 101.7069234
 100.0545696  22.5609505 102.5749705  95.0442744  24.8153816  98.5845590
  94.4807609  24.7243753  97.8161878  94.9295139  23.9953721  99.0648083
  92.5907176  26.3105008 101.4229811  93.3828468  25.9695832 101.0076110
  92.8303826  26.4199983 102.3431964 100.6242302  28.4824784  93.8960055
  99.9730282  29.0678864  93.5094069 101.4186665  29.0130979  93.9555093
  94.5497930  25.5713921  94.2947189  95.3228806  25.0242908  94.1560065
  94.9023328  26.4358170  94.5061651  96.3882972  26.8990303 107.5014089
  96.0972838  27.8035934 107.3860755  97.0239956  26.9406831 108.2158158
  97.3139179  24.2767152 104.0915448  97.9102751  24.0523174 103.3772411
  97.3714151  23.5351897 104.6940896  96.8864207  21.7306587  91.9265639
  97.1389728  21.2088108  91.1649102  95.9488766  21.5672732  92.0292323
 101.9307490  20.7342365  99.7340383 102.7170579  20.3161789  99.3830800
 102.1946195  21.6388458  99.9022031 102.1017568  26.1715216  94.4329039
 101.4663401  26.2449842  95.1449944 101.7714974  26.7608815  93.7548119
  96.6060496  23.6334693  94.1290014  96.4896754  22.9579596  94.7971099
  96.7162756  23.1467067  93.3122167  98.9492037  23.0944840  97.8336704
  98.5850244  22.5675461  98.5449625  99.8059153  22.7043309  97.6603189
  98.5897524  18.1234740  92.8298052  98.7571926  18.9914976  93.1968523
  98.3994693  18.2862021  91.9059341 101.3472857  26.5851719 104.4963882
 101.0473580  27.4876757 104.3879690 101.0023917  26.3183902 105.3485035
  94.7985339  23.0365516 100.5300587  93.8735835  22.9041730 100.7378279
  95.0469752  23.8159735 101.0270529  98.5686745  20.5792397  93.8144719
  98.4486370  21.0249448  94.6530199  97.8739333  20.9277715  93.2558257
  92.1594150  22.6798789 101.3644376  92.2886531  22.9333268 102.2783788
  91.4791601  23.2726497 101.0449031  96.3293637  33.3496039  97.4634850
  96.2517667  34.3003864  97.5423331  95.7255281  33.0041912  98.1209776
 104.2671811  21.0513870  94.6425053 105.1789667  21.2841257  94.4672751
 103.7581458  21.6350915  94.0800132  97.0757239  23.3309358 109.6814184
  97.8171923  23.8694402 109.4049008  96.3694225  23.9575647 109.8385736
  98.9043649  20.4111105 105.6519903  99.7504844  20.8350519 105.7954552
  98.8442286  19.7544729 106.3458466 102.8741393  26.0339689 102.0338634
 102.2450256  26.1985403 101.3314702 102.4867055  26.4481298 102.8049598
 106.7530625  26.9694127  99.3882998 106.0681663  27.3493028  98.8380032
 106.8374475  27.5789453 100.1214946  98.4269355  25.7714097  99.2988720
  98.8907701  26.0501800  98.5093342  98.1626153  24.8697542  99.1161810
  95.3193436  25.3185579 102.2368483  95.8894793  25.7472847 101.5985967
  95.9101548  25.0368163 102.9352668  97.3638241  21.8937249  96.1078285
  98.0662285  22.3458293  96.5752211  97.0318870  21.2521068  96.7358178
  91.1063575  20.1520802 101.4095418  90.3162629  20.4078331 100.9335529
  91.5974823  20.9669140 101.5147459 105.1227385  27.4926041 104.1600699
 105.9444829  27.0906228 103.8783381 105.1189788  27.3894275 105.1116815
  93.0578321  20.5165381  98.3678895  92.2609484  20.6284076  98.8862391
  92.8303913  20.8552034  97.5019785  98.8883988  27.0410085 106.3161410
  98.9528421  27.5030492 107.1519581  98.1794912  26.4107449 106.4443719
  89.3901278  20.4051292 103.8410409  89.6409317  21.2898302 104.1067985
  89.9260827  20.2255894 103.0685501  98.6032006  28.7078192  96.1840390
  98.4677681  29.5529728  96.6125238  99.1441818  28.9097470  95.4206324
  92.0561403  26.2253630  96.7568315  92.5685924  27.0196880  96.9073880
  92.7084116  25.5279920  96.6901916  93.8656288  29.3419386  98.8391068
  94.0422916  30.2637351  98.6512052  94.6613122  29.0277806  99.2685448
  93.1508645  21.3884018 108.7153231  93.0362160  20.4869275 109.0160330
  92.2953162  21.6347715 108.3638048 100.2300482  29.3301759 110.3140732
  99.7864336  28.5438137 109.9961636 100.8917696  29.5180909 109.6484623
  94.9887603  30.8597560 104.8401410  95.5395029  30.7314623 104.0678404
  94.1499079  31.1592449 104.4896303  98.7854775  27.1248688 109.1845642
  99.3183111  26.3636976 108.9544950  98.2568856  26.8322340 109.9269796
  90.0210320  24.5542284  97.5327886  90.8585542  24.9639293  97.3161593
  90.1988588  23.6141726  97.5028079 101.9174752  22.2217365  93.2211718
 101.4021376  22.9921970  93.4600106 101.6452061  21.5482501  93.8444780
  99.5021863  17.0667066  98.2796957  98.6463460  16.6773916  98.1002596
  99.9148815  17.1459027  97.4196742  97.2763896  14.6852139 101.6854698
  98.1416893  14.4894947 101.3260588  97.3441405  14.4562491 102.6124055
 106.8909026  24.9749720  95.1564892 106.1138469  24.6360879  94.7120054
 107.5700507  24.9802343  94.4819857 101.7061055  20.0944457  95.0471500
 101.4011191  20.4090606  95.8981643 102.6591498  20.1725877  95.0898833
 100.1507487  26.2534680  96.6964454  99.6228849  25.5187440  96.3837691
  99.6494990  27.0309357  96.4504422 105.1300333  24.4483701 101.8131500
 104.4724008  25.1382962 101.9011629 105.9340732  24.8380133 102.1565486
  94.8826215  16.9154347  99.0571065  95.4569967  16.6929528  98.3244258
  95.4697197  16.9843041  99.8099666 103.9405792  22.8028074  99.8635442
 104.4537674  23.4358065 100.3657151 104.5907016  22.2029269  99.4978802
  95.2095802  18.9458808  93.0766950  94.3733114  19.2833494  93.3976225
  95.0700572  18.8107787  92.1394087  97.1848883  13.7895596  97.7846135
  96.5313295  13.4744613  97.1602749  97.1429357  13.1671336  98.5105958
  98.2960087  24.0714891  89.6999427  97.3887149  23.8404144  89.8990576
  98.7931119  23.2752510  89.8873408 101.2028166  32.7812398  92.6196113
 100.5289865  33.0844095  93.2281071 101.5893988  33.5841478  92.2701570
 100.4186623  20.2777529 102.1093782  99.5009184  20.4992476 101.9515470
 100.8346767  20.3523840 101.2505490 101.2021671  21.6768945  97.2396462
 101.9493490  22.1890342  96.9303585 101.4713260  21.3552998  98.1000856
  99.4748321  24.1727486  94.2223417  98.5659540  23.8886518  94.3195887
  99.5043405  24.5926564  93.3626724 104.7067588  27.7834075  97.9914584
 104.2529915  26.9424985  98.0479775 104.0761555  28.4195473  98.3289364
 103.6500508  18.7126061  99.2215252 102.9123265  18.2003447  99.5525494
 103.9027281  18.2726443  98.4098529 103.1500528  29.6210572  98.9264402
 103.4423502  30.1815629  98.2076768 103.6599148  29.9139133  99.6817562
  90.0436491  21.8933000  98.2038619  89.8460891  21.3002360  97.4789686
  89.4883155  21.5885210  98.9214558  98.0233215  21.7856106 100.3233212
  98.0781825  20.8329943 100.2475689  97.2124417  21.9415545 100.8074511
  99.1724409  25.7136229  91.5611495  98.7343839  24.9972088  91.1017133
  99.9134850  25.9412344  90.9996587  95.9625575  20.4033166  98.0823591
  95.1493440  20.7027336  98.4888783  96.4584569  20.0088855  98.7998073
  98.1134153  30.3990923 100.0157856  98.0710331  30.6251769  99.0866388
  99.0296852  30.1654297 100.1643657 107.2897523  23.9893426  97.6187814
 107.1515422  24.1795022  96.6909003 106.9333742  24.7512809  98.0755865
  95.4539650  17.9751521 103.6984826  96.0939029  17.8340280 103.0007789
  94.6217180  17.6886035 103.3223428  96.2299953  27.2753952  99.8119818
  97.0240552  26.7804272  99.6102393  95.5191646  26.7471815  99.4487524
 101.0494798  29.6572047 104.1632186 101.1031820  30.2262984 104.9309902
 100.1809579  29.8273932 103.7986223  92.5382717  21.4197034  95.8879571
  91.6080305  21.3581489  96.1049533  92.6340189  20.8972986  95.0916212
  92.4568266  17.9451846  98.4757813  92.7175083  18.8597180  98.3666973
  93.2785438  17.4776289  98.6254426  93.9293191  19.3589604 105.6456637
  94.6016245  19.1506966 104.9969286  93.1022978  19.1611690 105.2061870
 100.0082898  23.8232309 105.7219118 100.9374958  23.9743469 105.5488085
  99.5873928  23.9116330 104.8667764  98.8071229  27.8482974 103.4917655
  98.6682315  27.4801758 104.3643594  98.0185826  28.3630613 103.3201613
  99.4019381  32.9492070  94.8343192  99.5771137  32.4780113  95.6488815
  98.7152169  33.5757836  95.0624453 100.3576445  27.2264576 100.8806493
 100.0226277  27.1865346 101.7764143  99.8580390  26.5609292 100.4076903
  94.3320689  22.6332207 106.4059074  94.1940487  21.9012445 107.0070613
  95.2425612  22.5441107 106.1243262 103.2935636  24.5720611  91.1543553
 102.6764807  23.8467439  91.0576606 102.8252125  25.3329971  90.8110627
  96.9602989  22.3452166 105.8942754  97.6702608  21.7045358 105.8529372
  96.9172297  22.5965061 106.8168935  95.6731923  19.3317384 107.7138394
  95.1369280  18.8808122 108.3659990  95.0848632  19.4663293 106.9708858
  93.9680467  36.0981433 101.6083052  94.2077065  36.7299957 102.2862071
  93.1249663  35.7469473 101.8948411  95.0834182  18.7906035  90.2764857
  94.2063648  18.6694836  89.9127104  95.5591935  17.9992113  90.0243746
  86.6036322  23.5783195 100.3706364  87.2907362  23.2644925  99.7827380
  86.4484451  24.4824560 100.0973616  91.4071044  18.4673391 104.7991388
  91.3229233  17.8599061 104.0641798  90.5853751  18.9582410 104.8000884
  98.4808329  31.9060555 104.0124556  98.4078500  32.7115527 104.5243861
  98.0385722  32.1052521 103.1872578  98.2698108  31.1432326  97.5227378
  97.4865630  31.6854006  97.6165602  98.9690853  31.6606305  97.9221619
 101.5794758  16.9526955 100.1661583 102.0763458  16.1996917  99.8462653
 100.8081740  16.9891272  99.6004792 100.9407012  31.8047390 106.1682715
 101.6534984  32.4394854 106.0958616 100.4497041  31.9011256 105.3522717
 102.6624539  25.7098642  97.7400006 101.7280818  25.8300105  97.5704711
 102.8401207  24.8071109  97.4760016  98.1629727  19.0944338  99.8933268
  97.7927515  18.5415378 100.5814173  98.6588820  18.4902471  99.3408268
 106.0497090  21.5515961  98.2750041 106.5157543  22.3843953  98.2010343
 106.5004591  21.0860943  98.9795299  95.9918926  29.5541833 106.9888286
  96.6928385  30.1878316 107.1417680  95.5214041  29.8956565 106.2283925
 104.1173321  27.8959783  95.2736193 104.3933165  27.7816377  96.1830067
 103.2477820  27.4977268  95.2348366 100.7527385  32.1446134  98.9169006
 100.9349780  31.3267790  99.3796759 101.5760371  32.3613826  98.4793896
 101.0869551  31.0714319  96.1784055 101.6157317  30.5606773  95.5654217
 101.3497771  30.7556849  97.0429588  91.5886644  29.0878188 103.9219388
  92.1740081  28.3421876 104.0547293  91.3911482  29.3982145 104.8056052
  94.4425299  32.1229435  98.9381831  93.7735674  32.6075563  98.4545871
  94.3038169  32.3698656  99.8525209  86.1804298  21.6583788 102.6423831
  86.2188398  21.1247379 103.4360950  85.6744591  21.1318994 102.0234809
  98.5830568  34.1573179 105.5364489  99.1348876  34.3204800 106.3013574
  98.9236761  34.7477617 104.8644514  93.5595061  16.5048329 106.1386374
  93.6236387  17.3663160 105.7263771  93.4962181  15.8922330 105.4058732
  89.8112876  20.3847890  95.7177763  90.1066317  19.4758569  95.6644817
  88.9100912  20.3635630  95.3958765 101.7198955  32.1055154 102.5228171
 101.5950094  31.3044894 102.0139117 102.3778046  32.6001348 102.0342141
  93.3407123  18.4603887 101.7005311  92.6193709  19.0739855 101.5612785
  94.1300379  18.9961652 101.6221957 103.7833863  29.9064175 104.1507721
 102.8364199  29.7869526 104.0786048 104.1316636  29.0186673 104.2333983
  91.5400718  18.0661988  95.8417088  91.2113424  17.1859367  95.6592194
  91.8940088  18.0109657  96.7293477 100.7880296  29.7016891 100.3512074
 100.6405259  28.7733598 100.5319644 101.6133790  29.7236981  99.8669149
  94.6542541  18.3534958  96.2092566  94.9938613  18.8820879  95.4871174
  95.1014661  18.6915364  96.9851132 104.3914418  30.5245449 101.4376946
 105.3160966  30.3188311 101.3001397 104.2229722  30.2761851 102.3466288
  96.6410688  16.8509579  94.4085858  97.3619050  17.2290832  93.9049575
  96.0175992  17.5698456  94.5120836 100.7841811  17.5554728  95.3444191
 101.0005425  18.4379366  95.0433019 100.3035878  17.1640942  94.6149833
  95.5241032  20.5140442 101.9214935  95.3785613  20.8280745 102.8139217
  95.0466236  21.1325342 101.3685834  97.3837415  17.5042990 101.9695825
  97.3698984  16.6084083 101.6328123  98.1009843  17.5113653 102.6034111
  99.2363546  17.9380330 104.0148952  98.9781324  18.8597400 104.0133283
  98.7048586  17.5410764 104.7049416 104.1809735  31.0431117  96.7939038
 104.3546612  30.4777539  96.0412890 104.6738626  31.8432012  96.6118528
  89.9986694  23.0545786 104.8602597  89.4540162  23.8305594 104.9922871
  90.8766044  23.4016591 104.7021718  96.7874311  16.3857370  97.2383395
  96.9090222  15.4574016  97.4374283  96.4976353  16.3996056  96.3261710
  99.6565501  14.0712280 100.3750115  99.6787198  14.1351613  99.4202094
 100.0733560  13.2316789 100.5690621 110.0349126  23.8067540  98.4129337
 110.4780272  23.0574865  98.0148461 109.1575636  23.7977676  98.0303069
 105.1684907  30.3597881  93.8935936 105.8635812  30.9804574  94.1123251
 105.5108057  29.5093233  94.1688314  90.7852716  22.1815682 107.7532753
  90.0434452  22.3298318 108.3397384  90.4645460  22.4423948 106.8899503
 107.0676330  27.8097587  95.4223267 107.5927654  28.1484860  94.6972587
 106.9798683  26.8744602  95.2386401  98.7296379  31.7231661 107.5513143
  99.0383505  31.4780807 108.4235843  99.5271861  31.9278299 107.0632014
  98.7516991  33.8769570  99.7818520  98.3121981  33.3845949 100.4751377
  99.5025108  33.3342538  99.5410595  91.2309330  30.0681111  99.7843148
  92.0567350  29.7684883  99.4041792  90.8803382  29.2988733 100.2332937
  96.1990863  29.4207579 101.8540822  95.5770872  28.7578284 101.5543050
  96.8695730  29.4468711 101.1714469  89.4317935  27.9867437 100.7432082
  88.5949843  27.5589612 100.5616083  89.4041580  28.1799881 101.6802873
  95.7604370  27.9711503  95.3299282  95.9092490  28.6546967  94.6765955
  96.5670813  27.9516593  95.8448738  93.5157003  23.9976680  96.3360351
  93.2703045  23.0939010  96.5340561  93.6852917  23.9993831  95.3939829
  92.7852650  19.7305038  93.8346513  92.0921895  19.8049393  93.1786549
  92.5404402  18.9665381  94.3568029  99.2599775  30.4659633  92.8011030
  98.6873743  31.0849820  92.3481501  99.8332569  31.0158995  93.3350952
 102.4797035  30.7496783  93.9319612 103.4127708  30.6842345  94.1352487
 102.3920248  31.5853050  93.4734145 105.1085052  30.0662654  90.8923559
 105.0298683  29.7322517  91.7859317 105.9294719  30.5584421  90.8915032
  99.6446574  21.8020446  90.1427082 100.5905679  21.6726654  90.2115500
  99.2660819  21.0635108  90.6196510  97.8289491  19.7270422  90.0781967
  96.9220947  19.4303535  90.1544681  98.1065472  19.4300240  89.2116254
  88.7467431  21.0476786 100.5281014  88.4270216  20.1942094 100.2355388
  88.2000860  21.2625364 101.2838981  92.5247339  23.7639227 104.2450520
  92.7433349  24.6956334 104.2638554  92.9373113  23.4047201 105.0305324
  99.4451557  14.2707312  96.2326209  98.6352285  13.9254397  96.6081455
 100.1335974  13.9614856  96.8213820 101.3742105  13.3485359  97.8550505
 101.9273144  13.7680812  98.5140528 101.6112191  12.4221107  97.8973461
  96.5988276  16.5857357  90.2193947  97.4607440  16.9112256  90.4789764
  96.7838620  15.7988853  89.7067012  88.6155691  24.6679697 102.4974135
  87.9219163  24.2533650 101.9844090  89.3628682  24.7100234 101.9007554
 104.7520912  15.4585884  97.3629170 104.1719581  16.1170688  96.9807222
 104.4856845  14.6363228  96.9516587  90.5292434  24.5997951 100.3740150
  90.5063122  24.6985638  99.4222033  90.8393071  25.4463102 100.6957316
  93.1879812  26.6574106 104.4886765  94.1423065  26.6258048 104.4216696
  92.9892335  26.1964730 105.3036991  93.7779194  25.2275222 107.0557562
  94.5972083  25.7219301 107.0792400  94.0516002  24.3107190 107.0275130
 103.5345790  17.6185974  96.4185518 102.6471645  17.9035625  96.2005713
 103.9499779  17.4579738  95.5712795  91.5430041  32.1993725 101.5056962
  91.4084509  31.4394126 100.9394961  91.1262103  32.9234625 101.0385751
 102.6789004  27.3830649  90.5133538 103.3824854  27.5880651  91.1291193
 101.9551652  27.9507411  90.7782621 103.5086814  23.1340510  96.6335808
 103.4522015  23.5909062  95.7943440 104.0615156  22.3731195  96.4558651
 107.3191620  18.9230242  97.4585927 107.0628554  18.5226878  98.2894135
 106.6944488  19.6374036  97.3336067  94.6999167  33.0963042 101.7175405
  94.5831551  34.0408475 101.6154095  93.8791613  32.7936604 102.1061204
 104.5875701  27.8213178  92.5631998 105.4221305  27.3894377  92.3809473
 104.4260044  27.6495192  93.4908892 104.2421593  24.3245291  93.9288337
 104.1870397  24.1589563  92.9876781 103.6167649  25.0321324  94.0850527
  89.0314108  19.5613356 107.7549759  89.6772972  19.0512310 108.2436985
  88.8231259  20.2982037 108.3293185  97.5517719  13.8253400  93.5073656
  97.5396389  14.7695240  93.6641926  98.4441141  13.6423546  93.2133117
  95.7253681  33.7491304 104.9331334  96.6280927  33.7814915 105.2497829
  95.4991051  32.8191755 104.9477669  97.4807283  32.5022291 101.5941412
  96.5302914  32.5024152 101.4805784  97.7839769  31.7555025 101.0777447
 113.2159976  38.3382829 102.6587175 113.8538386  38.2189577 101.9550515
 113.0980819  39.2863673 102.7175127 110.0249682  38.2910257 102.5948699
 109.6868194  38.1751322 101.7069234 110.8939451  37.8901422 102.5749705
 105.8836498  40.1445734  98.5845590 105.3201363  40.0535671  97.8161878
 105.7688893  39.3245638  99.0648083 103.4300930  41.6396925 101.4229811
 104.2222222  41.2987750 101.0076110 103.6697580  41.7491900 102.3431964
 111.4636057  43.8116701  93.8960055 110.8124037  44.3970782  93.5094069
 112.2580420  44.3422896  93.9555093 105.3891684  40.9005839  94.2947189
 106.1622560  40.3534826  94.1560065 105.7417083  41.7650088  94.5061651
 107.2276727  42.2282221 107.5014089 106.9366593  43.1327852 107.3860755
 107.8633711  42.2698748 108.2158158 108.1532933  39.6059069 104.0915448
 108.7496506  39.3815092 103.3772411 108.2107905  38.8643815 104.6940896
 107.7257962  37.0598505  91.9265639 107.9783483  36.5380026  91.1649102
 106.7882521  36.8964650  92.0292323 112.7701245  36.0634283  99.7340383
 113.5564334  35.6453706  99.3830800 113.0339949  36.9680375  99.9022031
 112.9411322  41.5007133  94.4329039 112.3057155  41.5741760  95.1449944
 112.6108728  42.0900732  93.7548119 107.4454251  38.9626611  94.1290014
 107.3290509  38.2871514  94.7971099 107.5556510  38.4758985  93.3122167
 109.7885792  38.4236758  97.8336704 109.4243999  37.8967379  98.5449625
 110.6452907  38.0335227  97.6603189 109.4291279  33.4526657  92.8298052
 109.5965681  34.3206894  93.1968523 109.2388448  33.6153939  91.9059341
 112.1866612  41.9143636 104.4963882 111.8867335  42.8168675 104.3879690
 111.8417671  41.6475820 105.3485035 105.6379093  38.3657433 100.5300587
 104.7129590  38.2333647 100.7378279 105.8863506  39.1451652 101.0270529
 109.4080499  35.9084315  93.8144719 109.2880125  36.3541366  94.6530199
 108.7133088  36.2569633  93.2558257 102.9987904  38.0090707 101.3644376
 103.1280285  38.2625186 102.2783788 102.3185356  38.6018415 101.0449031
 107.1687392  48.6787957  97.4634850 107.0911421  49.6295782  97.5423331
 106.5649035  48.3333829  98.1209776 115.1065566  36.3805788  94.6425053
 116.0183422  36.6133175  94.4672751 114.5975213  36.9642832  94.0800132
 107.9150994  38.6601276 109.6814184 108.6565678  39.1986319 109.4049008
 107.2087979  39.2867564 109.8385736 109.7437403  35.7403023 105.6519903
 110.5898598  36.1642436 105.7954552 109.6836041  35.0836647 106.3458466
 113.7135148  41.3631607 102.0338634 113.0844010  41.5277321 101.3314702
 113.3260810  41.7773216 102.8049598 117.5924380  42.2986044  99.3882998
 116.9075418  42.6784946  98.8380032 117.6768229  42.9081371 100.1214946
 109.2663110  41.1006015  99.2988720 109.7301455  41.3793718  98.5093342
 109.0019908  40.1989459  99.1161810 106.1587191  40.6477496 102.2368483
 106.7288548  41.0764765 101.5985967 106.7495303  40.3660081 102.9352668
 108.2031996  37.2229167  96.1078285 108.9056039  37.6750211  96.5752211
 107.8712624  36.5812986  96.7358178 101.9457330  35.4812720 101.4095418
 101.1556384  35.7370248 100.9335529 102.4368577  36.2961058 101.5147459
 115.9621139  42.8217959 104.1600699 116.7838583  42.4198146 103.8783381
 115.9583542  42.7186193 105.1116815 103.8972075  35.8457299  98.3678895
 103.1003238  35.9575993  98.8862391 103.6697667  36.1843951  97.5019785
 109.7277743  42.3702002 106.3161410 109.7922175  42.8322409 107.1519581
 109.0188667  41.7399367 106.4443719 100.2295033  35.7343210 103.8410409
 100.4803071  36.6190220 104.1067985 100.7654581  35.5547812 103.0685501
 109.4425760  44.0370110  96.1840390 109.3071435  44.8821645  96.6125238
 109.9835573  44.2389387  95.4206324 102.8955158  41.5545548  96.7568315
 103.4079678  42.3488798  96.9073880 103.5477871  40.8571838  96.6901916
 104.7050043  44.6711304  98.8391068 104.8816671  45.5929269  98.6512052
 105.5006876  44.3569723  99.2685448 103.9902399  36.7175936 108.7153231
 103.8755914  35.8161193 109.0160330 103.1346917  36.9639633 108.3638048
 111.0694237  44.6593676 110.3140732 110.6258091  43.8730055 109.9961636
 111.7311450  44.8472827 109.6484623 105.8281358  46.1889478 104.8401410
 106.3788783  46.0606541 104.0678404 104.9892834  46.4884367 104.4896303
 109.6248529  42.4540606 109.1845642 110.1576866  41.6928894 108.9544950
 109.0962610  42.1614257 109.9269796 100.8604075  39.8834202  97.5327886
 101.6979297  40.2931210  97.3161593 101.0382342  38.9433644  97.5028079
 112.7568507  37.5509283  93.2211718 112.2415130  38.3213887  93.4600106
 112.4845815  36.8774419  93.8444780 110.3415618  32.3958983  98.2796957
 109.4857214  32.0065834  98.1002596 110.7542569  32.4750944  97.4196742
 108.1157650  30.0144056 101.6854698 108.9810647  29.8186865 101.3260588
 108.1835159  29.7854408 102.6124055 117.7302781  40.3041637  95.1564892
 116.9532224  39.9652797  94.7120054 118.4094262  40.3094260  94.4819857
 112.5454810  35.4236375  95.0471500 112.2404945  35.7382524  95.8981643
 113.4985252  35.5017795  95.0898833 110.9901242  41.5826598  96.6964454
 110.4622603  40.8479358  96.3837691 110.4888744  42.3601274  96.4504422
 115.9694088  39.7775619 101.8131500 115.3117762  40.4674880 101.9011629
 116.7734487  40.1672050 102.1565486 105.7219969  32.2446264  99.0571065
 106.2963721  32.0221446  98.3244258 106.3090952  32.3134959  99.8099666
 114.7799547  38.1319991  99.8635442 115.2931428  38.7649983 100.3657151
 115.4300770  37.5321187  99.4978802 106.0489556  34.2750725  93.0766950
 105.2126869  34.6125412  93.3976225 105.9094326  34.1399705  92.1394087
 108.0242637  29.1187513  97.7846135 107.3707049  28.8036530  97.1602749
 107.9823111  28.4963254  98.5105958 109.1353842  39.4006808  89.6999427
 108.2280904  39.1696062  89.8990576 109.6324874  38.6044428  89.8873408
 112.0421921  48.1104316  92.6196113 111.3683620  48.4136012  93.2281071
 112.4287743  48.9133396  92.2701570 111.2580377  35.6069447 102.1093782
 110.3402939  35.8284394 101.9515470 111.6740521  35.6815757 101.2505490
 112.0415425  37.0060862  97.2396462 112.7887244  37.5182260  96.9303585
 112.3107015  36.6844915  98.1000856 110.3142075  39.5019403  94.2223417
 109.4053295  39.2178436  94.3195887 110.3437159  39.9218482  93.3626724
 115.5461343  43.1125993  97.9914584 115.0923670  42.2716903  98.0479775
 114.9155309  43.7487391  98.3289364 114.4894262  34.0417979  99.2215252
 113.7517019  33.5295365  99.5525494 114.7421036  33.6018360  98.4098529
 113.9894282  44.9502489  98.9264402 114.2817256  45.5107546  98.2076768
 114.4992903  45.2431050  99.6817562 100.8830246  37.2224917  98.2038619
 100.6854646  36.6294278  97.4789686 100.3276910  36.9177128  98.9214558
 108.8626969  37.1148024 100.3233212 108.9175579  36.1621860 100.2475689
 108.0518171  37.2707463 100.8074511 110.0118163  41.0428147  91.5611495
 109.5737593  40.3264006  91.1017133 110.7528604  41.2704262  90.9996587
 106.8019329  35.7325084  98.0823591 105.9887195  36.0319254  98.4888783
 107.2978323  35.3380772  98.7998073 108.9527907  45.7282840 100.0157856
 108.9104086  45.9543687  99.0866388 109.8690606  45.4946215 100.1643657
 118.1291278  39.3185344  97.6187814 117.9909177  39.5086940  96.6909003
 117.7727497  40.0804727  98.0755865 106.2933404  33.3043439 103.6984826
 106.9332783  33.1632198 103.0007789 105.4610935  33.0177952 103.3223428
 107.0693708  42.6045869  99.8119818 107.8634306  42.1096190  99.6102393
 106.3585400  42.0763733  99.4487524 111.8888552  44.9863965 104.1632186
 111.9425575  45.5554901 104.9309902 111.0203334  45.1565850 103.7986223
 103.3776471  36.7488951  95.8879571 102.4474060  36.6873407  96.1049533
 103.4733943  36.2264904  95.0916212 103.2962020  33.2743764  98.4757813
 103.5568838  34.1889097  98.3666973 104.1179193  32.8068207  98.6254426
 104.7686946  34.6881521 105.6456637 105.4409999  34.4798883 104.9969286
 103.9416732  34.4903607 105.2061870 110.8476652  39.1524227 105.7219118
 111.7768712  39.3035387 105.5488085 110.4267682  39.2408248 104.8667764
 109.6464984  43.1774891 103.4917655 109.5076070  42.8093676 104.3643594
 108.8579580  43.6922531 103.3201613 110.2413136  48.2783988  94.8343192
 110.4164892  47.8072031  95.6488815 109.5545924  48.9049754  95.0624453
 111.1970199  42.5556494 100.8806493 110.8620032  42.5157264 101.7764143
 110.6974145  41.8901210 100.4076903 105.1714443  37.9624124 106.4059074
 105.0334241  37.2304363 107.0070613 106.0819367  37.8733024 106.1243262
 114.1329391  39.9012529  91.1543553 113.5158561  39.1759357  91.0576606
 113.6645879  40.6621889  90.8110627 107.7996744  37.6744084 105.8942754
 108.5096362  37.0337276 105.8529372 107.7566052  37.9256978 106.8168935
 106.5125678  34.6609301 107.7138394 105.9763035  34.2100040 108.3659990
 105.9242386  34.7955210 106.9708858 104.8074221  51.4273351 101.6083052
 105.0470819  52.0591875 102.2862071 103.9643418  51.0761391 101.8948411
 105.9227937  34.1197953  90.2764857 105.0457403  33.9986754  89.9127104
 106.3985690  33.3284031  90.0243746  97.4430077  38.9075113 100.3706364
  98.1301117  38.5936843  99.7827380  97.2878205  39.8116477 100.0973616
 102.2464799  33.7965309 104.7991388 102.1622988  33.1890979 104.0641798
 101.4247505  34.2874327 104.8000884 109.3202083  47.2352473 104.0124556
 109.2472255  48.0407445 104.5243861 108.8779476  47.4344439 103.1872578
 109.1091863  46.4724243  97.5227378 108.3259385  47.0145923  97.6165602
 109.8084608  46.9898223  97.9221619 112.4188513  32.2818873 100.1661583
 112.9157212  31.5288835  99.8462653 111.6475494  32.3183189  99.6004792
 111.7800767  47.1339307 106.1682715 112.4928739  47.7686772 106.0958616
 111.2890795  47.2303173 105.3522717 113.5018294  41.0390560  97.7400006
 112.5674572  41.1592022  97.5704711 113.6794962  40.1363027  97.4760016
 109.0023482  34.4236256  99.8933268 108.6321269  33.8707296 100.5814173
 109.4982574  33.8194389  99.3408268 116.8890845  36.8807879  98.2750041
 117.3551297  37.7135871  98.2010343 117.3398345  36.4152861  98.9795299
 106.8312680  44.8833751 106.9888286 107.5322140  45.5170234 107.1417680
 106.3607795  45.2248482 106.2283925 114.9567076  43.2251700  95.2736193
 115.2326920  43.1108295  96.1830067 114.0871575  42.8269185  95.2348366
 111.5921140  47.4738051  98.9169006 111.7743535  46.6559707  99.3796759
 112.4154126  47.6905744  98.4793896 111.9263305  46.4006236  96.1784055
 112.4551072  45.8898691  95.5654217 112.1891525  46.0848767  97.0429588
 102.4280398  44.4170106 103.9219388 103.0133835  43.6713794 104.0547293
 102.2305237  44.7274062 104.8056052 105.2819053  47.4521353  98.9381831
 104.6129429  47.9367481  98.4545871 105.1431923  47.6990574  99.8525209
  97.0198053  36.9875706 102.6423831  97.0582152  36.4539297 103.4360950
  96.5138346  36.4610911 102.0234809 109.4224322  49.4865097 105.5364489
 109.9742630  49.6496718 106.3013574 109.7630515  50.0769534 104.8644514
 104.3988815  31.8340246 106.1386374 104.4630142  32.6955077 105.7263771
 104.3355935  31.2214248 105.4058732 100.6506631  35.7139808  95.7177763
 100.9460072  34.8050486  95.6644817  99.7494666  35.6927548  95.3958765
 112.5592709  47.4347072 102.5228171 112.4343849  46.6336812 102.0139117
 113.2171800  47.9293266 102.0342141 104.1800878  33.7895805 101.7005311
 103.4587463  34.4031772 101.5612785 104.9694133  34.3253569 101.6221957
 114.6227618  45.2356092 104.1507721 113.6757953  45.1161443 104.0786048
 114.9710391  44.3478590 104.2333983 102.3794472  33.3953906  95.8417088
 102.0507178  32.5151285  95.6592194 102.7333843  33.3401574  96.7293477
 111.6274051  45.0308808 100.3512074 111.4799013  44.1025516 100.5319644
 112.4527544  45.0528899  99.8669149 105.4936295  33.6826876  96.2092566
 105.8332368  34.2112797  95.4871174 105.9408416  34.0207282  96.9851132
 115.2308173  45.8537367 101.4376946 116.1554720  45.6480229 101.3001397
 115.0623476  45.6053768 102.3466288 107.4804442  32.1801497  94.4085858
 108.2012805  32.5582750  93.9049575 106.8569747  32.8990374  94.5120836
 111.6235565  32.8846646  95.3444191 111.8399180  33.7671284  95.0433019
 111.1429632  32.4932859  94.6149833 106.3634787  35.8432359 101.9214935
 106.2179367  36.1572662 102.8139217 105.8859990  36.4617260 101.3685834
 108.2231170  32.8334907 101.9695825 108.2092738  31.9376001 101.6328123
 108.9403598  32.8405571 102.6034111 110.0757300  33.2672248 104.0148952
 109.8175078  34.1889318 104.0133283 109.5442341  32.8702682 104.7049416
 115.0203489  46.3723035  96.7939038 115.1940367  45.8069457  96.0412890
 115.5132380  47.1723930  96.6118528 100.8380449  38.3837704 104.8602597
 100.2933917  39.1597512 104.9922871 101.7159799  38.7308508 104.7021718
 107.6268065  31.7149288  97.2383395 107.7483977  30.7865934  97.4374283
 107.3370108  31.7287974  96.3261710 110.4959256  29.4004198 100.3750115
 110.5180953  29.4643531  99.4202094 110.9127315  28.5608707 100.5690621
 120.8742880  39.1359458  98.4129337 121.3174026  38.3866783  98.0148461
 119.9969390  39.1269594  98.0303069 116.0078662  45.6889799  93.8935936
 116.7029566  46.3096492  94.1123251 116.3501812  44.8385150  94.1688314
 101.6246471  37.5107600 107.7532753 100.8828207  37.6590235 108.3397384
 101.3039215  37.7715866 106.8899503 117.9070085  43.1389505  95.4223267
 118.4321409  43.4776777  94.6972587 117.8192437  42.2036520  95.2386401
 109.5690133  47.0523578 107.5513143 109.8777260  46.8072725 108.4235843
 110.3665615  47.2570217 107.0632014 109.5910745  49.2061488  99.7818520
 109.1515736  48.7137867 100.4751377 110.3418862  48.6634455  99.5410595
 102.0703084  45.3973029  99.7843148 102.8961104  45.0976801  99.4041792
 101.7197136  44.6280651 100.2332937 107.0384618  44.7499497 101.8540822
 106.4164627  44.0870202 101.5543050 107.7089484  44.7760629 101.1714469
 100.2711689  43.3159355 100.7432082  99.4343598  42.8881530 100.5616083
 100.2435335  43.5091798 101.6802873 106.5998124  43.3003420  95.3299282
 106.7486245  43.9838885  94.6765955 107.4064568  43.2808510  95.8448738
 104.3550757  39.3268598  96.3360351 104.1096799  38.4230928  96.5340561
 104.5246672  39.3285748  95.3939829 103.6246405  35.0596955  93.8346513
 102.9315650  35.1341310  93.1786549 103.3798157  34.2957299  94.3568029
 110.0993530  45.7951551  92.8011030 109.5267497  46.4141738  92.3481501
 110.6726324  46.3450912  93.3350952 113.3190790  46.0788701  93.9319612
 114.2521463  46.0134263  94.1352487 113.2314003  46.9144968  93.4734145
 115.9478806  45.3954571  90.8923559 115.8692438  45.0614435  91.7859317
 116.7688473  45.8876339  90.8915032 110.4840328  37.1312363  90.1427082
 111.4299433  37.0018572  90.2115500 110.1054573  36.3927025  90.6196510
 108.6683246  35.0562340  90.0781967 107.7614701  34.7595453  90.1544681
 108.9459227  34.7592158  89.2116254  99.5861186  36.3768703 100.5281014
  99.2663970  35.5234011 100.2355388  99.0394614  36.5917281 101.2838981
 103.3641094  39.0931144 104.2450520 103.5827103  40.0248252 104.2638554
 103.7766867  38.7339119 105.0305324 110.2845311  29.5999230  96.2326209
 109.4746040  29.2546315  96.6081455 110.9729728  29.2906773  96.8213820
 112.2135860  28.6777276  97.8550505 112.7666898  29.0972730  98.5140528
 112.4505946  27.7513024  97.8973461 107.4382030  31.9149275  90.2193947
 108.3001194  32.2404173  90.4789764 107.6232374  31.1280771  89.7067012
  99.4549446  39.9971615 102.4974135  98.7612917  39.5825568 101.9844090
 100.2022437  40.0392151 101.9007554 115.5914667  30.7877802  97.3629170
 115.0113336  31.4462606  96.9807222 115.3250599  29.9655146  96.9516587
 101.3686189  39.9289869 100.3740150 101.3456877  40.0277556  99.4222033
 101.6786825  40.7755019 100.6957316 104.0273566  41.9866024 104.4886765
 104.9816820  41.9549966 104.4216696 103.8286090  41.5256647 105.3036991
 104.6172949  40.5567140 107.0557562 105.4365838  41.0511218 107.0792400
 104.8909756  39.6399108 107.0275130 114.3739545  32.9477892  96.4185518
 113.4865400  33.2327543  96.2005713 114.7893534  32.7871655  95.5712795
 102.3823795  47.5285643 101.5056962 102.2478263  46.7686044 100.9394961
 101.9655857  48.2526543 101.0385751 113.5182758  42.7122567  90.5133538
 114.2218608  42.9172569  91.1291193 112.7945407  43.2799328  90.7782621
 114.3480568  38.4632428  96.6335808 114.2915770  38.9200979  95.7943440
 114.9008911  37.7023112  96.4558651 118.1585374  34.2522160  97.4585927
 117.9022309  33.8518795  98.2894135 117.5338242  34.9665954  97.3336067
 105.5392921  48.4254960 101.7175405 105.4225305  49.3700393 101.6154095
 104.7185367  48.1228522 102.1061204 115.4269456  43.1505096  92.5631998
 116.2615060  42.7186294  92.3809473 115.2653799  42.9787109  93.4908892
 115.0815348  39.6537209  93.9288337 115.0264152  39.4881481  92.9876781
 114.4561403  40.3613242  94.0850527  99.8707863  34.8905273 107.7549759
 100.5166726  34.3804227 108.2436985  99.6625014  35.6273955 108.3293185
 108.3911473  29.1545318  93.5073656 108.3790143  30.0987158  93.6641926
 109.2834895  28.9715464  93.2133117 106.5647435  49.0783222 104.9331334
 107.4674682  49.1106832 105.2497829 106.3384805  48.1483673 104.9477669
 108.3201037  47.8314209 101.5941412 107.3696668  47.8316070 101.4805784
 108.6233523  47.0846943 101.0777447 112.2063593  25.7488095  97.7619592
 111.4395989  25.1946581  97.9076275 112.6174298  25.8209964  98.6233744
 120.8643437  53.6202175 102.5948699 120.5261948  53.5043240 101.7069234
 121.7333205  53.2193340 102.5749705 116.7230253  55.4737651  98.5845590
 116.1595118  55.3827588  97.8161878 116.6082648  54.6537556  99.0648083
 114.2694685  56.9688843 101.4229811 115.0615977  56.6279668 101.0076110
 114.5091335  57.0783818 102.3431964 116.2285439  56.2297756  94.2947189
 117.0016315  55.6826743  94.1560065 116.5810837  57.0942006  94.5061651
 118.0670481  57.5574139 107.5014089 117.7760347  58.4619769 107.3860755
 118.7027465  57.5990666 108.2158158 118.9926688  54.9350987 104.0915448
 119.5890260  54.7107009 103.3772411 119.0501659  54.1935733 104.6940896
 118.5651716  52.3890422  91.9265639 118.8177237  51.8671944  91.1649102
 117.6276275  52.2256568  92.0292323 118.2848005  54.2918528  94.1290014
 118.1684263  53.6163432  94.7971099 118.3950265  53.8050902  93.3122167
 120.6279546  53.7528675  97.8336704 120.2637753  53.2259296  98.5449625
 121.4846662  53.3627144  97.6603189 120.2685033  48.7818575  92.8298052
 120.4359435  49.6498812  93.1968523 120.0782202  48.9445857  91.9059341
 116.4772848  53.6949351 100.5300587 115.5523344  53.5625565 100.7378279
 116.7257261  54.4743570 101.0270529 120.2474254  51.2376233  93.8144719
 120.1273879  51.6833283  94.6530199 119.5526842  51.5861550  93.2558257
 113.8381659  53.3382624 101.3644376 113.9674040  53.5917103 102.2783788
 113.1579110  53.9310332 101.0449031 118.0081146  64.0079874  97.4634850
 117.9305176  64.9587699  97.5423331 117.4042790  63.6625747  98.1209776
 118.7544748  53.9893193 109.6814184 119.4959432  54.5278237 109.4049008
 118.0481734  54.6159482 109.8385736 120.5831158  51.0694940 105.6519903
 121.4292353  51.4934354 105.7954552 120.5229795  50.4128565 106.3458466
 120.1056864  56.4297932  99.2988720 120.5695210  56.7085635  98.5093342
 119.8413662  55.5281377  99.1161810 116.9980945  55.9769414 102.2368483
 117.5682302  56.4056682 101.5985967 117.5889057  55.6951999 102.9352668
 119.0425750  52.5521085  96.1078285 119.7449794  53.0042128  96.5752211
 118.7106379  51.9104904  96.7358178 112.7851084  50.8104637 101.4095418
 111.9950138  51.0662166 100.9335529 113.2762332  51.6252975 101.5147459
 114.7365830  51.1749217  98.3678895 113.9396993  51.2867911  98.8862391
 114.5091422  51.5135869  97.5019785 120.5671497  57.6993920 106.3161410
 120.6315930  58.1614327 107.1519581 119.8582421  57.0691285 106.4443719
 111.0688787  51.0635128 103.8410409 111.3196826  51.9482138 104.1067985
 111.6048336  50.8839729 103.0685501 120.2819515  59.3662027  96.1840390
 120.1465190  60.2113563  96.6125238 120.8229327  59.5681305  95.4206324
 113.7348912  56.8837465  96.7568315 114.2473433  57.6780716  96.9073880
 114.3871625  56.1863756  96.6901916 115.5443797  60.0003222  98.8391068
 115.7210425  60.9221186  98.6512052 116.3400631  59.6861641  99.2685448
 114.8296154  52.0467854 108.7153231 114.7149669  51.1453111 109.0160330
 113.9740671  52.2931550 108.3638048 116.6675112  61.5181395 104.8401410
 117.2182538  61.3898459 104.0678404 115.8286588  61.8176284 104.4896303
 120.4642284  57.7832523 109.1845642 120.9970620  57.0220811 108.9544950
 119.9356365  57.4906175 109.9269796 111.6997829  55.2126120  97.5327886
 112.5373051  55.6223128  97.3161593 111.8776097  54.2725562  97.5028079
 121.1809372  47.7250901  98.2796957 120.3250969  47.3357752  98.1002596
 121.5936324  47.8042862  97.4196742 118.9551405  45.3435974 101.6854698
 119.8204402  45.1478783 101.3260588 119.0228914  45.1146326 102.6124055
 121.8294996  56.9118516  96.6964454 121.3016358  56.1771275  96.3837691
 121.3282499  57.6893192  96.4504422 116.5613724  47.5738182  99.0571065
 117.1357476  47.3513364  98.3244258 117.1484706  47.6426877  99.8099666
 116.8883311  49.6042643  93.0766950 116.0520623  49.9417330  93.3976225
 116.7488081  49.4691623  92.1394087 118.8636392  44.4479431  97.7846135
 118.2100804  44.1328448  97.1602749 118.8216866  43.8255171  98.5105958
 119.9747596  54.7298726  89.6999427 119.0674658  54.4987979  89.8990576
 120.4718628  53.9336345  89.8873408 121.1535830  54.8311321  94.2223417
 120.2447049  54.5470354  94.3195887 121.1830914  55.2510399  93.3626724
 111.7224000  52.5516835  98.2038619 111.5248400  51.9586196  97.4789686
 111.1670664  52.2469045  98.9214558 119.7020724  52.4439941 100.3233212
 119.7569334  51.4913778 100.2475689 118.8911926  52.5999381 100.8074511
 120.8511918  56.3720065  91.5611495 120.4131348  55.6555923  91.1017133
 121.5922358  56.5996179  90.9996587 117.6413084  51.0617001  98.0823591
 116.8280949  51.3611172  98.4888783 118.1372078  50.6672690  98.7998073
 119.7921662  61.0574758 100.0157856 119.7497840  61.2835604  99.0866388
 120.7084361  60.8238133 100.1643657 117.1327159  48.6335357 103.6984826
 117.7726538  48.4924116 103.0007789 116.3004689  48.3469870 103.3223428
 117.9087462  57.9337787  99.8119818 118.7028061  57.4388107  99.6102393
 117.1979155  57.4055650  99.4487524 114.2170226  52.0780869  95.8879571
 113.2867814  52.0165324  96.1049533 114.3127698  51.5556822  95.0916212
 114.1355775  48.6035682  98.4757813 114.3962592  49.5181015  98.3666973
 114.9572947  48.1360124  98.6254426 115.6080700  50.0173439 105.6456637
 116.2803754  49.8090801 104.9969286 114.7810487  49.8195525 105.2061870
 120.4858738  58.5066809 103.4917655 120.3469824  58.1385594 104.3643594
 119.6973335  59.0214449 103.3201613 121.0806890  63.6075906  94.8343192
 121.2558646  63.1363949  95.6488815 120.3939678  64.2341672  95.0624453
 122.0363954  57.8848412 100.8806493 121.7013786  57.8449182 101.7764143
 121.5367899  57.2193128 100.4076903 116.0108198  53.2916042 106.4059074
 115.8727995  52.5596281 107.0070613 116.9213121  53.2024942 106.1243262
 118.6390498  53.0036001 105.8942754 119.3490117  52.3629193 105.8529372
 118.5959806  53.2548896 106.8168935 117.3519432  49.9901219 107.7138394
 116.8156789  49.5391958 108.3659990 116.7636141  50.1247128 106.9708858
 115.6467976  66.7565268 101.6083052 115.8864574  67.3883793 102.2862071
 114.8037172  66.4053308 101.8948411 116.7621691  49.4489871  90.2764857
 115.8851157  49.3278671  89.9127104 117.2379444  48.6575949  90.0243746
 108.2823831  54.2367030 100.3706364 108.9694871  53.9228760  99.7827380
 108.1271960  55.1408395 100.0973616 113.0858553  49.1257227 104.7991388
 113.0016742  48.5182896 104.0641798 112.2641260  49.6166245 104.8000884
 120.1595838  62.5644391 104.0124556 120.0866009  63.3699362 104.5243861
 119.7173231  62.7636357 103.1872578 119.9485617  61.8016161  97.5227378
 119.1653139  62.3437841  97.6165602 120.6478362  62.3190141  97.9221619
 119.8417236  49.7528173  99.8933268 119.4715024  49.1999214 100.5814173
 120.3376329  49.1486307  99.3408268 117.6706435  60.2125668 106.9888286
 118.3715894  60.8462151 107.1417680 117.2001550  60.5540400 106.2283925
 113.2674153  59.7462023 103.9219388 113.8527589  59.0005711 104.0547293
 113.0698991  60.0565980 104.8056052 116.1212808  62.7813271  98.9381831
 115.4523183  63.2659398  98.4545871 115.9825678  63.0282491  99.8525209
 107.8591807  52.3167624 102.6423831 107.8975907  51.7831214 103.4360950
 107.3532100  51.7902829 102.0234809 120.2618076  64.8157014 105.5364489
 120.8136385  64.9788636 106.3013574 120.6024270  65.4061452 104.8644514
 115.2382570  47.1632164 106.1386374 115.3023896  48.0246995 105.7263771
 115.1749690  46.5506166 105.4058732 111.4900385  51.0431726  95.7177763
 111.7853826  50.1342404  95.6644817 110.5888421  51.0219465  95.3958765
 115.0194632  49.1187722 101.7005311 114.2981218  49.7323690 101.5612785
 115.8087888  49.6545487 101.6221957 113.2188227  48.7245823  95.8417088
 112.8900933  47.8443202  95.6592194 113.5727597  48.6693492  96.7293477
 116.3330050  49.0118793  96.2092566 116.6726122  49.5404714  95.4871174
 116.7802170  49.3499199  96.9851132 118.3198197  47.5093415  94.4085858
 119.0406559  47.8874668  93.9049575 117.6963501  48.2282292  94.5120836
 117.2028541  51.1724277 101.9214935 117.0573122  51.4864580 102.8139217
 116.7253745  51.7909177 101.3685834 119.0624924  48.1626825 101.9695825
 119.0486493  47.2667918 101.6328123 119.7797352  48.1697489 102.6034111
 120.9151055  48.5964165 104.0148952 120.6568833  49.5181236 104.0133283
 120.3836095  48.1994600 104.7049416 111.6774203  53.7129621 104.8602597
 111.1327671  54.4889429 104.9922871 112.5553553  54.0600426 104.7021718
 118.4661820  47.0441205  97.2383395 118.5877731  46.1157851  97.4374283
 118.1763862  47.0579891  96.3261710 121.3353010  44.7296116 100.3750115
 121.3574707  44.7935449  99.4202094 121.7521069  43.8900624 100.5690621
 112.4640225  52.8399518 107.7532753 111.7221961  52.9882153 108.3397384
 112.1432969  53.1007783 106.8899503 120.4083888  62.3815496 107.5513143
 120.7171014  62.1364643 108.4235843 121.2059370  62.5862134 107.0632014
 120.4304500  64.5353406  99.7818520 119.9909490  64.0429784 100.4751377
 121.1812617  63.9926373  99.5410595 112.9096839  60.7264946  99.7843148
 113.7354859  60.4268718  99.4041792 112.5590891  59.9572569 100.2332937
 117.8778372  60.0791415 101.8540822 117.2558381  59.4162120 101.5543050
 118.5483239  60.1052546 101.1714469 111.1105444  58.6451273 100.7432082
 110.2737352  58.2173447 100.5616083 111.0829089  58.8383716 101.6802873
 117.4391879  58.6295338  95.3299282 117.5879999  59.3130802  94.6765955
 118.2458322  58.6100428  95.8448738 115.1944512  54.6560516  96.3360351
 114.9490554  53.7522846  96.5340561 115.3640426  54.6577666  95.3939829
 114.4640159  50.3888873  93.8346513 113.7709404  50.4633228  93.1786549
 114.2191911  49.6249217  94.3568029 120.9387284  61.1243468  92.8011030
 120.3661252  61.7433656  92.3481501 121.5120078  61.6742830  93.3350952
 121.3234083  52.4604281  90.1427082 122.2693188  52.3310489  90.2115500
 120.9448328  51.7218943  90.6196510 119.5077000  50.3854258  90.0781967
 118.6008455  50.0887370  90.1544681 119.7852981  50.0884076  89.2116254
 110.4254940  51.7060621 100.5281014 110.1057725  50.8525929 100.2355388
 109.8788369  51.9209199 101.2838981 114.2034848  54.4223062 104.2450520
 114.4220858  55.3540170 104.2638554 114.6160622  54.0631036 105.0305324
 121.1239066  44.9291147  96.2326209 120.3139794  44.5838232  96.6081455
 121.8123483  44.6198691  96.8213820 118.2775785  47.2441193  90.2193947
 119.1394949  47.5696091  90.4789764 118.4626129  46.4572689  89.7067012
 110.2943200  55.3263532 102.4974135 109.6006672  54.9117485 101.9844090
 111.0416191  55.3684069 101.9007554 112.2079943  55.2581786 100.3740150
 112.1850631  55.3569473  99.4222033 112.5180579  56.1046937 100.6957316
 114.8667321  57.3157941 104.4886765 115.8210574  57.2841884 104.4216696
 114.6679844  56.8548565 105.3036991 115.4566703  55.8859057 107.0557562
 116.2759592  56.3803136 107.0792400 115.7303511  54.9691025 107.0275130
 113.2217550  62.8577561 101.5056962 113.0872018  62.0977962 100.9394961
 112.8049612  63.5818461 101.0385751 116.3786676  63.7546878 101.7175405
 116.2619060  64.6992310 101.6154095 115.5579122  63.4520439 102.1061204
 110.7101617  50.2197191 107.7549759 111.3560481  49.7096145 108.2436985
 110.5018768  50.9565873 108.3293185 119.2305228  44.4837236  93.5073656
 119.2183898  45.4279076  93.6641926 120.1228650  44.3007381  93.2133117
 117.4041190  64.4075140 104.9331334 118.3068436  64.4398750 105.2497829
 117.1778560  63.4775591 104.9477669 119.1594792  63.1606126 101.5941412
 118.2090423  63.1607988 101.4805784 119.4627278  62.4138861 101.0777447
 121.9082542  66.3927046 103.8410409 122.1590580  67.2774055 104.1067985
 122.4442090  66.2131647 103.0685501 119.1217586  69.5658948 100.3706364
 119.8088626  69.2520678  99.7827380 118.9665714  70.4700313 100.0973616
 118.6985562  67.6459541 102.6423831 118.7369661  67.1123132 103.4360950
 118.1925855  67.1194747 102.0234809 121.9499198  73.9743191 100.7432082
 121.1131107  73.5465365 100.5616083 121.9222844  74.1675634 101.6802873
 121.2648695  67.0352539 100.5281014 120.9451479  66.1817847 100.2355388
 120.7182123  67.2501117 101.2838981 121.1336955  70.6555450 102.4974135
 120.4400426  70.2409403 101.9844090 121.8809946  70.6975987 101.9007554
 121.5495372  65.5489109 107.7549759 122.1954235  65.0388063 108.2436985
 121.3412523  66.2857790 108.3293185  96.3293638  10.3558162  84.1880157
  96.2517668  11.3065987  84.2668637  95.7255282  10.0104034  84.8455083
  93.9680468  13.1043556  88.3328359  94.2077066  13.7362080  89.0107377
  93.1249664  12.7531596  88.6193718  94.4425300   9.1291558  85.6627137
  93.7735675   9.6137686  85.1791177  94.3038170   9.3760778  86.5770516
  98.5830569  11.1635302  92.2609796  99.1348877  11.3266923  93.0258881
  98.9236762  11.7539739  91.5889821  98.7516992  10.8831693  86.5063827
  98.3121982  10.3908071  87.1996683  99.5025109  10.3404660  86.2655902
  91.5430042   9.2055848  88.2302269  91.4084510   8.4456249  87.6640267
  91.1262104   9.9296748  87.7631058  94.6999168  10.1025165  88.4420712
  94.5831552  11.0470597  88.3399402  93.8791614   9.7998727  88.8306511
  95.7253682  10.7553427  91.6576640  96.6280929  10.7877037  91.9743135
  95.4991052   9.8253878  91.6722976 110.0249684  15.2972380  89.3194006
 109.6868195  15.1813445  88.4314541 110.8939452  14.8963545  89.2995012
 105.8836499  17.1507856  85.3090897 105.3201365  17.0597793  84.5407185
 105.7688894  16.3307761  85.7893389 103.4300931  18.6459048  88.1475117
 104.2222223  18.3049873  87.7321417 103.6697582  18.7554023  89.0677271
 111.4636058  20.8178824  80.6205362 110.8124038  21.4032904  80.2339376
 112.2580421  21.3485019  80.6800399 105.3891685  17.9067961  81.0192496
 106.1622561  17.3596948  80.8805372 105.7417084  18.7712211  81.2306958
 107.2276728  19.2344343  94.2259395 106.9366594  20.1389974  94.1106062
 107.8633712  19.2760871  94.9403465 108.1532935  16.6121192  90.8160755
 108.7496507  16.3877214  90.1017718 108.2107906  15.8705937  91.4186203
 107.7257963  14.0660627  78.6510946 107.9783484  13.5442149  77.8894409
 106.7882522  13.9026773  78.7537630 112.9411323  18.5069256  81.1574346
 112.3057156  18.5803882  81.8695251 112.6108730  19.0962855  80.4793425
 107.4454252  15.9688733  80.8535321 107.3290510  15.2933637  81.5216405
 107.5556512  15.4821107  80.0367474 109.7885793  15.4298880  84.5582010
 109.4244000  14.9029501  85.2694932 110.6452909  15.0397349  84.3848496
 112.1866613  18.9205759  91.2209189 111.8867336  19.8230798  91.1124996
 111.8417672  18.6537942  92.0730342 105.6379094  15.3719556  87.2545894
 104.7129591  15.2395770  87.4623585 105.8863508  16.1513775  87.7515836
 102.9987905  15.0152829  88.0889683 103.1280287  15.2687308  89.0029094
 102.3185357  15.6080537  87.7694338 107.1687393  25.6850079  84.1880157
 107.0911422  26.6357904  84.2668637 106.5649036  25.3395952  84.8455083
 107.9150995  15.6663398  96.4059491 108.6565679  16.2048442  96.1294314
 107.2087980  16.2929687  96.5631042 113.7135149  18.3693729  88.7583941
 113.0844012  18.5339443  88.0560009 113.3260811  18.7835339  89.5294905
 117.5924381  19.3048167  86.1128305 116.9075419  19.6847068  85.5625338
 117.6768230  19.9143494  86.8460253 109.2663111  18.1068137  86.0234026
 109.7301457  18.3855840  85.2338649 109.0019909  17.2051582  85.8407117
 106.1587192  17.6539619  88.9613789 106.7288549  18.0826887  88.3231274
 106.7495304  17.3722204  89.6597975 108.2031997  14.2291290  82.8323591
 108.9056040  14.6812333  83.2997518 107.8712626  13.5875109  83.4603484
 101.9457331  12.4874842  88.1340725 101.1556385  12.7432371  87.6580835
 102.4368578  13.3023180  88.2392765 115.9621141  19.8280081  90.8846006
 116.7838584  19.4260269  90.6028687 115.9583543  19.7248316  91.8362121
 103.8972076  12.8519422  85.0924202 103.1003240  12.9638116  85.6107697
 103.6697669  13.1906074  84.2265092 109.7277744  19.3764125  93.0406716
 109.7922177  19.8384532  93.8764888 109.0188668  18.7461490  93.1689026
 100.2295034  12.7405333  90.5655716 100.4803072  13.6252343  90.8313292
 100.7654582  12.5609934  89.7930807 109.4425762  21.0432232  82.9085697
 109.3071436  21.8883768  83.3370544 109.9835574  21.2451510  82.1451630
 102.8955159  18.5607670  83.4813622 103.4079680  19.3550921  83.6319186
 103.5477872  17.8633961  83.4147223 104.7050044  21.6773427  85.5636375
 104.8816672  22.5991391  85.3757359 105.5006877  21.3631846  85.9930755
 103.9902400  13.7238058  95.4398538 103.8755915  12.8223316  95.7405637
 103.1346918  13.9701755  95.0883355 111.0694238  21.6655799  97.0386039
 110.6258092  20.8792177  96.7206943 111.7311452  21.8534949  96.3729929
 105.8281359  23.1951600  91.5646717 106.3788784  23.0668664  90.7923711
 104.9892835  23.4946489  91.2141610 109.6248530  19.4602728  95.9090948
 110.1576867  18.6991016  95.6790256 109.0962611  19.1676380  96.6515103
 100.8604076  16.8896325  84.2573192 101.6979298  17.2993333  84.0406900
 101.0382344  15.9495767  84.2273386 117.7302782  17.3103760  81.8810199
 116.9532225  16.9714919  81.4365361 118.4094263  17.3156383  81.2065164
 110.9901243  18.5888721  83.4209760 110.4622605  17.8541480  83.1082998
 110.4888746  19.3663397  83.1749729 115.9694089  16.7837741  88.5376807
 115.3117763  17.4737003  88.6256935 116.7734488  17.1734173  88.8810793
 109.1353843  16.4068931  76.4244733 108.2280905  16.1758184  76.6235882
 109.6324875  15.6106550  76.6118715 112.0421922  25.1166438  79.3441419
 111.3683621  25.4198135  79.9526377 112.4287744  25.9195518  78.9946877
 110.3142077  16.5081526  80.9468723 109.4053296  16.2240559  81.0441193
 110.3437160  16.9280604  80.0872030 115.5461344  20.1188115  84.7159891
 115.0923671  19.2779025  84.7725081 114.9155311  20.7549514  85.0534671
 113.9894283  21.9564612  85.6509709 114.2817258  22.5169669  84.9322075
 114.4992904  22.2493173  86.4062868 100.8830247  14.2287040  84.9283926
 100.6854647  13.6356401  84.2034992 100.3276911  13.9239250  85.6459864
 110.0118164  18.0490269  78.2856802 109.5737594  17.3326128  77.8262439
 110.7528605  18.2766384  77.7241893 108.9527908  22.7344963  86.7403162
 108.9104087  22.9605809  85.8111694 109.8690607  22.5008338  86.8888963
 107.0693709  19.6107992  86.5365125 107.8634308  19.1158312  86.3347700
 106.3585402  19.0825855  86.1732831 111.8888554  21.9926088  90.8877493
 111.9425576  22.5617024  91.6555209 111.0203335  22.1627973  90.5231530
 103.3776473  13.7551074  82.6124878 102.4474061  13.6935529  82.8294840
 103.4733945  13.2327027  81.8161519 110.8476653  16.1586350  92.4464424
 111.7768713  16.3097509  92.2733392 110.4267683  16.2470370  91.5913071
 109.6464985  20.1837014  90.2162962 109.5076071  19.8155798  91.0888900
 108.8579581  20.6984654  90.0446920 110.2413137  25.2846111  81.5588499
 110.4164893  24.8134154  82.3734121 109.5545925  25.9111877  81.7869759
 111.1970200  19.5618617  87.6051800 110.8620033  19.5219387  88.5009450
 110.6974146  18.8963333  87.1322210 105.1714444  14.9686247  93.1304381
 105.0334242  14.2366486  93.7315920 106.0819368  14.8795147  92.8488569
 114.1329392  16.9074651  77.8788860 113.5158563  16.1821479  77.7821912
 113.6645880  17.6684011  77.5355934 107.7996745  14.6806206  92.6188061
 108.5096364  14.0399398  92.5774679 107.7566053  14.9319101  93.5414241
 104.8074222  28.4335473  88.3328359 105.0470821  29.0653997  89.0107377
 103.9643419  28.0823513  88.6193718  97.4430078  15.9137235  87.0951671
  98.1301118  15.5998965  86.5072686  97.2878207  16.8178600  86.8218922
 109.3202084  24.2414596  90.7369863 109.2472256  25.0469567  91.2489167
 108.8779477  24.4406562  89.9117884 109.1091864  23.4786366  84.2472684
 108.3259386  24.0208046  84.3410909 109.8084609  23.9960345  84.6466926
 111.7800768  24.1401430  92.8928021 112.4928740  24.7748895  92.8203923
 111.2890796  24.2365296  92.0768023 113.5018295  18.0452682  84.4645313
 112.5674573  18.1654145  84.2950017 113.6794963  17.1425149  84.2005323
 106.8312681  21.8895873  93.7133592 107.5322141  22.5232356  93.8662986
 106.3607796  22.2310605  92.9529232 114.9567077  20.2313823  81.9981499
 115.2326921  20.1170418  82.9075373 114.0871576  19.8331308  81.9593672
 111.5921141  24.4800174  85.6414313 111.7743536  23.6621830  86.1042065
 112.4154127  24.6967866  85.2039203 111.9263307  23.4068359  82.9029361
 112.4551073  22.8960814  82.2899524 112.1891526  23.0910889  83.7674894
 102.4280399  21.4232228  90.6464695 103.0133836  20.6775916  90.7792599
 102.2305238  21.7336185  91.5301359 105.2819055  24.4583476  85.6627137
 104.6129430  24.9429603  85.1791177 105.1431924  24.7052696  86.5770516
  97.0198054  13.9937829  89.3669138  97.0582154  13.4601419  90.1606256
  96.5138347  13.4673034  88.7480115 109.4224323  26.4927219  92.2609796
 109.9742631  26.6558841  93.0258881 109.7630517  27.0831657  91.5889821
 100.6506632  12.7201931  82.4423069 100.9460073  11.8112609  82.3890123
  99.7494668  12.6989670  82.1204072 112.5592711  24.4409195  89.2473478
 112.4343850  23.6398935  88.7384423 113.2171802  24.9355388  88.7587448
 114.6227619  22.2418215  90.8753028 113.6757954  22.1223566  90.8031355
 114.9710392  21.3540713  90.9579289 111.6274052  22.0370931  87.0757380
 111.4799015  21.1087638  87.2564950 112.4527546  22.0591022  86.5914455
 115.2308174  22.8599490  88.1622253 116.1554722  22.6542351  88.0246704
 115.0623477  22.6115891  89.0711594 106.3634788  12.8494482  88.6460242
 106.2179369  13.1634785  89.5384524 105.8859992  13.4679382  88.0931141
 115.0203490  23.3785157  83.5184344 115.1940368  22.8131580  82.7658197
 115.5132382  24.1786052  83.3363834 100.8380450  15.3899826  91.5847903
 100.2933918  16.1659634  91.7168178 101.7159800  15.7370631  91.4267025
 116.0078663  22.6951922  80.6181243 116.7029567  23.3158614  80.8368557
 116.3501813  21.8447273  80.8933621 101.6246472  14.5169723  94.4778060
 100.8828208  14.6652358  95.0642690 101.3039216  14.7777988  93.6144809
 117.9070086  20.1451627  82.1468573 118.4321410  20.4838900  81.4217893
 117.8192438  19.2098642  81.9631708 109.5690135  24.0585701  94.2758450
 109.8777261  23.8134848  95.1481150 110.3665617  24.2632339  93.7877320
 109.5910747  26.2123610  86.5063827 109.1515737  25.7199989  87.1996683
 110.3418864  25.6696578  86.2655902 102.0703086  22.4035151  86.5088455
 102.8961106  22.1038923  86.1287098 101.7197138  21.6342774  86.9578243
 107.0384619  21.7561620  88.5786128 106.4164628  21.0932325  88.2788356
 107.7089486  21.7822751  87.8959776 100.2711691  20.3221478  87.4677388
  99.4343599  19.8943652  87.2861390 100.2435336  20.5153921  88.4048179
 106.5998126  20.3065543  82.0544589 106.7486246  20.9901007  81.4011262
 107.4064569  20.2870633  82.5694045 104.3550759  16.3330720  83.0605658
 104.1096801  15.4293050  83.2585868 104.5246673  16.3347871  82.1185136
 110.0993531  22.8013673  79.5256336 109.5267498  23.4203860  79.0726808
 110.6726325  23.3513035  80.0596258 113.3190791  23.0850823  80.6564919
 114.2521464  23.0196385  80.8597794 113.2314004  23.9207090  80.1979451
 115.9478808  22.4016694  77.6168866 115.8692439  22.0676557  78.5104624
 116.7688474  22.8938462  77.6160338  99.5861187  13.3830826  87.2526320
  99.2663972  12.5296134  86.9600694  99.0394615  13.5979404  88.0084288
 103.3641095  16.0993267  90.9695827 103.5827105  17.0310375  90.9883861
 103.7766869  15.7401241  91.7550631  99.4549447  17.0033737  89.2219442
  98.7612919  16.5887690  88.7089396 100.2022438  17.0454274  88.6252861
 101.3686190  16.9351991  87.0985457 101.3456878  17.0339678  86.1467340
 101.6786826  17.7817142  87.4202623 104.0273568  18.9928146  91.2132071
 104.9816821  18.9612088  91.1462003 103.8286091  18.5318770  92.0282297
 104.6172950  17.5629262  93.7802869 105.4365839  18.0573341  93.8037706
 104.8909757  16.6461230  93.7520436 102.3823796  24.5347766  88.2302269
 102.2478264  23.7748167  87.6640267 101.9655859  25.2588666  87.7631058
 113.5182759  19.7184689  77.2378844 114.2218610  19.9234692  77.8536500
 112.7945408  20.2861451  77.5027928 105.5392922  25.4317083  88.4420712
 105.4225306  26.3762515  88.3399402 104.7185369  25.1290644  88.8306511
 115.4269457  20.1567218  79.2877304 116.2615061  19.7248417  79.1054779
 115.2653800  19.9849232  80.2154199 115.0815349  16.6599332  80.6533644
 115.0264153  16.4943603  79.7122088 114.4561404  17.3675365  80.8095833
  99.8707864  11.8967396  94.4795066 100.5166728  11.3866350  94.9682291
  99.6625015  12.6336078  95.0538491 106.5647436  26.0845345  91.6576640
 107.4674683  26.1168955  91.9743135 106.3384807  25.1545796  91.6722976
 108.3201038  24.8376331  88.3186719 107.3696669  24.8378193  88.2051091
 108.6233525  24.0909066  87.8022753 120.8643438  30.6264298  89.3194006
 120.5261950  30.5105362  88.4314541 121.7333206  30.2255463  89.2995012
 116.7230254  32.4799774  85.3090897 116.1595119  32.3889711  84.5407185
 116.6082649  31.6599678  85.7893389 114.2694686  33.9750966  88.1475117
 115.0615978  33.6341790  87.7321417 114.5091336  34.0845941  89.0677271
 116.2285440  33.2359879  81.0192496 117.0016316  32.6888866  80.8805372
 116.5810839  34.1004128  81.2306958 118.0670482  34.5636261  94.2259395
 117.7760348  35.4681892  94.1106062 118.7027467  34.6052789  94.9403465
 118.9926689  31.9413110  90.8160755 119.5890261  31.7169132  90.1017718
 119.0501661  31.1997855  91.4186203 118.5651718  29.3952545  78.6510946
 118.8177238  28.8734066  77.8894409 117.6276277  29.2318690  78.7537630
 118.2848006  31.2980651  80.8535321 118.1684264  30.6225554  81.5216405
 118.3950266  30.8113025  80.0367474 120.6279547  30.7590798  84.5582010
 120.2637755  30.2321419  85.2694932 121.4846663  30.3689267  84.3848496
 120.2685034  25.7880698  79.5543359 120.4359437  26.6560934  79.9213830
 120.0782203  25.9507979  78.6304648 116.4772849  30.7011473  87.2545894
 115.5523345  30.5687688  87.4623585 116.7257262  31.4805693  87.7515836
 120.2474255  28.2438355  80.5390026 120.1273880  28.6895406  81.3775506
 119.5526844  28.5923673  79.9803564 113.8381660  30.3444747  88.0889683
 113.9674041  30.5979226  89.0029094 113.1579111  30.9372455  87.7694338
 118.0081147  41.0141997  84.1880157 117.9305177  41.9649822  84.2668637
 117.4042791  40.6687869  84.8455083 118.7544749  30.9955316  96.4059491
 119.4959434  31.5340360  96.1294314 118.0481735  31.6221605  96.5631042
 120.5831159  28.0757063  92.3765209 121.4292354  28.4996477  92.5199858
 120.5229797  27.4190687  93.0703772 120.1056865  33.4360055  86.0234026
 120.5695211  33.7147758  85.2338649 119.8413664  32.5343500  85.8407117
 116.9980947  32.9831536  88.9613789 117.5682304  33.4118805  88.3231274
 117.5889058  32.7014121  89.6597975 119.0425752  29.5583207  82.8323591
 119.7449795  30.0104251  83.2997518 118.7106380  28.9167026  83.4603484
 112.7851085  27.8166760  88.1340725 111.9950139  28.0724289  87.6580835
 113.2762333  28.6315098  88.2392765 114.7365831  28.1811339  85.0924202
 113.9396994  28.2930033  85.6107697 114.5091423  28.5197991  84.2265092
 120.5671498  34.7056042  93.0406716 120.6315931  35.1676450  93.8764888
 119.8582422  34.0753407  93.1689026 111.0688788  28.0697250  90.5655716
 111.3196827  28.9544260  90.8313292 111.6048337  27.8901852  89.7930807
 120.2819516  36.3724150  82.9085697 120.1465191  37.2175686  83.3370544
 120.8229329  36.5743428  82.1451630 113.7348914  33.8899588  83.4813622
 114.2473434  34.6842838  83.6319186 114.3871626  33.1925878  83.4147223
 115.5443798  37.0065344  85.5636375 115.7210427  37.9283309  85.3757359
 116.3400632  36.6923763  85.9930755 114.8296155  29.0529976  95.4398538
 114.7149670  28.1515233  95.7405637 113.9740673  29.2993673  95.0883355
 116.6675114  38.5243518  91.5646717 117.2182539  38.3960581  90.7923711
 115.8286590  38.8238407  91.2141610 120.4642285  34.7894646  95.9090948
 120.9970622  34.0282934  95.6790256 119.9356366  34.4968298  96.6515103
 111.6997830  32.2188242  84.2573192 112.5373052  32.6285251  84.0406900
 111.8776098  31.2787684  84.2273386 121.1809373  24.7313024  85.0042263
 120.3250970  24.3419874  84.8247902 121.5936325  24.8104985  84.1442049
 118.9551406  22.3498097  88.4100005 119.8204403  22.1540905  88.0505894
 119.0228915  22.1208448  89.3369362 121.8294997  33.9180638  83.4209760
 121.3016359  33.1833398  83.1082998 121.3282500  34.6955315  83.1749729
 116.5613725  24.5800305  85.7816372 117.1357477  24.3575486  85.0489565
 117.1484708  24.6488999  86.5344973 116.8883312  26.6104766  79.8012257
 116.0520624  26.9479452  80.1221532 116.7488082  26.4753745  78.8639394
 118.8636393  21.4541554  84.5091441 118.2100805  21.1390571  83.8848056
 118.8216867  20.8317294  85.2351264 119.9747598  31.7360849  76.4244733
 119.0674659  31.5050102  76.6235882 120.4718630  30.9398468  76.6118715
 121.1535831  31.8373443  80.9468723 120.2447050  31.5532476  81.0441193
 121.1830915  32.2572522  80.0872030 111.7224001  29.5578958  84.9283926
 111.5248401  28.9648318  84.2034992 111.1670665  29.2531168  85.6459864
 119.7020725  29.4502064  87.0478519 119.7569335  28.4975900  86.9720995
 118.8911927  29.6061503  87.5319817 120.8511919  33.3782187  78.2856802
 120.4131349  32.6618046  77.8262439 121.5922360  33.6058302  77.7241893
 117.6413085  28.0679124  84.8068898 116.8280951  28.3673294  85.2134090
 118.1372079  27.6734813  85.5243380 119.7921663  38.0636881  86.7403162
 119.7497842  38.2897727  85.8111694 120.7084362  37.8300255  86.8888963
 117.1327160  25.6397479  90.4230133 117.7726539  25.4986238  89.7253096
 116.3004690  25.3531993  90.0468735 117.9087464  34.9399910  86.5365125
 118.7028062  34.4450230  86.3347700 117.1979156  34.4117773  86.1732831
 114.2170227  29.0842992  82.6124878 113.2867815  29.0227447  82.8294840
 114.3127699  28.5618944  81.8161519 114.1355776  25.6097804  85.2003119
 114.3962594  26.5243138  85.0912280 114.9572949  25.1422247  85.3499732
 115.6080702  27.0235562  92.3701944 116.2803755  26.8152924  91.7214593
 114.7810488  26.8257648  91.9307176 120.4858740  35.5128932  90.2162962
 120.3469825  35.1447716  91.0888900 119.6973336  36.0276571  90.0446920
 121.0806892  40.6138028  81.5588499 121.2558647  40.1426071  82.3734121
 120.3939680  41.2403794  81.7869759 122.0363955  34.8910534  87.6051800
 121.7013787  34.8511304  88.5009450 121.5367901  34.2255250  87.1322210
 116.0108199  30.2978164  93.1304381 115.8727997  29.5658403  93.7315920
 116.9213122  30.2087065  92.8488569 118.6390499  30.0098124  92.6188061
 119.3490118  29.3691316  92.5774679 118.5959808  30.2611019  93.5414241
 117.3519433  26.9963342  94.4383700 116.8156790  26.5454080  95.0905297
 116.7636142  27.1309251  93.6954165 115.6467977  43.7627391  88.3328359
 115.8864575  44.3945915  89.0107377 114.8037173  43.4115431  88.6193718
 116.7621692  26.4551993  77.0010164 115.8851159  26.3340794  76.6372410
 117.2379445  25.6638071  76.7489052 108.2823833  31.2429153  87.0951671
 108.9694872  30.9290883  86.5072686 108.1271961  32.1470517  86.8218922
 113.0858555  26.1319349  91.5236695 113.0016743  25.5245019  90.7887105
 112.2641261  26.6228368  91.5246191 120.1595839  39.5706513  90.7369863
 120.0866010  40.3761485  91.2489167 119.7173232  39.7698479  89.9117884
 119.9485618  38.8078283  84.2472684 119.1653140  39.3499964  84.3410909
 120.6478364  39.3252263  84.6466926 119.8417237  26.7590296  86.6178574
 119.4715025  26.2061336  87.3059480 120.3376330  26.1548429  86.0653574
 117.6706436  37.2187791  93.7133592 118.3715895  37.8524274  93.8662986
 117.2001551  37.5602522  92.9529232 113.2674154  36.7524146  90.6464695
 113.8527591  36.0067834  90.7792599 113.0698992  37.0628103  91.5301359
 116.1212809  39.7875393  85.6627137 115.4523184  40.2721521  85.1791177
 115.9825679  40.0344614  86.5770516 107.8591809  29.3229746  89.3669138
 107.8975908  28.7893337  90.1606256 107.3532101  28.7964952  88.7480115
 120.2618078  41.8219137  92.2609796 120.8136386  41.9850758  93.0258881
 120.6024271  42.4123575  91.5889821 115.2382571  24.1694287  92.8631680
 115.3023897  25.0309118  92.4509078 115.1749691  23.5568288  92.1304039
 111.4900386  28.0493848  82.4423069 111.7853827  27.1404527  82.3890123
 110.5888422  28.0281588  82.1204072 115.0194633  26.1249845  88.4250618
 114.2981219  26.7385813  88.2858091 115.8087889  26.6607610  88.3467264
 113.2188228  25.7307946  82.5662395 112.8900934  24.8505325  82.3837501
 113.5727599  25.6755615  83.4538784 116.3330051  26.0180916  82.9337872
 116.6726123  26.5466837  82.2116481 116.7802171  26.3561322  83.7096439
 118.3198198  24.5155537  81.1331165 119.0406561  24.8936790  80.6294882
 117.6963502  25.2344414  81.2366143 117.2028542  28.1786400  88.6460242
 117.0573123  28.4926703  89.5384524 116.7253746  28.7971300  88.0931141
 119.0624925  25.1688948  88.6941132 119.0486494  24.2730041  88.3573430
 119.7797353  25.1759611  89.3279418 120.9151056  25.6026288  90.7394259
 120.6568834  26.5243358  90.7378589 120.3836096  25.2056722  91.4294723
 111.6774205  30.7191744  91.5847903 111.1327673  31.4951552  91.7168178
 112.5553554  31.0662548  91.4267025 118.4661821  24.0503328  83.9628702
 118.5877732  23.1219974  84.1619589 118.1763864  24.0642014  83.0507017
 121.3353012  21.7358238  87.0995422 121.3574708  21.7997571  86.1447401
 121.7521071  20.8962747  87.2935928 112.4640226  29.8461640  94.4778060
 111.7221962  29.9944276  95.0642690 112.1432971  30.1069906  93.6144809
 120.4083889  39.3877618  94.2758450 120.7171016  39.1426765  95.1481150
 121.2059371  39.5924257  93.7877320 120.4304501  41.5415528  86.5063827
 119.9909491  41.0491907  87.1996683 121.1812618  40.9988496  86.2655902
 112.9096840  37.7327069  86.5088455 113.7354860  37.4330841  86.1287098
 112.5590892  36.9634691  86.9578243 117.8778373  37.0853537  88.5786128
 117.2558383  36.4224242  88.2788356 118.5483240  37.1114669  87.8959776
 111.1105445  35.6513395  87.4677388 110.2737353  35.2235570  87.2861390
 111.0829091  35.8445839  88.4048179 117.4391880  35.6357461  82.0544589
 117.5880001  36.3192925  81.4011262 118.2458324  35.6162551  82.5694045
 115.1944513  31.6622638  83.0605658 114.9490555  30.7584968  83.2585868
 115.3640428  31.6639789  82.1185136 114.4640161  27.3950996  80.5591819
 113.7709406  27.4695351  79.9031855 114.2191913  26.6311339  81.0813336
 120.9387286  38.1305591  79.5256336 120.3661253  38.7495778  79.0726808
 121.5120079  38.6804953  80.0596258 121.3234084  29.4666404  76.8672389
 122.2693189  29.3372612  76.9360807 120.9448329  28.7281066  77.3441817
 119.5077001  27.3916380  76.8027274 118.6008457  27.0949493  76.8789988
 119.7852982  27.0946198  75.9361560 110.4254942  28.7122744  87.2526320
 110.1057726  27.8588052  86.9600694 109.8788370  28.9271322  88.0084288
 114.2034849  31.4285185  90.9695827 114.4220859  32.3602292  90.9883861
 114.6160623  31.0693159  91.7550631 121.1239067  21.9353270  82.9571515
 120.3139795  21.5900355  83.3326761 121.8123484  21.6260814  83.5459127
 118.2775786  24.2503315  76.9439253 119.1394950  24.5758214  77.2035071
 118.4626130  23.4634811  76.4312319 110.2943202  32.3325655  89.2219442
 109.6006673  31.9179608  88.7089396 111.0416193  32.3746192  88.6252861
 112.2079944  32.2643909  87.0985457 112.1850632  32.3631596  86.1467340
 112.5180581  33.1109060  87.4202623 114.8667322  34.3220064  91.2132071
 115.8210576  34.2904006  91.1462003 114.6679846  33.8610688  92.0282297
 115.4566704  32.8921180  93.7802869 116.2759593  33.3865259  93.8037706
 115.7303512  31.9753148  93.7520436 113.2217551  39.8639683  88.2302269
 113.0872019  39.1040084  87.6640267 112.8049613  40.5880583  87.7631058
 116.3786677  40.7609000  88.4420712 116.2619061  41.7054433  88.3399402
 115.5579123  40.4582562  88.8306511 110.7101619  27.2259314  94.4795066
 111.3560482  26.7158268  94.9682291 110.5018770  27.9627995  95.0538491
 119.2305229  21.4899358  80.2318962 119.2183899  22.4341198  80.3887233
 120.1228651  21.3069504  79.9378423 117.4041191  41.4137262  91.6576640
 118.3068438  41.4460873  91.9743135 117.1778561  40.4837713  91.6722976
 119.1594793  40.1668249  88.3186719 118.2090424  40.1670110  88.2051091
 119.4627279  39.4200983  87.8022753 121.9082543  43.3989168  90.5655716
 122.1590581  44.2836178  90.8313292 122.4442091  43.2193770  89.7930807
 119.1217587  46.5721070  87.0951671 119.8088627  46.2582801  86.5072686
 118.9665716  47.4762435  86.8218922 118.6985563  44.6521664  89.3669138
 118.7369663  44.1185255  90.1606256 118.1925856  44.1256869  88.7480115
 121.9499200  50.9805313  87.4677388 121.1131108  50.5527487  87.2861390
 121.9222845  51.1737756  88.4048179 121.2648696  44.0414661  87.2526320
 120.9451481  43.1879969  86.9600694 120.7182124  44.2563239  88.0084288
 121.1336956  47.6617573  89.2219442 120.4400428  47.2471525  88.7089396
 121.8809947  47.7038109  88.6252861 121.5495373  42.5551231  94.4795066
 122.1954237  42.0450185  94.9682291 121.3412524  43.2919913  95.0538491
 118.0081149  18.0204120  70.9125463 117.9305178  18.9711945  70.9913944
 117.4042792  17.6749992  71.5700390 115.6467978  20.7689514  75.0573665
 115.8864576  21.4008038  75.7352684 114.8037175  20.4177554  75.3439025
 116.1212810  16.7937516  72.3872444 115.4523186  17.2783644  71.9036484
 115.9825680  17.0406736  73.3015823 120.2618079  18.8281259  78.9855102
 120.8136387  18.9912881  79.7504188 120.6024272  19.4185697  78.3135127
 120.4304502  18.5477651  73.2309133 119.9909493  18.0554029  73.9241990
 121.1812619  18.0050618  72.9901209 113.2217552  16.8701806  74.9547576
 113.0872020  16.1102207  74.3885574 112.8049614  17.5942706  74.4876365
 116.3786678  17.7671123  75.1666018 116.2619062  18.7116555  75.0644709
 115.5579124  17.4644684  75.5551818 117.4041192  18.4199385  78.3821947
 118.3068439  18.4522995  78.6988442 117.1778562  17.4899836  78.3968283
 121.9082544  20.4051291  77.2901022 122.1590583  21.2898301  77.5558598
 122.4442093  20.2255892  76.5176114 119.1217588  23.5783193  73.8196978
 119.8088628  23.2644923  73.2317993 118.9665717  24.4824558  73.5464229
 118.6985564  21.6583786  76.0914445 118.7369664  21.1247377  76.8851563
 118.1925857  21.1318992  75.4725422 121.9499201  27.9867436  74.1922695
 121.1131109  27.5589610  74.0106696 121.9222846  28.1799879  75.1293486
 121.2648697  21.0476784  73.9771627 120.9451482  20.1942092  73.6846001
 120.7182126  21.2625362  74.7329594 121.1336957  24.6679695  75.9464749
 120.4400429  24.2533648  75.4334703 121.8809948  24.7100232  75.3498168
 121.5495374  19.5613354  81.2040373 122.1954238  19.0512308  81.6927598
 121.3412525  20.2982036  81.7783798  47.0059390  71.1042195 132.4460190
  46.3321089  71.4073891 133.0545148  47.3925212  71.9071275 132.0965647
  49.0966860  62.8950408 130.9807630  48.4796031  62.1697236 130.8840683
  48.6283348  63.6559768 130.6374704  50.9716131  68.6827678 133.7200013
  51.6667035  69.3034371 133.9387328  51.3139281  67.8323029 133.9952391
  45.0630999  68.7889430 132.6275107  44.4904966  69.4079617 132.1745578
  45.6363793  69.3388792 133.1615029  48.2828259  69.0726580 133.7583689
  49.2158932  69.0072142 133.9616564  48.1951472  69.9082847 133.2998222
  50.9116276  68.3892450 130.7187636  50.8329907  68.0552314 131.6123394
  51.7325942  68.8814218 130.7179109  48.4820227  65.7060446 130.3397615
  49.1856078  65.9110448 130.9555270  47.7582876  66.2737208 130.6046698
  50.3906925  66.1442975 132.3896075  51.2252529  65.7124173 132.2073550
  50.2291268  65.9724989 133.3172969  51.8520780  72.5980522 132.9031027
  51.0158092  72.9355209 133.2240302  51.7125550  72.4629502 131.9658164
  51.7259160  72.4427750 130.1028934  50.8488627  72.3216550 129.7391181
  52.2016914  71.6513828 129.8507823  49.4277629  73.3826752 133.6610590
  48.7346874  73.4571107 133.0050626  49.1829381  72.6187096 134.1832106
  54.4714469  73.3792137 129.9046044  53.5645925  73.0825249 129.9808758
  54.7490450  73.0821955 129.0380331  53.2413254  70.2379072 130.0458024
  54.1032418  70.5633970 130.3053841  53.4263598  69.4510568 129.5331089
  54.1942697  67.4775115 133.3337733  54.1821367  68.4216955 133.4906003
  55.0866119  67.2945260 133.0397194  47.0059391  48.1104317 119.1705496
  46.3321090  48.4136014 119.7790454  47.3925213  48.9133398 118.8210954
  49.0966861  39.9012530 117.7052937  48.4796032  39.1759358 117.6085989
  48.6283350  40.6621891 117.3620011  50.9716132  45.6889801 120.4445320
  51.6667037  46.3096493 120.6632634  51.3139282  44.8385152 120.7197698
  45.0631000  45.7951552 119.3520413  44.4904968  46.4141740 118.8990885
  45.6363794  46.3450914 119.8860335  48.2828260  46.0788703 120.4828996
  49.2158933  46.0134264 120.6861871  48.1951473  46.9144969 120.0243528
  50.9116277  45.3954573 117.4432943  50.8329908  45.0614437 118.3368701
  51.7325944  45.8876341 117.4424415  48.4820229  42.7122568 117.0642921
  49.1856079  42.9172571 117.6800577  47.7582877  43.2799330 117.3292005
  50.3906926  43.1505098 119.1141381  51.2252530  42.7186296 118.9318856
  50.2291269  42.9787111 120.0418276  59.0191201  53.6674749 129.2096558
  59.6569611  53.5481496 128.5059898  58.9012044  54.6155593 129.2684510
  55.8280908  53.6202177 129.1458083  55.4899419  53.5043241 128.2578618
  56.6970676  53.2193342 129.1259089  51.6867723  55.4737653 125.1354974
  51.1232588  55.3827590 124.3671262  51.5720118  54.6537558 125.6157466
  57.2667282  59.1408621 120.4469439  56.6155262  59.7262701 120.0603453
  58.0611645  59.6714816 120.5064476  51.1922909  56.2297758 120.8456573
  51.9653785  55.6826745 120.7069449  51.5448308  57.0942007 121.0571035
  53.5289187  52.3890424 118.4775023  53.7814708  51.8671945 117.7158486
  52.5913746  52.2256570 118.5801707  58.5732470  51.3926203 126.2849766
  59.3595559  50.9745626 125.9340183  58.8371174  52.2972295 126.4531415
  58.7442547  56.8299053 120.9838423  58.1088380  56.9033679 121.6959328
  58.4139953  57.4192652 120.3057502  63.9740897  51.3301436 127.1882745
  64.7066069  50.7600653 127.4220574  63.2180253  50.9423036 127.6289250
  53.2485476  54.2918530 120.6799398  53.1321734  53.6163433 121.3480482
  53.3587736  53.8050904 119.8631551  55.5917017  53.7528677 124.3846087
  55.2275224  53.2259298 125.0959009  56.4484132  53.3627146 124.2112573
  55.2322504  48.7818577 119.3807436  55.3996906  49.6498813 119.7477907
  55.0419673  48.9445859 118.4568725  57.9897837  57.2435556 131.0473266
  57.6898560  58.1460595 130.9389073  57.6448896  56.9767739 131.8994419
  61.3894981  49.7618096 128.7270703  60.4811858  49.6933504 128.4329464
  61.3382576  50.2390041 129.5552529  55.2111724  51.2376234 120.3654103
  55.0911350  51.6833285 121.2039583  54.5164313  51.5861552 119.8067641
  52.9718617  64.0079876 124.0144234  52.8942646  64.9587701 124.0932714
  52.3680260  63.6625749 124.6719160  60.9096791  51.7097708 121.1934437
  61.8214647  51.9425094 121.0182134  60.4006438  52.2934752 120.6309515
  59.5166373  56.6923526 128.5848018  58.8875235  56.8569240 127.8824086
  59.1292035  57.1065136 129.3558982  63.3955605  57.6277964 125.9392382
  62.7106643  58.0076865 125.3889415  63.4799454  58.2373291 126.6724330
  55.0694335  56.4297934 125.8498103  55.5332680  56.7085637 125.0602726
  54.8051133  55.5281379 125.6671194  54.0063221  52.5521087 122.6587668
  54.7087264  53.0042130 123.1261595  53.6743849  51.9104905 123.2867561
  61.7652364  58.1509878 130.7110083  62.5869808  57.7490066 130.4292764
  61.7614767  58.0478113 131.6626199  69.8558357  54.4948627 127.0595054
  69.1022066  53.9256025 126.9039059  69.9905899  54.4611291 128.0065689
  55.2456985  59.3662029 122.7349774  55.1102660  60.2113565 123.1634621
  55.7866798  59.5681307 121.9715707  48.6986383  56.8837467 123.3077699
  49.2110903  57.6780717 123.4583263  49.3509096  56.1863758 123.2411300
  50.5081268  60.0003223 125.3900452  50.6847896  60.9221188 125.2021436
  51.3038101  59.6861643 125.8194832  51.6312583  61.5181397 131.3910794
  52.1820008  61.3898461 130.6187788  50.7924059  61.8176286 131.0405687
  46.6635300  55.2126121 124.0837269  47.5010522  55.6223130 123.8670977
  46.8413567  54.2725564 124.0537463  58.5599732  52.8801202 119.7721102
  58.0446355  53.6505807 120.0109490  58.2877040  52.2066338 120.3954164
  56.1446843  47.7250903 124.8306340  55.2888439  47.3357753 124.6511979
  56.5573795  47.8042864 123.9706126  63.5334006  55.6333557 121.7074276
  62.7563449  55.2944716 121.2629438  64.2125487  55.6386180 121.0329241
  58.3486035  50.7528294 121.5980883  58.0436170  51.0674443 122.4491026
  59.3016477  50.8309714 121.6408216  56.7932467  56.9118518 123.2473837
  56.2653828  56.1771277 122.9347075  56.2919969  57.6893194 123.0013806
  61.7725313  55.1067538 128.3640884  61.1148987  55.7966799 128.4521012
  62.5765712  55.4963970 128.7074870  60.5830772  53.4611911 126.4144825
  61.0962653  54.0941903 126.9166535  61.2331995  52.8613106 126.0488185
  51.8520781  49.6042645 119.6276334  51.0158094  49.9417331 119.9485609
  51.7125551  49.4691625 118.6903471  54.9385067  54.7298728 116.2508810
  54.0312129  54.4987981 116.4499959  55.4356099  53.9336347 116.4382792
  57.8453146  63.4396235 119.1705496  57.1714845  63.7427932 119.7790454
  58.2318968  64.2425315 118.8210954  57.8446650  52.3352782 123.7905846
  58.5918469  52.8474179 123.4812968  58.1138240  52.0136835 124.6510240
  56.1173300  54.8311323 120.7732800  55.2084520  54.5470355 120.8705270
  56.1468384  55.2510401 119.9136107  61.3492568  58.4417912 124.5423968
  60.8954895  57.6008822 124.5989158  60.7186534  59.0779311 124.8798748
  60.2925487  49.3709898 125.7724635  59.5548244  48.8587284 126.1034878
  60.5452261  48.9310280 124.9607912  59.7925507  60.2794409 125.4773786
  60.0848481  60.8399466 124.7586152  60.3024128  60.5722970 126.2326945
  54.6658194  52.4439943 126.8742596  54.7206804  51.4913780 126.7985072
  53.8549396  52.5999382 127.3583894  55.8149388  56.3720066 118.1120879
  55.3768818  55.6555925 117.6526516  56.5559829  56.5996181 117.5505970
  52.6050554  51.0617003 124.6332975  51.7918420  51.3611174 125.0398167
  53.1009549  50.6672692 125.3507457  54.7559132  61.0574760 126.5667239
  54.7135311  61.2835606 125.6375771  55.6721831  60.8238135 126.7153040
  63.9322503  54.6477263 124.1697198  63.7940402  54.8378859 123.2418387
  63.5758722  55.4096646 124.6265249  63.9591883  56.7153790 129.1808469
  64.3928389  56.6229079 130.0291523  64.6723463  56.6911291 128.5428485
  52.8724933  57.9337789 126.3629202  53.6665531  57.4388109 126.1611777
  52.1616625  57.4055652 125.9996908  57.6919777  60.3155884 130.7141570
  57.7456800  60.8846821 131.4819286  56.8234559  60.4857770 130.3495607
  49.1807696  52.0780871 122.4388955  48.2505285  52.0165326 122.6558917
  49.2765168  51.5556823 121.6425596  64.8207432  56.7577491 131.7141354
  65.0143322  57.6623302 131.9600629  64.7208050  56.2984910 132.5479939
  55.4496209  58.5066811 130.0427039  55.3107295  58.1385595 130.9152977
  54.6610805  59.0214450 129.8710997  56.0444361  63.6075907 121.3852576
  56.2196117  63.1363951 122.1998198  55.3577149  64.2341674 121.6133836
  57.0001424  57.8848414 127.4315877  56.6651257  57.8449184 128.3273527
  56.5005370  57.2193130 126.9586287  59.9360616  55.2304448 117.7052937
  59.3189786  54.5051276 117.6085989  59.4677104  55.9913808 117.3620011
  50.6105446  66.7565270 128.1592436  50.8502044  67.3883794 128.8371454
  49.7674643  66.4053310 128.4457795  51.7259162  49.4489872 116.8274241
  50.8488628  49.3278673 116.4636488  52.2016915  48.6575951 116.5753129
  55.1233308  62.5644393 130.5633940  55.0503480  63.3699364 131.0753244
  54.6810701  62.7636358 129.7381961  54.9123088  61.8016163 124.0736761
  54.1290610  62.3437843 124.1674986  55.6115833  62.3190142 124.4731003
  58.2219738  47.6110792 126.7170967  58.7188437  46.8580754 126.3972037
  57.4506719  47.6475109 126.1514176  66.0749495  53.3151158 128.3589258
  66.0639371  54.1975873 127.9883191  65.2066875  52.9622708 128.1643795
  57.5831992  62.4631227 132.7192098  58.2959964  63.0978691 132.6468000
  57.0922020  62.5595093 131.9032100  59.3049519  56.3682479 124.2909390
  58.3705797  56.4883942 124.1214094  59.4826187  55.4654946 124.0269400
  62.6922070  52.2099799 124.8259424  63.1582522  53.0427790 124.7519727
  63.1429570  51.7444780 125.5304683  60.7598301  58.5543620 121.8245576
  61.0358145  58.4400214 122.7339450  59.8902800  58.1561105 121.7857749
  57.3952365  62.8029971 125.4678390  57.5774760  61.9851627 125.9306142
  58.2185351  63.0197663 125.0303280  57.7294531  61.7298156 122.7293438
  58.2582297  61.2190610 122.1163601  57.9922750  61.4140686 123.5938971
  51.0850278  62.7813273 125.4891214  50.4160654  63.2659400 125.0055254
  50.9463148  63.0282493 126.4034593  55.2255547  64.8157016 132.0873873
  55.7773855  64.9788638 132.8522958  55.5661740  65.4061454 131.4153898
  46.4537856  51.0431728 122.2687146  46.7491297  50.1342406 122.2154200
  45.5525891  51.0219467 121.9468149  58.3623934  62.7638992 129.0737555
  58.2375074  61.9628731 128.5648500  59.0203025  63.2585185 128.5851525
  60.4258843  60.5648012 130.7017105  59.4789178  60.4453363 130.6295432
  60.7741616  59.6770510 130.7843366  48.1825697  48.7245825 122.3926472
  47.8538403  47.8443204 122.2101578  48.5365068  48.6693494 123.2802861
  57.4305276  60.3600728 126.9021457  57.2830238  59.4317435 127.0829027
  58.2558769  60.3820819 126.4178532  51.2967520  49.0118795 122.7601949
  51.6363593  49.5404716 122.0380558  51.7439641  49.3499201 123.5360516
  61.0339398  61.1829287 127.9886330  61.9585945  60.9772148 127.8510781
  60.8654701  60.9345688 128.8975671  53.2835667  47.5093417 120.9595242
  54.0044030  47.8874669 120.4558959  52.6600972  48.2282293 121.0630220
  57.4266790  48.2138566 121.8953574  57.6430405  49.0963203 121.5942403
  56.9460857  47.8224779 121.1659216  60.8234714  61.7014954 123.3448421
  60.9971592  61.1361377 122.5922274  61.3163605  62.5015849 123.1627911
  53.4299290  47.0441207 123.7892779  53.5515202  46.1157853 123.9883666
  53.1401333  47.0579893 122.8771094  66.6774105  54.4651377 124.9638721
  67.1205251  53.7158702 124.5657844  65.8000616  54.4561513 124.5812453
  61.8109887  61.0181718 120.4445320  62.5060791  61.6388411 120.6632634
  62.1533037  60.1677070 120.7197698  63.7101310  58.4681424 121.9732650
  64.2352634  58.8068697 121.2481970  63.6223662  57.5328439 121.7895785
  55.3941970  64.5353407 126.3327904  54.9546961  64.0429786 127.0260760
  56.1450087  63.9926375 126.0919979  47.8734309  60.7264948 126.3352532
  48.6992329  60.4268720 125.9551175  47.5228361  59.9572571 126.7842320
  52.8415843  60.0791416 128.4050205  52.2195852  59.4162121 128.1052433
  53.5120709  60.1052548 127.7223853  46.0742914  58.6451275 127.2941465
  45.2374823  58.2173449 127.1125467  46.0466560  58.8383718 128.2312256
  52.4029349  58.6295340 121.8808666  52.5517470  59.3130804 121.2275339
  53.2095793  58.6100430 122.3958122  65.0211288  58.3703736 134.8358598
  64.7296096  58.7333716 135.6722059  64.4083419  57.6570744 134.6571931
  66.2206970  55.9356615 127.3561169  67.0553861  56.3746419 127.5198729
  66.3566099  55.4595269 126.5369414  50.1581982  54.6560517 122.8869735
  49.9128024  53.7522847 123.0849945  50.3277897  54.6577668 121.9449213
  49.4277630  50.3888875 120.3855896  48.7346875  50.4633230 119.7295932
  49.1829382  49.6249219 120.9077413  55.9024755  61.1243470 119.3520413
  55.3298722  61.7433657 118.8990885  56.4757549  61.6742832 119.8860335
  59.1222015  61.4080620 120.4828996  60.0552688  61.3426182 120.6861871
  59.0345228  62.2436887 120.0243528  61.7510031  60.7246491 117.4432943
  61.6723663  60.3906354 118.3368701  62.5719698  61.2168259 117.4424415
  64.4488223  53.5908230 130.6509262  64.4164543  52.6524231 130.8368946
  65.0588846  53.6692267 129.9175087  56.2871553  52.4604283 116.6936466
  57.2330658  52.3310491 116.7624884  55.9085798  51.7218945 117.1705894
  70.2664772  54.6524237 129.7915299  70.9968161  54.3909525 130.3523002
  69.6571718  53.9152959 129.8317366  68.3480070  52.7932099 130.3889750
  67.6213233  52.6588064 129.7806241  67.9327356  53.1008928 131.1946468
  54.4714471  50.3854259 116.6291351  53.5645926  50.0887372 116.7054065
  54.7490452  50.0884077 115.7625637  56.0876536  44.9291149 122.7835592
  55.2777265  44.5838234 123.1590838  56.7760953  44.6198693 123.3723204
  53.2413255  47.2441195 116.7703330  54.1032419  47.5696093 117.0299148
  53.4263599  46.4572690 116.2576396  61.3945892  46.1169721 123.9138553
  60.8144561  46.7754525 123.5316606  61.1281824  45.2947066 123.5025971
  60.1770770  48.2769811 122.9694901  59.2896625  48.5619462 122.7515096
  60.5924759  48.1163575 122.1222178  63.5285306  48.3016332 126.6849241
  64.3045696  48.7912785 126.9573858  62.8033440  48.7274387 127.1421110
  65.9657865  49.0143952 127.7423181  66.5602355  48.7739688 127.0316490
  66.0384448  48.2951082 128.3696718  48.1855020  62.8577563 128.0566346
  48.0509488  62.0977963 127.4904344  47.7687082  63.5818462 127.5895135
  59.3213983  58.0414486 117.0642921  60.0249833  58.2464489 117.6800577
  58.5976632  58.6091248 117.3292005  60.1511793  53.7924347 123.1845192
  60.0946995  54.2492899 122.3452824  60.7040136  53.0315032 123.0068034
  63.9616599  49.5814079 124.0095311  63.7053534  49.1810715 124.8403519
  63.3369467  50.2957873 123.8845450  68.2728937  52.3210152 126.5166602
  67.7128495  52.3903342 127.2898165  67.6672441  52.1451137 125.7966099
  51.3424146  63.7546880 128.2684789  51.2256530  64.6992312 128.1663479
  50.5216592  63.4520441 128.6570588  61.2300681  58.4797015 119.1141381
  62.0646285  58.0478214 118.9318856  61.0685024  58.3079029 120.0418276
  60.8846573  54.9829129 120.4797721  60.8295377  54.8173400 119.5386165
  60.2592628  55.6905161 120.6359910  54.1942698  44.4837238 120.0583039
  54.1821368  45.4279077 120.2151310  55.0866120  44.3007383 119.7642500
  52.3678660  64.4075141 131.4840717  53.2705907  64.4398752 131.8007212
  52.1416030  63.4775592 131.4987053  54.1232262  63.1606128 128.1450796
  53.1727893  63.1607990 128.0315168  54.4264748  62.4138863 127.6286830
  66.6674662  68.9494094 129.1458083  66.3293174  68.8335159 128.2578618
  67.5364430  68.5485260 129.1259089  62.5261478  70.8029571 125.1354974
  61.9626343  70.7119508 124.3671262  62.4113873  69.9829475 125.6157466
  60.0725910  72.2980762 127.9739194  60.8647202  71.9571587 127.5585494
  60.3122560  72.4075738 128.8941348  68.1061036  74.4700539 120.4469439
  67.4549016  75.0554619 120.0603453  68.9005399  75.0006733 120.5064476
  62.0316664  71.5589676 120.8456573  62.8047540  71.0118663 120.7069449
  62.3842062  72.4233925 121.0571035  64.3682941  67.7182342 118.4775023
  64.6208462  67.1963863 117.7158486  63.4307500  67.5548487 118.5801707
  69.4126224  66.7218120 126.2849766  70.1989313  66.3037543 125.9340183
  69.6764929  67.6264212 126.4531415  69.5836302  72.1590971 120.9838423
  68.9482135  72.2325597 121.6959328  69.2533708  72.7484569 120.3057502
  74.8134651  66.6593353 127.1882745  75.5459823  66.0892570 127.4220574
  74.0574007  66.2714954 127.6289250  64.0879230  69.6210448 120.6799398
  63.9715488  68.9455351 121.3480482  64.1981490  69.1342822 119.8631551
  66.4310771  69.0820595 124.3846087  66.0668978  68.5551216 125.0959009
  67.2877887  68.6919064 124.2112573  72.3360072  60.3714928 131.6477353
  72.0043396  61.2410338 131.4238568  71.7405685  60.0551212 132.3271384
  66.0716258  64.1110495 119.3807436  66.2390660  64.9790731 119.7477907
  65.8813427  64.2737776 118.4568725  62.2804073  69.0241270 127.0809971
  61.3554569  68.8917484 127.2887662  62.5288486  69.8035490 127.5779913
  66.0505479  66.5668152 120.3654103  65.9305104  67.0125203 121.2039583
  65.3558067  66.9153470 119.8067641  59.6412884  68.6674544 127.9153760
  59.7705265  68.9209023 128.8293171  58.9610335  69.2602252 127.5958415
  63.8112371  79.3371794 124.0144234  63.7336401  80.2879619 124.0932714
  63.2074015  78.9917666 124.6719160  71.7490545  67.0389625 121.1934437
  72.6608401  67.2717012 121.0182134  71.2400192  67.6226669 120.6309515
  69.0926520  63.2147661 129.4424298  68.2310999  63.5128915 129.7341035
  69.1188954  63.4318060 128.5105330  65.9088089  71.7589852 125.8498103
  66.3726435  72.0377555 125.0602726  65.6444887  70.8573296 125.6671194
  62.8012170  71.3061333 128.7877866  63.3713527  71.7348602 128.1495351
  63.3920282  71.0243918 129.4862052  64.8456975  67.8813004 122.6587668
  65.5481019  68.3334048 123.1261595  64.5137604  67.2396823 123.2867561
  58.5882309  66.1396557 127.9604802  57.7981363  66.3954085 127.4844912
  59.0793557  66.9544895 128.0656842  60.5397055  66.5041136 124.9188279
  59.7428218  66.6159830 125.4371774  60.3122647  66.8427788 124.0529169
  56.8720012  66.3927047 130.3919793  57.1228051  67.2774057 130.6577369
  57.4079561  66.2131649 129.6194885  66.0850740  74.6953947 122.7349774
  65.9496415  75.5405483 123.1634621  66.6260552  74.8973224 121.9715707
  59.5380137  72.2129385 123.3077699  60.0504658  73.0072635 123.4583263
  60.1902850  71.5155675 123.2411300  61.3475022  75.3295141 125.3900452
  61.5241650  76.2513106 125.2021436  62.1431856  75.0153560 125.8194832
  69.4343204  58.2184509 131.2648667  69.0907473  59.1086150 131.1887778
  69.8022166  58.0286166 130.4018252  57.5029054  70.5418039 124.0837269
  58.3404276  70.9515048 123.8670977  57.6807322  69.6017481 124.0537463
  69.3993486  68.2093120 119.7721102  68.8840110  68.9797724 120.0109490
  69.1270795  67.5358256 120.3954164  66.9840597  63.0542821 124.8306340
  66.1282194  62.6649671 124.6511979  67.3967549  63.1334781 123.9706126
  68.5139744  60.5889164 129.2297900  68.0104539  60.5519299 128.4165706
  68.8070351  61.4981907 129.2894557  64.7582630  60.6727894 128.2364082
  65.6235627  60.4770702 127.8769971  64.8260139  60.4438245 129.1633439
  74.3727760  70.9625474 121.7074276  73.5957203  70.6236634 121.2629438
  75.0519241  70.9678098 121.0329241  69.1879789  66.0820212 121.5980883
  68.8829925  66.3966361 122.4491026  70.1410232  66.1601632 121.6408216
  67.6326221  72.2410435 123.2473837  67.1047583  71.5063195 122.9347075
  67.1313724  73.0185112 123.0013806  62.3644949  62.9030101 125.6080449
  62.9388701  62.6805283 124.8753642  62.9515931  62.9718796 126.3609050
  71.4224526  68.7903828 126.4144825  71.9356408  69.4233820 126.9166535
  72.0725750  68.1905024 126.0488185  62.6914536  64.9334563 119.6276334
  61.8551848  65.2709249 119.9485609  62.5519306  64.7983542 118.6903471
  64.6667617  59.7771350 124.3355518  64.0132029  59.4620368 123.7112133
  64.6248091  59.1547091 125.0615341  65.7778821  70.0590645 116.2508810
  64.8705883  69.8279899 116.4499959  66.2749853  69.2628265 116.4382792
  68.6846900  78.7688153 119.1705496  68.0108599  79.0719849 119.7790454
  69.0712722  79.5717233 118.8210954  67.9005357  66.2653284 128.6603166
  66.9827918  66.4868231 128.5024854  68.3165501  66.3399594 127.8014873
  68.6840405  67.6644700 123.7905846  69.4312224  68.1766097 123.4812968
  68.9531994  67.3428752 124.6510240  66.9567055  70.1603240 120.7732800
  66.0478274  69.8762273 120.8705270  66.9862139  70.5802319 119.9136107
  71.1319242  64.7001816 125.7724635  70.3941999  64.1879202 126.1034878
  71.3846015  64.2602197 124.9607912  71.2330869  57.4778068 126.3666405
  71.5389746  56.6175431 126.0792320  71.9583474  58.0695688 126.1665399
  57.5255225  67.8808754 124.7548003  57.3279625  67.2878115 124.0299069
  56.9701889  67.5760965 125.4723941  65.5051949  67.7731861 126.8742596
  65.5600559  66.8205697 126.7985072  64.6943151  67.9291300 127.3583894
  66.6543143  71.7011984 118.1120879  66.2162573  70.9847843 117.6526516
  67.3953584  71.9288099 117.5505970  63.4444309  66.3908921 124.6332975
  62.6312174  66.6903091 125.0398167  63.9403303  65.9964609 125.3507457
  74.7716257  69.9769181 124.1697198  74.6334156  70.1670777 123.2418387
  74.4152476  70.7388564 124.6265249  62.9358384  63.9627276 130.2494210
  63.5757763  63.8216035 129.5517173  62.1035914  63.6761790 129.8732812
  63.7118687  73.2629707 126.3629202  64.5059286  72.7680027 126.1611777
  63.0010380  72.7347570 125.9996908  60.0201451  67.4072788 122.4388955
  59.0899039  67.3457244 122.6558917  60.1158923  66.8848741 121.6425596
  59.9387000  63.9327601 125.0267196  60.1993817  64.8472934 124.9176357
  60.7604172  63.4652044 125.1763809  61.4111925  65.3465358 132.1966021
  62.0834979  65.1382720 131.5478670  60.5841712  65.1487444 131.7571253
  66.8838115  78.9367825 121.3852576  67.0589871  78.4655868 122.1998198
  66.1970903  79.5633591 121.6133836  70.7754370  70.5596366 117.7052937
  70.1583541  69.8343194 117.6085989  70.3070859  71.3205726 117.3620011
  62.5652916  64.7781790 116.8274241  61.6882383  64.6570591 116.4636488
  63.0410669  63.9867868 116.5753129  54.0855056  69.5658950 126.9215748
  54.7726096  69.2520680 126.3336763  53.9303185  70.4700314 126.6482999
  58.8889778  64.4549146 131.3500772  58.8047967  63.8474816 130.6151182
  58.0672485  64.9458165 131.3510268  65.7516842  77.1308080 124.0736761
  64.9684364  77.6729761 124.1674986  66.4509587  77.6482060 124.4731003
  69.0613492  62.9402710 126.7170967  69.5582192  62.1872672 126.3972037
  68.2900474  62.9767026 126.1514176  70.1443273  71.6974397 124.2909390
  69.2099552  71.8175859 124.1214094  70.3219941  70.7946864 124.0269400
  65.6448461  65.0820093 126.4442651  65.2746249  64.5291133 127.1323557
  66.1407554  64.4778226 125.8917651  73.5315824  67.5391716 124.8259424
  73.9976277  68.3719708 124.7519727  73.9823325  67.0736698 125.5304683
  71.5992055  73.8835538 121.8245576  71.8751899  73.7692132 122.7339450
  70.7296554  73.4853022 121.7857749  71.5032487  59.9072303 128.8650326
  70.5895567  60.1376530 129.0332533  71.9325589  59.9910747 129.7164358
  68.5688285  77.0590074 122.7293438  69.0976051  76.5482528 122.1163601
  68.8316505  76.7432604 123.5938971  53.6623032  67.6459543 129.1933215
  53.7007132  67.1123134 129.9870333  53.1563325  67.1194749 128.5744192
  61.0413795  62.4924084 132.6895757  61.1055121  63.3538914 132.2773155
  60.9780915  61.8798085 131.9568116  57.2931610  66.3723645 122.2687146
  57.5885051  65.4634324 122.2154200  56.3919646  66.3511385 121.9468149
  60.8225857  64.4479642 128.2514695  60.1012443  65.0615609 128.1122168
  61.6119113  64.9837407 128.1731341  59.0219452  64.0537743 122.3926472
  58.6932158  63.1735122 122.2101578  59.3758822  63.9985412 123.2802861
  62.1361275  64.3410713 122.7601949  62.4757347  64.8696634 122.0380558
  62.5833395  64.6791119 123.5360516  64.8304716  62.7247763 132.2105017
  64.4901536  61.9255576 132.6125697  64.1243722  63.0249474 131.6381851
  65.4821187  59.8097076 130.6632340  66.3047257  59.3357554 130.5411231
  65.7259251  60.5887560 131.1631027  64.1229422  62.8385334 120.9595242
  64.8437784  63.2166587 120.4558959  63.4994726  63.5574211 121.0630220
  68.2660545  63.5430483 121.8953574  68.4824159  64.4255121 121.5942403
  67.7854612  63.1516697 121.1659216  63.0059766  66.5016196 128.4724319
  62.8604347  66.8156500 129.3648601  62.5284970  67.1201097 127.9195218
  64.8656149  63.4918744 128.5205209  64.8517718  62.5959838 128.1837507
  65.5828577  63.4989408 129.1543495  66.7182280  63.9256085 130.5658336
  66.4600058  64.8473155 130.5642666  66.1867320  63.5286519 131.2558800
  57.4805428  69.0421541 131.4111980  56.9358896  69.8181349 131.5432255
  58.3584778  69.3892345 131.2531102  64.2693045  62.3733125 123.7892779
  64.3908956  61.4449771 123.9883666  63.9795087  62.3871811 122.8771094
  67.1384235  60.0588035 126.9259499  67.1605932  60.1227368 125.9711478
  67.5552294  59.2192544 127.1200005  72.6503641  76.3473636 120.4445320
  73.3454546  76.9680329 120.6632634  72.9926791  75.4968987 120.7197698
  74.5495064  73.7973342 121.9732650  75.0746388  74.1360614 121.2481970
  74.4617417  72.8620357 121.7895785  58.7128064  76.0556866 126.3352532
  59.5386084  75.7560638 125.9551175  58.3622116  75.2864488 126.7842320
  56.9136669  73.9743192 127.2941465  56.0768577  73.5465367 127.1125467
  56.8860314  74.1675636 128.2312256  63.2423104  73.9587257 121.8808666
  63.3911224  74.6422722 121.2275339  64.0489547  73.9392347 122.3958122
  60.9975737  69.9852435 122.8869735  60.7521779  69.0814765 123.0849945
  61.1671651  69.9869585 121.9449213  68.6872447  60.8576111 132.2694490
  69.2054391  61.5937138 131.9440979  68.3327580  61.1640105 133.1041249
  60.2671384  65.7180793 120.3855896  59.5740629  65.7925148 119.7295932
  60.0223136  64.9541136 120.9077413  68.9385041  57.2776394 127.7895387
  69.2186795  56.6099583 128.4155813  69.7235648  57.4705490 127.2770051
  66.7418509  76.4535388 119.3520413  66.1692477  77.0725575 118.8990885
  67.3151303  77.0034750 119.8860335  69.9615769  76.7372538 120.4828996
  70.8946442  76.6718100 120.6861871  69.8738982  77.5728805 120.0243528
  72.5903786  76.0538408 117.4432943  72.5117417  75.7198272 118.3368701
  73.4113453  76.5460176 117.4424415  67.1265308  67.7896201 116.6936466
  68.0724413  67.6602409 116.7624884  66.7479553  67.0510863 117.1705894
  73.0987193  59.4552207 126.6563358  72.9012014  59.1467295 127.5406690
  73.7086898  60.1813846 126.7861287  65.3108225  65.7146177 116.6291351
  64.4039681  65.4179290 116.7054065  65.5884206  65.4175995 115.7625637
  56.2286166  67.0352540 127.0790397  55.9088950  66.1817849 126.7864771
  55.6819594  67.2501119 127.8348365  60.0066073  69.7514981 130.7959904
  60.2252083  70.6832089 130.8147938  60.4191847  69.3922956 131.5814708
  66.9270291  60.2583067 122.7835592  66.1171019  59.9130152 123.1590838
  67.6154708  59.9490610 123.3723204  68.8560839  59.3361114 124.4059889
  69.4091878  59.7556567 125.0649912  69.0930925  58.4096862 124.4482845
  64.0807010  62.5733112 116.7703330  64.9426174  62.8988011 117.0299148
  64.2657354  61.7864608 116.2576396  56.0974426  70.6555452 129.0483519
  55.4037897  70.2409405 128.5353473  56.8447417  70.6975988 128.4516938
  72.2339646  61.4461639 123.9138553  71.6538315  62.1046443 123.5316606
  71.9675579  60.6238983 123.5025971  70.6843213  60.8466696 126.1159874
  71.1842991  60.9583231 125.3074192  71.3278821  60.5427749 126.7560682
  58.0111168  70.5873706 126.9249534  57.9881856  70.6861393 125.9731417
  58.3211805  71.4338856 127.2466700  71.0164524  63.6061729 122.9694901
  70.1290379  63.8911380 122.7515096  71.4318513  63.4455492 122.1222178
  74.3679060  63.6308250 126.6849241  75.1439450  64.1204702 126.9573858
  73.6427195  64.0566304 127.1421110  76.8051619  64.3435869 127.7423181
  77.3996110  64.1031605 127.0316490  76.8778203  63.6243000 128.3696718
  70.1607738  73.3706404 117.0642921  70.8643588  73.5756406 117.6800577
  69.4370386  73.9383166 117.3292005  70.9905548  69.1216265 123.1845192
  70.9340749  69.5784816 122.3452824  71.5433890  68.3606950 123.0068034
  74.8010354  64.9105997 124.0095311  74.5447288  64.5102633 124.8403519
  74.1763222  65.6249791 123.8845450  72.0694435  73.8088933 119.1141381
  72.9040039  73.3770131 118.9318856  71.9078778  73.6370947 120.0418276
  71.7240327  70.3121046 120.4797721  71.6689131  70.1465318 119.5386165
  71.0986383  71.0197079 120.6359910  56.5132842  65.5489111 134.3059143
  57.1591706  65.0388065 134.7946368  56.3049993  66.2857792 134.8802568
  65.0336453  59.8129155 120.0583039  65.0215123  60.7570995 120.2151310
  65.9259875  59.6299301 119.7642500  68.8488572  56.4071932 124.3128976
  68.0820968  55.8530419 124.4585658  69.2599277  56.4793801 125.1743128
  73.5308290  80.2626480 119.6276334  72.6945603  80.6001167 119.9485609
  73.3913060  80.1275460 118.6903471  73.4046671  80.1073708 116.8274241
  72.5276137  79.9862508 116.4636488  73.8804424  79.3159786 116.5753129
  71.1065139  81.0472710 120.3855896  70.4134384  81.1217065 119.7295932
  70.8616891  80.2833054 120.9077413  76.1501980  81.0438095 116.6291351
  75.2433435  80.7471207 116.7054065  76.4277961  80.7467913 115.7625637
  74.9200764  77.9025030 116.7703330  75.7819928  78.2279928 117.0299148
  75.1051108  77.1156526 116.2576396  75.8730207  75.1421073 120.0583039
  75.8608877  76.0862913 120.2151310  76.7653629  74.9591218 119.7642500
  47.0059393  25.1166440 105.8950803  46.3321091  25.4198137 106.5035761
  47.3925215  25.9195520 105.5456260  49.0966863  16.9074653 104.4298243
  48.4796033  16.1821481 104.3331296  48.6283351  17.6684013 104.0865317
  50.9716133  22.6951923 107.1690626  51.6667038  23.3158616 107.3877941
  51.3139283  21.8447275 107.4443004  45.0631002  22.8013675 106.0765720
  44.4904969  23.4203862 105.6236192  45.6363795  23.3513037 106.6105642
  48.2828262  23.0850825 107.2074302  49.2158935  23.0196387 107.4107178
  48.1951474  23.9207092 106.7488835  50.9116278  22.4016696 104.1678250
  50.8329910  22.0676559 105.0614008  51.7325945  22.8938463 104.1669722
  48.4820230  19.7184691 103.7888228  49.1856080  19.9234693 104.4045884
  47.7582879  20.2861453 104.0537312  50.3906927  20.1567220 105.8386688
  51.2252531  19.7248419 105.6564163  50.2291270  19.9849234 106.7663583
  59.0191202  30.6736871 115.9341865  59.6569612  30.5543619 115.2305205
  58.9012045  31.6217715 115.9929817  55.8280909  30.6264299 115.8703390
  55.4899420  30.5105364 114.9823924  56.6970677  30.2255464 115.8504396
  51.6867724  32.4799776 111.8600281  51.1232590  32.3889713 111.0916568
  51.5720120  31.6599680 112.3402773  57.2667283  36.1470743 107.1714745
  56.6155263  36.7324824 106.7848759  58.0611646  36.6776938 107.2309783
  51.1922910  33.2359881 107.5701880  51.9653786  32.6888868 107.4314756
  51.5448309  34.1004130 107.7816341  53.5289188  29.3952547 105.2020330
  53.7814709  28.8734068 104.4403793  52.5913747  29.2318692 105.3047013
  58.5732471  28.3988325 113.0095073  59.3595560  27.9807748 112.6585490
  58.8371175  29.3034417 113.1776721  58.7442548  33.8361175 107.7083730
  58.1088381  33.9095802 108.4204634  58.4139955  34.4254774 107.0302809
  63.9740898  28.3363558 113.9128051  64.7066070  27.7662775 114.1465881
  63.2180254  27.9485159 114.3534557  53.2485477  31.2980653 107.4044705
  53.1321735  30.6225556 108.0725789  53.3587737  30.8113027 106.5876858
  55.5917018  30.7590800 111.1091394  55.2275225  30.2321421 111.8204315
  56.4484134  30.3689269 110.9357879  55.2322505  25.7880700 106.1052742
  55.3996907  26.6560936 106.4723213  55.0419674  25.9507981 105.1814032
  57.9897838  34.2497678 117.7718573  57.6898561  35.1522717 117.6634380
  57.6448898  33.9829862 118.6239726  61.3894982  26.7680219 115.4516010
  60.4811859  26.6995627 115.1574771  61.3382578  27.2452164 116.2797836
  55.2111726  28.2438357 107.0899409  55.0911351  28.6895408 107.9284889
  54.5164314  28.5923675 106.5312947  52.9718618  41.0141999 110.7389540
  52.8942647  41.9649824 110.8178021  52.3680261  40.6687871 111.3964467
  60.9096792  28.7159830 107.9179743  61.8214648  28.9487217 107.7427441
  60.4006439  29.2996874 107.3554822  59.5166374  33.6985649 115.3093325
  58.8875237  33.8631363 114.6069393  59.1292036  34.1127258 116.0804289
  63.3955606  34.6340086 112.6637688  62.7106644  35.0138988 112.1134722
  63.4799455  35.2435413 113.3969636  55.0694336  33.4360057 112.5743410
  55.5332682  33.7147760 111.7848032  54.8051134  32.5343501 112.3916501
  54.0063222  29.5583209 109.3832975  54.7087265  30.0104253 109.8506901
  53.6743851  28.9167028 110.0112868  61.7652366  35.1572001 117.4355389
  62.5869809  34.7552188 117.1538071  61.7614768  35.0540235 118.3871505
  69.8558359  31.5010749 113.7840361  69.1022067  30.9318147 113.6284365
  69.9905900  31.4673414 114.7310996  55.2456987  36.3724152 109.4595080
  55.1102661  37.2175687 109.8879928  55.7866799  36.5743429 108.6961014
  48.6986384  33.8899590 110.0323005  49.2110905  34.6842840 110.1828570
  49.3509097  33.1925880 109.9656607  50.5081269  37.0065346 112.1145758
  50.6847897  37.9283311 111.9266742  51.3038102  36.6923765 112.5440138
  51.6312584  38.5243520 118.1156101  52.1820009  38.3960583 117.3433095
  50.7924060  38.8238409 117.7650994  46.6635301  32.2188244 110.8082576
  47.5010523  32.6285252 110.5916284  46.8413569  31.2787686 110.7782770
  58.5599733  29.8863325 106.4966409  58.0446356  30.6567929 106.7354796
  58.2877041  29.2128461 107.1199470  56.1446844  24.7313025 111.5551647
  55.2888440  24.3419876 111.3757286  56.5573796  24.8104986 110.6951433
  63.5334007  32.6395679 108.4319582  62.7563450  32.3006839 107.9874744
  64.2125488  32.6448303 107.7574547  58.3486036  27.7590417 108.3226190
  58.0436172  28.0736566 109.1736333  59.3016478  27.8371837 108.3653523
  56.7932468  33.9180640 109.9719144  56.2653830  33.1833400 109.6592381
  56.2919971  34.6955316 109.7259112  61.7725314  32.1129661 115.0886190
  61.1148988  32.8028922 115.1766319  62.5765713  32.5026093 115.4320177
  60.5830773  30.4674033 113.1390132  61.0962655  31.1004025 113.6411842
  61.2331997  29.8675229 112.7733492  51.8520783  26.6104767 106.3521641
  51.0158095  26.9479454 106.6730915  51.7125552  26.4753747 105.4148778
  54.9385068  31.7360850 102.9754117  54.0312130  31.5050104 103.1745266
  55.4356100  30.9398470 103.1628098  57.8453147  40.4458358 105.8950803
  57.1714846  40.7490054 106.5035761  58.2318969  41.2487438 105.5456260
  57.8446651  29.3414905 110.5151153  58.5918470  29.8536302 110.2058275
  58.1138241  29.0198957 111.3755546  56.1173302  31.8373445 107.4978107
  55.2084521  31.5532478 107.5950577  56.1468385  32.2572524 106.6381414
  61.3492569  35.4480035 111.2669275  60.8954896  34.6070945 111.3234465
  60.7186536  36.0841433 111.6044055  60.2925489  26.3772021 112.4969942
  59.5548245  25.8649407 112.8280185  60.5452262  25.9372402 111.6853219
  59.7925508  37.2856531 112.2019093  60.0848483  37.8461589 111.4831458
  60.3024129  37.5785092 112.9572252  54.6658196  29.4502066 113.5987902
  54.7206805  28.4975902 113.5230379  53.8549398  29.6061505 114.0829201
  55.8149389  33.3782189 104.8366186  55.3768819  32.6618048 104.3771823
  56.5559830  33.6058304 104.2751277  52.6050556  28.0679126 111.3578281
  51.7918421  28.3673296 111.7643473  53.1009550  27.6734814 112.0752764
  54.7559133  38.0636883 113.2912546  54.7135312  38.2897729 112.3621078
  55.6721832  37.8300257 113.4398347  63.9322504  31.6539386 110.8942504
  63.7940403  31.8440982 109.9663693  63.5758723  32.4158769 111.3510555
  63.9591884  33.7215913 115.9053776  64.3928390  33.6291202 116.7536830
  64.6723465  33.6973413 115.2673792  52.8724934  34.9399912 113.0874509
  53.6665533  34.4450232 112.8857084  52.1616627  34.4117775 112.7242214
  57.6919779  37.3218007 117.4386876  57.7456801  37.8908943 118.2064592
  56.8234560  37.4919892 117.0740913  49.1807698  29.0842993 109.1634261
  48.2505286  29.0227449 109.3804223  49.2765170  28.5618946 108.3670903
  64.8207433  33.7639614 118.4386661  65.0143323  34.6685424 118.6845936
  64.7208052  33.3047033 119.2725246  55.4496210  35.5128934 116.7672346
  55.3107296  35.1447718 117.6398284  54.6610806  36.0276573 116.5956304
  56.0444362  40.6138030 108.1097882  56.2196118  40.1426073 108.9243505
  55.3577150  41.2403796 108.3379143  57.0001425  34.8910536 114.1561184
  56.6651258  34.8511306 115.0518833  56.5005371  34.2255252 113.6831594
  59.9360617  32.2366571 104.4298243  59.3189788  31.5113399 104.3331296
  59.4677106  32.9975931 104.0865317  50.6105447  43.7627393 114.8837742
  50.8502046  44.3945917 115.5616761  49.7674644  43.4115433 115.1703102
  51.7259163  26.4551995 103.5519547  50.8488629  26.3340796 103.1881794
  52.2016916  25.6638073 103.2998436  55.1233309  39.5706515 117.2879246
  55.0503481  40.3761487 117.7998551  54.6810702  39.7698481 116.4627268
  54.9123089  38.8078285 110.7982068  54.1290611  39.3499965 110.8920293
  55.6115834  39.3252265 111.1976309  58.2219739  24.6172915 113.4416273
  58.7188439  23.8642877 113.1217344  57.4506721  24.6537231 112.8759483
  66.0749497  30.3213280 115.0834565  66.0639373  31.2037996 114.7128498
  65.2066876  29.9684831 114.8889102  57.5831993  39.4693349 119.4437405
  58.2959965  40.1040814 119.3713307  57.0922022  39.5657215 118.6277407
  59.3049520  33.3744602 111.0154697  58.3705799  33.4946064 110.8459401
  59.4826188  32.4717069 110.7514707  62.6922071  29.2161921 111.5504731
  63.1582523  30.0489913 111.4765034  63.1429572  28.7506903 112.2549989
  60.7598302  35.5605742 108.5490883  61.0358146  35.4462337 109.4584757
  59.8902801  35.1623227 108.5103056  57.3952366  39.8092093 112.1923697
  57.5774761  38.9913749 112.6551449  58.2185352  40.0259786 111.7548587
  57.7294532  38.7360278 109.4538745  58.2582298  38.2252733 108.8408907
  57.9922751  38.4202809 110.3184278  51.0850280  39.7875395 112.2136521
  50.4160655  40.2721523 111.7300561  50.9463149  40.0344616 113.1279900
  55.2255548  41.8219139 118.8119179  55.7773856  41.9850760 119.5768265
  55.5661742  42.4123576 118.1399204  46.4537857  28.0493850 108.9932453
  46.7491298  27.1404529 108.9399507  45.5525893  28.0281590 108.6713455
  58.3623936  39.7701114 115.7982862  58.2375075  38.9690854 115.2893807
  59.0203027  40.2647308 115.3096831  60.4258844  37.5710134 117.4262412
  59.4789179  37.4515485 117.3540738  60.7741617  36.6832632 117.5088673
  48.1825698  25.7307948 109.1171778  47.8538405  24.8505327 108.9346884
  48.5365069  25.6755616 110.0048168  57.4305277  37.3662850 113.6266764
  57.2830240  36.4379558 113.8074334  58.2558771  37.3882941 113.1423839
  51.2967522  26.0180918 109.4847256  51.6363594  26.5466839 108.7625864
  51.7439642  26.3561324 110.2605823  61.0339399  38.1891409 114.7131637
  61.9585947  37.9834271 114.5756088  60.8654702  37.9407810 115.6220978
  53.2835669  24.5155539 107.6840549  54.0044031  24.8936792 107.1804266
  52.6600973  25.2344416 107.7875527  57.4266792  25.2200688 108.6198881
  57.6430406  26.1025326 108.3187709  56.9460859  24.8286902 107.8904523
  60.8234715  38.7077077 110.0693728  60.9971593  38.1423499 109.3167580
  61.3163607  39.5077972 109.8873218  53.4299292  24.0503330 110.5138085
  53.5515203  23.1219976 110.7128973  53.1401334  24.0642016 109.6016401
  66.6774106  31.4713500 111.6884028  67.1205253  30.7220825 111.2903151
  65.8000617  31.4623636 111.3057760  61.8109888  38.0243841 107.1690626
  62.5060792  38.6450534 107.3877941  62.1533038  37.1739192 107.4443004
  63.7101311  35.4743547 108.6977957  64.2352635  35.8130819 107.9727277
  63.6223663  34.5390562 108.5141092  55.3941972  41.5415530 113.0573210
  54.9546962  41.0491909 113.7506067  56.1450089  40.9988498 112.8165286
  47.8734311  37.7327071 113.0597838  48.6992331  37.4330843 112.6796482
  47.5228363  36.9634693 113.5087627  52.8415844  37.0853539 115.1295512
  52.2195853  36.4224244 114.8297740  53.5120711  37.1114671 114.4469160
  46.0742916  35.6513397 114.0186772  45.2374824  35.2235572 113.8370773
  46.0466561  35.8445841 114.9557563  52.4029351  35.6357462 108.6053972
  52.5517471  36.3192927 107.9520645  53.2095794  35.6162552 109.1203428
  65.0211289  35.3765858 121.5603905  64.7296097  35.7395839 122.3967366
  64.4083420  34.6632866 121.3817237  66.2206971  32.9418738 114.0806475
  67.0553863  33.3808542 114.2444036  66.3566100  32.4657391 113.2614721
  50.1581984  31.6622640 109.6115041  49.9128026  30.7584970 109.8095252
  50.3277898  31.6639790 108.6694519  49.4277631  27.3950998 107.1101203
  48.7346876  27.4695353 106.4541239  49.1829383  26.6311341 107.6322720
  55.9024756  38.1305593 106.0765720  55.3298723  38.7495780 105.6236192
  56.4757550  38.6804954 106.6105642  59.1222016  38.4142743 107.2074302
  60.0552689  38.3488305 107.4107178  59.0345229  39.2499010 106.7488835
  61.7510033  37.7308613 104.1678250  61.6723664  37.3968477 105.0614008
  62.5719699  38.2230381 104.1669722  64.4488224  30.5970353 117.3754568
  64.4164544  29.6586353 117.5614252  65.0588848  30.6754389 116.6420393
  56.2871555  29.4666406 103.4181772  57.2330659  29.3372614 103.4870190
  55.9085800  28.7281067 103.8951201  70.2664774  31.6586359 116.5160605
  70.9968162  31.3971648 117.0768308  69.6571719  30.9215081 116.5562673
  68.3480071  29.7994222 117.1135056  67.6213234  29.6650187 116.5051548
  67.9327358  30.1071051 117.9191774  54.4714472  27.3916382 103.3536658
  53.5645927  27.0949495 103.4299371  54.7490453  27.0946200 102.4870944
  56.0876538  21.9353272 109.5080899  55.2777266  21.5900357 109.8836145
  56.7760955  21.6260815 110.0968510  53.2413257  24.2503317 103.4948637
  54.1032421  24.5758215 103.7544454  53.4263601  23.4634813 102.9821703
  61.3945893  23.1231844 110.6383860  60.8144562  23.7816648 110.2561912
  61.1281826  22.3009188 110.2271277  60.1770771  25.2831934 109.6940208
  59.2896626  25.5681585 109.4760403  60.5924760  25.1225697 108.8467485
  63.5285307  25.3078455 113.4094547  64.3045697  25.7974907 113.6819164
  62.8033441  25.7336509 113.8666417  65.9657866  26.0206074 114.4668488
  66.5602357  25.7801810 113.7561796  66.0384449  25.3013205 115.0942024
  48.1855021  39.8639685 114.7811653  48.0509489  39.1040086 114.2149651
  47.7687084  40.5880585 114.3140442  59.3213984  35.0476609 103.7888228
  60.0249835  35.2526611 104.4045884  58.5976633  35.6153371 104.0537312
  60.1511795  30.7986470 109.9090498  60.0946996  31.2555021 109.0698131
  60.7040137  30.0377154 109.7313341  63.9616601  26.5876202 110.7340618
  63.7053535  26.1872837 111.5648825  63.3369469  27.3019996 110.6090757
  68.2728939  29.3272275 113.2411909  67.7128497  29.3965464 114.0143471
  67.6672442  29.1513260 112.5211405  51.3424147  40.7609002 114.9930095
  51.2256531  41.7054435 114.8908786  50.5216594  40.4582564 115.3815895
  61.2300682  35.4859138 105.8386688  62.0646286  35.0540336 105.6564163
  61.0685025  35.3141152 106.7663583  60.8846574  31.9891251 107.2043027
  60.8295378  31.8235523 106.2631472  60.2592629  32.6967284 107.3605217
  54.1942700  21.4899360 106.7828346  54.1821369  22.4341200 106.9396617
  55.0866121  21.3069506 106.4887807  52.3678661  41.4137264 118.2086024
  53.2705908  41.4460874 118.5252519  52.1416032  40.4837715 118.2232360
  54.1232263  40.1668251 114.8696102  53.1727894  40.1670112 114.7560475
  54.4264750  39.4200985 114.3532137  69.8584957  46.0028789 115.9341865
  70.4963367  45.8835536 115.2305205  69.7405800  46.9509633 115.9929817
  66.6674663  45.9556217 115.8703390  66.3293175  45.8397282 114.9823924
  67.5364431  45.5547382 115.8504396  62.5261479  47.8091693 111.8600281
  61.9626344  47.7181630 111.0916568  62.4113874  46.9891598 112.3402773
  67.1494446  47.1091069 121.8289595  67.1383087  46.7143867 120.9570099
  67.3115086  46.3757141 122.4223367  60.0725911  49.3042885 114.6984501
  60.8647203  48.9633710 114.2830800  60.3122561  49.4137860 115.6186654
  68.1061038  51.4762661 107.1714745  67.4549017  52.0616742 106.7848759
  68.9005400  52.0068856 107.2309783  62.0316665  48.5651798 107.5701880
  62.8047541  48.0180785 107.4314756  62.3842064  49.4296048 107.7816341
  63.8701707  49.8928181 120.7768779  63.5791573  50.7973811 120.6615445
  64.5058692  49.9344708 121.4912849  64.7957914  47.2705029 117.3670139
  65.3921486  47.0461052 116.6527102  64.8532886  46.5289775 117.9695587
  64.3682943  44.7244464 105.2020330  64.6208463  44.2025986 104.4403793
  63.4307502  44.5610610 105.3047013  69.4126225  43.7280243 113.0095073
  70.1989315  43.3099666 112.6585490  69.6764930  44.6326335 113.1776721
  69.5836303  49.1653093 107.7083730  68.9482136  49.2387720 108.4204634
  69.2533709  49.7546692 107.0302809  74.8134653  43.6655476 113.9128051
  75.5459825  43.0954693 114.1465881  74.0574008  43.2777076 114.3534557
  64.0879231  46.6272570 107.4044705  63.9715489  45.9517474 108.0725789
  64.1981491  46.1404944 106.5876858  66.4310772  46.0882717 111.1091394
  66.0668980  45.5613338 111.8204315  67.2877888  45.6981187 110.9357879
  72.3360073  37.3777050 118.3722660  72.0043398  38.2472461 118.1483875
  71.7405686  37.0613334 119.0516690  66.0716259  41.1172617 106.1052742
  66.2390662  41.9852854 106.4723213  65.8813428  41.2799899 105.1814032
  68.8291592  49.5789596 117.7718573  68.5292316  50.4814635 117.6634380
  68.4842652  49.3121779 118.6239726  62.2804074  46.0303393 113.8055277
  61.3554570  45.8979607 114.0132969  62.5288487  46.8097612 114.3025220
  72.2288736  42.0972136 115.4516010  71.3205614  42.0287545 115.1574771
  72.1776332  42.5744081 116.2797836  66.0505480  43.5730275 107.0899409
  65.9305105  44.0187325 107.9284889  65.3558069  43.9215592 106.5312947
  59.6412885  45.6736666 114.6399066  59.7705266  45.9271145 115.5538478
  58.9610336  46.2664374 114.3203721  63.8112372  56.3433916 110.7389540
  63.7336402  57.2941742 110.8178021  63.2074016  55.9979789 111.3964467
  66.3029602  43.5161782 123.3950907  65.5262936  44.0755702 123.3853772
  66.9420165  44.0018565 123.9165777  74.0950383  40.2988575 117.2293884
  73.4524763  40.5921108 116.5833679  73.5905311  40.1841495 118.0347081
  71.7490546  44.0451748 107.9179743  72.6608402  44.2779135 107.7427441
  71.2400193  44.6288792 107.3554822  64.5575974  46.3247235 122.9568874
  65.2990659  46.8632279 122.6803698  63.8512960  46.9513524 123.1140426
  70.0331314  48.4676376 121.5541036  70.4414670  48.0258786 120.8095668
  69.3108575  47.8929003 121.8075229  66.3862384  43.4048982 118.9274593
  67.2323579  43.8288396 119.0709242  66.3261022  42.7482607 119.6213156
  70.3560129  49.0277566 115.3093325  69.7268991  49.1923280 114.6069393
  69.9685791  49.4419176 116.0804289  74.2349361  49.9632004 112.6637688
  73.5500399  50.3430906 112.1134722  74.3193210  50.5727331 113.3969636
  69.5361829  41.0653351 120.5855766  69.2922761  41.8195411 120.0490042
  69.8121760  41.4438698 121.4203013  71.4900292  47.6091963 119.2633032
  71.7017187  48.2523723 118.5867413  71.4430040  46.7754280 118.7954962
  69.0926521  40.2209784 116.1669604  68.2311000  40.5191037 116.4586342
  69.1188956  40.4380183 115.2350637  65.9088091  48.7651974 112.5743410
  66.3726436  49.0439677 111.7848032  65.6444889  47.8635419 112.3916501
  62.8012172  48.3123456 115.5123173  63.3713529  48.7410724 114.8740658
  63.3920283  48.0306041 116.2107359  64.8456977  44.8875127 109.3832975
  65.5481020  45.3396170 109.8506901  64.5137605  44.2458946 110.0112868
  63.2937338  43.4786883 123.7584184  62.6635999  44.1603164 123.9919581
  63.1873426  43.3669965 122.8137323  58.5882311  43.1458679 114.6850109
  57.7981365  43.4016208 114.2090219  59.0793558  43.9607017 114.7902149
  72.6046120  50.4863919 117.4355389  73.4263564  50.0844106 117.1538071
  72.6008523  50.3832153 118.3871505  60.5397056  43.5103259 111.6433585
  59.7428219  43.6221953 112.1617081  60.3122648  43.8489911 110.7774476
  66.3702724  50.0347962 119.5916100  66.4347156  50.4968369 120.4274272
  65.6613647  49.4045327 119.7198410  56.8720014  43.3989170 117.1165099
  57.1228052  44.2836180 117.3822675  57.4079562  43.2193771 116.3440191
  80.6952113  46.8302667 113.7840361  79.9415822  46.2610065 113.6284365
  80.8299654  46.7965332 114.7310996  66.0850741  51.7016069 109.4595080
  65.9496416  52.5467605 109.8879928  66.6260554  51.9035347 108.6961014
  59.5380139  49.2191507 110.0323005  60.0504659  50.0134758 110.1828570
  60.1902851  48.5217798 109.9656607  61.3475023  52.3357264 112.1145758
  61.5241652  53.2575228 111.9266742  62.1431857  52.0215683 112.5440138
  65.4886042  39.1965528 123.7129692  66.2295755  39.7972681 123.6334154
  65.7203965  38.4543166 123.1547735  60.6327380  44.3821896 121.9907922
  60.5180895  43.4807153 122.2915021  59.7771898  44.6285592 121.6392738
  67.7119218  52.3239636 123.5895422  67.2683072  51.5376014 123.2716327
  68.3736431  52.5118786 122.9239313  62.4706339  53.8535437 118.1156101
  63.0213764  53.7252501 117.3433095  61.6317815  54.1530327 117.7650994
  69.8100456  52.6042436 121.6176824  69.7918931  53.4251317 121.1257093
  70.7320376  52.4796511 121.8426965  66.2673510  50.1186565 122.4600332
  66.8001847  49.3574854 122.2299640  65.7387591  49.8260217 123.2024486
  69.4343205  35.2246631 117.9893974  69.0907474  36.1148273 117.9133084
  69.8022167  35.0348289 117.1263559  57.5029055  47.5480162 110.8082576
  58.3404277  47.9577170 110.5916284  57.6807323  46.6079604 110.7782770
  69.3993487  45.2155242 106.4966409  68.8840111  45.9859847 106.7354796
  69.1270796  44.5420379 107.1199470  66.9840599  40.0604943 111.5551647
  66.1282195  39.6711794 111.3757286  67.3967550  40.1396904 110.6951433
  68.5139745  37.5951286 115.9543207  68.0104541  37.5581422 115.1411012
  68.8070352  38.5044029 116.0139864  64.7582631  37.6790016 114.9609389
  65.6235628  37.4832825 114.6015278  64.8260140  37.4500368 115.8878745
  74.3727762  47.9687597 108.4319582  73.5957204  47.6298757 107.9874744
  75.0519243  47.9740220 107.7574547  69.1879791  43.0882334 108.3226190
  68.8829926  43.4028484 109.1736333  70.1410233  43.1663754 108.3653523
  67.6326222  49.2472558 109.9719144  67.1047584  48.5125317 109.6592381
  67.1313725  50.0247234 109.7259112  72.6119069  47.4421578 115.0886190
  71.9542743  48.1320840 115.1766319  73.4159468  47.8318010 115.4320177
  62.3644950  39.9092224 112.3325755  62.9388702  39.6867406 111.5998948
  62.9515933  39.9780919 113.0854357  71.4224527  45.7965951 113.1390132
  71.9356409  46.4295943 113.6411842  72.0725751  45.1967146 112.7733492
  62.6914537  41.9396685 106.3521641  61.8551849  42.2771372 106.6730915
  62.5519307  41.8045665 105.4148778  64.6667618  36.7833473 111.0600825
  64.0132030  36.4682490 110.4357440  64.6248092  36.1609213 111.7860648
  65.7778823  47.0652768 102.9754117  64.8705884  46.8342022 103.1745266
  66.2749855  46.2690387 103.1628098  68.6846902  55.7750275 105.8950803
  68.0108600  56.0781972 106.5035761  69.0712724  56.5779356 105.5456260
  67.9005358  43.2715407 115.3848472  66.9827920  43.4930354 115.2270161
  68.3165502  43.3461717 114.5260180  68.6840406  44.6706822 110.5151153
  69.4312225  45.1828219 110.2058275  68.9531995  44.3490875 111.3755546
  66.9567056  47.1665363 107.4978107  66.0478275  46.8824396 107.5950577
  66.9862140  47.5864441 106.6381414  72.1886324  50.7771952 111.2669275
  71.7348651  49.9362862 111.3234465  71.5580290  51.4133351 111.6044055
  71.1319243  41.7063938 112.4969942  70.3942000  41.1941325 112.8280185
  71.3846017  41.2664320 111.6853219  70.6319263  52.6148449 112.2019093
  70.9242237  53.1753506 111.4831458  71.1417883  52.9077010 112.9572252
  71.2330870  34.4840190 113.0911711  71.5389747  33.6237554 112.8037626
  71.9583475  35.0757811 112.8910705  57.5255226  44.8870877 111.4793309
  57.3279626  44.2940238 110.7544376  56.9701890  44.5823087 112.1969248
  65.5051950  44.7793984 113.5987902  65.5600560  43.8267820 113.5230379
  64.6943152  44.9353423 114.0829201  66.6543144  48.7074107 104.8366186
  66.2162574  47.9909966 104.3771823  67.3953585  48.9350221 104.2751277
  63.4444310  43.3971043 111.3578281  62.6312176  43.6965214 111.7643473
  63.9403304  43.0026732 112.0752764  65.5952888  53.3928800 113.2912546
  65.5529067  53.6189647 112.3621078  66.5115587  53.1592175 113.4398347
  69.0418522  43.8612868 120.1893175  69.3967909  44.0884341 121.0487641
  69.6890653  44.1931245 119.5670430  74.7716259  46.9831304 110.8942504
  74.6334157  47.1732900 109.9663693  74.4152478  47.7450686 111.3510555
  62.9358385  40.9689399 116.9739516  63.5757764  40.8278158 116.2762480
  62.1035915  40.6823912 116.5978118  74.7985638  49.0507831 115.9053776
  75.2322145  48.9583120 116.7536830  75.5117219  49.0265331 115.2673792
  63.7118689  50.2691829 113.0874509  64.5059287  49.7742149 112.8857084
  63.0010381  49.7409692 112.7242214  68.5313533  52.6509925 117.4386876
  68.5850555  53.2200861 118.2064592  67.6628315  52.8211810 117.0740913
  60.0201452  44.4134911 109.1634261  59.0899040  44.3519366 109.3804223
  60.1158924  43.8910864 108.3670903  59.9387001  40.9389724 111.7512503
  60.1993819  41.8535057 111.6421663  60.7604174  40.4714166 111.9009116
  61.4111927  42.3527481 118.9211328  62.0834980  42.1444843 118.2723976
  60.5841713  42.1549567 118.4816560  75.6601188  49.0931531 118.4386661
  75.8537078  49.9977342 118.6845936  75.5601806  48.6338950 119.2725246
  67.3137499  38.9789422 120.9376988  66.6665414  39.6779372 120.8441465
  68.0838514  39.4125566 121.3053237  70.7216297  49.2438274 124.0127542
  70.5701803  49.0148826 123.0957625  70.7120976  50.2008875 124.0258887
  67.4901633  46.8170187 118.9973808  68.4193693  46.9681346 118.8242775
  67.0692663  46.9054208 118.1422455  66.2889965  50.8420851 116.7672346
  66.1501050  50.4739636 117.6398284  65.5004561  51.3568491 116.5956304
  66.8838117  55.9429948 108.1097882  67.0589872  55.4717991 108.9243505
  66.1970905  56.5695714 108.3379143  67.8395180  50.2202454 114.1561184
  67.5045012  50.1803224 115.0518833  67.3399126  49.5547170 113.6831594
  61.8139424  45.6270084 119.6813765  61.6759222  44.8950323 120.2825304
  62.7244347  45.5378984 119.3997952  70.7754372  47.5658488 104.4298243
  70.1583542  46.8405316 104.3331296  70.3070860  48.3267849 104.0865317
  64.4421725  45.3390043 119.1697444  65.1521343  44.6983235 119.1284063
  64.3991033  45.5902938 120.0923625  72.4308503  52.2757397 122.0904024
  72.3721049  51.5916617 121.4234607  72.8328022  53.0176387 121.6384650
  63.1550658  42.3255261 120.9893084  62.6188016  41.8746000 121.6414680
  62.5667367  42.4601170 120.2463548  61.4499202  59.0919310 114.8837742
  61.6895800  59.7237835 115.5616761  60.6068398  58.7407350 115.1703102
  62.5652917  41.7843913 103.5519547  61.6882384  41.6632713 103.1881794
  63.0410671  40.9929991 103.2998436  72.4325910  50.2396981 120.3218003
  71.5452689  49.9022902 120.4444402  73.0024462  49.5080012 120.5586769
  54.0855058  46.5721072 113.6461055  54.7726097  46.2582802 113.0582070
  53.9303186  47.4762437 113.3728306  58.8889780  41.4611269 118.0746078
  58.8047968  40.8536938 117.3396488  58.0672486  41.9520287 118.0755575
  65.9627064  54.8998433 117.2879246  65.8897235  55.7053404 117.7998551
  65.5204457  55.0990399 116.4627268  65.7516843  54.1370203 110.7982068
  64.9684365  54.6791883 110.8920293  66.4509589  54.6544183 111.1976309
  69.0613494  39.9464832 113.4416273  69.5582193  39.1934795 113.1217344
  68.2900475  39.9829149 112.8759483  76.9143251  45.6505198 115.0834565
  76.9033127  46.5329913 114.7128498  76.0460630  45.2976749 114.8889102
  68.4225747  54.7985267 119.4437405  69.1353720  55.4332732 119.3713307
  67.9315776  54.8949133 118.6277407  70.1443274  48.7036520 111.0154697
  69.2099553  48.8237982 110.8459401  70.3219943  47.8008986 110.7514707
  65.6448462  42.0882215 113.1687958  65.2746250  41.5353256 113.8568864
  66.1407555  41.4840349 112.6162958  73.5315826  44.5453839 111.5504731
  73.9976278  45.3781830 111.4765034  73.9823326  44.0798820 112.2549989
  63.4737661  52.5479710 120.2642976  64.1747120  53.1816193 120.4172370
  63.0032776  52.8894442 119.5038615  71.5992057  50.8897660 108.5490883
  71.8751901  50.7754255 109.4584757  70.7296555  50.4915145 108.5103056
  71.5032488  36.9134426 115.5895632  70.5895568  37.1438653 115.7577839
  71.9325590  36.9972870 116.4409665  71.2738947  45.1024318 118.0895526
  70.6210397  45.3500225 117.4347979  71.6519327  44.2888456 117.7558004
  68.2346121  55.1384011 112.1923697  68.4168515  54.3205667 112.6551449
  69.0579107  55.3551703 111.7548587  68.5688286  54.0652196 109.4538745
  69.0976053  53.5544651 108.8408907  68.8316506  53.7494726 110.3184278
  67.3226520  45.8444129 124.5761563  66.6467157  45.7438258 125.2463939
  68.1454154  45.6883343 125.0397561  59.0705379  52.0816065 117.1974079
  59.6558816  51.3359753 117.3301983  58.8730217  52.3920022 118.0810743
  61.9244034  55.1167313 112.2136521  61.2554409  55.6013440 111.7300561
  61.7856904  55.3636533 113.1279900  53.6623034  44.6521666 115.9178522
  53.7007133  44.1185256 116.7115640  53.1563327  44.1256871 115.2989499
  66.0649303  57.1511056 118.8119179  66.6167611  57.3142678 119.5768265
  66.4055496  57.7415494 118.1399204  61.0413796  39.4986206 119.4141064
  61.1055122  40.3601037 119.0018462  60.9780916  38.8860208 118.6813423
  60.5166069  41.5709339 123.0614098  61.1438107  41.1886416 123.6751623
  59.6593987  41.3523541 123.4269791  70.9160177  51.9772314 124.6667834
  71.4600081  52.5902272 124.1722789  70.3347022  52.5351892 125.1834847
  57.2931611  43.3785768 108.9932453  57.5885052  42.4696446 108.9399507
  56.3919647  43.3573507 108.6713455  69.2017690  55.0993032 115.7982862
  69.0768830  54.2982772 115.2893807  69.8596781  55.5939225 115.3096831
  60.8225858  41.4541764 114.9760002  60.1012444  42.0677732 114.8367475
  61.6119114  41.9899529 114.8976648  71.2652598  52.9002052 117.4262412
  70.3182934  52.7807403 117.3540738  71.6135372  52.0124550 117.5088673
  63.6252172  38.7896191 121.2500654  64.1486574  39.0358487 122.0126963
  63.4064505  39.6216226 120.8303791  59.0219453  41.0599865 109.1171778
  58.6932159  40.1797244 108.9346884  59.3758824  41.0047534 110.0048168
  68.2699032  52.6954768 113.6266764  68.1223994  51.7671476 113.8074334
  69.0952525  52.7174859 113.1423839  62.1361276  41.3472835 109.4847256
  62.4757349  41.8758756 108.7625864  62.5833396  41.6853241 110.2605823
  71.8733154  53.5183327 114.7131637  72.7979701  53.3126188 114.5756088
  71.7048457  53.2699728 115.6220978  64.8304717  39.7309886 118.9350324
  64.4901537  38.9317699 119.3371004  64.1243723  40.0311597 118.3627157
  65.4821189  36.8159198 117.3877647  66.3047258  36.3419677 117.2656537
  65.7259252  37.5949682 117.8876333  64.1229423  39.8447457 107.6840549
  64.8437786  40.2228710 107.1804266  63.4994727  40.5636334 107.7875527
  68.2660546  40.5492606 108.6198881  68.4824160  41.4317244 108.3187709
  67.7854613  40.1578819 107.8904523  63.0059767  43.5078319 115.1969626
  62.8604348  43.8218622 116.0893907  62.5284971  44.1263219 114.6440524
  64.8656150  40.4980867 115.2450515  64.8517719  39.6021960 114.9082813
  65.5828578  40.5051531 115.8788801  66.7182281  40.9318207 117.2903643
  66.4600059  41.8535278 117.2887973  66.1867321  40.5348642 117.9804107
  71.6628470  54.0368994 110.0693728  71.8365347  53.4715417 109.3167580
  72.1557361  54.8369889 109.8873218  57.4805430  46.0483663 118.1357287
  56.9358898  46.8243471 118.2677561  58.3584779  46.3954468 117.9776408
  64.2693046  39.3795247 110.5138085  64.3908957  38.4511893 110.7128973
  63.9795089  39.3933933 109.6016401  67.1384237  37.0650158 113.6504805
  67.1605933  37.1289491 112.6956785  67.5552296  36.2254666 113.8445311
  77.5167861  46.8005417 111.6884028  77.9599007  46.0512742 111.2903151
  76.6394371  46.7915554 111.3057760  72.6503642  53.3535759 107.1690626
  73.3454547  53.9742451 107.3877941  72.9926792  52.5031110 107.4443004
  58.2671451  45.1753560 121.0287444  57.5253187  45.3236195 121.6152074
  57.9464196  45.4361825 120.1654193  74.5495065  50.8035464 108.6977957
  75.0746389  51.1422737 107.9727277  74.4617418  49.8682480 108.5141092
  66.2115114  54.7169538 120.8267834  66.5202241  54.4718685 121.6990533
  67.0090596  54.9216176 120.3386704  66.2335726  56.8707448 113.0573210
  65.7940716  56.3783826 113.7506067  66.9843843  56.3280415 112.8165286
  58.7128065  53.0618988 113.0597838  59.5386085  52.7622760 112.6796482
  58.3622117  52.2926611 113.5087627  63.6809598  52.4145457 115.1295512
  63.0589608  51.7516162 114.8297740  64.3514465  52.4406589 114.4469160
  56.9136670  50.9805315 114.0186772  56.0768578  50.5527489 113.8370773
  56.8860316  51.1737758 114.9557563  63.7534126  40.8927245 124.7228018
  63.8022281  41.7689367 124.3405788  64.2956640  40.3504638 124.1499661
  74.2388971  51.4368368 124.0029155  73.4484515  51.4192507 123.4633654
  74.0022326  51.9756662 124.7578192  74.3586847  48.2860834 121.3161884
  74.4084851  48.1210842 122.2577406  74.2500770  47.4188093 120.9259764
  63.2423105  50.9649380 108.6053972  63.3911226  51.6484844 107.9520645
  64.0489549  50.9454470 109.1203428  71.6490609  44.2691762 122.6321190
  72.5500472  44.1298227 122.3405188  71.7238583  44.4346217 123.5719368
  65.9833414  41.6458617 121.4774377  65.1136724  41.9392183 121.2056965
  66.2192895  42.2299062 122.1981640  75.8605043  50.7057776 121.5603905
  75.5689852  51.0687756 122.3967366  75.2477175  49.9924784 121.3817237
  77.0600726  48.2710656 114.0806475  77.8947617  48.7100460 114.2444036
  77.1959854  47.7949309 113.2614721  74.1092232  45.8290390 120.0283963
  74.5846353  46.0218037 119.2202814  73.1857797  45.8849576 119.7827347
  60.9975738  46.9914558 109.6115041  60.7521780  46.0876888 109.8095252
  61.1671653  46.9931708 108.6694519  68.6872448  37.8638234 118.9939797
  69.2054392  38.5999261 118.6686286  68.3327581  38.1702227 119.8286556
  60.2671386  42.7242915 107.1101203  59.5740631  42.7987270 106.4541239
  60.0223138  41.9603259 107.6322720  68.9385042  34.2838517 114.5140694
  69.2186796  33.6161706 115.1401120  69.7235649  34.4767612 114.0015357
  66.7418511  53.4597510 106.0765720  66.1692478  54.0787698 105.6236192
  67.3151304  54.0096872 106.6105642  72.8093901  42.7056151 118.2612269
  73.7611323  42.8054248 118.2824493  72.6397351  41.9134419 118.7710353
  70.8308280  39.7911734 118.4471670  70.2358212  40.0716746 117.7518158
  70.5457977  40.2805635 119.2188411  69.9615771  53.7434661 107.2074302
  70.8946444  53.6780222 107.4107178  69.8738983  54.5790927 106.7488835
  72.5903787  53.0600531 104.1678250  72.5117419  52.7260395 105.0614008
  73.4113454  53.5522299 104.1669722  75.2881978  45.9262270 117.3754568
  75.2558298  44.9878271 117.5614252  75.8982602  46.0046307 116.6420393
  67.1265309  44.7958323 103.4181772  68.0724414  44.6664531 103.4870190
  66.7479554  44.0572985 103.8951201  75.4376467  42.7173314 117.4212852
  74.9215516  41.9331770 117.2342780  76.3216415  42.3892030 117.5859371
  73.0987194  36.4614329 113.3808664  72.9012015  36.1529417 114.2651996
  73.7086899  37.1875968 113.5106594  81.1058528  46.9878277 116.5160605
  81.8361917  46.7263565 117.0768308  80.4965474  46.2506999 116.5562673
  79.1873825  45.1286140 117.1135056  78.4606989  44.9942105 116.5051548
  78.7721112  45.4362968 117.9191774  67.0104002  48.8476069 124.8782429
  67.9307011  49.0254668 125.0722476  66.9753585  47.9032115 124.7262129
  65.3108226  42.7208300 103.3536658  64.4039682  42.4241412 103.4299371
  65.5884207  42.4238118 102.4870944  56.2286167  44.0414663 113.8035704
  55.9088951  43.1879971 113.5110078  55.6819595  44.2563241 114.5593671
  60.0066074  46.7577104 117.5205211  60.2252084  47.6894212 117.5393244
  60.4191848  46.3985078 118.3060014  66.9270292  37.2645189 109.5080899
  66.1171020  36.9192274 109.8836145  67.6154709  36.9552733 110.0968510
  68.8560840  36.3423236 111.1305196  69.4091879  36.7618690 111.7895219
  69.0930927  35.4158984 111.1728152  64.0807011  39.5795235 103.4948637
  64.9426175  39.9050133 103.7544454  64.2657355  38.7926731 102.9821703
  56.0974427  47.6617574 115.7728826  55.4037898  47.2471527 115.2598780
  56.8447418  47.7038111 115.1762245  72.2339647  38.4523761 110.6383860
  71.6538317  39.1108565 110.2561912  71.9675580  37.6301106 110.2271277
  70.6843214  37.8528819 112.8405180  71.1842992  37.9645353 112.0319499
  71.3278822  37.5489872 113.4805989  64.7425210  45.7607449 125.7273021
  64.2592291  46.5607809 125.9336910  64.8286149  45.7715393 124.7740465
  58.0111169  47.5935828 113.6494840  57.9881857  47.6923516 112.6976724
  58.3211806  48.4400979 113.9712007  60.6698547  49.6511983 117.7641455
  61.6241801  49.6195926 117.6971386  60.4711071  49.1902607 118.5791681
  61.2597929  48.2213099 120.3312253  62.0790818  48.7157178 120.3547090
  61.5334737  47.3045067 120.3029820  71.0164526  40.6123852 109.6940208
  70.1290381  40.8973502 109.4760403  71.4318515  40.4517615 108.8467485
  74.3679062  40.6370373 113.4094547  75.1439452  41.1266825 113.6819164
  73.6427196  41.0628427 113.8666417  76.8051620  41.3497992 114.4668488
  77.3996111  41.1093728 113.7561796  76.8778204  40.6305122 115.0942024
  59.0248776  55.1931603 114.7811653  58.8903244  54.4332004 114.2149651
  58.6080838  55.9172503 114.3140442  70.1607739  50.3768526 103.7888228
  70.8643589  50.5818529 104.4045884  69.4370388  50.9445288 104.0537312
  70.9905549  46.1278388 109.9090498  70.9340751  46.5846939 109.0698131
  71.5433892  45.3669072 109.7313341  74.8010355  41.9168119 110.7340618
  74.5447289  41.5164755 111.5648825  74.1763223  42.6311913 110.6090757
  79.1122693  44.6564193 113.2411909  78.5522251  44.7257382 114.0143471
  78.5066196  44.4805177 112.5211405  62.1817902  56.0900920 114.9930095
  62.0650286  57.0346352 114.8908786  61.3610348  55.7874481 115.3815895
  72.0694436  50.8151056 105.8386688  72.9040040  50.3832254 105.6564163
  71.9078779  50.6433069 106.7663583  71.7240329  47.3183169 107.2043027
  71.6689132  47.1527440 106.2631472  71.0986384  48.0259202 107.3605217
  56.5132844  42.5551233 121.0304450  57.1591707  42.0450187 121.5191675
  56.3049995  43.2919915 121.6047875  69.0386236  49.6232081 126.5296590
  69.9077395  49.7972733 126.1683225  68.5592987  50.4426498 126.4072320
  65.0336454  36.8191278 106.7828346  65.0215124  37.7633118 106.9396617
  65.9259876  36.6361423 106.4887807  63.2072416  56.7429182 118.2086024
  64.1099663  56.7752792 118.5252519  62.9809786  55.8129633 118.2232360
  64.9626018  55.4960168 114.8696102  64.0121649  55.4962030 114.7560475
  65.2658504  54.7492903 114.3532137  68.8488573  33.4134054 111.0374283
  68.0820969  32.8592541 111.1830965  69.2599278  33.4855923 111.8988434
  80.6978711  61.3320707 115.9341865  81.3357121  61.2127454 115.2305205
  80.5799554  62.2801551 115.9929817  77.5068418  61.2848135 115.8703390
  77.1686929  61.1689199 114.9823924  78.3758186  60.8839300 115.8504396
  73.3655233  63.1383611 111.8600281  72.8020099  63.0473548 111.0916568
  73.2507628  62.3183516 112.3402773  77.9888201  62.4382986 121.8289595
  77.9776842  62.0435785 120.9570099  78.1508840  61.7049059 122.4223367
  70.9119665  64.6334803 114.6984501  71.7040957  64.2925627 114.2830800
  71.1516316  64.7429778 115.6186654  78.9454792  66.8054579 107.1714745
  78.2942772  67.3908659 106.7848759  79.7399155  67.3360774 107.2309783
  72.8710419  63.8943716 107.5701880  73.6441295  63.3472703 107.4314756
  73.2235818  64.7587965 107.7816341  74.7095462  65.2220098 120.7768779
  74.4185328  66.1265729 120.6615445  75.3452446  65.2636626 121.4912849
  75.6351669  62.5996947 117.3670139  76.2315241  62.3752969 116.6527102
  75.6926640  61.8581692 117.9695587  75.2076697  60.0536382 105.2020330
  75.4602218  59.5317903 104.4403793  74.2701256  59.8902528 105.3047013
  80.2519980  59.0572160 113.0095073  81.0383069  58.6391584 112.6585490
  80.5158684  59.9618253 113.1776721  80.4230057  64.4945011 107.7083730
  79.7875890  64.5679637 108.4204634  80.0927464  65.0838610 107.0302809
  85.6528407  58.9947394 113.9128051  86.3853579  58.4246610 114.1465881
  84.8967763  58.6068994 114.3534557  74.9272986  61.9564488 107.4044705
  74.8109244  61.2809391 108.0725789  75.0375246  61.4696862 106.5876858
  77.2704527  61.4174635 111.1091394  76.9062734  60.8905256 111.8204315
  78.1271643  61.0273104 110.9357879  83.1753827  52.7068968 118.3722660
  82.8437152  53.5764379 118.1483875  82.5799441  52.3905252 119.0516690
  76.9110014  56.4464535 106.1052742  77.0784416  57.3144771 106.4723213
  76.7207183  56.6091817 105.1814032  79.6685347  64.9081514 117.7718573
  79.3686070  65.8106553 117.6634380  79.3236406  64.6413697 118.6239726
  73.1197828  61.3595311 113.8055277  72.1948325  61.2271525 114.0132969
  73.3682242  62.1389530 114.3025220  83.0682491  57.4264054 115.4516010
  82.1599368  57.3579462 115.1574771  83.0170087  57.9035999 116.2797836
  76.8899235  58.9022192 107.0899409  76.7698860  59.3479243 107.9284889
  76.1951823  59.2507510 106.5312947  70.4806639  61.0028584 114.6399066
  70.6099021  61.2563063 115.5538478  69.8004091  61.5956292 114.3203721
  74.6506127  71.6725834 110.7389540  74.5730156  72.6233659 110.8178021
  74.0467770  71.3271707 111.3964467  77.1423357  58.8453700 123.3950907
  76.3656691  59.4047620 123.3853772  77.7813920  59.3310483 123.9165777
  84.9344137  55.6280492 117.2293884  84.2918517  55.9213026 116.5833679
  84.4299066  55.5133413 118.0347081  82.5884301  59.3743666 107.9179743
  83.5002157  59.6071052 107.7427441  82.0793948  59.9580710 107.3554822
  75.3969729  61.6539153 122.9568874  76.1384413  62.1924197 122.6803698
  74.6906714  62.2805442 123.1140426  80.8725068  63.7968293 121.5541036
  81.2808425  63.3550704 120.8095668  80.1502330  63.2220921 121.8075229
  77.2256139  58.7340900 118.9274593  78.0717334  59.1580314 119.0709242
  77.1654776  58.0774524 119.6213156  81.1953883  64.3569484 115.3093325
  80.5662746  64.5215198 114.6069393  80.8079545  64.7711094 116.0804289
  85.0743115  65.2923922 112.6637688  84.3894153  65.6722823 112.1134722
  85.1586964  65.9019249 113.3969636  80.3755584  56.3945269 120.5855766
  80.1316516  57.1487329 120.0490042  80.6515514  56.7730616 121.4203013
  82.3294047  62.9383881 119.2633032  82.5410942  63.5815641 118.5867413
  82.2823795  62.1046197 118.7954962  79.9320276  55.5501702 116.1669604
  79.0704755  55.8482955 116.4586342  79.9582710  55.7672100 115.2350637
  76.7481845  64.0943892 112.5743410  77.2120191  64.3731595 111.7848032
  76.4838643  63.1927337 112.3916501  73.6405926  63.6415374 115.5123173
  74.2107283  64.0702642 114.8740658  74.2314038  63.3597958 116.2107359
  75.6850731  60.2167044 109.3832975  76.3874774  60.6688088 109.8506901
  75.3531360  59.5750863 110.0112868  74.1331093  58.8078801 123.7584184
  73.5029753  59.4895082 123.9919581  74.0267180  58.6961883 122.8137323
  69.4276065  58.4750597 114.6850109  68.6375119  58.7308126 114.2090219
  69.9187312  59.2898935 114.7902149  83.4439875  65.8155836 117.4355389
  84.2657318  65.4136024 117.1538071  83.4402277  65.7124070 118.3871505
  71.3790810  58.8395176 111.6433585  70.5821974  58.9513871 112.1617081
  71.1516403  59.1781829 110.7774476  77.2096478  65.3639880 119.5916100
  77.2740911  65.8260287 120.4274272  76.5007402  64.7337245 119.7198410
  67.7113768  58.7281088 117.1165099  67.9621806  59.6128097 117.3822675
  68.2473316  58.5485689 116.3440191  91.5345868  62.1594585 113.7840361
  90.7809576  61.5901983 113.6284365  91.6693409  62.1257249 114.7310996
  76.9244496  67.0307987 109.4595080  76.7890170  67.8759523 109.8879928
  77.4654308  67.2327265 108.6961014  73.4111835  53.1099567 126.1209435
  73.0178781  52.5565765 126.7957080  74.2277976  53.4210145 126.5115953
  70.3773893  64.5483425 110.0323005  70.8898414  65.3426675 110.1828570
  71.0296606  63.8509716 109.9656607  72.1868778  67.6649181 112.1145758
  72.3635406  68.5867146 111.9266742  72.9825611  67.3507601 112.5440138
  76.3279796  54.5257446 123.7129692  77.0689510  55.1264599 123.6334154
  76.5597719  53.7835084 123.1547735  71.4721134  59.7113813 121.9907922
  71.3574649  58.8099071 122.2915021  70.6165652  59.9577510 121.6392738
  78.5512972  67.6531554 123.5895422  78.1076826  66.8667932 123.2716327
  79.2130186  67.8410704 122.9239313  73.3100093  69.1827355 118.1156101
  73.8607518  69.0544419 117.3433095  72.4711569  69.4822244 117.7650994
  80.6494210  67.9334354 121.6176824  80.6312685  68.7543235 121.1257093
  81.5714130  67.8088429 121.8426965  77.1067264  65.4478483 122.4600332
  77.6395601  64.6866771 122.2299640  76.5781345  65.1552135 123.2024486
  80.2736959  50.5538549 117.9893974  79.9301229  51.4440191 117.9133084
  80.6415922  50.3640207 117.1263559  68.3422810  62.8772079 110.8082576
  69.1798032  63.2869088 110.5916284  68.5201078  61.9371522 110.7782770
  80.2387242  60.5447160 106.4966409  79.7233865  61.3151765 106.7354796
  79.9664550  59.8712296 107.1199470  77.8234353  55.3896861 111.5551647
  76.9675949  55.0003711 111.3757286  78.2361305  55.4688822 110.6951433
  79.3533500  52.9243204 115.9543207  78.8498295  52.8873339 115.1411012
  79.6464107  53.8335947 116.0139864  75.5976386  53.0081934 114.9609389
  76.4629382  52.8124743 114.6015278  75.6653894  52.7792286 115.8878745
  85.2121516  63.2979515 108.4319582  84.4350959  62.9590674 107.9874744
  85.8912997  63.3032138 107.7574547  80.0273545  58.4174252 108.3226190
  79.7223681  58.7320401 109.1736333  80.9803987  58.4955672 108.3653523
  78.4719977  64.5764475 109.9719144  77.9441339  63.8417235 109.6592381
  77.9707480  65.3539152 109.7259112  83.4512823  62.7713496 115.0886190
  82.7936497  63.4612757 115.1766319  84.2553222  63.1609928 115.4320177
  73.2038705  55.2384142 112.3325755  73.7782457  55.0159323 111.5998948
  73.7909687  55.3072836 113.0854357  82.2618282  61.1257869 113.1390132
  82.7750164  61.7587860 113.6411842  82.9119506  60.5259064 112.7733492
  73.5308292  57.2688603 106.3521641  72.6945604  57.6063289 106.6730915
  73.3913061  57.1337583 105.4148778  75.5061372  52.1125391 111.0600825
  74.8525785  51.7974408 110.4357440  75.4641846  51.4901131 111.7860648
  76.6172577  62.3944686 102.9754117  75.7099639  62.1633939 103.1745266
  77.1143609  61.5982305 103.1628098  79.5240656  71.1042193 105.8950803
  78.8502355  71.4073890 106.5035761  79.9106478  71.9071273 105.5456260
  78.7399113  58.6007324 115.3848472  77.8221674  58.8222271 115.2270161
  79.1559256  58.6753635 114.5260180  79.5234160  59.9998740 110.5151153
  80.2705979  60.5120137 110.2058275  79.7925750  59.6782793 111.3755546
  77.7960811  62.4957281 107.4978107  76.8872030  62.2116313 107.5950577
  77.8255894  62.9156359 106.6381414  83.0280078  66.1063870 111.2669275
  82.5742405  65.2654780 111.3234465  82.3974045  66.7425268 111.6044055
  81.9712998  57.0355856 112.4969942  81.2335754  56.5233242 112.8280185
  82.2239771  56.5956238 111.6853219  81.4713017  67.9440367 112.2019093
  81.7635992  68.5045424 111.4831458  81.9811638  68.2368928 112.9572252
  82.0724625  49.8132108 113.0911711  82.3783502  48.9529472 112.8037626
  82.7977230  50.4049728 112.8910705  68.3648981  60.2162795 111.4793309
  68.1673381  59.6232155 110.7544376  67.8095645  59.9115005 112.1969248
  76.3445705  60.1085901 113.5987902  76.3994314  59.1559738 113.5230379
  75.5336907  60.2645340 114.0829201  77.4936898  64.0366024 104.8366186
  77.0556328  63.3201883 104.3771823  78.2347339  64.2642139 104.2751277
  74.2838065  58.7262961 111.3578281  73.4705930  59.0257132 111.7643473
  74.7797059  58.3318650 112.0752764  76.4346642  68.7220718 113.2912546
  76.3922821  68.9481564 112.3621078  77.3509341  68.4884092 113.4398347
  79.8812276  59.1904785 120.1893175  80.2361664  59.4176259 121.0487641
  80.5284407  59.5223162 119.5670430  85.6110013  62.3123221 110.8942504
  85.4727912  62.5024817 109.9663693  85.2546232  63.0742604 111.3510555
  73.7752139  56.2981316 116.9739516  74.4151519  56.1570076 116.2762480
  72.9429670  56.0115830 116.5978118  85.6379393  64.3799748 115.9053776
  86.0715899  64.2875037 116.7536830  86.3510973  64.3557249 115.2673792
  74.5512443  65.5983747 113.0874509  75.3453042  65.1034067 112.8857084
  73.8404136  65.0701610 112.7242214  79.3707288  67.9801842 117.4386876
  79.4244310  68.5492779 118.2064592  78.5022069  68.1503727 117.0740913
  70.8595207  59.7426829 109.1634261  69.9292795  59.6811284 109.3804223
  70.9552679  59.2202781 108.3670903  70.7780756  56.2681641 111.7512503
  71.0387573  57.1826975 111.6421663  71.5997928  55.8006084 111.9009116
  72.2505681  57.6819399 118.9211328  72.9228735  57.4736761 118.2723976
  71.4235468  57.4841485 118.4816560  86.4994942  64.4223449 118.4386661
  86.6930832  65.3269259 118.6845936  86.3995561  63.9630868 119.2725246
  78.1531253  54.3081340 120.9376988  77.5059168  55.0071289 120.8441465
  78.9232268  54.7417483 121.3053237  81.5610051  64.5730192 124.0127542
  81.4095557  64.3440743 123.0957625  81.5514731  65.5300793 124.0258887
  78.3295387  62.1462104 118.9973808  79.2587447  62.2973264 118.8242775
  77.9086417  62.2346125 118.1422455  77.1283719  66.1712769 116.7672346
  76.9894805  65.8031553 117.6398284  76.3398315  66.6860408 116.5956304
  77.7231871  71.2721865 108.1097882  77.8983627  70.8009909 108.9243505
  77.0364659  71.8987632 108.3379143  78.6788934  65.5494372 114.1561184
  78.3438767  65.5095142 115.0518833  78.1792880  64.8839088 113.6831594
  72.6533178  60.9562002 119.6813765  72.5152976  60.2242240 120.2825304
  73.5638102  60.8670902 119.3997952  81.6148126  62.8950406 104.4298243
  80.9977297  62.1697234 104.3331296  81.1464614  63.6559766 104.0865317
  75.2815479  60.6681961 119.1697444  75.9915098  60.0275153 119.1284063
  75.2384787  60.9194856 120.0923625  83.2702258  67.6049314 122.0904024
  83.2114804  66.9208534 121.4234607  83.6721776  68.3468304 121.6384650
  73.9944413  57.6547179 120.9893084  73.4581770  57.2037917 121.6414680
  73.4061121  57.7893088 120.2463548  72.2892956  74.4211228 114.8837742
  72.5289555  75.0529752 115.5616761  71.4462153  74.0699268 115.1703102
  73.4046672  57.1135830 103.5519547  72.5276138  56.9924631 103.1881794
  73.8804425  56.3221909 103.2998436  83.2719665  65.5688898 120.3218003
  82.3846444  65.2314820 120.4444402  83.8418216  64.8371929 120.5586769
  64.9248812  61.9012990 113.6461055  65.6119852  61.5874720 113.0582070
  64.7696941  62.8054355 113.3728306  69.7283534  56.7903187 118.0746078
  69.6441723  56.1828856 117.3396488  68.9066241  57.2812205 118.0755575
  76.8020818  70.2290351 117.2879246  76.7290990  71.0345322 117.7998551
  76.3598211  70.4282316 116.4627268  76.5910598  69.4662121 110.7982068
  75.8078120  70.0083801 110.8920293  77.2903343  69.9836100 111.1976309
  79.9007248  55.2756750 113.4416273  80.3975948  54.5226712 113.1217344
  79.1294230  55.3121067 112.8759483  87.7537005  60.9797116 115.0834565
  87.7426882  61.8621831 114.7128498  86.8854385  60.6268666 114.8889102
  79.2619502  70.1277185 119.4437405  79.9747474  70.7624649 119.3713307
  78.7709531  70.2241051 118.6277407  80.9837029  64.0328437 111.0154697
  80.0493308  64.1529900 110.8459401  81.1613697  63.1300904 110.7514707
  76.4842217  57.4174133 113.1687958  76.1140004  56.8645173 113.8568864
  76.9801309  56.8132267 112.6162958  84.3709580  59.8745757 111.5504731
  84.8370032  60.7073748 111.4765034  84.8217081  59.4090738 112.2549989
  74.3131415  67.8771628 120.2642976  75.0140875  68.5108111 120.4172370
  73.8426530  68.2186360 119.5038615  82.4385811  66.2189578 108.5490883
  82.7145655  66.1046172 109.4584757  81.5690310  65.8207063 108.5103056
  82.3426243  52.2426344 115.5895632  81.4289323  52.4730570 115.7577839
  82.7719344  52.3264788 116.4409665  82.1132701  60.4316236 118.0895526
  81.4604152  60.6792143 117.4347979  82.4913081  59.6180374 117.7558004
  79.0739875  70.4675929 112.1923697  79.2562270  69.6497585 112.6551449
  79.8972861  70.6843621 111.7548587  79.4082041  69.3944114 109.4538745
  79.9369807  68.8836568 108.8408907  79.6710260  69.0786644 110.3184278
  78.1620274  61.1736047 124.5761563  77.4860911  61.0730176 125.2463939
  78.9847908  61.0175260 125.0397561  69.9099133  67.4107983 117.1974079
  70.4952570  66.6651671 117.3301983  69.7123972  67.7211940 118.0810743
  72.7637789  70.4459230 112.2136521  72.0948164  70.9305358 111.7300561
  72.6250658  70.6928451 113.1279900  64.5016788  59.9813583 115.9178522
  64.5400888  59.4477174 116.7115640  63.9957081  59.4548789 115.2989499
  76.9043057  72.4802974 118.8119179  77.4561365  72.6434596 119.5768265
  77.2449251  73.0707412 118.1399204  71.8807550  54.8278124 119.4141064
  71.9448877  55.6892955 119.0018462  71.8174671  54.2152125 118.6813423
  71.3559823  56.9001256 123.0614098  71.9831862  56.5178334 123.6751623
  70.4987742  56.6815458 123.4269791  68.1325366  58.7077685 108.9932453
  68.4278807  57.7988364 108.9399507  67.2313402  58.6865425 108.6713455
  80.0411445  70.4284950 115.7982862  79.9162584  69.6274689 115.2893807
  80.6990536  70.9231143 115.3096831  71.6619613  56.7833682 114.9760002
  70.9406199  57.3969650 114.8367475  72.4512869  57.3191447 114.8976648
  82.1046353  68.2293970 117.4262412  81.1576688  68.1099321 117.3540738
  82.4529126  67.3416468 117.5088673  74.4645926  54.1188109 121.2500654
  74.9880328  54.3650405 122.0126963  74.2458260  54.9508143 120.8303791
  69.8613207  56.3891783 109.1171778  69.5325914  55.5089162 108.9346884
  70.2152578  56.3339452 110.0048168  79.1092786  68.0246686 113.6266764
  78.9617749  67.0963393 113.8074334  79.9346280  68.0466777 113.1423839
  72.9755031  56.6764753 109.4847256  73.3151103  57.2050674 108.7625864
  73.4227151  57.0145159 110.2605823  82.7126908  68.8475245 114.7131637
  83.6373456  68.6418106 114.5756088  82.5442211  68.5991646 115.6220978
  75.6698471  55.0601804 118.9350324  75.3295292  54.2609617 119.3371004
  74.9637478  55.3603514 118.3627157  76.3214943  52.1451116 117.3877647
  77.1441012  51.6711594 117.2656537  76.5653007  52.9241600 117.8876333
  74.9623178  55.1739375 107.6840549  75.6831540  55.5520627 107.1804266
  74.3388482  55.8928251 107.7875527  79.1054301  55.8784523 108.6198881
  79.3217915  56.7609161 108.3187709  78.6248368  55.4870737 107.8904523
  73.8453522  58.8370237 115.1969626  73.6998103  59.1510540 116.0893907
  73.3678726  59.4555137 114.6440524  75.7049905  55.8272785 115.2450515
  75.6911474  54.9313878 114.9082813  76.4222333  55.8343448 115.8788801
  77.5576036  56.2610125 117.2903643  77.2993813  57.1827196 117.2887973
  77.0261076  55.8640559 117.9804107  82.5022224  69.3660912 110.0693728
  82.6759102  68.8007335 109.3167580  82.9951116  70.1661807 109.8873218
  68.3199184  61.3775581 118.1357287  67.7752652  62.1535389 118.2677561
  69.1978534  61.7246386 117.9776408  75.1086801  54.7087165 110.5138085
  75.2302712  53.7803811 110.7128973  74.8188843  54.7225851 109.6016401
  77.9777991  52.3942075 113.6504805  77.9999688  52.4581409 112.6956785
  78.3946050  51.5546584 113.8445311  88.3561615  62.1297335 111.6884028
  88.7992761  61.3804660 111.2903151  87.4788126  62.1207471 111.3057760
  83.4897397  68.6827676 107.1690626  84.1848301  69.3034369 107.3877941
  83.8320547  67.8323028 107.4443004  69.1065206  60.5045477 121.0287444
  68.3646942  60.6528113 121.6152074  68.7857950  60.7653743 120.1654193
  85.3888820  66.1327382 108.6977957  85.9140144  66.4714655 107.9727277
  85.3011172  65.1974397 108.5141092  77.0508869  70.0461456 120.8267834
  77.3595995  69.8010602 121.6990533  77.8484351  70.2508094 120.3386704
  77.0729481  72.1999365 113.0573210  76.6334471  71.7075744 113.7506067
  77.8237598  71.6572333 112.8165286  69.5521820  68.3910906 113.0597838
  70.3779840  68.0914678 112.6796482  69.2015872  67.6218529 113.5087627
  74.5203353  67.7437374 115.1295512  73.8983362  67.0808079 114.8297740
  75.1908220  67.7698506 114.4469160  67.7530425  66.3097233 114.0186772
  66.9162333  65.8819407 113.8370773  67.7254070  66.5029676 114.9557563
  74.5927880  56.2219162 124.7228018  74.6416036  57.0981285 124.3405788
  75.1350394  55.6796555 124.1499661  85.1980601  63.6152752 121.3161884
  85.2478606  63.4502759 122.2577406  85.0894524  62.7480011 120.9259764
  74.0816860  66.2941298 108.6053972  74.2304980  66.9776762 107.9520645
  74.8883303  66.2746388 109.1203428  82.4884363  59.5983680 122.6321190
  83.3894226  59.4590145 122.3405188  82.5632338  59.7638135 123.5719368
  76.8227169  56.9750535 121.4774377  75.9530478  57.2684101 121.2056965
  77.0586649  57.5590980 122.1981640  86.6998798  66.0349693 121.5603905
  86.4083606  66.3979674 122.3967366  86.0870929  65.3216702 121.3817237
  87.8994480  63.6002573 114.0806475  88.7341372  64.0392377 114.2444036
  88.0353609  63.1241226 113.2614721  84.9485986  61.1582308 120.0283963
  85.4240108  61.3509954 119.2202814  84.0251551  61.2141494 119.7827347
  71.8369493  62.3206475 109.6115041  71.5915535  61.4168805 109.8095252
  72.0065407  62.3223626 108.6694519  79.5266203  53.1930152 118.9939797
  80.0448146  53.9291179 118.6686286  79.1721335  53.4994145 119.8286556
  71.1065140  58.0534833 107.1101203  70.4134385  58.1279188 106.4541239
  70.8616892  57.2895177 107.6322720  79.7778797  49.6130434 114.5140694
  80.0580550  48.9453623 115.1401120  80.5629404  49.8059530 114.0015357
  77.5812265  68.7889428 106.0765720  77.0086232  69.4079615 105.6236192
  78.1545059  69.3388790 106.6105642  83.6487655  58.0348068 118.2612269
  84.6005078  58.1346166 118.2824493  83.4791105  57.2426337 118.7710353
  81.6702035  55.1203651 118.4471670  81.0751967  55.4008664 117.7518158
  81.3851731  55.6097552 119.2188411  80.8009525  69.0726578 107.2074302
  81.7340198  69.0072140 107.4107178  80.7132738  69.9082845 106.7488835
  83.4297542  68.3892449 104.1678250  83.3511173  68.0552312 105.0614008
  84.2507208  68.8814216 104.1669722  86.1275733  61.2554188 117.3754568
  86.0952053  60.3170189 117.5614252  86.7376357  61.3338225 116.6420393
  77.9659064  60.1250241 103.4181772  78.9118168  59.9956449 103.4870190
  77.5873309  59.3864903 103.8951201  86.2770221  58.0465231 117.4212852
  85.7609270  57.2623688 117.2342780  87.1610170  57.7183948 117.5859371
  83.9380948  51.7906247 113.3808664  83.7405769  51.4821335 114.2651996
  84.5480654  52.5167886 113.5106594  91.9452283  62.3170195 116.5160605
  92.6755671  62.0555483 117.0768308  91.3359228  61.5798917 116.5562673
  90.0267580  60.4578057 117.1135056  89.3000743  60.3234022 116.5051548
  89.6114867  60.7654886 117.9191774  77.8497756  64.1767987 124.8782429
  78.7700766  64.3546586 125.0722476  77.8147339  63.2324032 124.7262129
  76.1501981  58.0500217 103.3536658  75.2433436  57.7533330 103.4299371
  76.4277962  57.7530035 102.4870944  67.0679921  59.3706581 113.8035704
  66.7482706  58.5171889 113.5110078  66.5213349  59.5855159 114.5593671
  70.8459829  62.0869022 117.5205211  71.0645839  63.0186129 117.5393244
  71.2585603  61.7276996 118.3060014  77.7664047  52.5937107 109.5080899
  76.9564775  52.2484192 109.8836145  78.4548464  52.2844651 110.0968510
  79.6954595  51.6715154 111.1305196  80.2485633  52.0910607 111.7895219
  79.9324681  50.7450902 111.1728152  75.7187694  57.6602227 126.9107959
  75.6184421  58.6096584 126.8420051  75.5009236  57.3320466 126.0384030
  74.9200766  54.9087152 103.4948637  75.7819929  55.2342051 103.7544454
  75.1051110  54.1218648 102.9821703  66.9368181  62.9909492 115.7728826
  66.2431653  62.5763445 115.2598780  67.6841172  63.0330029 115.1762245
  83.0733402  53.7815679 110.6383860  82.4932071  54.4400483 110.2561912
  82.8069335  52.9593024 110.2271277  81.5236968  53.1820737 112.8405180
  82.0236747  53.2937271 112.0319499  82.1672576  52.8781789 113.4805989
  75.5818964  61.0899366 125.7273021  75.0986046  61.8899726 125.9336910
  75.6679903  61.1007311 124.7740465  68.8504924  62.9227746 113.6494840
  68.8275612  63.0215433 112.6976724  69.1605560  63.7692897 113.9712007
  71.5092302  64.9803901 117.7641455  72.4635555  64.9487843 117.6971386
  71.3104825  64.5194525 118.5791681  72.0991684  63.5505017 120.3312253
  72.9184573  64.0449096 120.3547090  72.3728491  62.6336985 120.3029820
  81.8558280  55.9415769 109.6940208  80.9684135  56.2265420 109.4760403
  82.2712269  55.7809533 108.8467485  85.2072816  55.9662290 113.4094547
  85.9833206  56.4558743 113.6819164  84.4820950  56.3920344 113.8666417
  87.6445375  56.6789910 114.4668488  88.2389866  56.4385645 113.7561796
  87.7171958  55.9597040 115.0942024  69.8642530  70.5223520 114.7811653
  69.7296998  69.7623921 114.2149651  69.4474593  71.2464420 114.3140442
  81.0001493  65.7060444 103.7888228  81.7037344  65.9110446 104.4045884
  80.2764142  66.2737206 104.0537312  81.8299304  61.4570305 109.9090498
  81.7734505  61.9138857 109.0698131  82.3827646  60.6960990 109.7313341
  85.6404110  57.2460037 110.7340618  85.3841044  56.8456673 111.5648825
  85.0156978  57.9603831 110.6090757  89.9516448  59.9856110 113.2411909
  89.3916005  60.0549300 114.0143471  89.3459951  59.8097095 112.5211405
  73.0211656  71.4192837 114.9930095  72.9044040  72.3638270 114.8908786
  72.2004103  71.1166399 115.3815895  82.9088191  66.1442973 105.8386688
  83.7433795  65.7124172 105.6564163  82.7472534  65.9724987 106.7663583
  82.5634083  62.6475086 107.2043027  82.5082887  62.4819358 106.2631472
  81.9380138  63.3551119 107.3605217  67.3526598  57.8843151 121.0304450
  67.9985462  57.3742105 121.5191675  67.1443749  58.6211833 121.6047875
  75.8730209  52.1483196 106.7828346  75.8608878  53.0925035 106.9396617
  76.7653630  51.9653341 106.4887807  74.0466170  72.0721099 118.2086024
  74.9493417  72.1044710 118.5252519  73.8203541  71.1421550 118.2232360
  75.8019772  70.8252086 114.8696102  74.8515403  70.8253948 114.7560475
  76.1052259  70.0784820 114.3532137  79.6882328  48.7425972 111.0374283
  78.9214724  48.1884459 111.1830965  80.0993033  48.8147841 111.8988434
  71.6924089  55.0310768 125.1279464  72.5555551  54.6747573 125.3382788
  71.1189500  54.6924663 125.8154868  88.3462172  76.6140052 115.8703390
  88.0080684  76.4981117 114.9823924  89.2151940  76.2131217 115.8504396
  84.2048988  78.4675529 111.8600281  83.6413853  78.3765466 111.0916568
  84.0901383  77.6475433 112.3402773  81.7513420  79.9626720 114.6984501
  82.5434712  79.6217545 114.2830800  81.9910070  80.0721695 115.6186654
  89.7848547  82.1346497 107.1714745  89.1336526  82.7200577 106.7848759
  90.5792909  82.6652691 107.2309783  83.7104174  79.2235634 107.5701880
  84.4835050  78.6764621 107.4314756  84.0629573  80.0879883 107.7816341
  86.0470452  75.3828300 105.2020330  86.2995972  74.8609821 104.4403793
  85.1095011  75.2194445 105.3047013  91.0913734  74.3864078 113.0095073
  91.8776824  73.9683501 112.6585490  91.3552439  75.2910170 113.1776721
  91.2623812  79.8236928 107.7083730  90.6269645  79.8971555 108.4204634
  90.9321218  80.4130527 107.0302809  96.4922162  74.3239311 113.9128051
  97.2247334  73.7538528 114.1465881  95.7361517  73.9360912 114.3534557
  85.7666740  77.2856406 107.4044705  85.6502998  76.6101309 108.0725789
  85.8769000  76.7988780 106.5876858  88.1098281  76.7466553 111.1091394
  87.7456489  76.2197174 111.8204315  88.9665397  76.3565022 110.9357879
  94.0147582  68.0360885 118.3722660  93.6830907  68.9056296 118.1483875
  93.4193195  67.7197169 119.0516690  87.7503768  71.7756453 106.1052742
  87.9178171  72.6436689 106.4723213  87.5600937  71.9383734 105.1814032
  83.9591583  76.6887228 113.8055277  83.0342079  76.5563442 114.0132969
  84.2075996  77.4681448 114.3025220  87.7292989  74.2314110 107.0899409
  87.6092614  74.6771161 107.9284889  87.0345578  74.5799428 106.5312947
  81.3200394  76.3320502 114.6399066  81.4492775  76.5854981 115.5538478
  80.6397845  76.9248210 114.3203721  85.4899881  87.0017752 110.7389540
  85.4123911  87.9525577 110.8178021  84.8861525  86.6563624 111.3964467
  93.4278055  74.7035583 107.9179743  94.3395911  74.9362970 107.7427441
  92.9187702  75.2872627 107.3554822  90.7714030  70.8793619 116.1669604
  89.9098509  71.1774873 116.4586342  90.7976465  71.0964018 115.2350637
  87.5875599  79.4235810 112.5743410  88.0513945  79.7023513 111.7848032
  87.3232398  78.5219254 112.3916501  84.4799681  78.9707291 115.5123173
  85.0501038  79.3994560 114.8740658  85.0707792  78.6889876 116.2107359
  86.5244486  75.5458962 109.3832975  87.2268529  75.9980006 109.8506901
  86.1925114  74.9042781 110.0112868  80.2669820  73.8042515 114.6850109
  79.4768873  74.0600043 114.2090219  80.7581067  74.6190853 114.7902149
  82.2184565  74.1687094 111.6433585  81.4215728  74.2805788 112.1617081
  81.9910157  74.5073746 110.7774476  78.5507522  74.0573005 117.1165099
  78.8015561  74.9420015 117.3822675  79.0867071  73.8777607 116.3440191
  87.7638250  82.3599905 109.4595080  87.6283925  83.2051440 109.8879928
  88.3048063  82.5619182 108.6961014  81.2167648  79.8775343 110.0323005
  81.7292168  80.6718593 110.1828570  81.8690360  79.1801633 109.9656607
  83.0262532  82.9941099 112.1145758  83.2029161  83.9159064 111.9266742
  83.8219366  82.6799518 112.5440138  91.1130714  65.8830467 117.9893974
  90.7694983  66.7732108 117.9133084  91.4809676  65.6932124 117.1263559
  79.1816564  78.2063997 110.8082576  80.0191786  78.6161005 110.5916284
  79.3594832  77.2663439 110.7782770  91.0780996  75.8739078 106.4966409
  90.5627620  76.6443682 106.7354796  90.8058305  75.2004214 107.1199470
  88.6628107  70.7188779 111.5551647  87.8069704  70.3295629 111.3757286
  89.0755059  70.7980739 110.6951433  90.1927254  68.2535122 115.9543207
  89.6892050  68.2165257 115.1411012  90.4857861  69.1627865 116.0139864
  86.4370140  68.3373852 114.9609389  87.3023137  68.1416660 114.6015278
  86.5047649  68.1084203 115.8878745  96.0515271  78.6271432 108.4319582
  95.2744713  78.2882592 107.9874744  96.7306752  78.6324056 107.7574547
  90.8667300  73.7466170 108.3226190  90.5617435  74.0612319 109.1736333
  91.8197742  73.8247590 108.3653523  89.3113731  79.9056393 109.9719144
  88.7835093  79.1709153 109.6592381  88.8101234  80.6831070 109.7259112
  84.0432459  70.5676059 112.3325755  84.6176211  70.3451241 111.5998948
  84.6303442  70.6364754 113.0854357  93.1012036  76.4549786 113.1390132
  93.6143918  77.0879778 113.6411842  93.7513260  75.8550982 112.7733492
  84.3702046  72.5980520 106.3521641  83.5339358  72.9355207 106.6730915
  84.2306816  72.4629500 105.4148778  86.3455127  67.4417308 111.0600825
  85.6919539  67.1266326 110.4357440  86.3035601  66.8193049 111.7860648
  87.4566332  77.7236603 102.9754117  86.5493393  77.4925857 103.1745266
  87.9537364  76.9274223 103.1628098  90.3634411  86.4334111 105.8950803
  89.6896109  86.7365807 106.5035761  90.7500233  87.2363191 105.5456260
  89.5792867  73.9299242 115.3848472  88.6615429  74.1514189 115.2270161
  89.9953011  74.0045552 114.5260180  90.3627915  75.3290658 110.5151153
  91.1099734  75.8412055 110.2058275  90.6319504  75.0074710 111.3755546
  88.6354565  77.8249198 107.4978107  87.7265784  77.5408231 107.5950577
  88.6649649  78.2448277 106.6381414  92.8106752  72.3647774 112.4969942
  92.0729509  71.8525160 112.8280185  93.0633526  71.9248155 111.6853219
  92.9118379  65.1424026 113.0911711  93.2177256  64.2821389 112.8037626
  93.6370984  65.7341646 112.8910705  79.2042735  75.5454712 111.4793309
  79.0067135  74.9524073 110.7544376  78.6489399  75.2406923 112.1969248
  87.1839459  75.4377819 113.5987902  87.2388069  74.4851655 113.5230379
  86.3730661  75.5937258 114.0829201  88.3330653  79.3657942 104.8366186
  87.8950083  78.6493801 104.3771823  89.0741094  79.5934057 104.2751277
  85.1231819  74.0554879 111.3578281  84.3099685  74.3549049 111.7643473
  85.6190813  73.6610567 112.0752764  96.4503768  77.6415139 110.8942504
  96.3121666  77.8316735 109.9663693  96.0939986  78.4034522 111.3510555
  84.6145894  71.6273234 116.9739516  85.2545273  71.4861993 116.2762480
  83.7823424  71.3407748 116.5978118  85.3906198  80.9275665 113.0874509
  86.1846796  80.4325985 112.8857084  84.6797890  80.3993528 112.7242214
  81.6988961  75.0718746 109.1634261  80.7686549  75.0103202 109.3804223
  81.7946433  74.5494699 108.3670903  81.6174510  71.5973559 111.7512503
  81.8781328  72.5118892 111.6421663  82.4391683  71.1298002 111.9009116
  83.0899436  73.0111316 118.9211328  83.7622489  72.8028678 118.2723976
  82.2629222  72.8133402 118.4816560  88.5625626  86.6013783 108.1097882
  88.7377381  86.1301826 108.9243505  87.8758414  87.2279549 108.3379143
  92.4541881  78.2242324 104.4298243  91.8371051  77.4989152 104.3331296
  91.9858369  78.9851684 104.0865317  84.2440426  72.4427748 103.5519547
  83.3669893  72.3216549 103.1881794  84.7198179  71.6513826 103.2998436
  75.7642567  77.2304908 113.6461055  76.4513606  76.9166638 113.0582070
  75.6090695  78.1346272 113.3728306  80.5677289  72.1195104 118.0746078
  80.4835477  71.5120774 117.3396488  79.7459995  72.6104123 118.0755575
  87.4304352  84.7954038 110.7982068  86.6471874  85.3375718 110.8920293
  88.1297098  85.3128018 111.1976309  90.7401003  70.6048668 113.4416273
  91.2369702  69.8518630 113.1217344  89.9687984  70.6412984 112.8759483
  91.8230783  79.3620355 111.0154697  90.8887062  79.4821817 110.8459401
  92.0007452  78.4592822 110.7514707  87.3235971  72.7466051 113.1687958
  86.9533759  72.1937091 113.8568864  87.8195064  72.1424184 112.6162958
  95.2103335  75.2037674 111.5504731  95.6763787  76.0365666 111.4765034
  95.6610835  74.7382656 112.2549989  93.2779566  81.5481496 108.5490883
  93.5539410  81.4338090 109.4584757  92.4084064  81.1498980 108.5103056
  93.1819997  67.5718261 115.5895632  92.2683077  67.8022488 115.7577839
  93.6113099  67.6556705 116.4409665  90.2475795  84.7236031 109.4538745
  90.7763562  84.2128486 108.8408907  90.5104015  84.4078562 110.3184278
  75.3410543  75.3105501 115.9178522  75.3794642  74.7769092 116.7115640
  74.8350836  74.7840707 115.2989499  82.7201305  70.1570041 119.4141064
  82.7842631  71.0184872 119.0018462  82.6568425  69.5444043 118.6813423
  78.9719120  74.0369603 108.9932453  79.2672561  73.1280282 108.9399507
  78.0707156  74.0157343 108.6713455  82.5013367  72.1125600 114.9760002
  81.7799953  72.7261567 114.8367475  83.2906623  72.6483365 114.8976648
  80.7006962  71.7183701 109.1171778  80.3719668  70.8381080 108.9346884
  81.0546333  71.6631369 110.0048168  83.8148785  72.0056671 109.4847256
  84.1544858  72.5342592 108.7625864  84.2620905  72.3437077 110.2605823
  86.5092226  70.3893721 118.9350324  86.1689046  69.5901534 119.3371004
  85.8031232  70.6895432 118.3627157  87.1608698  67.4743034 117.3877647
  87.9834767  67.0003512 117.2656537  87.4046761  68.2533518 117.8876333
  85.8016932  70.5031292 107.6840549  86.5225295  70.8812545 107.1804266
  85.1782236  71.2220169 107.7875527  89.9448055  71.2076441 108.6198881
  90.1611669  72.0901079 108.3187709  89.4642122  70.8162655 107.8904523
  84.6847276  74.1662154 115.1969626  84.5391857  74.4802457 116.0893907
  84.2072480  74.7847055 114.6440524  86.5443659  71.1564702 115.2450515
  86.5305228  70.2605796 114.9082813  87.2616087  71.1635366 115.8788801
  88.3969790  71.5902043 117.2903643  88.1387568  72.5119113 117.2887973
  87.8654830  71.1932477 117.9804107  79.1592939  76.7067499 118.1357287
  78.6146407  77.4827307 118.2677561  80.0372288  77.0538303 117.9776408
  85.9480555  70.0379083 110.5138085  86.0696466  69.1095729 110.7128973
  85.6582598  70.0517769 109.6016401  88.8171746  67.7233993 113.6504805
  88.8393442  67.7873326 112.6956785  89.2339805  66.8838502 113.8445311
  94.3291151  84.0119594 107.1690626  95.0242056  84.6326287 107.3877941
  94.6714301  83.1614945 107.4443004  96.2282574  81.4619300 108.6977957
  96.7533898  81.8006572 107.9727277  96.1404927  80.5266315 108.5141092
  80.3915574  83.7202824 113.0597838  81.2173594  83.4206596 112.6796482
  80.0409626  82.9510446 113.5087627  78.5924179  81.6389150 114.0186772
  77.7556087  81.2111325 113.8370773  78.5647825  81.8321594 114.9557563
  84.9210614  81.6233215 108.6053972  85.0698735  82.3068680 107.9520645
  85.7277058  81.6038305 109.1203428  82.6763247  77.6498393 109.6115041
  82.4309289  76.7460723 109.8095252  82.8459162  77.6515543 108.6694519
  90.3659957  68.5222069 118.9939797  90.8841901  69.2583096 118.6686286
  90.0115090  68.8286063 119.8286556  81.9458895  73.3826751 107.1101203
  81.2528140  73.4571106 106.4541239  81.7010647  72.6187094 107.6322720
  90.6172551  64.9422352 114.5140694  90.8974305  64.2745541 115.1401120
  91.4023158  65.1351448 114.0015357  88.4206020  84.1181346 106.0765720
  87.8479987  84.7371533 105.6236192  88.9938813  84.6680707 106.6105642
  91.6403279  84.4018496 107.2074302  92.5733953  84.3364058 107.4107178
  91.5526492  85.2374763 106.7488835  94.2691296  83.7184366 104.1678250
  94.1904928  83.3844230 105.0614008  95.0900963  84.2106134 104.1669722
  88.8052818  75.4542159 103.4181772  89.7511923  75.3248367 103.4870190
  88.4267063  74.7156820 103.8951201  94.7774703  67.1198165 113.3808664
  94.5799524  66.8113253 114.2651996  95.3874408  67.8459803 113.5106594
  86.9895735  73.3792135 103.3536658  86.0827191  73.0825248 103.4299371
  87.2671716  73.0821953 102.4870944  77.9073676  74.6998498 113.8035704
  77.5876460  73.8463807 113.5110078  77.3607104  74.9147076 114.5593671
  81.6853583  77.4160939 117.5205211  81.9039593  78.3478047 117.5393244
  82.0979357  77.0568914 118.3060014  88.6057801  67.9229025 109.5080899
  87.7958529  67.5776110 109.8836145  89.2942218  67.6136568 110.0968510
  90.5348349  67.0007071 111.1305196  91.0879388  67.4202525 111.7895219
  90.7718436  66.0742820 111.1728152  85.7594520  70.2379070 103.4948637
  86.6213684  70.5633968 103.7544454  85.9444864  69.4510566 102.9821703
  77.7761936  78.3201410 115.7728826  77.0825407  77.9055363 115.2598780
  78.5234927  78.3621946 115.1762245  93.9127156  69.1107597 110.6383860
  93.3325826  69.7692401 110.2561912  93.6463089  68.2884941 110.2271277
  92.3630723  68.5112654 112.8405180  92.8630501  68.6229189 112.0319499
  93.0066331  68.2073707 113.4805989  79.6898678  78.2519664 113.6494840
  79.6669366  78.3507351 112.6976724  79.9999315  79.0984814 113.9712007
  92.6952034  71.2707687 109.6940208  91.8077890  71.5557338 109.4760403
  93.1106024  71.1101450 108.8467485  96.0466571  71.2954208 113.4094547
  96.8226961  71.7850660 113.6819164  95.3214705  71.7212262 113.8666417
  98.4839129  72.0081827 114.4668488  99.0783620  71.7677563 113.7561796
  98.5565713  71.2888958 115.0942024  91.8395248  81.0352362 103.7888228
  92.5431098  81.2402364 104.4045884  91.1157897  81.6029124 104.0537312
  92.6693058  76.7862223 109.9090498  92.6128260  77.2430774 109.0698131
  93.2221401  76.0252908 109.7313341  96.4797864  72.5751955 110.7340618
  96.2234798  72.1748590 111.5648825  95.8550732  73.2895749 110.6090757
  93.7481945  81.4734891 105.8386688  94.5827549  81.0416089 105.6564163
  93.5866288  81.3016905 106.7663583  93.4027838  77.9767004 107.2043027
  93.3476641  77.8111276 106.2631472  92.7773893  78.6843037 107.3605217
  78.1920353  73.2135069 121.0304450  78.8379216  72.7034023 121.5191675
  77.9837504  73.9503750 121.6047875  86.7123963  67.4775113 106.7828346
  86.7002633  68.4216953 106.9396617  87.6047385  67.2945259 106.4887807
  90.5276082  64.0717890 111.0374283  89.7608478  63.5176377 111.1830965
  90.9386787  64.1439759 111.8988434  95.2095801  87.9272438 106.3521641
  94.3733113  88.2647125 106.6730915  95.0700570  87.7921418 105.4148778
  95.0834181  87.7719666 103.5519547  94.2063647  87.6508466 103.1881794
  95.5591934  86.9805744 103.2998436  92.7852649  88.7118668 107.1101203
  92.0921894  88.7863023 106.4541239  92.5404401  87.9479012 107.6322720
  97.8289490  88.7084053 103.3536658  96.9220945  88.4117165 103.4299371
  98.1065471  88.4113871 102.4870944  96.5988274  85.5670988 103.4948637
  97.4607438  85.8925886 103.7544454  96.7838619  84.7802484 102.9821703
  97.5517717  82.8067031 106.7828346  97.5396387  83.7508871 106.9396617
  98.4441139  82.6237176 106.4887807  47.0059394   2.1228562  92.6196110
  46.3321093   2.4260259  93.2281068  47.3925216   2.9257643  92.2701567
  49.0966864  -6.0863225  91.1543550  48.4796034  -6.8116396  91.0576603
  48.6283352  -5.3253864  90.8110624  50.9716135  -0.2985954  93.8935933
  51.6667039   0.3220739  94.1123248  51.3139285  -1.1490603  94.1688311
  45.0631003  -0.1924202  92.8011027  44.4904970   0.4265985  92.3481498
  45.6363797   0.3575159  93.3350948  48.2828263   0.0912948  93.9319609
  49.2158936   0.0258509  94.1352484  48.1951476   0.9269215  93.4734141
  50.9116279  -0.5921182  90.8923556  50.8329911  -0.9261318  91.7859314
  51.7325946  -0.0999414  90.8915029  48.4820231  -3.2753186  90.5133535
  49.1856081  -3.0703184  91.1291190  47.7582880  -2.7076425  90.7782618
  50.3906929  -2.8370657  92.5631995  51.2252533  -3.2689459  92.3809470
  50.2291272  -3.0088644  93.4908889  59.0191204   7.6798994 102.6587172
  59.6569614   7.5605741 101.9550512  58.9012047   8.6279838 102.7175124
  55.8280910   7.6326422 102.5948696  55.4899422   7.5167487 101.7069231
  56.6970678   7.2317587 102.5749702  51.6867726   9.4861898  98.5845587
  51.1232591   9.3951835  97.8161875  51.5720121   8.6661803  99.0648080
  57.2667284  13.1532866  93.8960052  56.6155264  13.7386946  93.5094066
  58.0611647  13.6839061  93.9555090  51.1922912  10.2422003  94.2947186
  51.9653788   9.6950990  94.1560062  51.5448310  11.1066253  94.5061648
  53.5289189   6.4014669  91.9265636  53.7814710   5.8796191  91.1649099
  52.5913749   6.2380815  92.0292320  58.5732472   5.4050448  99.7340380
  59.3595561   4.9869871  99.3830797  58.8371177   6.3096540  99.9022028
  58.7442550  10.8423298  94.4329036  58.1088383  10.9157925  95.1449941
  58.4139956  11.4316897  93.7548116  63.9740899   5.3425681 100.6373358
  64.7066071   4.7724898 100.8711188  63.2180255   4.9547281 101.0779864
  53.2485478   8.3042775  94.1290011  53.1321736   7.6287679  94.7971096
  53.3587738   7.8175149  93.3122164  55.5917019   7.7652922  97.8336701
  55.2275226   7.2383543  98.5449622  56.4484135   7.3751391  97.6603186
  55.2322506   2.7942822  92.8298049  55.3996908   3.6623059  93.1968520
  55.0419675   2.9570104  91.9059338  57.9897839  11.2559801 104.4963879
  57.6898562  12.1584840 104.3879687  57.6448899  10.9891984 105.3485032
  61.3894983   3.7742341 102.1761317  60.4811860   3.7057750 101.8820078
  61.3382579   4.2514286 103.0043142  55.2111727   5.2500480  93.8144716
  55.0911352   5.6957530  94.6530196  54.5164315   5.5985797  93.2558254
  52.9718619  18.0204121  97.4634847  52.8942649  18.9711946  97.5423328
  52.3680263  17.6749994  98.1209773  60.9096793   5.7221953  94.6425050
  61.8214649   5.9549340  94.4672747  60.4006440   6.3058997  94.0800129
  59.5166375  10.7047771 102.0338631  58.8875238  10.8693485 101.3314699
  59.1292037  11.1189381 102.8049595  63.3955607  11.6402209  99.3882995
  62.7106645  12.0201110  98.8380028  63.4799457  12.2497536 100.1214943
  55.0694337  10.4422179  99.2988716  55.5332683  10.7209882  98.5093339
  54.8051135   9.5405624  99.1161807  54.0063223   6.5645332  96.1078282
  54.7087267   7.0166375  96.5752208  53.6743852   5.9229151  96.7358175
  61.7652367  12.1634124 104.1600696  62.5869811  11.7614311 103.8783378
  61.7614770  12.0602358 105.1116812  69.8558360   8.5072872 100.5085667
  69.1022068   7.9380270 100.3529672  69.9905901   8.4735537 101.4556302
  55.2456988  13.3786274  96.1840387  55.1102663  14.2237810  96.6125235
  55.7866800  13.5805552  95.4206321  48.6986385  10.8961712  96.7568312
  49.2110906  11.6904963  96.9073877  49.3509098  10.1988003  96.6901913
  50.5081270  14.0127469  98.8391065  50.6847898  14.9345433  98.6512049
  51.3038104  13.6985888  99.2685445  51.6312586  15.5305642 104.8401407
  52.1820011  15.4022706 104.0678401  50.7924061  15.8300531 104.4896300
  46.6635302   9.2250367  97.5327882  47.5010524   9.6347375  97.3161590
  46.8413570   8.2849809  97.5028076  58.5599734   6.8925447  93.2211715
  58.0446358   7.6630052  93.4600103  58.2877043   6.2190583  93.8444777
  56.1446845   1.7375148  98.2796954  55.2888442   1.3481998  98.1002592
  56.5573797   1.8167109  97.4196739  63.5334008   9.6457802  95.1564889
  62.7563451   9.3068961  94.7120051  64.2125489   9.6510425  94.4819854
  58.3486037   4.7652539  95.0471497  58.0436173   5.0798689  95.8981640
  59.3016480   4.8433959  95.0898830  56.7932469  10.9242763  96.6964451
  56.2653831  10.1895522  96.3837688  56.2919972  11.7017439  96.4504419
  61.7725315   9.1191783 101.8131497  61.1148990   9.8091045 101.9011625
  62.5765714   9.5088215 102.1565483  60.5830774   7.4736156  99.8635439
  61.0962656   8.1066148 100.3657148  61.2331998   6.8737351  99.4978799
  51.8520784   3.6166890  93.0766947  51.0158096   3.9541577  93.3976222
  51.7125554   3.4815870  92.1394084  54.9385069   8.7422973  89.6999424
  54.0312131   8.5112226  89.8990573  55.4356101   7.9460592  89.8873405
  57.8453148  17.4520480  92.6196110  57.1714847  17.7552177  93.2281068
  58.2318970  18.2549561  92.2701567  57.8446653   6.3477027  97.2396459
  58.5918472   6.8598424  96.9303581  58.1138242   6.0261080  98.1000853
  56.1173303   8.8435568  94.2223414  55.2084522   8.5594601  94.3195883
  56.1468387   9.2634646  93.3626721  61.3492570  12.4542157  97.9914581
  60.8954897  11.6133067  98.0479772  60.7186537  13.0903556  98.3289361
  60.2925490   3.3834143  99.2215249  59.5548247   2.8711530  99.5525491
  60.5452263   2.9434525  98.4098526  59.7925510  14.2918654  98.9264399
  60.0848484  14.8523711  98.2076765  60.3024130  14.5847215  99.6817558
  54.6658197   6.4564188 100.3233209  54.7206807   5.5038025 100.2475686
  53.8549399   6.6123628 100.8074507  55.8149391  10.3844312  91.5611492
  55.3768821   9.6680170  91.1017130  56.5559832  10.6120426  90.9996584
  52.6050557   5.0741248  98.0823588  51.7918422   5.3735419  98.4888780
  53.1009551   4.6796937  98.7998070  54.7559135  15.0699005 100.0157853
  54.7135314  15.2959851  99.0866385  55.6721834  14.8362380 100.1643654
  63.9322505   8.6601509  97.6187811  63.7940404   8.8503105  96.6909000
  63.5758724   9.4220891  98.0755862  63.9591885  10.7278036 102.6299082
  64.3928392  10.6353325 103.4782136  64.6723466  10.7035536 101.9919098
  52.8724936  11.9462034  99.8119815  53.6665534  11.4512354  99.6102390
  52.1616628  11.4179897  99.4487521  57.6919780  14.3280130 104.1632183
  57.7456802  14.8971066 104.9309899  56.8234561  14.4982015 103.7986220
  49.1807699   6.0905116  95.8879568  48.2505287   6.0289571  96.1049530
  49.2765171   5.5681069  95.0916209  64.8207435  10.7701736 105.1631968
  65.0143325  11.6747547 105.4091243  64.7208053  10.3109155 105.9970553
  55.4496211  12.5191056 103.4917652  55.3107297  12.1509841 104.3643591
  54.6610808  13.0338696 103.3201610  56.0444363  17.6200153  94.8343189
  56.2196119  17.1488196  95.6488812  55.3577151  18.2465919  95.0624450
  57.0001427  11.8972659 100.8806490  56.6651259  11.8573429 101.7764140
  56.5005372  11.2317375 100.4076900  59.9360618   9.2428693  91.1543550
  59.3189789   8.5175521  91.0576603  59.4677107  10.0038053  90.8110624
  50.6105449  20.7689515 101.6083049  50.8502047  21.4008040 102.2862068
  49.7674645  20.4177555 101.8948408  51.7259164   3.4614117  90.2764854
  50.8488631   3.3402918  89.9127101  52.2016917   2.6700196  90.0243743
  55.1233311  16.5768638 104.0124553  55.0503482  17.3823609 104.5243858
  54.6810704  16.7760604 103.1872574  54.9123090  15.8140408  97.5227375
  54.1290612  16.3562088  97.6165599  55.6115835  16.3314387  97.9221616
  58.2219740   1.6235037 100.1661580  58.7188440   0.8705000  99.8462650
  57.4506722   1.6599354  99.6004789  66.0749498   7.3275403 101.8079872
  66.0639374   8.2100118 101.4373805  65.2066877   6.9746954 101.6134409
  57.5831994  16.4755472 106.1682712  58.2959966  17.1102937 106.0958613
  57.0922023  16.5719338 105.3522714  59.3049521  10.3806725  97.7400003
  58.3705800  10.5008187  97.5704708  59.4826190   9.4779191  97.4760013
  62.6922072   6.2224044  98.2750038  63.1582525   7.0552035  98.2010340
  63.1429573   5.7569025  98.9795296  60.7598304  12.5667865  95.2736190
  61.0358147  12.4524460  96.1830064  59.8902802  12.1685350  95.2348363
  57.3952368  16.8154216  98.9169003  57.5774762  15.9975872  99.3796756
  58.2185354  17.0321908  98.4793893  57.7294533  15.7422401  96.1784052
  58.2582299  15.2314856  95.5654214  57.9922753  15.4264931  97.0429585
  51.0850281  16.7937518  98.9381828  50.4160656  17.2783645  98.4545868
  50.9463151  17.0406738  99.8525206  55.2255550  18.8281261 105.5364486
  55.7773858  18.9912883 106.3013571  55.5661743  19.4185699 104.8644511
  46.4537858   5.0555973  95.7177760  46.7491299   4.1466651  95.6644813
  45.5525894   5.0343712  95.3958762  58.3623937  16.7763237 102.5228168
  58.2375076  15.9752977 102.0139114  59.0203028  17.2709430 102.0342138
  60.4258845  14.5772257 104.1507718  59.4789181  14.4577608 104.0786045
  60.7741618  13.6894755 104.2333980  48.1825700   2.7370070  95.8417085
  47.8538406   1.8567449  95.6592191  48.5365070   2.6817739  96.7293474
  57.4305279  14.3724973 100.3512070  57.2830241  13.4441681 100.5319641
  58.2558772  14.3945064  99.8669146  51.2967523   3.0243040  96.2092563
  51.6363595   3.5528961  95.4871171  51.7439643   3.3623446  96.9851129
  61.0339400  15.1953532 101.4376943  61.9585948  14.9896393 101.3001394
  60.8654704  14.9469933 102.3466285  53.2835670   1.5217662  94.4085855
  54.0044032   1.8998915  93.9049572  52.6600974   2.2406539  94.5120833
  57.4266793   2.2262811  95.3444188  57.6430407   3.1087449  95.0433016
  56.9460860   1.8349024  94.6149830  60.8234717  15.7139199  96.7939035
  60.9971594  15.1485622  96.0412887  61.3163608  16.5140094  96.6118525
  53.4299293   1.0565452  97.2383392  53.5515204   0.1282098  97.4374279
  53.1401335   1.0704138  96.3261707  66.6774108   8.4775622  98.4129334
  67.1205254   7.7282947  98.0148458  65.8000618   8.4685759  98.0303066
  61.8109889  15.0305964  93.8935933  62.5060794  15.6512656  94.1123248
  62.1533039  14.1801315  94.1688311  63.7101312  12.4805669  95.4223264
  64.2352636  12.8192942  94.6972584  63.6223665  11.5452685  95.2386398
  55.3941973  18.5477652  99.7818517  54.9546963  18.0554031 100.4751374
  56.1450090  18.0050620  99.5410592  47.8734312  14.7389193  99.7843145
  48.6992332  14.4392965  99.4041789  47.5228364  13.9696816 100.2332934
  52.8415845  14.0915662 101.8540819  52.2195854  13.4286367 101.5543046
  53.5120712  14.1176793 101.1714466  46.0742917  12.6575520 100.7432079
  45.2374825  12.2297694 100.5616080  46.0466562  12.8507963 101.6802870
  52.4029352  12.6419585  95.3299279  52.5517472  13.3255049  94.6765952
  53.2095795  12.6224675  95.8448735  65.0211290  12.3827981 108.2849212
  64.7296098  12.7457961 109.1212673  64.4083421  11.6694989 108.1062544
  66.2206972   9.9480861 100.8051782  67.0553864  10.3870665 100.9689342
  66.3566101   9.4719514  99.9860028  50.1581985   8.6684763  96.3360348
  49.9128027   7.7647093  96.5340558  50.3277899   8.6701913  95.3939826
  49.4277632   4.4013120  93.8346509  48.7346877   4.4757475  93.1786545
  49.1829384   3.6373464  94.3568026  55.9024757  15.1367715  92.8011027
  55.3298725  15.7557902  92.3481498  56.4757551  15.6867077  93.3350948
  59.1222017  15.4204865  93.9319609  60.0552690  15.3550427  94.1352484
  59.0345230  16.2561132  93.4734141  61.7510034  14.7370736  90.8923556
  61.6723665  14.4030599  91.7859314  62.5719701  15.2292504  90.8915029
  64.4488225   7.6032475 104.0999875  64.4164545   6.6648476 104.2859559
  65.0588849   7.6816512 103.3665700  56.2871556   6.4728528  90.1427079
  57.2330661   6.3434736  90.2115497  55.9085801   5.7343190  90.6196507
  70.2664775   8.6648482 103.2405912  70.9968163   8.4033770 103.8013615
  69.6571720   7.9277204 103.2807980  68.3480072   6.8056345 103.8380363
  67.6213236   6.6712309 103.2296855  67.9327359   7.1133173 104.6437081
  54.4714473   4.3978505  90.0781964  53.5645929   4.1011617  90.1544678
  54.7490454   4.1008323  89.2116251  56.0876539  -1.0584606  96.2326206
  55.2777267  -1.4037521  96.6081452  56.7760956  -1.3677062  96.8213817
  53.2413258   1.2565440  90.2193943  54.1032422   1.5820338  90.4789761
  53.4263602   0.4696936  89.7067009  61.3945894   0.1293966  97.3629166
  60.8144563   0.7878770  96.9807219  61.1281827  -0.6928689  96.9516584
  60.1770772   2.2894057  96.4185515  59.2896627   2.5743707  96.2005709
  60.5924761   2.1287820  95.5712792  63.5285308   2.3140578 100.1339854
  64.3045699   2.8037030 100.4064471  62.8033443   2.7398632 100.5911723
  65.9657867   3.0268197 101.1913795  66.5602358   2.7863933 100.4807103
  66.0384451   2.3075327 101.8187331  48.1855023  16.8701808 101.5056959
  48.0509491  16.1102209 100.9394957  47.7687085  17.5942708 101.0385748
  59.3213986  12.0538731  90.5133535  60.0249836  12.2588734  91.1291190
  58.5976635  12.6215493  90.7782618  60.1511796   7.8048592  96.6335805
  60.0946997   8.2617144  95.7943437  60.7040138   7.0439277  96.4558648
  63.9616602   3.5938324  97.4585924  63.7053536   3.1934960  98.2894132
  63.3369470   4.3082118  97.3336064  68.2728940   6.3334398  99.9657216
  67.7128498   6.4027587 100.7388778  67.6672443   6.1575382  99.2456712
  51.3424149  17.7671125 101.7175402  51.2256533  18.7116557 101.6154092
  50.5216595  17.4644686 102.1061201  61.2300683  12.4921260  92.5631995
  62.0646287  12.0602459  92.3809470  61.0685026  12.3203274  93.4908889
  60.8846575   8.9953374  93.9288334  60.8295379   8.8297645  92.9876778
  60.2592631   9.7029407  94.0850524  54.1942701  -1.5038517  93.5073652
  54.1821371  -0.5596677  93.6641923  55.0866123  -1.6868372  93.2133114
  52.3678663  18.4199387 104.9331330  53.2705909  18.4522997 105.2497825
  52.1416033  17.4899838 104.9477666  54.1232265  17.1730373 101.5941409
  53.1727896  17.1732235 101.4805781  54.4264751  16.4263108 101.0777444
  69.8584958  23.0090912 102.6587172  70.4963368  22.8897659 101.9550512
  69.7405801  23.9571755 102.7175124  66.6674665  22.9618340 102.5948696
  66.3293176  22.8459404 101.7069231  67.5364433  22.5609505 102.5749702
  62.5261480  24.8153816  98.5845587  61.9626345  24.7243753  97.8161875
  62.4113875  23.9953721  99.0648080  67.1494448  24.1153191 108.5534902
  67.1383088  23.7205990 107.6815405  67.3115087  23.3819264 109.1468673
  60.0725912  26.3105008 101.4229808  60.8647204  25.9695832 101.0076107
  60.3122562  26.4199983 102.3431961  68.1061039  28.4824784  93.8960052
  67.4549019  29.0678864  93.5094066  68.9005402  29.0130979  93.9555090
  62.0316666  25.5713921  94.2947186  62.8047542  25.0242908  94.1560062
  62.3842065  26.4358170  94.5061648  63.8701709  26.8990303 107.5014086
  63.5791575  27.8035934 107.3860752  64.5058693  26.9406831 108.2158155
  64.7957916  24.2767152 104.0915445  65.3921488  24.0523174 103.3772408
  64.8532887  23.5351897 104.6940893  64.3682944  21.7306587  91.9265636
  64.6208465  21.2088108  91.1649099  63.4307503  21.5672732  92.0292320
  69.4126227  20.7342365  99.7340380  70.1989316  20.3161789  99.3830797
  69.6764931  21.6388458  99.9022028  69.5836304  26.1715216  94.4329036
  68.9482137  26.2449842  95.1449941  69.2533710  26.7608815  93.7548116
  74.8134654  20.6717599 100.6373358  75.5459826  20.1016815 100.8711188
  74.0574010  20.2839199 101.0779864  64.0879233  23.6334693  94.1290011
  63.9715491  22.9579596  94.7971096  64.1981493  23.1467067  93.3122164
  66.4310774  23.0944840  97.8336701  66.0668981  22.5675461  98.5449622
  67.2877889  22.7043309  97.6603186  72.3360074  14.3839173 105.0967967
  72.0043399  15.2534584 104.8729182  71.7405688  14.0675457 105.7761997
  66.0716261  18.1234740  92.8298049  66.2390663  18.9914976  93.1968520
  65.8813430  18.2862021  91.9059338  68.8291594  26.5851719 104.4963879
  68.5292317  27.4876757 104.3879687  68.4842653  26.3183902 105.3485032
  62.2804075  23.0365516 100.5300584  61.3554572  22.9041730 100.7378276
  62.5288488  23.8159735 101.0270526  72.2288738  19.1034259 102.1761317
  71.3205615  19.0349667 101.8820078  72.1776333  19.5806204 103.0043142
  66.0505481  20.5792397  93.8144716  65.9305107  21.0249448  94.6530196
  65.3558070  20.9277715  93.2558254  59.6412886  22.6798789 101.3644373
  59.7705267  22.9333268 102.2783785  58.9610338  23.2726497 101.0449028
  63.8112374  33.3496039  97.4634847  63.7336403  34.3003864  97.5423328
  63.2074017  33.0041912  98.1209773  66.3029603  20.5223904 110.1196214
  65.5262937  21.0817825 110.1099079  66.9420166  21.0080687 110.6411084
  74.0950384  17.3050697 103.9539191  73.4524764  17.5983230 103.3078985
  73.5905312  17.1903618 104.7592387  71.7490548  21.0513870  94.6425050
  72.6608404  21.2841257  94.4672747  71.2400195  21.6350915  94.0800129
  64.5575976  23.3309358 109.6814181  65.2990660  23.8694402 109.4049005
  63.8512961  23.9575647 109.8385733  70.0331315  25.4738498 108.2786342
  70.4414671  25.0320909 107.5340975  69.3108577  24.8991126 108.5320535
  66.3862385  20.4111105 105.6519899  67.2323580  20.8350519 105.7954548
  66.3261023  19.7544729 106.3458463  70.3560130  26.0339689 102.0338631
  69.7268992  26.1985403 101.3314699  69.9685792  26.4481298 102.8049595
  74.2349362  26.9694127  99.3882995  73.5500400  27.3493028  98.8380028
  74.3193211  27.5789453 100.1214943  69.5361831  18.0715473 107.3101073
  69.2922763  18.8257534 106.7735349  69.8121761  18.4500821 108.1448320
  71.4900293  24.6154086 105.9878339  71.7017189  25.2585846 105.3112720
  71.4430042  23.7816402 105.5200269  69.0926522  17.2271906 102.8914911
  68.2311001  17.5253160 103.1831648  69.1188957  17.4442305 101.9595943
  65.9088092  25.7714097  99.2988716  66.3726437  26.0501800  98.5093339
  65.6444890  24.8697542  99.1161807  62.8012173  25.3185579 102.2368480
  63.3713530  25.7472847 101.5985964  63.3920285  25.0368163 102.9352665
  64.8456978  21.8937249  96.1078282  65.5481021  22.3458293  96.5752208
  64.5137606  21.2521068  96.7358175  63.2937339  20.4849006 110.4829491
  62.6636000  21.1665287 110.7164888  63.1873427  20.3732088 109.5382629
  58.5882312  20.1520802 101.4095415  57.7981366  20.4078331 100.9335526
  59.0793559  20.9669140 101.5147456  72.6046121  27.4926041 104.1600696
  73.4263565  27.0906228 103.8783378  72.6008524  27.3894275 105.1116812
  60.5397057  20.5165381  98.3678892  59.7428220  20.6284076  98.8862388
  60.3122649  20.8552034  97.5019782  66.3702725  27.0410085 106.3161406
  66.4347157  27.5030492 107.1519578  65.6613649  26.4107449 106.4443716
  56.8720015  20.4051292 103.8410406  57.1228053  21.2898302 104.1067982
  57.4079563  20.2255894 103.0685498  80.6952114  23.8364790 100.5085667
  79.9415823  23.2672188 100.3529672  80.8299656  23.8027454 101.4556302
  66.0850742  28.7078192  96.1840387  65.9496417  29.5529728  96.6125235
  66.6260555  28.9097470  95.4206321  59.5380140  26.2253630  96.7568312
  60.0504660  27.0196880  96.9073877  60.1902853  25.5279920  96.6901913
  61.3475025  29.3419386  98.8391065  61.5241653  30.2637351  98.6512049
  62.1431858  29.0277806  99.2685445  65.4886043  16.2027651 110.4374999
  66.2295756  16.8034804 110.3579461  65.7203966  15.4605289 109.8793041
  60.6327381  21.3884018 108.7153228  60.5180896  20.4869275 109.0160327
  59.7771899  21.6347715 108.3638045  67.7119219  29.3301759 110.3140729
  67.2683073  28.5438137 109.9961633  68.3736432  29.5180909 109.6484620
  62.4706340  30.8597560 104.8401407  63.0213765  30.7314623 104.0678401
  61.6317816  31.1592449 104.4896300  69.8100457  29.6104558 108.3422130
  69.7918932  30.4313439 107.8502399  70.7320377  29.4858634 108.5672271
  66.2673511  27.1248688 109.1845639  66.8001848  26.3636976 108.9544947
  65.7387592  26.8322340 109.9269793  69.4343206  12.2308754 104.7139280
  69.0907475  13.1210396 104.6378391  69.8022169  12.0410412 103.8508865
  57.5029057  24.5542284  97.5327882  58.3404279  24.9639293  97.3161590
  57.6807324  23.6141726  97.5028076  69.3993489  22.2217365  93.2211715
  68.8840112  22.9921970  93.4600103  69.1270797  21.5482501  93.8444777
  66.9840600  17.0667066  98.2796954  66.1282196  16.6773916  98.1002592
  67.3967552  17.1459027  97.4196739  68.5139746  14.6013409 102.6788514
  68.0104542  14.5643544 101.8656319  68.8070353  15.5106152 102.7385170
  64.7582632  14.6852139 101.6854695  65.6235629  14.4894947 101.3260585
  64.8260141  14.4562491 102.6124052  74.3727763  24.9749720  95.1564889
  73.5957206  24.6360879  94.7120051  75.0519244  24.9802343  94.4819854
  69.1879792  20.0944457  95.0471497  68.8829927  20.4090606  95.8981640
  70.1410234  20.1725877  95.0898830  67.6326224  26.2534680  96.6964451
  67.1047585  25.5187440  96.3837688  67.1313726  27.0309357  96.4504419
  72.6119070  24.4483701 101.8131497  71.9542744  25.1382962 101.9011625
  73.4159469  24.8380133 102.1565483  62.3644951  16.9154347  99.0571062
  62.9388703  16.6929528  98.3244255  62.9515934  16.9843041  99.8099663
  71.4224529  22.8028074  99.8635439  71.9356410  23.4358065 100.3657148
  72.0725752  22.2029269  99.4978799  62.6914538  18.9458808  93.0766947
  61.8551851  19.2833494  93.3976222  62.5519308  18.8107787  92.1394084
  64.6667619  13.7895596  97.7846132  64.0132031  13.4744613  97.1602746
  64.6248093  13.1671336  98.5105954  65.7778824  24.0714891  89.6999424
  64.8705886  23.8404144  89.8990573  66.2749856  23.2752510  89.8873405
  68.6846903  32.7812398  92.6196110  68.0108602  33.0844095  93.2281068
  69.0712725  33.5841478  92.2701567  67.9005359  20.2777529 102.1093779
  66.9827921  20.4992476 101.9515467  68.3165503  20.3523840 101.2505486
  68.6840407  21.6768945  97.2396459  69.4312226  22.1890342  96.9303581
  68.9531997  21.3552998  98.1000853  66.9567057  24.1727486  94.2223414
  66.0478277  23.8886518  94.3195883  66.9862141  24.5926564  93.3626721
  72.1886325  27.7834075  97.9914581  71.7348652  26.9424985  98.0479772
  71.5580291  28.4195473  98.3289361  71.1319244  18.7126061  99.2215249
  70.3942001  18.2003447  99.5525491  71.3846018  18.2726443  98.4098526
  70.6319264  29.6210572  98.9264399  70.9242238  30.1815629  98.2076765
  71.1417885  29.9139133  99.6817558  71.2330872  11.4902313  99.8157018
  71.5389748  10.6299676  99.5282933  71.9583476  12.0819933  99.6156012
  57.5255228  21.8933000  98.2038616  57.3279628  21.3002360  97.4789682
  56.9701892  21.5885210  98.9214555  65.5051951  21.7856106 100.3233209
  65.5600561  20.8329943 100.2475686  64.6943153  21.9415545 100.8074507
  66.6543145  25.7136229  91.5611492  66.2162575  24.9972088  91.1017130
  67.3953586  25.9412344  90.9996584  63.4444311  20.4033166  98.0823588
  62.6312177  20.7027336  98.4888780  63.9403306  20.0088855  98.7998070
  65.5952889  30.3990923 100.0157853  65.5529068  30.6251769  99.0866385
  66.5115588  30.1654297 100.1643654  69.0418523  20.8674990 106.9138482
  69.3967911  21.0946463 107.7732948  69.6890654  21.1993367 106.2915737
  74.7716260  23.9893426  97.6187811  74.6334159  24.1795022  96.6909000
  74.4152479  24.7512809  98.0755862  62.9358386  17.9751521 103.6984823
  63.5757765  17.8340280 103.0007786  62.1035917  17.6886035 103.3223425
  74.7985640  26.0569953 102.6299082  75.2322146  25.9645242 103.4782136
  75.5117220  26.0327454 101.9919098  63.7118690  27.2753952  99.8119815
  64.5059288  26.7804272  99.6102390  63.0010382  26.7471815  99.4487521
  68.5313534  29.6572047 104.1632183  68.5850557  30.2262984 104.9309899
  67.6628316  29.8273932 103.7986220  60.0201453  21.4197034  95.8879568
  59.0899042  21.3581489  96.1049530  60.1158925  20.8972986  95.0916209
  59.9387003  17.9451846  98.4757810  60.1993820  18.8597180  98.3666970
  60.7604175  17.4776289  98.6254422  61.4111928  19.3589604 105.6456634
  62.0834981  19.1506966 104.9969283  60.5841714  19.1611690 105.2061866
  75.6601189  26.0993654 105.1631968  75.8537079  27.0039464 105.4091243
  75.5601807  25.6401073 105.9970553  67.3137500  15.9851544 107.6622295
  66.6665415  16.6841494 107.5686771  68.0838515  16.4187688 108.0298543
  70.7216298  26.2500397 110.7372848  70.5701804  26.0210948 109.8202932
  70.7120977  27.2070998 110.7504193  67.4901634  23.8232309 105.7219115
  68.4193694  23.9743469 105.5488082  67.0692664  23.9116330 104.8667761
  66.2889966  27.8482974 103.4917652  66.1501052  27.4801758 104.3643591
  65.5004562  28.3630613 103.3201610  66.8838118  32.9492070  94.8343189
  67.0589874  32.4780113  95.6488812  66.1970906  33.5757836  95.0624450
  67.8395181  27.2264576 100.8806490  67.5045014  27.1865346 101.7764140
  67.3399127  26.5609292 100.4076900  61.8139425  22.6332207 106.4059071
  61.6759223  21.9012445 107.0070610  62.7244349  22.5441107 106.1243259
  70.7754373  24.5720611  91.1543550  70.1583543  23.8467439  91.0576603
  70.3070861  25.3329971  90.8110624  64.4421726  22.3452166 105.8942751
  65.1521344  21.7045358 105.8529369  64.3991034  22.5965061 106.8168932
  72.4308504  29.2819519 108.8149330  72.3721051  28.5978739 108.1479913
  72.8328023  30.0238509 108.3629956  63.1550660  19.3317384 107.7138390
  62.6188017  18.8808122 108.3659987  62.5667368  19.4663293 106.9708855
  61.4499203  36.0981433 101.6083049  61.6895801  36.7299957 102.2862068
  60.6068400  35.7469473 101.8948408  62.5652919  18.7906035  90.2764854
  61.6882385  18.6694836  89.9127101  63.0410672  17.9992113  90.0243743
  72.4325912  27.2459103 107.0463310  71.5452690  26.9085025 107.1689709
  73.0024463  26.5142134 107.2832075  54.0855059  23.5783195 100.3706361
  54.7726099  23.2644925  99.7827377  53.9303188  24.4824560 100.0973613
  58.8889781  18.4673391 104.7991385  58.8047970  17.8599061 104.0641795
  58.0672487  18.9582410 104.8000881  65.9627065  31.9060555 104.0124553
  65.8897237  32.7115527 104.5243858  65.5204458  32.1052521 103.1872574
  65.7516845  31.1432326  97.5227375  64.9684367  31.6854006  97.6165599
  66.4509590  31.6606305  97.9221616  69.0613495  16.9526955 100.1661580
  69.5582194  16.1996917  99.8462650  68.2900476  16.9891272  99.6004789
  76.9143252  22.6567320 101.8079872  76.9033128  23.5392036 101.4373805
  76.0460632  22.3038871 101.6134409  68.4225749  31.8047390 106.1682712
  69.1353721  32.4394854 106.0958613  67.9315777  31.9011256 105.3522714
  70.1443276  25.7098642  97.7400003  69.2099554  25.8300105  97.5704708
  70.3219944  24.8071109  97.4760013  65.6448464  19.0944338  99.8933265
  65.2746251  18.5415378 100.5814170  66.1407556  18.4902471  99.3408265
  73.5315827  21.5515961  98.2750038  73.9976279  22.3843953  98.2010340
  73.9823327  21.0860943  98.9795296  63.4737662  29.5541833 106.9888283
  64.1747122  30.1878316 107.1417677  63.0032777  29.8956565 106.2283922
  71.5992058  27.8959783  95.2736190  71.8751902  27.7816377  96.1830064
  70.7296557  27.4977268  95.2348363  71.5032490  13.9196548 102.3140939
  70.5895569  14.1500775 102.4823146  71.9325591  14.0034993 103.1654971
  71.2738948  22.1086440 104.8140833  70.6210398  22.3562348 104.1593286
  71.6519328  21.2950579 104.4803310  68.2346122  32.1446134  98.9169003
  68.4168517  31.3267790  99.3796756  69.0579108  32.3613826  98.4793893
  68.5688288  31.0714319  96.1784052  69.0976054  30.5606773  95.5654214
  68.8316507  30.7556849  97.0429585  67.3226521  22.8506251 111.3006870
  66.6467158  22.7500381 111.9709245  68.1454155  22.6945465 111.7642867
  59.0705380  29.0878188 103.9219385  59.6558817  28.3421876 104.0547289
  58.8730219  29.3982145 104.8056049  61.9244035  32.1229435  98.9381828
  61.2554411  32.6075563  98.4545868  61.7856905  32.3698656  99.8525206
  53.6623035  21.6583788 102.6423828  53.7007134  21.1247379 103.4360946
  53.1563328  21.1318994 102.0234806  66.0649304  34.1573179 105.5364486
  66.6167612  34.3204800 106.3013571  66.4055497  34.7477617 104.8644511
  61.0413797  16.5048329 106.1386371  61.1055124  17.3663160 105.7263768
  60.9780918  15.8922330 105.4058729  60.5166070  18.5771461 109.7859405
  61.1438109  18.1948539 110.3996929  59.6593989  18.3585663 110.1515097
  70.9160178  28.9834436 111.3913140  71.4600082  29.5964395 110.8968095
  70.3347023  29.5414015 111.9080153  57.2931613  20.3847890  95.7177760
  57.5885054  19.4758569  95.6644813  56.3919648  20.3635630  95.3958762
  69.2017691  32.1055154 102.5228168  69.0768831  31.3044894 102.0139114
  69.8596782  32.6001348 102.0342138  60.8225860  18.4603887 101.7005308
  60.1012445  19.0739855 101.5612782  61.6119115  18.9961652 101.6221954
  71.2652600  29.9064175 104.1507718  70.3182935  29.7869526 104.0786045
  71.6135373  29.0186673 104.2333980  63.6252173  15.7958313 107.9745960
  64.1486575  16.0420610 108.7372269  63.4064506  16.6278348 107.5549097
  59.0219454  18.0661988  95.8417085  58.6932160  17.1859367  95.6592191
  59.3758825  18.0109657  96.7293474  68.2699033  29.7016891 100.3512070
  68.1223995  28.7733598 100.5319641  69.0952527  29.7236981  99.8669146
  62.1361277  18.3534958  96.2092563  62.4757350  18.8820879  95.4871171
  62.5833398  18.6915364  96.9851129  71.8733155  30.5245449 101.4376943
  72.7979702  30.3188311 101.3001394  71.7048458  30.2761851 102.3466285
  64.8304718  16.7372009 105.6595631  64.4901538  15.9379822 106.0616311
  64.1243724  17.0373719 105.0872464  65.4821190  13.8221321 104.1122954
  66.3047259  13.3481799 103.9901844  65.7259253  14.6011805 104.6121640
  64.1229424  16.8509579  94.4085855  64.8437787  17.2290832  93.9049572
  63.4994729  17.5698456  94.5120833  68.2660547  17.5554728  95.3444188
  68.4824162  18.4379366  95.0433016  67.7854614  17.1640942  94.6149830
  63.0059769  20.5140442 101.9214932  62.8604349  20.8280745 102.8139214
  62.5284972  21.1325342 101.3685831  64.8656152  17.5042990 101.9695822
  64.8517720  16.6084083 101.6328120  65.5828580  17.5113653 102.6034108
  66.7182282  17.9380330 104.0148949  66.4600060  18.8597400 104.0133280
  66.1867323  17.5410764 104.7049413  71.6628471  31.0431117  96.7939035
  71.8365349  30.4777539  96.0412887  72.1557362  31.8432012  96.6118525
  57.4805431  23.0545786 104.8602593  56.9358899  23.8305594 104.9922868
  58.3584781  23.4016591 104.7021715  64.2693048  16.3857370  97.2383392
  64.3908959  15.4574016  97.4374279  63.9795090  16.3996056  96.3261707
  67.1384238  14.0712280 100.3750112  67.1605935  14.1351613  99.4202091
  67.5552297  13.2316789 100.5690618  77.5167862  23.8067540  98.4129334
  77.9599008  23.0574865  98.0148458  76.6394373  23.7977676  98.0303066
  72.6503644  30.3597881  93.8935933  73.3454548  30.9804574  94.1123248
  72.9926794  29.5093233  94.1688311  58.2671453  22.1815682 107.7532750
  57.5253189  22.3298318 108.3397381  57.9464197  22.4423948 106.8899500
  74.5495067  27.8097587  95.4223264  75.0746391  28.1484860  94.6972584
  74.4617419  26.8744602  95.2386398  66.2115115  31.7231661 107.5513140
  66.5202242  31.4780807 108.4235840  67.0090597  31.9278299 107.0632011
  66.2335727  33.8769570  99.7818517  65.7940718  33.3845949 100.4751374
  66.9843844  33.3342538  99.5410592  58.7128066  30.0681111  99.7843145
  59.5386086  29.7684883  99.4041789  58.3622118  29.2988733 100.2332934
  63.6809600  29.4207579 101.8540819  63.0589609  28.7578284 101.5543046
  64.3514466  29.4468711 101.1714466  56.9136671  27.9867437 100.7432079
  56.0768580  27.5589612 100.5616080  56.8860317  28.1799881 101.6802870
  63.7534127  17.8989367 111.4473325  63.8022283  18.7751490 111.0651094
  64.2956641  17.3566760 110.8744968  74.2388973  28.4430491 110.7274462
  73.4484516  28.4254629 110.1878961  74.0022327  28.9818784 111.4823498
  74.3586848  25.2922957 108.0407190  74.4084853  25.1272964 108.9822713
  74.2500771  24.4250216 107.6505071  63.2423106  27.9711503  95.3299279
  63.3911227  28.6546967  94.6765952  64.0489550  27.9516593  95.8448735
  71.6490610  21.2753885 109.3566497  72.5500473  21.1360350 109.0650495
  71.7238585  21.4408340 110.2964674  65.9833415  18.6520740 108.2019683
  65.1136725  18.9454306 107.9302272  66.2192896  19.2361185 108.9226947
  75.8605045  27.7119898 108.2849212  75.5689853  28.0749879 109.1212673
  75.2477176  26.9986907 108.1062544  77.0600727  25.2772778 100.8051782
  77.8947618  25.7162582 100.9689342  77.1959856  24.8011431  99.9860028
  74.1092233  22.8352513 106.7529270  74.5846354  23.0280159 105.9448121
  73.1857798  22.8911699 106.5072653  60.9975739  23.9976680  96.3360348
  60.7521781  23.0939010  96.5340558  61.1671654  23.9993831  95.3939826
  68.6872449  14.8700357 105.7185104  69.2054393  15.6061384 105.3931592
  68.3327582  15.1764350 106.5531863  60.2671387  19.7305038  93.8346509
  59.5740632  19.8049393  93.1786545  60.0223139  18.9665381  94.3568026
  68.9385043  11.2900639 101.2386000  69.2186797  10.6223828 101.8646427
  69.7235650  11.4829735 100.7260664  66.7418512  30.4659633  92.8011027
  66.1692479  31.0849820  92.3481498  67.3151306  31.0158995  93.3350948
  72.8093902  19.7118273 104.9857575  73.7611325  19.8116371 105.0069799
  72.6397352  18.9196542 105.4955660  70.8308281  16.7973856 105.1716976
  70.2358213  17.0778869 104.4763465  70.5457978  17.2867757 105.9433717
  69.9615772  30.7496783  93.9319609  70.8946445  30.6842345  94.1352484
  69.8738985  31.5853050  93.4734141  72.5903788  30.0662654  90.8923556
  72.5117420  29.7322517  91.7859314  73.4113455  30.5584421  90.8915029
  75.2881980  22.9324393 104.0999875  75.2558300  21.9940394 104.2859559
  75.8982603  23.0108430 103.3665700  67.1265310  21.8020446  90.1427079
  68.0724415  21.6726654  90.2115497  66.7479555  21.0635108  90.6196507
  75.4376468  19.7235436 104.1458158  74.9215517  18.9393893 103.9588087
  76.3216417  19.3954153 104.3104678  73.0987195  13.4676452 100.1053971
  72.9012016  13.1591540 100.9897303  73.7086901  14.1938091 100.2351901
  81.1058529  23.9940400 103.2405912  81.8361918  23.7325688 103.8013615
  80.4965475  23.2569122 103.2807980  79.1873827  22.1348262 103.8380363
  78.4606990  22.0004227 103.2296855  78.7721113  22.4425091 104.6437081
  67.0104003  25.8538192 111.6027736  67.9307012  26.0316791 111.7967783
  66.9753586  24.9094237 111.4507435  65.3108228  19.7270422  90.0781964
  64.4039683  19.4303535  90.1544678  65.5884209  19.4300240  89.2116251
  56.2286168  21.0476786 100.5281011  55.9088952  20.1942094 100.2355385
  55.6819596  21.2625364 101.2838978  60.0066076  23.7639227 104.2450517
  60.2252085  24.6956334 104.2638551  60.4191849  23.4047201 105.0305321
  66.9270293  14.2707312  96.2326206  66.1171022  13.9254397  96.6081452
  67.6154710  13.9614856  96.8213817  68.8560842  13.3485359  97.8550502
  69.4091880  13.7680812  98.5140525  69.0930928  12.4221107  97.8973458
  64.0807012  16.5857357  90.2193943  64.9426176  16.9112256  90.4789761
  64.2657356  15.7988853  89.7067009  56.0974428  24.6679697 102.4974132
  55.4037899  24.2533650 101.9844087  56.8447419  24.7100234 101.9007551
  72.2339649  15.4585884  97.3629166  71.6538318  16.1170688  96.9807219
  71.9675581  14.6363228  96.9516584  70.6843215  14.8590942  99.5650487
  71.1842993  14.9707476  98.7564806  71.3278823  14.5551994 100.2051295
  64.7425211  22.7669571 112.4518328  64.2592293  23.5669931 112.6582217
  64.8286150  22.7777516 111.4985772  58.0111171  24.5997951 100.3740147
  57.9881859  24.6985638  99.4222030  58.3211807  25.4463102 100.6957313
  60.6698548  26.6574106 104.4886762  61.6241802  26.6258048 104.4216693
  60.4711072  26.1964730 105.3036987  61.2597931  25.2275222 107.0557559
  62.0790820  25.7219301 107.0792396  61.5334738  24.3107190 107.0275127
  71.0164527  17.6185974  96.4185515  70.1290382  17.9035625  96.2005709
  71.4318516  17.4579738  95.5712792  74.3679063  17.6432495 100.1339854
  75.1439453  18.1328948 100.4064471  73.6427197  18.0690549 100.5911723
  76.8051622  18.3560114 101.1913795  77.3996112  18.1155850 100.4807103
  76.8778205  17.6367245 101.8187331  59.0248777  32.1993725 101.5056959
  58.8903245  31.4394126 100.9394957  58.6080839  32.9234625 101.0385748
  70.1607740  27.3830649  90.5133535  70.8643590  27.5880651  91.1291190
  69.4370389  27.9507411  90.7782618  70.9905551  23.1340510  96.6335805
  70.9340752  23.5909062  95.7943437  71.5433893  22.3731195  96.4558648
  74.8010356  18.9230242  97.4585924  74.5447291  18.5226878  98.2894132
  74.1763224  19.6374036  97.3336064  79.1122694  21.6626315  99.9657216
  78.5522252  21.7319505 100.7388778  78.5066198  21.4867300  99.2456712
  62.1817903  33.0963042 101.7175402  62.0650287  34.0408475 101.6154092
  61.3610349  32.7936604 102.1061201  72.0694438  27.8213178  92.5631995
  72.9040042  27.3894377  92.3809470  71.9078781  27.6495192  93.4908889
  71.7240330  24.3245291  93.9288334  71.6689134  24.1589563  92.9876778
  71.0986385  25.0321324  94.0850524  56.5132845  19.5613356 107.7549756
  57.1591708  19.0512310 108.2436981  56.3049996  20.2982037 108.3293182
  69.0386237  26.6294203 113.2541897  69.9077397  26.8034856 112.8928532
  68.5592988  27.4488620 113.1317626  65.0336455  13.8253400  93.5073652
  65.0215125  14.7695240  93.6641923  65.9259877  13.6423546  93.2133114
  63.2072417  33.7491304 104.9331330  64.1099664  33.7814915 105.2497825
  62.9809787  32.8191755 104.9477666  64.9626019  32.5022291 101.5941409
  64.0121650  32.5024152 101.4805781  65.2658505  31.7555025 101.0777444
  68.8488575  10.4196177  97.7619589  68.0820971   9.8654664  97.9076272
  69.2599280  10.4918046  98.6233741  80.6978713  38.3382829 102.6587172
  81.3357123  38.2189577 101.9550512  80.5799556  39.2863673 102.7175124
  77.5068419  38.2910257 102.5948696  77.1686931  38.1751322 101.7069231
  78.3758187  37.8901422 102.5749702  73.3655235  40.1445734  98.5845587
  72.8020100  40.0535671  97.8161875  73.2507630  39.3245638  99.0648080
  77.9888202  39.4445109 108.5534902  77.9776843  39.0497907 107.6815405
  78.1508841  38.7111182 109.1468673  70.9119667  41.6396925 101.4229808
  71.7040959  41.2987750 101.0076107  71.1516317  41.7491900 102.3431961
  78.9454793  43.8116701  93.8960052  78.2942773  44.3970782  93.5094066
  79.7399156  44.3422896  93.9555090  72.8710421  40.9005839  94.2947186
  73.6441297  40.3534826  94.1560062  73.2235819  41.7650088  94.5061648
  74.7095463  42.2282221 107.5014086  74.4185329  43.1327852 107.3860752
  75.3452447  42.2698748 108.2158155  75.6351670  39.6059069 104.0915445
  76.2315242  39.3815092 103.3772408  75.6926642  38.8643815 104.6940893
  75.2076698  37.0598505  91.9265636  75.4602219  36.5380026  91.1649099
  74.2701257  36.8964650  92.0292320  80.2519981  36.0634283  99.7340380
  81.0383070  35.6453706  99.3830797  80.5158686  36.9680375  99.9022028
  80.4230059  41.5007133  94.4329036  79.7875892  41.5741760  95.1449941
  80.0927465  42.0900732  93.7548116  85.6528408  36.0009516 100.6373358
  86.3853580  35.4308733 100.8711188  84.8967764  35.6131117 101.0779864
  74.9272987  38.9626611  94.1290011  74.8109245  38.2871514  94.7971096
  75.0375247  38.4758985  93.3122164  77.2704528  38.4236758  97.8336701
  76.9062735  37.8967379  98.5449622  78.1271644  38.0335227  97.6603186
  83.1753829  29.7131090 105.0967967  82.8437153  30.5826501 104.8729182
  82.5799442  29.3967374 105.7761997  76.9110015  33.4526657  92.8298049
  77.0784417  34.3206894  93.1968520  76.7207184  33.6153939  91.9059338
  79.6685348  41.9143636 104.4963879  79.3686071  42.8168675 104.3879687
  79.3236408  41.6475820 105.3485032  73.1197830  38.3657433 100.5300584
  72.1948326  38.2333647 100.7378276  73.3682243  39.1451652 101.0270526
  83.0682492  34.4326177 102.1761317  82.1599369  34.3641585 101.8820078
  83.0170088  34.9098121 103.0043142  76.8899236  35.9084315  93.8144716
  76.7698861  36.3541366  94.6530196  76.1951824  36.2569633  93.2558254
  70.4806641  38.0090707 101.3644373  70.6099022  38.2625186 102.2783785
  69.8004092  38.6018415 101.0449028  74.6506128  48.6787957  97.4634847
  74.5730158  49.6295782  97.5423328  74.0467772  48.3333829  98.1209773
  77.1423358  35.8515822 110.1196214  76.3656692  36.4109742 110.1099079
  77.7813921  36.3372605 110.6411084  84.9344138  32.6342615 103.9539191
  84.2918519  32.9275148 103.3078985  84.4299067  32.5195535 104.7592387
  82.5884302  36.3805788  94.6425050  83.5002158  36.6133175  94.4672747
  82.0793949  36.9642832  94.0800129  75.3969730  38.6601276 109.6814181
  76.1384414  39.1986319 109.4049005  74.6906716  39.2867564 109.8385733
  80.8725070  40.8030416 108.2786342  81.2808426  40.3612826 107.5340975
  80.1502331  40.2283043 108.5320535  77.2256140  35.7403023 105.6519899
  78.0717335  36.1642436 105.7954548  77.1654777  35.0836647 106.3458463
  81.1953884  41.3631607 102.0338631  80.5662747  41.5277321 101.3314699
  80.8079546  41.7773216 102.8049595  85.0743116  42.2986044  99.3882995
  84.3894154  42.6784946  98.8380028  85.1586966  42.9081371 100.1214943
  80.3755585  33.4007391 107.3101073  80.1316517  34.1549452 106.7735349
  80.6515516  33.7792739 108.1448320  82.3294048  39.9446003 105.9878339
  82.5410943  40.5877763 105.3112720  82.2823796  39.1108320 105.5200269
  79.9320277  32.5563824 102.8914911  79.0704756  32.8545078 103.1831648
  79.9582712  32.7734223 101.9595943  76.7481846  41.1006015  99.2988716
  77.2120192  41.3793718  98.5093339  76.4838644  40.1989459  99.1161807
  73.6405927  40.6477496 102.2368480  74.2107284  41.0764765 101.5985964
  74.2314039  40.3660081 102.9352665  75.6850732  37.2229167  96.1078282
  76.3874776  37.6750211  96.5752208  75.3531361  36.5812986  96.7358175
  74.1331094  35.8140924 110.4829491  73.5029754  36.4957205 110.7164888
  74.0267182  35.7024005 109.5382629  69.4276066  35.4812720 101.4095415
  68.6375120  35.7370248 100.9335526  69.9187314  36.2961058 101.5147456
  83.4439876  42.8217959 104.1600696  84.2657320  42.4198146 103.8783378
  83.4402279  42.7186193 105.1116812  71.3790812  35.8457299  98.3678892
  70.5821975  35.9575993  98.8862388  71.1516404  36.1843951  97.5019782
  77.2096479  42.3702002 106.3161406  77.2740912  42.8322409 107.1519578
  76.5007403  41.7399367 106.4443716  67.7113769  35.7343210 103.8410406
  67.9621808  36.6190220 104.1067982  68.2473318  35.5547812 103.0685498
  91.5345869  39.1656707 100.5085667  90.7809577  38.5964105 100.3529672
  91.6693410  39.1319372 101.4556302  76.9244497  44.0370110  96.1840387
  76.7890172  44.8821645  96.6125235  77.4654309  44.2389387  95.4206321
  73.4111837  30.1161690 112.8454742  73.0178782  29.5627888 113.5202386
  74.2277977  30.4272268 113.2361260  70.3773894  41.5545548  96.7568312
  70.8898415  42.3488798  96.9073877  71.0296607  40.8571838  96.6901913
  72.1868779  44.6711304  98.8391065  72.3635407  45.5929269  98.6512049
  72.9825613  44.3569723  99.2685445  76.3279798  31.5319569 110.4374999
  77.0689511  32.1326722 110.3579461  76.5597720  30.7897206 109.8793041
  71.4721136  36.7175936 108.7153228  71.3574651  35.8161193 109.0160327
  70.6165653  36.9639633 108.3638045  78.5512973  44.6593676 110.3140729
  78.1076828  43.8730055 109.9961633  79.2130187  44.8472827 109.6484620
  73.3100094  46.1889478 104.8401407  73.8607520  46.0606541 104.0678401
  72.4711570  46.4884367 104.4896300  80.6494211  44.9396476 108.3422130
  80.6312687  45.7605357 107.8502399  81.5714131  44.8150551 108.5672271
  77.1067266  42.4540606 109.1845639  77.6395602  41.6928894 108.9544947
  76.5781347  42.1614257 109.9269793  80.2736961  27.5600672 104.7139280
  79.9301230  28.4502313 104.6378391  80.6415923  27.3702329 103.8508865
  68.3422811  39.8834202  97.5327882  69.1798033  40.2931210  97.3161590
  68.5201079  38.9433644  97.5028076  80.2387243  37.5509283  93.2211715
  79.7233867  38.3213887  93.4600103  79.9664552  36.8774419  93.8444777
  77.8234354  32.3958983  98.2796954  76.9675951  32.0065834  98.1002592
  78.2361306  32.4750944  97.4196739  79.3533501  29.9305327 102.6788514
  78.8498296  29.8935462 101.8656319  79.6464108  30.8398069 102.7385170
  75.5976387  30.0144056 101.6854695  76.4629384  29.8186865 101.3260585
  75.6653896  29.7854408 102.6124052  85.2121517  40.3041637  95.1564889
  84.4350960  39.9652797  94.7120051  85.8912998  40.3094260  94.4819854
  80.0273546  35.4236375  95.0471497  79.7223682  35.7382524  95.8981640
  80.9803989  35.5017795  95.0898830  78.4719978  41.5826598  96.6964451
  77.9441340  40.8479358  96.3837688  77.9707481  42.3601274  96.4504419
  83.4512824  39.7775619 101.8131497  82.7936499  40.4674880 101.9011625
  84.2553223  40.1672050 102.1565483  73.2038706  32.2446264  99.0571062
  73.7782458  32.0221446  98.3244255  73.7909688  32.3134959  99.8099663
  82.2618283  38.1319991  99.8635439  82.7750165  38.7649983 100.3657148
  82.9119507  37.5321187  99.4978799  73.5308293  34.2750725  93.0766947
  72.6945605  34.6125412  93.3976222  73.3913063  34.1399705  92.1394084
  75.5061374  29.1187513  97.7846132  74.8525786  28.8036530  97.1602746
  75.4641848  28.4963254  98.5105954  76.6172578  39.4006808  89.6999424
  75.7099640  39.1696062  89.8990573  77.1143610  38.6044428  89.8873405
  79.5240657  48.1104316  92.6196110  78.8502356  48.4136012  93.2281068
  79.9106479  48.9133396  92.2701567  78.7399114  35.6069447 102.1093779
  77.8221675  35.8284394 101.9515467  79.1559258  35.6815757 101.2505486
  79.5234162  37.0060862  97.2396459  80.2705981  37.5182260  96.9303581
  79.7925751  36.6844915  98.1000853  77.7960812  39.5019403  94.2223414
  76.8872031  39.2178436  94.3195883  77.8255896  39.9218482  93.3626721
  83.0280079  43.1125993  97.9914581  82.5742406  42.2716903  98.0479772
  82.3974046  43.7487391  98.3289361  81.9712999  34.0417979  99.2215249
  81.2335756  33.5295365  99.5525491  82.2239772  33.6018360  98.4098526
  81.4713019  44.9502489  98.9264399  81.7635993  45.5107546  98.2076765
  81.9811639  45.2431050  99.6817558  82.0724626  26.8194231  99.8157018
  82.3783503  25.9591594  99.5282933  82.7977231  27.4111851  99.6156012
  68.3648982  37.2224917  98.2038616  68.1673382  36.6294278  97.4789682
  67.8095646  36.9177128  98.9214555  76.3445706  37.1148024 100.3233209
  76.3994316  36.1621860 100.2475686  75.5336908  37.2707463 100.8074507
  77.4936900  41.0428147  91.5611492  77.0556330  40.3264006  91.1017130
  78.2347341  41.2704262  90.9996584  74.2838066  35.7325084  98.0823588
  73.4705931  36.0319254  98.4888780  74.7797060  35.3380772  98.7998070
  76.4346644  45.7282840 100.0157853  76.3922823  45.9543687  99.0866385
  77.3509343  45.4946215 100.1643654  79.8812278  36.1966908 106.9138482
  80.2361665  36.4238381 107.7732948  80.5284409  36.5285285 106.2915737
  85.6110014  39.3185344  97.6187811  85.4727913  39.5086940  96.6909000
  85.2546233  40.0804727  98.0755862  73.7752141  33.3043439 103.6984823
  74.4151520  33.1632198 103.0007786  72.9429671  33.0177952 103.3223425
  85.6379394  41.3861871 102.6299082  86.0715901  41.2937160 103.4782136
  86.3510975  41.3619371 101.9919098  74.5512444  42.6045869  99.8119815
  75.3453043  42.1096190  99.6102390  73.8404137  42.0763733  99.4487521
  79.3707289  44.9863965 104.1632183  79.4244311  45.5554901 104.9309899
  78.5022070  45.1565850 103.7986220  70.8595208  36.7488951  95.8879568
  69.9292796  36.6873407  96.1049530  70.9552680  36.2264904  95.0916209
  70.7780757  33.2743764  98.4757810  71.0387574  34.1889097  98.3666970
  71.5997929  32.8068207  98.6254422  72.2505682  34.6881521 105.6456634
  72.9228736  34.4798883 104.9969283  71.4235469  34.4903607 105.2061866
  86.4994944  41.4285572 105.1631968  86.6930834  42.3331382 105.4091243
  86.3995562  40.9692991 105.9970553  78.1531254  31.3143462 107.6622295
  77.5059169  32.0133412 107.5686771  78.9232270  31.7479606 108.0298543
  81.5610052  41.5792314 110.7372848  81.4095559  41.3502866 109.8202932
  81.5514732  42.5362916 110.7504193  78.3295389  39.1524227 105.7219115
  79.2587449  39.3035387 105.5488082  77.9086419  39.2408248 104.8667761
  77.1283720  43.1774891 103.4917652  76.9894806  42.8093676 104.3643591
  76.3398317  43.6922531 103.3201610  77.7231872  48.2783988  94.8343189
  77.8983628  47.8072031  95.6488812  77.0364660  48.9049754  95.0624450
  78.6788936  42.5556494 100.8806490  78.3438768  42.5157264 101.7764140
  78.1792881  41.8901210 100.4076900  72.6533180  37.9624124 106.4059071
  72.5152978  37.2304363 107.0070610  73.5638103  37.8733024 106.1243259
  81.6148127  39.9012529  91.1543550  80.9977298  39.1759357  91.0576603
  81.1464616  40.6621889  90.8110624  75.2815480  37.6744084 105.8942751
  75.9915099  37.0337276 105.8529369  75.2384788  37.9256978 106.8168932
  83.2702259  44.6111437 108.8149330  83.2114805  43.9270657 108.1479913
  83.6721777  45.3530427 108.3629956  73.9944414  34.6609301 107.7138390
  73.4581771  34.2100040 108.3659987  73.4061123  34.7955210 106.9708855
  72.2892958  51.4273351 101.6083049  72.5289556  52.0591875 102.2862068
  71.4462154  51.0761391 101.8948408  73.4046673  34.1197953  90.2764854
  72.5276140  33.9986754  89.9127101  73.8804426  33.3284031  90.0243743
  83.2719666  42.5751021 107.0463310  82.3846445  42.2376943 107.1689709
  83.8418217  41.8434052 107.2832075  64.9248813  38.9075113 100.3706361
  65.6119853  38.5936843  99.7827377  64.7696942  39.8116477 100.0973613
  69.7283535  33.7965309 104.7991385  69.6441724  33.1890979 104.0641795
  68.9066242  34.2874327 104.8000881  76.8020820  47.2352473 104.0124553
  76.7290991  48.0407445 104.5243858  76.3598213  47.4344439 103.1872574
  76.5910599  46.4724243  97.5227375  75.8078121  47.0145923  97.6165599
  77.2903344  46.9898223  97.9221616  79.9007249  32.2818873 100.1661580
  80.3975949  31.5288835  99.8462650  79.1294231  32.3183189  99.6004789
  87.7537007  37.9859238 101.8079872  87.7426883  38.8683954 101.4373805
  86.8854386  37.6330789 101.6134409  79.2619503  47.1339307 106.1682712
  79.9747475  47.7686772 106.0958613  78.7709532  47.2303173 105.3522714
  80.9837030  41.0390560  97.7400003  80.0493309  41.1592022  97.5704708
  81.1613698  40.1363027  97.4760013  76.4842218  34.4236256  99.8933265
  76.1140006  33.8707296 100.5814170  76.9801311  33.8194389  99.3408265
  84.3709581  36.8807879  98.2750038  84.8370034  37.7135871  98.2010340
  84.8217082  36.4152861  98.9795296  74.3131417  44.8833751 106.9888283
  75.0140876  45.5170234 107.1417677  73.8426532  45.2248482 106.2283922
  82.4385812  43.2251700  95.2736190  82.7145656  43.1108295  96.1830064
  81.5690311  42.8269185  95.2348363  82.3426244  29.2488466 102.3140939
  81.4289324  29.4792693 102.4823146  82.7719346  29.3326910 103.1654971
  82.1132703  37.4378358 104.8140833  81.4604153  37.6854266 104.1593286
  82.4913083  36.6242496 104.4803310  79.0739877  47.4738051  98.9169003
  79.2562271  46.6559707  99.3796756  79.8972863  47.6905744  98.4793893
  79.4082042  46.4006236  96.1784052  79.9369808  45.8898691  95.5654214
  79.6710262  46.0848767  97.0429585  78.1620276  38.1798169 111.3006870
  77.4860913  38.0792298 111.9709245  78.9847910  38.0237383 111.7642867
  69.9099135  44.4170106 103.9219385  70.4952572  43.6713794 104.0547289
  69.7123973  44.7274062 104.8056049  72.7637790  47.4521353  98.9381828
  72.0948165  47.9367481  98.4545868  72.6250660  47.6990574  99.8525206
  64.5016789  36.9875706 102.6423828  64.5400889  36.4539297 103.4360946
  63.9957082  36.4610911 102.0234806  76.9043059  49.4865097 105.5364486
  77.4561367  49.6496718 106.3013571  77.2449252  50.0769534 104.8644511
  71.8807552  31.8340246 106.1386371  71.9448878  32.6955077 105.7263768
  71.8174672  31.2214248 105.4058729  71.3559824  33.9063379 109.7859405
  71.9831863  33.5240456 110.3996929  70.4987743  33.6877581 110.1515097
  81.7553933  44.3126354 111.3913140  82.2993837  44.9256312 110.8968095
  81.1740778  44.8705933 111.9080153  68.1325367  35.7139808  95.7177760
  68.4278808  34.8050486  95.6644813  67.2313403  35.6927548  95.3958762
  80.0411446  47.4347072 102.5228168  79.9162585  46.6336812 102.0139114
  80.6990537  47.9293266 102.0342138  71.6619614  33.7895805 101.7005308
  70.9406200  34.4031772 101.5612782  72.4512870  34.3253569 101.6221954
  82.1046354  45.2356092 104.1507718  81.1576690  45.1161443 104.0786045
  82.4529127  44.3478590 104.2333980  74.4645928  31.1250231 107.9745960
  74.9880329  31.3712528 108.7372269  74.2458261  31.9570266 107.5549097
  69.8613209  33.3953906  95.8417085  69.5325915  32.5151285  95.6592191
  70.2152579  33.3401574  96.7293474  79.1092787  45.0308808 100.3512070
  78.9617750  44.1025516 100.5319641  79.9346281  45.0528899  99.8669146
  72.9755032  33.6826876  96.2092563  73.3151104  34.2112797  95.4871171
  73.4227152  34.0207282  96.9851129  82.7126909  45.8537367 101.4376943
  83.6373457  45.6480229 101.3001394  82.5442213  45.6053768 102.3466285
  75.6698473  32.0663926 105.6595631  75.3295293  31.2671739 106.0616311
  74.9637479  32.3665637 105.0872464  76.3214944  29.1513239 104.1122954
  77.1441014  28.6773717 103.9901844  76.5653008  29.9303722 104.6121640
  74.9623179  32.1801497  94.4085855  75.6831541  32.5582750  93.9049572
  74.3388483  32.8990374  94.5120833  79.1054302  32.8846646  95.3444188
  79.3217916  33.7671284  95.0433016  78.6248369  32.4932859  94.6149830
  73.8453523  35.8432359 101.9214932  73.6998104  36.1572662 102.8139214
  73.3678727  36.4617260 101.3685831  75.7049906  32.8334907 101.9695822
  75.6911475  31.9376001 101.6328120  76.4222334  32.8405571 102.6034108
  77.5576037  33.2672248 104.0148949  77.2993815  34.1889318 104.0133280
  77.0261077  32.8702682 104.7049413  82.5022226  46.3723035  96.7939035
  82.6759103  45.8069457  96.0412887  82.9951117  47.1723930  96.6118525
  68.3199185  38.3837704 104.8602593  67.7752653  39.1597512 104.9922868
  69.1978535  38.7308508 104.7021715  75.1086802  31.7149288  97.2383392
  75.2302713  30.7865934  97.4374279  74.8188844  31.7287974  96.3261707
  77.9777992  29.4004198 100.3750112  77.9999689  29.4643531  99.4202091
  78.3946051  28.5608707 100.5690618  88.3561617  39.1359458  98.4129334
  88.7992763  38.3866783  98.0148458  87.4788127  39.1269594  98.0303066
  83.4897398  45.6889799  93.8935933  84.1848303  46.3096492  94.1123248
  83.8320548  44.8385150  94.1688311  69.1065207  37.5107600 107.7532750
  68.3646943  37.6590235 108.3397381  68.7857951  37.7715866 106.8899500
  85.3888821  43.1389505  95.4223264  85.9140145  43.4776777  94.6972584
  85.3011174  42.2036520  95.2386398  77.0508870  47.0523578 107.5513140
  77.3595996  46.8072725 108.4235840  77.8484352  47.2570217 107.0632011
  77.0729482  49.2061488  99.7818517  76.6334472  48.7137867 100.4751374
  77.8237599  48.6634455  99.5410592  69.5521821  45.3973029  99.7843145
  70.3779841  45.0976801  99.4041789  69.2015873  44.6280651 100.2332934
  74.5203354  44.7499497 101.8540819  73.8983363  44.0870202 101.5543046
  75.1908221  44.7760629 101.1714466  67.7530426  43.3159355 100.7432079
  66.9162334  42.8881530 100.5616080  67.7254071  43.5091798 101.6802870
  74.5927882  33.2281285 111.4473325  74.6416037  34.1043408 111.0651094
  75.1350396  32.6858678 110.8744968  85.0782727  43.7722408 110.7274462
  84.2878271  43.7546547 110.1878961  84.8416082  44.3110702 111.4823498
  85.1980602  40.6214875 108.0407190  85.2478607  40.4564882 108.9822713
  85.0894526  39.7542134 107.6505071  74.0816861  43.3003420  95.3299279
  74.2304981  43.9838885  94.6765952  74.8883304  43.2808510  95.8448735
  82.4884365  36.6045803 109.3566497  83.3894227  36.4652267 109.0650495
  82.5632339  36.7700257 110.2964674  76.8227170  33.9812657 108.2019683
  75.9530479  34.2746223 107.9302272  77.0586650  34.5653102 108.9226947
  86.6998799  43.0411816 108.2849212  86.4083607  43.4041797 109.1212673
  86.0870930  42.3278824 108.1062544  87.8994481  40.6064696 100.8051782
  88.7341373  41.0454500 100.9689342  88.0353610  40.1303349  99.9860028
  84.9485987  38.1644431 106.7529270  85.4240109  38.3572077 105.9448121
  84.0251553  38.2203617 106.5072653  71.8369494  39.3268598  96.3360348
  71.5915536  38.4230928  96.5340558  72.0065408  39.3285748  95.3939826
  79.5266204  30.1992274 105.7185104  80.0448148  30.9353301 105.3931592
  79.1721337  30.5056268 106.5531863  71.1065141  35.0596955  93.8346509
  70.4134386  35.1341310  93.1786545  70.8616893  34.2957299  94.3568026
  79.7778798  26.6192557 101.2386000  80.0580552  25.9515746 101.8646427
  80.5629405  26.8121652 100.7260664  77.5812266  45.7951551  92.8011027
  77.0086234  46.4141738  92.3481498  78.1545060  46.3450912  93.3350948
  83.6487656  35.0410191 104.9857575  84.6005079  35.1408288 105.0069799
  83.4791107  34.2488459 105.4955660  81.6702036  32.1265774 105.1716976
  81.0751968  32.4070787 104.4763465  81.3851733  32.6159675 105.9433717
  80.8009526  46.0788701  93.9319609  81.7340199  46.0134263  94.1352484
  80.7132739  46.9144968  93.4734141  83.4297543  45.3954571  90.8923556
  83.3511174  45.0614435  91.7859314  84.2507210  45.8876339  90.8915029
  86.1275734  38.2616310 104.0999875  86.0952054  37.3232311 104.2859559
  86.7376358  38.3400347 103.3665700  77.9659065  37.1312363  90.1427079
  78.9118170  37.0018572  90.2115497  77.5873310  36.3927025  90.6196507
  86.2770223  35.0527354 104.1458158  85.7609271  34.2685811 103.9588087
  87.1610171  34.7246071 104.3104678  83.9380950  28.7968369 100.1053971
  83.7405771  28.4883458 100.9897303  84.5480655  29.5230008 100.2351901
  91.9452284  39.3232317 103.2405912  92.6755672  39.0617605 103.8013615
  91.3359229  38.5861039 103.2807980  90.0267581  37.4640180 103.8380363
  89.3000745  37.3296145 103.2296855  89.6114868  37.7717009 104.6437081
  77.8497758  41.1830110 111.6027736  78.7700767  41.3608709 111.7967783
  77.8147341  40.2386155 111.4507435  76.1501982  35.0562340  90.0781964
  75.2433438  34.7595453  90.1544678  76.4277963  34.7592158  89.2116251
  67.0679923  36.3768703 100.5281011  66.7482707  35.5234011 100.2355385
  66.5213351  36.5917281 101.2838978  70.8459830  39.0931144 104.2450517
  71.0645840  40.0248252 104.2638551  71.2585604  38.7339119 105.0305321
  77.7664048  29.5999230  96.2326206  76.9564776  29.2546315  96.6081452
  78.4548465  29.2906773  96.8213817  79.6954596  28.6777276  97.8550502
  80.2485635  29.0972730  98.5140525  79.9324683  27.7513024  97.8973458
  75.7187695  34.6664350 113.6353266  75.6184422  35.6158707 113.5665357
  75.5009237  34.3382589 112.7629336  74.9200767  31.9149275  90.2193943
  75.7819931  32.2404173  90.4789761  75.1051111  31.1280771  89.7067009
  66.9368183  39.9971615 102.4974132  66.2431654  39.5825568 101.9844087
  67.6841174  40.0392151 101.9007551  83.0733403  30.7877802  97.3629166
  82.4932072  31.4462606  96.9807219  82.8069336  29.9655146  96.9516584
  81.5236970  30.1882859  99.5650487  82.0236748  30.2999394  98.7564806
  82.1672578  29.8843912 100.2051295  75.5818965  38.0961489 112.4518328
  75.0986047  38.8961849 112.6582217  75.6679904  38.1069434 111.4985772
  68.8504925  39.9289869 100.3740147  68.8275613  40.0277556  99.4222030
  69.1605562  40.7755019 100.6957313  71.5092303  41.9866024 104.4886762
  72.4635556  41.9549966 104.4216693  71.3104827  41.5256647 105.3036987
  72.0991685  40.5567140 107.0557559  72.9184574  41.0511218 107.0792396
  72.3728493  39.6399108 107.0275127  81.8558281  32.9477892  96.4185515
  80.9684136  33.2327543  96.2005709  82.2712270  32.7871655  95.5712792
  85.2072817  32.9724413 100.1339854  85.9833208  33.4620865 100.4064471
  84.4820952  33.3982467 100.5911723  87.6445376  33.6852032 101.1913795
  88.2389867  33.4447768 100.4807103  87.7171960  32.9659163 101.8187331
  69.8642532  47.5285643 101.5056959  69.7297000  46.7686044 100.9394957
  69.4474594  48.2526543 101.0385748  81.0001495  42.7122567  90.5133535
  81.7037345  42.9172569  91.1291190  80.2764143  43.2799328  90.7782618
  81.8299305  38.4632428  96.6335805  81.7734506  38.9200979  95.7943437
  82.3827647  37.7023112  96.4558648  85.6404111  34.2522160  97.4585924
  85.3841045  33.8518795  98.2894132  85.0156979  34.9665954  97.3336064
  89.9516449  36.9918233  99.9657216  89.3916007  37.0611422 100.7388778
  89.3459952  36.8159218  99.2456712  73.0211658  48.4254960 101.7175402
  72.9044042  49.3700393 101.6154092  72.2004104  48.1228522 102.1061201
  82.9088192  43.1505096  92.5631995  83.7433796  42.7186294  92.3809470
  82.7472535  42.9787109  93.4908889  82.5634084  39.6537209  93.9288334
  82.5082888  39.4881481  92.9876778  81.9380140  40.3613242  94.0850524
  67.3526599  34.8905273 107.7549756  67.9985463  34.3804227 108.2436981
  67.1443750  35.6273955 108.3293182  79.8779991  41.9586121 113.2541897
  80.7471151  42.1326773 112.8928532  79.3986743  42.7780538 113.1317626
  75.8730210  29.1545318  93.5073652  75.8608880  30.0987158  93.6641923
  76.7653632  28.9715464  93.2133114  74.0466172  49.0783222 104.9331330
  74.9493418  49.1106832 105.2497825  73.8203542  48.1483673 104.9477666
  75.8019774  47.8314209 101.5941409  74.8515405  47.8316070 101.4805781
  76.1052260  47.0846943 101.0777444  79.6882329  25.7488095  97.7619589
  78.9214725  25.1946581  97.9076272  80.0993034  25.8209964  98.6233741
  71.6924090  32.0372891 111.8524771  72.5555552  31.6809695 112.0628095
  71.1189501  31.6986785 112.5400175  91.5372467  53.6674747 102.6587172
  92.1750877  53.5481494 101.9550512  91.4193310  54.6155591 102.7175124
  88.3462174  53.6202175 102.5948696  88.0080685  53.5043240 101.7069231
  89.2151942  53.2193340 102.5749702  84.2048989  55.4737651  98.5845587
  83.6413854  55.3827588  97.8161875  84.0901384  54.6537556  99.0648080
  88.8281956  54.7737027 108.5534902  88.8170597  54.3789825 107.6815405
  88.9902596  54.0403099 109.1468673  81.7513421  56.9688843 101.4229808
  82.5434713  56.6279668 101.0076107  81.9910071  57.0783818 102.3431961
  89.7848548  59.1408619  93.8960052  89.1336528  59.7262700  93.5094066
  90.5792911  59.6714814  93.9555090  83.7104175  56.2297756  94.2947186
  84.4835051  55.6826743  94.1560062  84.0629574  57.0942006  94.5061648
  85.5489218  57.5574139 107.5014086  85.2579084  58.4619769 107.3860752
  86.1846202  57.5990666 108.2158155  86.4745424  54.9350987 104.0915445
  87.0708997  54.7107009 103.3772408  86.5320396  54.1935733 104.6940893
  86.0470453  52.3890422  91.9265636  86.2995974  51.8671944  91.1649099
  85.1095012  52.2256568  92.0292320  91.0913736  51.3926201  99.7340380
  91.8776825  50.9745624  99.3830797  91.3552440  52.2972293  99.9022028
  91.2623813  56.8299051  94.4329036  90.6269646  56.9033678  95.1449941
  90.9321219  57.4192650  93.7548116  96.4922163  51.3301434 100.6373358
  97.2247335  50.7600651 100.8711188  95.7361519  50.9423034 101.0779864
  85.7666742  54.2918528  94.1290011  85.6503000  53.6163432  94.7971096
  85.8769002  53.8050902  93.3122164  88.1098283  53.7528675  97.8336701
  87.7456490  53.2259296  98.5449622  88.9665398  53.3627144  97.6603186
  94.0147583  45.0423008 105.0967967  93.6830908  45.9118419 104.8729182
  93.4193197  44.7259292 105.7761997  87.7503770  48.7818575  92.8298049
  87.9178172  49.6498812  93.1968520  87.5600939  48.9445857  91.9059338
  90.5079103  57.2435554 104.4963879  90.2079826  58.1460593 104.3879687
  90.1630162  56.9767737 105.3485032  83.9591584  53.6949351 100.5300584
  83.0342081  53.5625565 100.7378276  84.2075997  54.4743570 101.0270526
  93.9076247  49.7618094 102.1761317  92.9993124  49.6933503 101.8820078
  93.8563842  50.2390039 103.0043142  87.7292990  51.2376233  93.8144716
  87.6092616  51.6833283  94.6530196  87.0345579  51.5861550  93.2558254
  81.3200395  53.3382624 101.3644373  81.4492776  53.5917103 102.2783785
  80.6397847  53.9310332 101.0449028  85.4899883  64.0079874  97.4634847
  85.4123912  64.9587699  97.5423328  84.8861526  63.6625747  98.1209773
  87.9817112  51.1807740 110.1196214  87.2050446  51.7401660 110.1099079
  88.6207675  51.6664523 110.6411084  95.7737893  47.9634533 103.9539191
  95.1312273  48.2567066 103.3078985  95.2692821  47.8487453 104.7592387
  93.4278057  51.7097706  94.6425050  94.3395913  51.9425093  94.4672747
  92.9187704  52.2934750  94.0800129  86.2363485  53.9893193 109.6814181
  86.9778169  54.5278237 109.4049005  85.5300470  54.6159482 109.8385733
  91.7118824  56.1322334 108.2786342  92.1202180  55.6904744 107.5340975
  90.9896086  55.5574961 108.5320535  88.0649894  51.0694940 105.6519899
  88.9111089  51.4934354 105.7954548  88.0048532  50.4128565 106.3458463
  92.0347639  56.6923524 102.0338631  91.4056501  56.8569238 101.3314699
  91.6473301  57.1065134 102.8049595  95.9136871  57.6277962  99.3882995
  95.2287909  58.0076863  98.8380028  95.9980720  58.2373289 100.1214943
  91.2149340  48.7299309 107.3101073  90.9710271  49.4841369 106.7735349
  91.4909270  49.1084656 108.1448320  93.1687802  55.2737921 105.9878339
  93.3804698  55.9169681 105.3112720  93.1217551  54.4400238 105.5200269
  90.7714031  47.8855742 102.8914911  89.9098510  48.1836995 103.1831648
  90.7976466  48.1026141 101.9595943  87.5875601  56.4297932  99.2988716
  88.0513946  56.7085635  98.5093339  87.3232399  55.5281377  99.1161807
  84.4799682  55.9769414 102.2368480  85.0501039  56.4056682 101.5985964
  85.0707794  55.6951999 102.9352665  86.5244487  52.5521085  96.1078282
  87.2268530  53.0042128  96.5752208  86.1925115  51.9104904  96.7358175
  84.9724848  51.1432841 110.4829491  84.3423509  51.8249122 110.7164888
  84.8660936  51.0315923 109.5382629  80.2669821  50.8104637 101.4095415
  79.4768875  51.0662166 100.9335526  80.7581068  51.6252975 101.5147456
  94.2833630  58.1509877 104.1600696  95.1051074  57.7490064 103.8783378
  94.2796033  58.0478111 105.1116812  82.2184566  51.1749217  98.3678892
  81.4215729  51.2867911  98.8862388  81.9910158  51.5135869  97.5019782
  88.0490234  57.6993920 106.3161406  88.1134666  58.1614327 107.1519578
  87.3401158  57.0691285 106.4443716  78.5507524  51.0635128 103.8410406
  78.8015562  51.9482138 104.1067982  79.0867072  50.8839729 103.0685498
 102.3739623  54.4948625 100.5085667 101.6203332  53.9256023 100.3529672
 102.5087165  54.4611290 101.4556302  87.7638251  59.3662027  96.1840387
  87.6283926  60.2113563  96.6125235  88.3048064  59.5681305  95.4206321
  84.2505591  45.4453607 112.8454742  83.8572537  44.8919806 113.5202386
  85.0671731  45.7564186 113.2361260  81.2167649  56.8837465  96.7568312
  81.7292169  57.6780716  96.9073877  81.8690362  56.1863756  96.6901913
  83.0262534  60.0003222  98.8391065  83.2029162  60.9221186  98.6512049
  83.8219367  59.6861641  99.2685445  87.1673552  46.8611486 110.4374999
  87.9083265  47.4618639 110.3579461  87.3991475  46.1189124 109.8793041
  82.3114890  52.0467854 108.7153228  82.1968405  51.1453111 109.0160327
  81.4559408  52.2931550 108.3638045  89.3906728  59.9885594 110.3140729
  88.9470582  59.2021972 109.9961633  90.0523941  60.1764744 109.6484620
  84.1493849  61.5181395 104.8401407  84.7001274  61.3898459 104.0678401
  83.3105325  61.8176284 104.4896300  91.4887966  60.2688394 108.3422130
  91.4706441  61.0897275 107.8502399  92.4107886  60.1442469 108.5672271
  87.9461020  57.7832523 109.1845639  88.4789357  57.0220811 108.9544947
  87.4175101  57.4906175 109.9269793  91.1130715  42.8892589 104.7139280
  90.7694984  43.7794231 104.6378391  91.4809678  42.6994247 103.8508865
  79.1816566  55.2126120  97.5327882  80.0191788  55.6223128  97.3161590
  79.3594833  54.2725562  97.5028076  91.0780998  52.8801200  93.2211715
  90.5627621  53.6505805  93.4600103  90.8058306  52.2066336  93.8444777
  88.6628109  47.7250901  98.2796954  87.8069705  47.3357752  98.1002592
  89.0755061  47.8042862  97.4196739  90.1927255  45.2597244 102.6788514
  89.6892051  45.2227380 101.8656319  90.4857862  46.1689987 102.7385170
  86.4370141  45.3435974 101.6854695  87.3023138  45.1478783 101.3260585
  86.5047650  45.1146326 102.6124052  96.0515272  55.6333555  95.1564889
  95.2744715  55.2944714  94.7120051  96.7306753  55.6386178  94.4819854
  90.8667301  50.7528292  95.0471497  90.5617436  51.0674442  95.8981640
  91.8197743  50.8309712  95.0898830  89.3113733  56.9118516  96.6964451
  88.7835094  56.1771275  96.3837688  88.8101235  57.6893192  96.4504419
  94.2906579  55.1067536 101.8131497  93.6330253  55.7966798 101.9011625
  95.0946978  55.4963968 102.1565483  84.0432460  47.5738182  99.0571062
  84.6176212  47.3513364  98.3244255  84.6303443  47.6426877  99.8099663
  93.1012038  53.4611909  99.8635439  93.6143919  54.0941901 100.3657148
  93.7513261  52.8613104  99.4978799  84.3702047  49.6042643  93.0766947
  83.5339360  49.9417330  93.3976222  84.2306817  49.4691623  92.1394084
  86.3455128  44.4479431  97.7846132  85.6919540  44.1328448  97.1602746
  86.3035602  43.8255171  98.5105954  87.4566333  54.7298726  89.6999424
  86.5493395  54.4987979  89.8990573  87.9537365  53.9336345  89.8873405
  90.3634412  63.4396233  92.6196110  89.6896111  63.7427930  93.2281068
  90.7500234  64.2425314  92.2701567  89.5792868  50.9361364 102.1093779
  88.6615430  51.1576311 101.9515467  89.9953012  51.0107675 101.2505486
  90.3627916  52.3352780  97.2396459  91.1099735  52.8474177  96.9303581
  90.6319506  52.0136833  98.1000853  88.6354566  54.8311321  94.2223414
  87.7265786  54.5470354  94.3195883  88.6649650  55.2510399  93.3626721
  93.8673834  58.4417910  97.9914581  93.4136161  57.6008820  98.0479772
  93.2367800  59.0779309  98.3289361  92.8106753  49.3709896  99.2215249
  92.0729510  48.8587283  99.5525491  93.0633527  48.9310278  98.4098526
  92.3106773  60.2794407  98.9264399  92.6029747  60.8399464  98.2076765
  92.8205394  60.5722968  99.6817558  92.9118381  42.1486148  99.8157018
  93.2177257  41.2883512  99.5282933  93.6370985  42.7403769  99.6156012
  79.2042737  52.5516835  98.2038616  79.0067137  51.9586196  97.4789682
  78.6489401  52.2469045  98.9214555  87.1839460  52.4439941 100.3233209
  87.2388070  51.4913778 100.2475686  86.3730662  52.5999381 100.8074507
  88.3330654  56.3720065  91.5611492  87.8950084  55.6555923  91.1017130
  89.0741095  56.5996179  90.9996584  85.1231820  51.0617001  98.0823588
  84.3099686  51.3611172  98.4888780  85.6190815  50.6672690  98.7998070
  87.2740398  61.0574758 100.0157853  87.2316577  61.2835604  99.0866385
  88.1903097  60.8238133 100.1643654  90.7206032  51.5258826 106.9138482
  91.0755420  51.7530299 107.7732948  91.3678163  51.8577202 106.2915737
  96.4503769  54.6477262  97.6187811  96.3121668  54.8378858  96.6909000
  96.0939988  55.4096644  98.0755862  84.6145895  48.6335357 103.6984823
  85.2545274  48.4924116 103.0007786  83.7823426  48.3469870 103.3223425
  96.4773149  56.7153789 102.6299082  96.9109655  56.6229078 103.4782136
  97.1904729  56.6911289 101.9919098  85.3906199  57.9337787  99.8119815
  86.1846797  57.4388107  99.6102390  84.6797891  57.4055650  99.4487521
  90.2101043  60.3155883 104.1632183  90.2638066  60.8846819 104.9309899
  89.3415825  60.4857768 103.7986220  81.6988962  52.0780869  95.8879568
  80.7686551  52.0165324  96.1049530  81.7946434  51.5556822  95.0916209
  81.6174511  48.6035682  98.4757810  81.8781329  49.5181015  98.3666970
  82.4391684  48.1360124  98.6254422  83.0899437  50.0173439 105.6456634
  83.7622490  49.8090801 104.9969283  82.2629223  49.8195525 105.2061866
  97.3388698  56.7577489 105.1631968  97.5324588  57.6623300 105.4091243
  97.2389316  56.2984908 105.9970553  88.9925009  46.6435380 107.6622295
  88.3452924  47.3425329 107.5686771  89.7626024  47.0771524 108.0298543
  92.4003807  56.9084232 110.7372848  92.2489313  56.6794784 109.8202932
  92.3908486  57.8654833 110.7504193  89.1689143  54.4816145 105.7219115
  90.0981203  54.6327304 105.5488082  88.7480173  54.5700166 104.8667761
  87.9677475  58.5066809 103.4917652  87.8288561  58.1385594 104.3643591
  87.1792071  59.0214449 103.3201610  88.5625627  63.6075906  94.8343189
  88.7377383  63.1363949  95.6488812  87.8758415  64.2341672  95.0624450
  89.5182690  57.8848412 100.8806490  89.1832523  57.8449182 101.7764140
  89.0186636  57.2193128 100.4076900  83.4926934  53.2916042 106.4059071
  83.3546732  52.5596281 107.0070610  84.4031858  53.2024942 106.1243259
  92.4541882  55.2304446  91.1543550  91.8371052  54.5051274  91.0576603
  91.9858370  55.9913806  90.8110624  86.1209235  53.0036001 105.8942751
  86.8308853  52.3629193 105.8529369  86.0778543  53.2548896 106.8168932
  94.1096013  59.9403355 108.8149330  94.0508560  59.2562575 108.1479913
  94.5115532  60.6822345 108.3629956  84.8338169  49.9901219 107.7138390
  84.2975526  49.5391958 108.3659987  84.2454877  50.1247128 106.9708855
  83.1286712  66.7565268 101.6083049  83.3683310  67.3883793 102.2862068
  82.2855909  66.4053308 101.8948408  84.2440428  49.4489871  90.2764854
  83.3669894  49.3278671  89.9127101  84.7198181  48.6575949  90.0243743
  94.1113421  57.9042938 107.0463310  93.2240199  57.5668860 107.1689709
  94.6811972  57.1725970 107.2832075  75.7642568  54.2367030 100.3706361
  76.4513608  53.9228760  99.7827377  75.6090697  55.1408395 100.0973613
  80.5677290  49.1257227 104.7991385  80.4835479  48.5182896 104.0641795
  79.7459996  49.6166245 104.8000881  87.6414574  62.5644391 104.0124553
  87.5684746  63.3699362 104.5243858  87.1991967  62.7636357 103.1872574
  87.4304354  61.8016161  97.5227375  86.6471876  62.3437841  97.6165599
  88.1297099  62.3190141  97.9221616  90.7401004  47.6110790 100.1661580
  91.2369703  46.8580753  99.8462650  89.9687985  47.6475107  99.6004789
  98.5930761  53.3151156 101.8079872  98.5820637  54.1975871 101.4373805
  97.7248141  52.9622707 101.6134409  90.1013258  62.4631225 106.1682712
  90.8141230  63.0978690 106.0958613  89.6103286  62.5595091 105.3522714
  91.8230785  56.3682478  97.7400003  90.8887063  56.4883940  97.5704708
  92.0007453  55.4654944  97.4760013  87.3235973  49.7528173  99.8933265
  86.9533760  49.1999214 100.5814170  87.8195065  49.1486307  99.3408265
  95.2103336  52.2099797  98.2750038  95.6763788  53.0427788  98.2010340
  95.6610836  51.7444778  98.9795296  85.1525171  60.2125668 106.9888283
  85.8534631  60.8462151 107.1417677  84.6820286  60.5540400 106.2283922
  93.2779567  58.5543618  95.2736190  93.5539411  58.4400213  96.1830064
  92.4084066  58.1561103  95.2348363  93.1819999  44.5780384 102.3140939
  92.2683078  44.8084611 102.4823146  93.6113100  44.6618828 103.1654971
  92.9526457  52.7670276 104.8140833  92.2997907  53.0146183 104.1593286
  93.3306837  51.9534414 104.4803310  89.9133631  62.8029969  98.9169003
  90.0956026  61.9851625  99.3796756  90.7366617  63.0197661  98.4793893
  90.2475796  61.7298154  96.1784052  90.7763563  61.2190609  95.5654214
  90.5104016  61.4140684  97.0429585  89.0014030  53.5090087 111.3006870
  88.3254667  53.4084216 111.9709245  89.8241664  53.3529301 111.7642867
  80.7492889  59.7462023 103.9219385  81.3346326  59.0005711 104.0547289
  80.5517728  60.0565980 104.8056049  83.6031544  62.7813271  98.9381828
  82.9341920  63.2659398  98.4545868  83.4644414  63.0282491  99.8525206
  75.3410544  52.3167624 102.6423828  75.3794643  51.7831214 103.4360946
  74.8350837  51.7902829 102.0234806  87.7436813  64.8157014 105.5364486
  88.2955121  64.9788636 106.3013571  88.0843006  65.4061452 104.8644511
  82.7201306  47.1632164 106.1386371  82.7842633  48.0246995 105.7263768
  82.6568426  46.5506166 105.4058729  82.1953579  49.2355297 109.7859405
  82.8225618  48.8532374 110.3996929  81.3381498  49.0169499 110.1515097
  92.5947687  59.6418272 111.3913140  93.1387591  60.2548230 110.8968095
  92.0134532  60.1997850 111.9080153  78.9719122  51.0431726  95.7177760
  79.2672563  50.1342404  95.6644813  78.0707157  51.0219465  95.3958762
  90.8805200  62.7638990 102.5228168  90.7556340  61.9628730 102.0139114
  91.5384291  63.2585183 102.0342138  82.5013369  49.1187722 101.7005308
  81.7799954  49.7323690 101.5612782  83.2906624  49.6545487 101.6221954
  92.9440109  60.5648010 104.1507718  91.9970444  60.4453361 104.0786045
  93.2922882  59.6770508 104.2333980  85.3039682  46.4542149 107.9745960
  85.8274084  46.7004445 108.7372269  85.0852015  47.2862184 107.5549097
  80.7006963  48.7245823  95.8417085  80.3719669  47.8443202  95.6592191
  81.0546334  48.6693492  96.7293474  89.9486542  60.3600726 100.3512070
  89.8011504  59.4317434 100.5319641  90.7740035  60.3820817  99.8669146
  83.8148786  49.0118793  96.2092563  84.1544859  49.5404714  95.4871171
  84.2620907  49.3499199  96.9851129  93.5520664  61.1829285 101.4376943
  94.4767211  60.9772146 101.3001394  93.3835967  60.9345686 102.3466285
  86.5092227  47.3955844 105.6595631  86.1689047  46.5963657 106.0616311
  85.8031233  47.6957555 105.0872464  87.1608699  44.4805156 104.1122954
  87.9834768  44.0065635 103.9901844  87.4046762  45.2595640 104.6121640
  85.8016933  47.5093415  94.4085855  86.5225296  47.8874668  93.9049572
  85.1782238  48.2282292  94.5120833  89.9448056  48.2138564  95.3444188
  90.1611671  49.0963202  95.0433016  89.4642123  47.8224777  94.6149830
  84.6847278  51.1724277 101.9214932  84.5391858  51.4864580 102.8139214
  84.2072481  51.7909177 101.3685831  86.5443661  48.1626825 101.9695822
  86.5305229  47.2667918 101.6328120  87.2616089  48.1697489 102.6034108
  88.3969791  48.5964165 104.0148949  88.1387569  49.5181236 104.0133280
  87.8654832  48.1994600 104.7049413  93.3415980  61.7014952  96.7939035
  93.5152858  61.1361375  96.0412887  93.8344871  62.5015847  96.6118525
  79.1592940  53.7129621 104.8602593  78.6146408  54.4889429 104.9922868
  80.0372290  54.0600426 104.7021715  85.9480556  47.0441205  97.2383392
  86.0696468  46.1157851  97.4374279  85.6582599  47.0579891  96.3261707
  88.8171747  44.7296116 100.3750112  88.8393444  44.7935449  99.4202091
  89.2339806  43.8900624 100.5690618  99.1955371  54.4651375  98.4129334
  99.6386517  53.7158700  98.0148458  98.3181881  54.4561512  98.0303066
  94.3291153  61.0181717  93.8935933  95.0242057  61.6388409  94.1123248
  94.6714303  60.1677068  94.1688311  79.9458962  52.8399518 107.7532750
  79.2040698  52.9882153 108.3397381  79.6251706  53.1007783 106.8899500
  96.2282576  58.4681422  95.4223264  96.7533900  58.8068695  94.6972584
  96.1404928  57.5328438  95.2386398  87.8902624  62.3815496 107.5513140
  88.1989751  62.1364643 108.4235840  88.6878106  62.5862134 107.0632011
  87.9123236  64.5353406  99.7818517  87.4728227  64.0429784 100.4751374
  88.6631353  63.9926373  99.5410592  80.3915575  60.7264946  99.7843145
  81.2173595  60.4268718  99.4041789  80.0409627  59.9572569 100.2332934
  85.3597109  60.0791415 101.8540819  84.7377118  59.4162120 101.5543046
  86.0301975  60.1052546 101.1714466  78.5924180  58.6451273 100.7432079
  77.7556089  58.2173447 100.5616080  78.5647826  58.8383716 101.6802870
  85.4321636  48.5573203 111.4473325  85.4809791  49.4335325 111.0651094
  85.9744150  48.0150596 110.8744968  95.9176482  59.1014326 110.7274462
  95.1272025  59.0838465 110.1878961  95.6809836  59.6402620 111.4823498
  96.0374357  55.9506792 108.0407190  96.0872362  55.7856800 108.9822713
  95.9288280  55.0834051 107.6505071  84.9210615  58.6295338  95.3299279
  85.0698736  59.3130802  94.6765952  85.7277059  58.6100428  95.8448735
  93.3278119  51.9337720 109.3566497  94.2287982  51.7944185 109.0650495
  93.4026094  52.0992175 110.2964674  87.6620924  49.3104575 108.2019683
  86.7924234  49.6038141 107.9302272  87.8980405  49.8945020 108.9226947
  97.5392554  58.3703734 108.2849212  97.2477362  58.7333714 109.1212673
  96.9264685  57.6570742 108.1062544  98.7388236  55.9356614 100.8051782
  99.5735127  56.3746418 100.9689342  98.8747365  55.4595267  99.9860028
  95.7879742  53.4936348 106.7529270  96.2633863  53.6863995 105.9448121
  94.8645307  53.5495534 106.5072653  82.6763248  54.6560516  96.3360348
  82.4309290  53.7522846  96.5340558  82.8459163  54.6577666  95.3939826
  90.3659958  45.5284192 105.7185104  90.8841902  46.2645219 105.3931592
  90.0115091  45.8348185 106.5531863  81.9458896  50.3888873  93.8346509
  81.2528141  50.4633228  93.1786545  81.7010648  49.6249217  94.3568026
  90.6172552  41.9484474 101.2386000  90.8974306  41.2807664 101.8646427
  91.4023159  42.1413570 100.7260664  88.4206021  61.1243468  92.8011027
  87.8479988  61.7433656  92.3481498  88.9938815  61.6742830  93.3350948
  94.4881411  50.3702108 104.9857575  95.4398834  50.4700206 105.0069799
  94.3184861  49.5780377 105.4955660  92.5095790  47.4557692 105.1716976
  91.9145722  47.7362704 104.4763465  92.2245487  47.9451593 105.9433717
  91.6403281  61.4080619  93.9319609  92.5733954  61.3426180  94.1352484
  91.5526494  62.2436885  93.4734141  94.2691297  60.7246489  90.8923556
  94.1904929  60.3906352  91.7859314  95.0900964  61.2168257  90.8915029
  96.9669489  53.5908228 104.0999875  96.9345809  52.6524229 104.2859559
  97.5770112  53.6692265 103.3665700  88.8052819  52.4604281  90.1427079
  89.7511924  52.3310489  90.2115497  88.4267064  51.7218943  90.6196507
  97.1163977  50.3819272 104.1458158  96.6003026  49.5977728 103.9588087
  98.0003926  50.0537988 104.3104678  94.7774704  44.1260287 100.1053971
  94.5799525  43.8175375 100.9897303  95.3874410  44.8521926 100.2351901
 102.7846038  54.6524235 103.2405912 103.5149427  54.3909523 103.8013615
 102.1752984  53.9152957 103.2807980 100.8661336  52.7932098 103.8380363
 100.1394499  52.6588063 103.2296855 100.4508622  53.1008926 104.6437081
  88.6891512  56.5122027 111.6027736  89.6094521  56.6900626 111.7967783
  88.6541095  55.5678073 111.4507435  86.9895737  50.3854258  90.0781964
  86.0827192  50.0887370  90.1544678  87.2671718  50.0884076  89.2116251
  77.9073677  51.7060621 100.5281011  77.5876461  50.8525929 100.2355385
  77.3607105  51.9209199 101.2838978  81.6853585  54.4223062 104.2450517
  81.9039594  55.3540170 104.2638551  82.0979358  54.0631036 105.0305321
  88.6057802  44.9291147  96.2326206  87.7958531  44.5838232  96.6081452
  89.2942219  44.6198691  96.8213817  90.5348351  44.0069194  97.8550502
  91.0879389  44.4264647  98.5140525  90.7718437  43.0804942  97.8973458
  86.5581450  49.9956268 113.6353266  86.4578177  50.9450625 113.5665357
  86.3402992  49.6674507 112.7629336  85.7594521  47.2441193  90.2193943
  86.6213685  47.5696091  90.4789761  85.9444865  46.4572689  89.7067009
  77.7761937  55.3263532 102.4974132  77.0825408  54.9117485 101.9844087
  78.5234928  55.3684069 101.9007551  93.9127158  46.1169719  97.3629166
  93.3325827  46.7754523  96.9807219  93.6463090  45.2947064  96.9516584
  92.3630724  45.5174777  99.5650487  92.8630502  45.6291311  98.7564806
  93.0066332  45.2135830 100.2051295  86.4212720  53.4253407 112.4518328
  85.9379802  54.2253767 112.6582217  86.5073659  53.4361351 111.4985772
  79.6898680  55.2581786 100.3740147  79.6669368  55.3569473  99.4222030
  79.9999316  56.1046937 100.6957313  82.3486057  57.3157941 104.4886762
  83.3029311  57.2841884 104.4216693  82.1498581  56.8548565 105.3036987
  82.9385440  55.8859057 107.0557559  83.7578329  56.3803136 107.0792396
  83.2122247  54.9691025 107.0275127  92.6952036  48.2769810  96.4185515
  91.8077891  48.5619460  96.2005709  93.1106025  48.1163573  95.5712792
  96.0466572  48.3016331 100.1339854  96.8226962  48.7912783 100.4064471
  95.3214706  48.7274385 100.5911723  98.4839130  49.0143950 101.1913795
  99.0783621  48.7739686 100.4807103  98.5565714  48.2951080 101.8187331
  80.7036286  62.8577561 101.5056959  80.5690754  62.0977962 100.9394957
  80.2868348  63.5818461 101.0385748  91.8395249  58.0414484  90.5133535
  92.5431099  58.2464487  91.1291190  91.1157898  58.6091246  90.7782618
  92.6693059  53.7924346  96.6335805  92.6128261  54.2492897  95.7943437
  93.2221402  53.0315030  96.4558648  96.4797865  49.5814077  97.4585924
  96.2234800  49.1810713  98.2894132  95.8550733  50.2957871  97.3336064
 100.7910203  52.3210151  99.9657216 100.2309761  52.3903340 100.7388778
 100.1853707  52.1451135  99.2456712  83.8605412  63.7546878 101.7175402
  83.7437796  64.6992310 101.6154092  83.0397858  63.4520439 102.1061201
  93.7481947  58.4797013  92.5631995  94.5827551  58.0478212  92.3809470
  93.5866290  58.3079027  93.4908889  93.4027839  54.9829127  93.9288334
  93.3476643  54.8173398  92.9876778  92.7773894  55.6905160  94.0850524
  78.1920354  50.2197191 107.7549756  78.8379217  49.7096145 108.2436981
  77.9837505  50.9565873 108.3293182  90.7173746  57.2878039 113.2541897
  91.5864906  57.4618691 112.8928532  90.2380497  58.1072455 113.1317626
  86.7123964  44.4837236  93.5073652  86.7002634  45.4279076  93.6641923
  87.6047386  44.3007381  93.2133114  84.8859926  64.4075140 104.9331330
  85.7887173  64.4398750 105.2497825  84.6597296  63.4775591 104.9477666
  86.6413528  63.1606126 101.5941409  85.6909159  63.1607988 101.4805781
  86.9446014  62.4138861 101.0777444  90.5276084  41.0780012  97.7619589
  89.7608480  40.5238499  97.9076272  90.9386789  41.1501881  98.6233741
  82.5317845  47.3664808 111.8524771  83.3949306  47.0101613 112.0628095
  81.9583255  47.0278703 112.5400175 102.3766222  68.9966665 102.6587172
 103.0144632  68.8773412 101.9550512 102.2587065  69.9447509 102.7175124
  99.1855928  68.9494093 102.5948696  98.8474440  68.8335157 101.7069231
 100.0545696  68.5485258 102.5749702  95.0442744  70.8029569  98.5845587
  94.4807609  70.7119506  97.8161875  94.9295139  69.9829474  99.0648080
  99.6675711  70.1028944 108.5534902  99.6564352  69.7081743 107.6815405
  99.8296350  69.3695017 109.1468673  92.5907176  72.2980761 101.4229808
  93.3828468  71.9571585 101.0076107  92.8303826  72.4075736 102.3431961
 100.6242302  74.4700537  93.8960052  99.9730282  75.0554617  93.5094066
 101.4186665  75.0006732  93.9555090  94.5497930  71.5589674  94.2947186
  95.3228806  71.0118661  94.1560062  94.9023328  72.4233923  94.5061648
  96.3882972  72.8866056 107.5014086  96.0972838  73.7911687 107.3860752
  97.0239956  72.9282584 108.2158155  97.3139179  70.2642905 104.0915445
  97.9102751  70.0398927 103.3772408  97.3714151  69.5227650 104.6940893
  96.8864207  67.7182340  91.9265636  97.1389728  67.1963861  91.1649099
  95.9488766  67.5548486  92.0292320 101.9307490  66.7218118  99.7340380
 102.7170579  66.3037542  99.3830797 102.1946195  67.6264211  99.9022028
 102.1017568  72.1590969  94.4329036 101.4663401  72.2325595  95.1449941
 101.7714974  72.7484568  93.7548116 107.3315917  66.6593352 100.6373358
 108.0641089  66.0892568 100.8711188 106.5755273  66.2714952 101.0779864
  96.6060496  69.6210446  94.1290011  96.4896754  68.9455349  94.7971096
  96.7162756  69.1342820  93.3122164  98.9492037  69.0820593  97.8336701
  98.5850244  68.5551214  98.5449622  99.8059153  68.6919062  97.6603186
 104.8541338  60.3714926 105.0967967 104.5224662  61.2410337 104.8729182
 104.2586951  60.0551210 105.7761997  98.5897524  64.1110493  92.8298049
  98.7571926  64.9790729  93.1968520  98.3994693  64.2737775  91.9059338
 101.3472857  72.5727472 104.4963879 101.0473580  73.4752511 104.3879687
 101.0023917  72.3059655 105.3485032  94.7985339  69.0241269 100.5300584
  93.8735835  68.8917483 100.7378276  95.0469752  69.8035488 101.0270526
 104.7470001  65.0910012 102.1761317 103.8386878  65.0225420 101.8820078
 104.6957597  65.5681957 103.0043142  98.5686745  66.5668150  93.8144716
  98.4486370  67.0125201  94.6530196  97.8739333  66.9153468  93.2558254
  92.1594150  68.6674542 101.3644373  92.2886531  68.9209021 102.2783785
  91.4791601  69.2602250 101.0449028  96.3293637  79.3371792  97.4634847
  96.2517667  80.2879617  97.5423328  95.7255281  78.9917665  98.1209773
  98.8210867  66.5099657 110.1196214  98.0444201  67.0693578 110.1099079
  99.4601430  66.9956440 110.6411084 106.6131647  63.2926450 103.9539191
 105.9706028  63.5858983 103.3078985 106.1086576  63.1779371 104.7592387
 104.2671811  67.0389623  94.6425050 105.1789667  67.2717010  94.4672747
 103.7581458  67.6226668  94.0800129  97.0757239  69.3185111 109.6814181
  97.8171923  69.8570155 109.4049005  96.3694225  69.9451400 109.8385733
 102.5512579  71.4614251 108.2786342 102.9595935  71.0196662 107.5340975
 101.8289840  70.8866879 108.5320535  98.9043649  66.3986858 105.6519899
  99.7504844  66.8226272 105.7954548  98.8442286  65.7420482 106.3458463
 102.8741393  72.0215442 102.0338631 102.2450256  72.1861156 101.3314699
 102.4867055  72.4357052 102.8049595 106.7530625  72.9569880  99.3882995
 106.0681663  73.3368781  98.8380028 106.8374475  73.5665206 100.1214943
 102.0543094  64.0591226 107.3101073 101.8104026  64.8133287 106.7735349
 102.3303025  64.4376574 108.1448320 104.0081557  70.6029839 105.9878339
 104.2198452  71.2461599 105.3112720 103.9611305  69.7692155 105.5200269
 101.6107786  63.2147659 102.8914911 100.7492265  63.5128913 103.1831648
 101.6370220  63.4318058 101.9595943  98.4269355  71.7589850  99.2988716
  98.8907701  72.0377553  98.5093339  98.1626153  70.8573295  99.1161807
  95.3193436  71.3061332 102.2368480  95.8894793  71.7348600 101.5985964
  95.9101548  71.0243916 102.9352665  97.3638241  67.8813002  96.1078282
  98.0662285  68.3334046  96.5752208  97.0318870  67.2396821  96.7358175
  95.8118603  66.4724759 110.4829491  95.1817263  67.1541040 110.7164888
  95.7054691  66.3607841 109.5382629  91.1063575  66.1396555 101.4095415
  90.3162629  66.3954084 100.9335526  91.5974823  66.9544893 101.5147456
 105.1227385  73.4801794 104.1600696 105.9444829  73.0781982 103.8783378
 105.1189788  73.3770028 105.1116812  93.0578321  66.5041134  98.3678892
  92.2609484  66.6159829  98.8862388  92.8303913  66.8427787  97.5019782
  98.8883988  73.0285838 106.3161406  98.9528421  73.4906245 107.1519578
  98.1794912  72.3983202 106.4443716  89.3901278  66.3927046 103.8410406
  89.6409317  67.2774055 104.1067982  89.9260827  66.2131647 103.0685498
 113.2133378  69.8240543 100.5085667 112.4597086  69.2547941 100.3529672
 113.3480919  69.7903207 101.4556302  98.6032006  74.6953945  96.1840387
  98.4677681  75.5405481  96.6125235  99.1441818  74.8973223  95.4206321
  95.0899346  60.7745525 112.8454742  94.6966291  60.2211723 113.5202386
  95.9065486  61.0856103 113.2361260  92.0561403  72.2129383  96.7568312
  92.5685924  73.0072633  96.9073877  92.7084116  71.5155674  96.6901913
  93.8656288  75.3295139  98.8391065  94.0422916  76.2513104  98.6512049
  94.6613122  75.0153559  99.2685445  98.0067307  62.1903404 110.4374999
  98.7477020  62.7910557 110.3579461  98.2385229  61.4481042 109.8793041
  93.1508645  67.3759771 108.7153228  93.0362160  66.4745028 109.0160327
  92.2953162  67.6223468 108.3638045 100.2300482  75.3177512 110.3140729
  99.7864336  74.5313890 109.9961633 100.8917696  75.5056662 109.6484620
  94.9887603  76.8473313 104.8401407  95.5395029  76.7190376 104.0678401
  94.1499079  77.1468202 104.4896300 102.3281720  75.5980311 108.3422130
 102.3100196  76.4189193 107.8502399 103.2501640  75.4734387 108.5672271
  98.7854775  73.1124441 109.1845639  99.3183111  72.3512729 108.9544947
  98.2568856  72.8198093 109.9269793 101.9524469  58.2184507 104.7139280
 101.6088739  59.1086149 104.6378391 102.3203432  58.0286165 103.8508865
  90.0210320  70.5418037  97.5327882  90.8585542  70.9515046  97.3161590
  90.1988588  69.6017480  97.5028076 101.9174752  68.2093118  93.2211715
 101.4021376  68.9797723  93.4600103 101.6452061  67.5358254  93.8444777
  99.5021863  63.0542819  98.2796954  98.6463460  62.6649669  98.1002592
  99.9148815  63.1334780  97.4196739 101.0321010  60.5889162 102.6788514
 100.5285805  60.5519297 101.8656319 101.3251617  61.4981905 102.7385170
  97.2763896  60.6727892 101.6854695  98.1416893  60.4770700 101.3260585
  97.3441405  60.4438244 102.6124052 106.8909026  70.9625473  95.1564889
 106.1138469  70.6236632  94.7120051 107.5700507  70.9678096  94.4819854
 101.7061055  66.0820210  95.0471497 101.4011191  66.3966359  95.8981640
 102.6591498  66.1601630  95.0898830 100.1507487  72.2410433  96.6964451
  99.6228849  71.5063193  96.3837688  99.6494990  73.0185110  96.4504419
 105.1300333  70.4359454 101.8131497 104.4724008  71.1258715 101.9011625
 105.9340732  70.8255886 102.1565483  94.8826215  62.9030100  99.0571062
  95.4569967  62.6805281  98.3244255  95.4697197  62.9718794  99.8099663
 103.9405792  68.7903827  99.8635439 104.4537674  69.4233818 100.3657148
 104.5907016  68.1905022  99.4978799  95.2095802  64.9334561  93.0766947
  94.3733114  65.2709247  93.3976222  95.0700572  64.7983541  92.1394084
  97.1848883  59.7771349  97.7846132  96.5313295  59.4620366  97.1602746
  97.1429357  59.1547089  98.5105954  98.2960087  70.0590644  89.6999424
  97.3887149  69.8279897  89.8990573  98.7931119  69.2628263  89.8873405
 101.2028166  78.7688151  92.6196110 100.5289865  79.0719848  93.2281068
 101.5893988  79.5717231  92.2701567 100.4186623  66.2653282 102.1093779
  99.5009184  66.4868229 101.9515467 100.8346767  66.3399593 101.2505486
 101.2021671  67.6644698  97.2396459 101.9493490  68.1766095  96.9303581
 101.4713260  67.3428751  98.1000853  99.4748321  70.1603239  94.2223414
  98.5659540  69.8762271  94.3195883  99.5043405  70.5802317  93.3626721
 104.7067588  73.7709828  97.9914581 104.2529915  72.9300738  98.0479772
 104.0761555  74.4071226  98.3289361 103.6500508  64.7001814  99.2215249
 102.9123265  64.1879200  99.5525491 103.9027281  64.2602196  98.4098526
 103.1500528  75.6086325  98.9264399 103.4423502  76.1691382  98.2076765
 103.6599148  75.9014886  99.6817558 103.7512135  57.4778066  99.8157018
 104.0571012  56.6175430  99.5282933 104.4764740  58.0695686  99.6156012
  90.0436491  67.8808753  98.2038616  89.8460891  67.2878113  97.4789682
  89.4883155  67.5760963  98.9214555  98.0233215  67.7731859 100.3233209
  98.0781825  66.8205696 100.2475686  97.2124417  67.9291298 100.8074507
  99.1724409  71.7011982  91.5611492  98.7343839  70.9847841  91.1017130
  99.9134850  71.9288097  90.9996584  95.9625575  66.3908919  98.0823588
  95.1493440  66.6903089  98.4888780  96.4584569  65.9964608  98.7998070
  98.1134153  76.3866676 100.0157853  98.0710331  76.6127522  99.0866385
  99.0296852  76.1530050 100.1643654 101.5599786  66.8550743 106.9138482
 101.9149174  67.0822217 107.7732948 102.2071918  67.1869120 106.2915737
 107.2897523  69.9769179  97.6187811 107.1515422  70.1670775  96.6909000
 106.9333742  70.7388562  98.0755862  95.4539650  63.9627274 103.6984823
  96.0939029  63.8216034 103.0007786  94.6217180  63.6761788 103.3223425
 107.3166903  72.0445706 102.6299082 107.7503410  71.9520995 103.4782136
 108.0298484  72.0203207 101.9919098  96.2299953  73.2629705  99.8119815
  97.0240552  72.7680025  99.6102390  95.5191646  72.7347568  99.4487521
 101.0494798  75.6447800 104.1632183 101.1031820  76.2138737 104.9309899
 100.1809579  75.8149685 103.7986220  92.5382717  67.4072787  95.8879568
  91.6080305  67.3457242  96.1049530  92.6340189  66.8848739  95.0916209
  92.4568266  63.9327599  98.4757810  92.7175083  64.8472933  98.3666970
  93.2785438  63.4652042  98.6254422  93.9293191  65.3465357 105.6456634
  94.6016245  65.1382719 104.9969283  93.1022978  65.1487443 105.2061866
 108.1782453  72.0869407 105.1631968 108.3718343  72.9915217 105.4091243
 108.0783071  71.6276826 105.9970553  99.8318763  61.9727298 107.6622295
  99.1846678  62.6717247 107.5686771 100.6019779  62.4063441 108.0298543
 103.2397561  72.2376150 110.7372848 103.0883068  72.0086701 109.8202932
 103.2302241  73.1946751 110.7504193 100.0082898  69.8108062 105.7219115
 100.9374958  69.9619222 105.5488082  99.5873928  69.8992083 104.8667761
  98.8071229  73.8358727 103.4917652  98.6682315  73.4677511 104.3643591
  98.0185826  74.3506366 103.3201610  99.4019381  78.9367823  94.8343189
  99.5771137  78.4655866  95.6488812  98.7152169  79.5633590  95.0624450
 100.3576445  73.2140330 100.8806490 100.0226277  73.1741099 101.7764140
  99.8580390  72.5485045 100.4076900  94.3320689  68.6207960 106.4059071
  94.1940487  67.8888198 107.0070610  95.2425612  68.5316860 106.1243259
 103.2935636  70.5596364  91.1543550 102.6764807  69.8343192  91.0576603
 102.8252125  71.3205724  90.8110624  96.9602989  68.3327919 105.8942751
  97.6702608  67.6921111 105.8529369  96.9172297  68.5840814 106.8168932
 104.9489768  75.2695272 108.8149330 104.8902314  74.5854492 108.1479913
 105.3509286  76.0114262 108.3629956  95.6731923  65.3193137 107.7138390
  95.1369280  64.8683875 108.3659987  95.0848632  65.4539046 106.9708855
  93.9680467  82.0857186 101.6083049  94.2077065  82.7175710 102.2862068
  93.1249663  81.7345226 101.8948408  95.0834182  64.7781788  90.2764854
  94.2063648  64.6570589  89.9127101  95.5591935  63.9867866  90.0243743
 104.9507175  73.2334856 107.0463310 104.0633954  72.8960778 107.1689709
 105.5205726  72.5017887 107.2832075  86.6036322  69.5658948 100.3706361
  87.2907362  69.2520678  99.7827377  86.4484451  70.4700313 100.0973613
  91.4071044  64.4549144 104.7991385  91.3229233  63.8474814 104.0641795
  90.5853751  64.9458163 104.8000881  98.4808329  77.8936309 104.0124553
  98.4078500  78.6991280 104.5243858  98.0385722  78.0928274 103.1872574
  98.2698108  77.1308079  97.5227375  97.4865630  77.6729759  97.6165599
  98.9690853  77.6482058  97.9221616 101.5794758  62.9402708 100.1661580
 102.0763458  62.1872670  99.8462650 100.8081740  62.9767025  99.6004789
 109.4324516  68.6443074 101.8079872 109.4214392  69.5267789 101.4373805
 108.5641895  68.2914624 101.6134409 100.9407012  77.7923143 106.1682712
 101.6534984  78.4270607 106.0958613 100.4497041  77.8887009 105.3522714
 102.6624539  71.6974395  97.7400003 101.7280818  71.8175858  97.5704708
 102.8401207  70.7946862  97.4760013  98.1629727  65.0820091  99.8933265
  97.7927515  64.5291131 100.5814170  98.6588820  64.4778224  99.3408265
 106.0497090  67.5391714  98.2750038 106.5157543  68.3719706  98.2010340
 106.5004591  67.0736696  98.9795296  95.9918926  75.5417586 106.9888283
  96.6928385  76.1754069 107.1417677  95.5214041  75.8832318 106.2283922
 104.1173321  73.8835536  95.2736190 104.3933165  73.7692130  96.1830064
 103.2477820  73.4853021  95.2348363 104.0213753  59.9072301 102.3140939
 103.1076833  60.1376528 102.4823146 104.4506855  59.9910746 103.1654971
 103.7920212  68.0962193 104.8140833 103.1391662  68.3438101 104.1593286
 104.1700592  67.2826332 104.4803310 100.7527385  78.1321887  98.9169003
 100.9349780  77.3143543  99.3796756 101.5760371  78.3489579  98.4793893
 101.0869551  77.0590072  96.1784052 101.6157317  76.5482526  95.5654214
 101.3497771  76.7432602  97.0429585  99.8407785  68.8382005 111.3006870
  99.1648422  68.7376134 111.9709245 100.6635419  68.6821218 111.7642867
  91.5886644  75.0753941 103.9219385  92.1740081  74.3297629 104.0547289
  91.3911482  75.3857898 104.8056049  94.4425299  78.1105188  98.9381828
  93.7735674  78.5951316  98.4545868  94.3038169  78.3574409  99.8525206
  86.1804298  67.6459541 102.6423828  86.2188398  67.1123132 103.4360946
  85.6744591  67.1194747 102.0234806  98.5830568  80.1448932 105.5364486
  99.1348876  80.3080553 106.3013571  98.9236761  80.7353370 104.8644511
  93.5595061  62.4924082 106.1386371  93.6236387  63.3538913 105.7263768
  93.4962181  61.8798083 105.4058729  93.0347333  64.5647214 109.7859405
  93.6619372  64.1824292 110.3996929  92.1775252  64.3461416 110.1515097
  89.8112876  66.3723643  95.7177760  90.1066317  65.4634322  95.6644813
  88.9100912  66.3511383  95.3958762 101.7198955  78.0930907 102.5228168
 101.5950094  77.2920647 102.0139114 102.3778046  78.5877101 102.0342138
  93.3407123  64.4479640 101.7005308  92.6193709  65.0615608 101.5612782
  94.1300379  64.9837405 101.6221954 103.7833863  75.8939928 104.1507718
 102.8364199  75.7745279 104.0786045 104.1316636  75.0062426 104.2333980
  96.1433437  61.7834066 107.9745960  96.6667838  62.0296363 108.7372269
  95.9245770  62.6154101 107.5549097  91.5400718  64.0537741  95.8417085
  91.2113424  63.1735120  95.6592191  91.8940088  63.9985410  96.7293474
 100.7880296  75.6892644 100.3512070 100.6405259  74.7609351 100.5319641
 101.6133790  75.7112734  99.8669146  94.6542541  64.3410711  96.2092563
  94.9938613  64.8696632  95.4871171  95.1014661  64.6791117  96.9851129
 104.3914418  76.5121203 101.4376943 105.3160966  76.3064064 101.3001394
 104.2229722  76.2637604 102.3466285  97.3485982  62.7247762 105.6595631
  97.0082802  61.9255575 106.0616311  96.6424988  63.0249472 105.0872464
  98.0002453  59.8097074 104.1122954  98.8228523  59.3357552 103.9901844
  98.2440517  60.5887558 104.6121640  96.6410688  62.8385332  94.4085855
  97.3619050  63.2166585  93.9049572  96.0175992  63.5574209  94.5120833
 100.7841811  63.5430481  95.3444188 101.0005425  64.4255119  95.0433016
 100.3035878  63.1516695  94.6149830  95.5241032  66.5016195 101.9214932
  95.3785613  66.8156498 102.8139214  95.0466236  67.1201095 101.3685831
  97.3837415  63.4918743 101.9695822  97.3698984  62.5959836 101.6328120
  98.1009843  63.4989406 102.6034108  99.2363546  63.9256083 104.0148949
  98.9781324  64.8473153 104.0133280  98.7048586  63.5286517 104.7049413
 104.1809735  77.0306870  96.7939035 104.3546612  76.4653292  96.0412887
 104.6738626  77.8307765  96.6118525  89.9986694  69.0421539 104.8602593
  89.4540162  69.8181347 104.9922868  90.8766044  69.3892344 104.7021715
  96.7874311  62.3733123  97.2383392  96.9090222  61.4449769  97.4374279
  96.4976353  62.3871809  96.3261707  99.6565501  60.0588033 100.3750112
  99.6787198  60.1227366  99.4202091 100.0733560  59.2192542 100.5690618
 110.0349126  69.7943293  98.4129334 110.4780272  69.0450618  98.0148458
 109.1575636  69.7853429  98.0303066 105.1684907  76.3473634  93.8935933
 105.8635812  76.9680327  94.1123248 105.5108057  75.4968986  94.1688311
  90.7852716  68.1691435 107.7532750  90.0434452  68.3174071 108.3397381
  90.4645460  68.4299701 106.8899500 107.0676330  73.7973340  95.4223264
 107.5927654  74.1360613  94.6972584 106.9798683  72.8620355  95.2386398
  98.7296379  77.7107414 107.5513140  99.0383505  77.4656560 108.4235840
  99.5271861  77.9154052 107.0632011  98.7516991  79.8645323  99.7818517
  98.3121981  79.3721702 100.4751374  99.5025108  79.3218291  99.5410592
  91.2309330  76.0556864  99.7843145  92.0567350  75.7560636  99.4041789
  90.8803382  75.2864486 100.2332934  96.1990863  75.4083332 101.8540819
  95.5770872  74.7454037 101.5543046  96.8695730  75.4344464 101.1714466
  89.4317935  73.9743191 100.7432079  88.5949843  73.5465365 100.5616080
  89.4041580  74.1675634 101.6802870  96.2715391  63.8865120 111.4473325
  96.3203546  64.7627243 111.0651094  96.8137905  63.3442513 110.8744968
 106.8768111  71.2798710 108.0407190 106.9266116  71.1148717 108.9822713
 106.7682035  70.4125969 107.6505071  95.7604370  73.9587256  95.3299279
  95.9092490  74.6422720  94.6765952  96.5670813  73.9392346  95.8448735
 104.1671874  67.2629638 109.3566497 105.0681736  67.1236103 109.0650495
 104.2419848  67.4284093 110.2964674  98.5014679  64.6396493 108.2019683
  97.6317988  64.9330059 107.9302272  98.7374159  65.2236938 108.9226947
 108.3786308  73.6995651 108.2849212 108.0871116  74.0625632 109.1212673
 107.7658439  72.9862660 108.1062544 109.5781990  71.2648531 100.8051782
 110.4128882  71.7038335 100.9689342 109.7141119  70.7887184  99.9860028
 106.6273496  68.8228266 106.7529270 107.1027618  69.0155912 105.9448121
 105.7039062  68.8787452 106.5072653  93.5157003  69.9852433  96.3360348
  93.2703045  69.0814763  96.5340558  93.6852917  69.9869584  95.3939826
 101.2053713  60.8576110 105.7185104 101.7235657  61.5937137 105.3931592
 100.8508846  61.1640103 106.5531863  92.7852650  65.7180791  93.8346509
  92.0921895  65.7925146  93.1786545  92.5404402  64.9541134  94.3568026
 101.4566307  57.2776392 101.2386000 101.7368061  56.6099581 101.8646427
 102.2416914  57.4705488 100.7260664  99.2599775  76.4535386  92.8011027
  98.6873743  77.0725573  92.3481498  99.8332569  77.0034748  93.3350948
 105.3275165  65.6994026 104.9857575 106.2792588  65.7992124 105.0069799
 105.1578616  64.9072295 105.4955660 103.3489545  62.7849609 105.1716976
 102.7539477  63.0654622 104.4763465 103.0639241  63.2743510 105.9433717
 102.4797035  76.7372536  93.9319609 103.4127708  76.6718098  94.1352484
 102.3920248  77.5728803  93.4734141 105.1085052  76.0538407  90.8923556
 105.0298683  75.7198270  91.7859314 105.9294719  76.5460174  90.8915029
 107.8063243  68.9200146 104.0999875 107.7739563  67.9816147 104.2859559
 108.4163867  68.9984183 103.3665700  99.6446574  67.7896199  90.1427079
 100.5905679  67.6602407  90.2115497  99.2660819  67.0510861  90.6196507
 107.9557732  65.7111189 104.1458158 107.4396780  64.9269646 103.9588087
 108.8397680  65.3829906 104.3104678 105.6168459  59.4552205 100.1053971
 105.4193280  59.1467293 100.9897303 106.2268164  60.1813844 100.2351901
 113.6239793  69.9816153 103.2405912 114.3543181  69.7201441 103.8013615
 113.0146738  69.2444875 103.2807980 111.7055090  68.1224015 103.8380363
 110.9788254  67.9879980 103.2296855 111.2902377  68.4300844 104.6437081
  99.5285266  71.8413945 111.6027736 100.4488276  72.0192544 111.7967783
  99.4934850  70.8969990 111.4507435  97.8289491  65.7146175  90.0781964
  96.9220947  65.4179288  90.1544678  98.1065472  65.4175993  89.2116251
  88.7467431  67.0352539 100.5281011  88.4270216  66.1817847 100.2355385
  88.2000860  67.2501117 101.2838978  92.5247339  69.7514980 104.2450517
  92.7433349  70.6832087 104.2638551  92.9373113  69.3922954 105.0305321
  99.4451557  60.2583065  96.2326206  98.6352285  59.9130150  96.6081452
 100.1335974  59.9490609  96.8213817 101.3742105  59.3361112  97.8550502
 101.9273144  59.7556565  98.5140525 101.6112191  58.4096860  97.8973458
  97.3975204  65.3248185 113.6353266  97.2971931  66.2742542 113.5665357
  97.1796746  64.9966424 112.7629336  96.5988276  62.5733110  90.2193943
  97.4607440  62.8988009  90.4789761  96.7838620  61.7864606  89.7067009
  88.6155691  70.6555450 102.4974132  87.9219163  70.2409403 101.9844087
  89.3628682  70.6975987 101.9007551 104.7520912  61.4461637  97.3629166
 104.1719581  62.1046441  96.9807219 104.4856845  60.6238981  96.9516584
 103.2024479  60.8466695  99.5650487 103.7024257  60.9583229  98.7564806
 103.8460087  60.5427747 100.2051295  97.2606474  68.7545324 112.4518328
  96.7773556  69.5545684 112.6582217  97.3467413  68.7653269 111.4985772
  90.5292434  70.5873704 100.3740147  90.5063122  70.6861391  99.4222030
  90.8393071  71.4338855 100.6957313  93.1879812  72.6449859 104.4886762
  94.1423065  72.6133801 104.4216693  92.9892335  72.1840483 105.3036987
  93.7779194  71.2150975 107.0557559  94.5972083  71.7095054 107.0792396
  94.0516002  70.2982943 107.0275127 103.5345790  63.6061727  96.4185515
 102.6471645  63.8911378  96.2005709 103.9499779  63.4455491  95.5712792
 106.8860326  63.6308248 100.1339854 107.6620716  64.1204701 100.4064471
 106.1608461  64.0566302 100.5911723 109.3232885  64.3435867 101.1913795
 109.9177376  64.1031603 100.4807103 109.3959469  63.6242998 101.8187331
  91.5430041  78.1869478 101.5056959  91.4084509  77.4269879 100.9394957
  91.1262103  78.9110378 101.0385748 102.6789004  73.3706402  90.5133535
 103.3824854  73.5756404  91.1291190 101.9551652  73.9383164  90.7782618
 103.5086814  69.1216263  96.6335805 103.4522015  69.5784815  95.7943437
 104.0615156  68.3606948  96.4558648 107.3191620  64.9105995  97.4585924
 107.0628554  64.5102631  98.2894132 106.6944488  65.6249789  97.3336064
 111.6303958  67.6502068  99.9657216 111.0703516  67.7195258 100.7388778
 111.0247461  67.4743053  99.2456712  94.6999167  79.0838795 101.7175402
  94.5831551  80.0284228 101.6154092  93.8791613  78.7812357 102.1061201
 104.5875701  73.8088931  92.5631995 105.4221305  73.3770130  92.3809470
 104.4260044  73.6370945  93.4908889 104.2421593  70.3121044  93.9288334
 104.1870397  70.1465316  92.9876778 103.6167649  71.0197077  94.0850524
  89.0314108  65.5489109 107.7549756  89.6772972  65.0388063 108.2436981
  88.8231259  66.2857790 108.3293182  97.5517719  59.8129153  93.5073652
  97.5396389  60.7570993  93.6641923  98.4441141  59.6299299  93.2133114
  95.7253681  79.7367057 104.9331330  96.6280927  79.7690668 105.2497825
  95.4991051  78.8067508 104.9477666  97.4807283  78.4898044 101.5941409
  96.5302914  78.4899905 101.4805781  97.7839769  77.7430778 101.0777444
 101.3669838  56.4071930  97.7619589 100.6002234  55.8530417  97.9076272
 101.7780543  56.4793799  98.6233741  93.3711599  62.6956726 111.8524771
  94.2343061  62.3393531 112.0628095  92.7977010  62.3570621 112.5400175
 110.0249682  84.2786010 102.5948696 109.6868194  84.1627075 101.7069231
 110.8939451  83.8777175 102.5749702 105.8836498  86.1321487  98.5845587
 105.3201363  86.0411424  97.8161875 105.7688893  85.3121391  99.0648080
 103.4300930  87.6272678 101.4229808 104.2222222  87.2863503 101.0076107
 103.6697580  87.7367653 102.3431961 111.4636057  89.7992454  93.8960052
 110.8124037  90.3846535  93.5094066 112.2580420  90.3298649  93.9555090
 105.3891684  86.8881592  94.2947186 106.1622560  86.3410579  94.1560062
 105.7417083  87.7525841  94.5061648 107.7257962  83.0474258  91.9265636
 107.9783483  82.5255779  91.1649099 106.7882521  82.8840403  92.0292320
 112.7701245  82.0510036  99.7340380 113.5564334  81.6329459  99.3830797
 113.0339949  82.9556128  99.9022028 112.9411322  87.4882886  94.4329036
 112.3057155  87.5617513  95.1449941 112.6108728  88.0776485  93.7548116
 118.1709672  81.9885269 100.6373358 118.9034844  81.4184486 100.8711188
 117.4149028  81.6006870 101.0779864 107.4454251  84.9502364  94.1290011
 107.3290509  84.2747267  94.7971096 107.5556510  84.4634738  93.3122164
 109.7885792  84.4112511  97.8336701 109.4243999  83.8843132  98.5449622
 110.6452907  84.0210980  97.6603186 115.6935092  75.7006843 105.0967967
 115.3618417  76.5702254 104.8729182 115.0980706  75.3843127 105.7761997
 109.4291279  79.4402410  92.8298049 109.5965681  80.3082647  93.1968520
 109.2388448  79.6029692  91.9059338 105.6379093  84.3533186 100.5300584
 104.7129590  84.2209400 100.7378276 105.8863506  85.1327405 101.0270526
 109.4080499  81.8960068  93.8144716 109.2880125  82.3417119  94.6530196
 108.7133088  82.2445386  93.2558254 102.9987904  83.9966460 101.3644373
 103.1280285  84.2500939 102.2783785 102.3185356  84.5894168 101.0449028
 107.1687392  94.6663710  97.4634847 107.0911421  95.6171535  97.5423328
 106.5649035  94.3209582  98.1209773 115.1065566  82.3681541  94.6425050
 116.0183422  82.6008928  94.4672747 114.5975213  82.9518585  94.0800129
 112.4501540  78.5439577 102.8914911 111.5886019  78.8420831 103.1831648
 112.4763975  78.7609976 101.9595943 109.2663110  87.0881768  99.2988716
 109.7301455  87.3669471  98.5093339 109.0019908  86.1865212  99.1161807
 106.1587191  86.6353249 102.2368480 106.7288548  87.0640518 101.5985964
 106.7495303  86.3535834 102.9352665 108.2031996  83.2104920  96.1078282
 108.9056039  83.6625964  96.5752208 107.8712624  82.5688739  96.7358175
 101.9457330  81.4688473 101.4095415 101.1556384  81.7246001 100.9335526
 102.4368577  82.2836811 101.5147456 103.8972075  81.8333052  98.3678892
 103.1003238  81.9451746  98.8862388 103.6697667  82.1719704  97.5019782
 100.2295033  81.7218963 103.8410406 100.4803071  82.6065973 104.1067982
 100.7654581  81.5423565 103.0685498 109.4425760  90.0245863  96.1840387
 109.3071435  90.8697398  96.6125235 109.9835573  90.2265140  95.4206321
 102.8955158  87.5421301  96.7568312 103.4079678  88.3364551  96.9073877
 103.5477871  86.8447591  96.6901913 104.7050043  90.6587057  98.8391065
 104.8816671  91.5805022  98.6512049 105.5006876  90.3445476  99.2685445
 112.7918224  73.5476425 104.7139280 112.4482493  74.4378066 104.6378391
 113.1597187  73.3578082 103.8508865 100.8604075  85.8709955  97.5327882
 101.6979297  86.2806963  97.3161590 101.0382342  84.9309397  97.5028076
 112.7568507  83.5385036  93.2211715 112.2415130  84.3089640  93.4600103
 112.4845815  82.8650172  93.8444777 110.3415618  78.3834736  98.2796954
 109.4857214  77.9941587  98.1002592 110.7542569  78.4626697  97.4196739
 111.8714764  75.9181080 102.6788514 111.3679560  75.8811215 101.8656319
 112.1645371  76.8273822 102.7385170 108.1157650  76.0019809 101.6854695
 108.9810647  75.8062618 101.3260585 108.1835159  75.7730161 102.6124052
 117.7302781  86.2917390  95.1564889 116.9532224  85.9528550  94.7120051
 118.4094262  86.2970014  94.4819854 112.5454810  81.4112128  95.0471497
 112.2404945  81.7258277  95.8981640 113.4985252  81.4893548  95.0898830
 110.9901242  87.5702351  96.6964451 110.4622603  86.8355111  96.3837688
 110.4888744  88.3477027  96.4504419 105.7219969  78.2322017  99.0571062
 106.2963721  78.0097199  98.3244255 106.3090952  78.3010712  99.8099663
 114.7799547  84.1195744  99.8635439 115.2931428  84.7525736 100.3657148
 115.4300770  83.5196940  99.4978799 106.0489556  80.2626478  93.0766947
 105.2126869  80.6001165  93.3976222 105.9094326  80.1275458  92.1394084
 108.0242637  75.1063266  97.7846132 107.3707049  74.7912283  97.1602746
 107.9823111  74.4839007  98.5105954 109.1353842  85.3882561  89.6999424
 108.2280904  85.1571815  89.8990573 109.6324874  84.5920181  89.8873405
 112.0421921  94.0980069  92.6196110 111.3683620  94.4011765  93.2281068
 112.4287743  94.9009149  92.2701567 111.2580377  81.5945200 102.1093779
 110.3402939  81.8160147 101.9515467 111.6740521  81.6691510 101.2505486
 112.0415425  82.9936616  97.2396459 112.7887244  83.5058013  96.9303581
 112.3107015  82.6720668  98.1000853 110.3142075  85.4895156  94.2223414
 109.4053295  85.2054189  94.3195883 110.3437159  85.9094235  93.3626721
 114.4894262  80.0293732  99.2215249 113.7517019  79.5171118  99.5525491
 114.7421036  79.5894113  98.4098526 114.5905890  72.8069984  99.8157018
 114.8964766  71.9467347  99.5282933 115.3158494  73.3987604  99.6156012
 100.8830246  83.2100670  98.2038616 100.6854646  82.6170031  97.4789682
 100.3276910  82.9052881  98.9214555 108.8626969  83.1023777 100.3233209
 108.9175579  82.1497613 100.2475686 108.0518171  83.2583216 100.8074507
 110.0118163  87.0303900  91.5611492 109.5737593  86.3139759  91.1017130
 110.7528604  87.2580015  90.9996584 106.8019329  81.7200837  98.0823588
 105.9887195  82.0195007  98.4888780 107.2978323  81.3256525  98.7998070
 118.1291278  85.3061097  97.6187811 117.9909177  85.4962693  96.6909000
 117.7727497  86.0680480  98.0755862 106.2933404  79.2919192 103.6984823
 106.9332783  79.1507951 103.0007786 105.4610935  79.0053705 103.3223425
 107.0693708  88.5921623  99.8119815 107.8634306  88.0971943  99.6102390
 106.3585400  88.0639486  99.4487521 103.3776471  82.7364704  95.8879568
 102.4474060  82.6749160  96.1049530 103.4733943  82.2140657  95.0916209
 103.2962020  79.2619517  98.4757810 103.5568838  80.1764850  98.3666970
 104.1179193  78.7943960  98.6254422 104.7686946  80.6757274 105.6456634
 105.4409999  80.4674636 104.9969283 103.9416732  80.4779360 105.2061866
 110.2413136  94.2659741  94.8343189 110.4164892  93.7947784  95.6488812
 109.5545924  94.8925507  95.0624450 114.1329391  85.8888282  91.1543550
 113.5158561  85.1635110  91.0576603 113.6645879  86.6497642  90.8110624
 105.9227937  80.1073706  90.2764854 105.0457403  79.9862507  89.9127101
 106.3985690  79.3159784  90.0243743  97.4430077  84.8950866 100.3706361
  98.1301117  84.5812596  99.7827377  97.2878205  85.7992230 100.0973613
 102.2464799  79.7841062 104.7991385 102.1622988  79.1766732 104.0641795
 101.4247505  80.2750080 104.8000881 109.1091863  92.4599996  97.5227375
 108.3259385  93.0021676  97.6165599 109.8084608  92.9773976  97.9221616
 112.4188513  78.2694626 100.1661580 112.9157212  77.5164588  99.8462650
 111.6475494  78.3058942  99.6004789 113.5018294  87.0266313  97.7400003
 112.5674572  87.1467775  97.5704708 113.6794962  86.1238780  97.4760013
 109.0023482  80.4112009  99.8933265 108.6321269  79.8583049 100.5814170
 109.4982574  79.8070142  99.3408265 116.8890845  82.8683632  98.2750038
 117.3551297  83.7011624  98.2010340 117.3398345  82.4028614  98.9795296
 114.9567076  89.2127453  95.2736190 115.2326920  89.0984048  96.1830064
 114.0871575  88.8144938  95.2348363 114.8607508  75.2364219 102.3140939
 113.9470587  75.4668446 102.4823146 115.2900609  75.3202663 103.1654971
 111.9263305  92.3881989  96.1784052 112.4551072  91.8774444  95.5654214
 112.1891525  92.0724520  97.0429585  97.0198053  82.9751459 102.6423828
  97.0582152  82.4415050 103.4360946  96.5138346  82.4486664 102.0234806
 104.3988815  77.8215999 106.1386371 104.4630142  78.6830830 105.7263768
 104.3355935  77.2090001 105.4058729 100.6506631  81.7015561  95.7177760
 100.9460072  80.7926240  95.6644813  99.7494666  81.6803301  95.3958762
 104.1800878  79.7771558 101.7005308 103.4587463  80.3907525 101.5612782
 104.9694133  80.3129322 101.6221954 102.3794472  79.3829659  95.8417085
 102.0507178  78.5027038  95.6592191 102.7333843  79.3277327  96.7293474
 105.4936295  79.6702629  96.2092563 105.8332368  80.1988550  95.4871171
 105.9408416  80.0083035  96.9851129 108.1879736  78.0539679 105.6595631
 107.8476556  77.2547492 106.0616311 107.4818742  78.3541390 105.0872464
 108.8396208  75.1388992 104.1122954 109.6622277  74.6649470 103.9901844
 109.0834271  75.9179475 104.6121640 107.4804442  78.1677250  94.4085855
 108.2012805  78.5458503  93.9049572 106.8569747  78.8866127  94.5120833
 111.6235565  78.8722399  95.3444188 111.8399180  79.7547037  95.0433016
 111.1429632  78.4808613  94.6149830 106.3634787  81.8308112 101.9214932
 106.2179367  82.1448415 102.8139214 105.8859990  82.4493013 101.3685831
 108.2231170  78.8210660 101.9695822 108.2092738  77.9251754 101.6328120
 108.9403598  78.8281324 102.6034108 110.0757300  79.2548001 104.0148949
 109.8175078  80.1765071 104.0133280 109.5442341  78.8578435 104.7049413
 100.8380449  84.3713457 104.8602593 100.2933917  85.1473265 104.9922868
 101.7159799  84.7184261 104.7021715 107.6268065  77.7025041  97.2383392
 107.7483977  76.7741687  97.4374279 107.3370108  77.7163727  96.3261707
 110.4959256  75.3879951 100.3750112 110.5180953  75.4519284  99.4202091
 110.9127315  74.5484460 100.5690618 116.0078662  91.6765552  93.8935933
 116.7029566  92.2972245  94.1123248 116.3501812  90.8260903  94.1688311
 117.9070085  89.1265258  95.4223264 118.4321409  89.4652530  94.6972584
 117.8192437  88.1912273  95.2386398 102.0703084  91.3848782  99.7843145
 102.8961104  91.0852554  99.4041789 101.7197136  90.6156404 100.2332934
 100.2711689  89.3035108 100.7432079  99.4343598  88.8757283 100.5616080
 100.2435335  89.4967552 101.6802870 106.5998124  89.2879173  95.3299279
 106.7486245  89.9714638  94.6765952 107.4064568  89.2684263  95.8448735
 104.3550757  85.3144351  96.3360348 104.1096799  84.4106681  96.5340558
 104.5246672  85.3161501  95.3939826 112.0447467  76.1868027 105.7185104
 112.5629411  76.9229054 105.3931592 111.6902600  76.4932021 106.5531863
 103.6246405  81.0472709  93.8346509 102.9315650  81.1217063  93.1786545
 103.3798157  80.2833052  94.3568026 112.2960061  72.6068310 101.2386000
 112.5761815  71.9391499 101.8646427 113.0810668  72.7997405 100.7260664
 110.0993530  91.7827304  92.8011027 109.5267497  92.4017491  92.3481498
 110.6726324  92.3326665  93.3350948 113.3190790  92.0664454  93.9319609
 114.2521463  92.0010016  94.1352484 113.2314003  92.9020721  93.4734141
 115.9478806  91.3830324  90.8923556 115.8692438  91.0490188  91.7859314
 116.7688473  91.8752092  90.8915029 110.4840328  83.1188116  90.1427079
 111.4299433  82.9894325  90.2115497 110.1054573  82.3802778  90.6196507
 116.4562213  74.7844123 100.1053971 116.2587034  74.4759211 100.9897303
 117.0661919  75.5105761 100.2351901 108.6683246  81.0438093  90.0781964
 107.7614701  80.7471206  90.1544678 108.9459227  80.7467911  89.2116251
  99.5861186  82.3644456 100.5281011  99.2663970  81.5109764 100.2355385
  99.0394614  82.5793034 101.2838978 103.3641094  85.0806897 104.2450517
 103.5827103  86.0124005 104.2638551 103.7766867  84.7214872 105.0305321
 110.2845311  75.5874983  96.2326206 109.4746040  75.2422068  96.6081452
 110.9729728  75.2782526  96.8213817 112.2135860  74.6653029  97.8550502
 112.7666898  75.0848483  98.5140525 112.4505946  73.7388778  97.8973458
 107.4382030  77.9025028  90.2193943 108.3001194  78.2279926  90.4789761
 107.6232374  77.1156524  89.7067009  99.4549446  85.9847368 102.4974132
  98.7612917  85.5701321 101.9844087 100.2022437  86.0267904 101.9007551
 115.5914667  76.7753555  97.3629166 115.0113336  77.4338359  96.9807219
 115.3250599  75.9530899  96.9516584 114.0418233  76.1758612  99.5650487
 114.5418011  76.2875147  98.7564806 114.6853841  75.8719665 100.2051295
 101.3686189  85.9165622 100.3740147 101.3456877  86.0153309  99.4222030
 101.6786825  86.7630772 100.6957313 114.3739545  78.9353645  96.4185515
 113.4865400  79.2203296  96.2005709 114.7893534  78.7747408  95.5712792
 117.7254081  78.9600166 100.1339854 118.5014471  79.4496618 100.4064471
 117.0002215  79.3858220 100.5911723 120.1626639  79.6727785 101.1913795
 120.7571130  79.4323521 100.4807103 120.2353223  78.9534916 101.8187331
 113.5182758  88.6998320  90.5133535 114.2218608  88.9048322  91.1291190
 112.7945407  89.2675082  90.7782618 114.3480568  84.4508181  96.6335805
 114.2915770  84.9076732  95.7943437 114.9008911  83.6898865  96.4558648
 118.1585374  80.2397913  97.4585924 117.9022309  79.8394548  98.2894132
 117.5338242  80.9541707  97.3336064 115.4269456  89.1380849  92.5631995
 116.2615060  88.7062047  92.3809470 115.2653799  88.9662863  93.4908889
 115.0815348  85.6412962  93.9288334 115.0264152  85.4757234  92.9876778
 114.4561403  86.3488995  94.0850524  99.8707863  80.8781027 107.7549756
 100.5166726  80.3679980 108.2436981  99.6625014  81.6149708 108.3293182
 108.3911473  75.1421071  93.5073652 108.3790143  76.0862911  93.6641923
 109.2834895  74.9591217  93.2133114 112.2063593  71.7363848  97.7619589
 111.4395989  71.1822334  97.9076272 112.6174298  71.8085717  98.6233741
 116.8883311  95.5918396  93.0766947 116.0520623  95.9293083  93.3976222
 116.7488081  95.4567376  92.1394084 116.7621691  95.4365624  90.2764854
 115.8851157  95.3154424  89.9127101 117.2379444  94.6451702  90.0243743
 114.4640159  96.3764626  93.8346509 113.7709404  96.4508981  93.1786545
 114.2191911  95.6124970  94.3568026 119.5077000  96.3730011  90.0781964
 118.6008455  96.0763123  90.1544678 119.7852981  96.0759829  89.2116251
 118.2775785  93.2316946  90.2193943 119.1394949  93.5571844  90.4789761
 118.4626129  92.4448442  89.7067009 119.2305228  90.4712989  93.5073652
 119.2183898  91.4154829  93.6641923 120.1228650  90.2883134  93.2133114
  52.9718620  -4.9733756  84.1880154  52.8942650  -4.0225931  84.2668634
  52.3680264  -5.3187884  84.8455080  50.6105450  -2.2248362  88.3328356
  50.8502048  -1.5929838  89.0107374  49.7674646  -2.5760322  88.6193715
  51.0850282  -6.2000360  85.6627134  50.4160657  -5.7154232  85.1791174
  50.9463152  -5.9531139  86.5770513  55.2255551  -4.1656616  92.2609793
  55.7773859  -4.0024995  93.0258878  55.5661744  -3.5752178  91.5889817
  55.3941974  -4.4460225  86.5063824  54.9546964  -4.9383846  87.1996680
  56.1450091  -4.9887257  86.2655899  48.1855024  -6.1236070  88.2302266
  48.0509492  -6.8835669  87.6640264  47.7687086  -5.3995170  87.7631055
  51.3424150  -5.2266753  88.4420709  51.2256534  -4.2821320  88.3399399
  50.5216596  -5.5293191  88.8306508  52.3678664  -4.5738491  91.6576637
  53.2705911  -4.5414881  91.9743132  52.1416034  -5.5038040  91.6722973
  66.6674666  -0.0319538  89.3194003  66.3293177  -0.1478473  88.4314538
  67.5364434  -0.4328373  89.2995009  62.5261481   1.8215939  85.3090894
  61.9626347   1.7305876  84.5407182  62.4113877   1.0015843  85.7893386
  67.1494449   1.1215314  95.2780208  67.1383090   0.7268112  94.4060712
  67.3115088   0.3881387  95.8713980  60.0725913   3.3167130  88.1475114
  60.8647205   2.9757955  87.7321414  60.3122564   3.4262105  89.0677268
  68.1061040   5.4886906  80.6205359  67.4549020   6.0740987  80.2339372
  68.9005403   6.0193101  80.6800396  62.0316667   2.5776044  81.0192493
  62.8047543   2.0305031  80.8805369  62.3842066   3.4420293  81.2306954
  63.8701710   3.9052426  94.2259392  63.5791576   4.8098057  94.1106059
  64.5058694   3.9468953  94.9403462  64.7957917   1.2829274  90.8160752
  65.3921489   1.0585297  90.1017715  64.8532888   0.5414020  91.4186200
  64.3682945  -1.2631290  78.6510943  64.6208466  -1.7849769  77.8894406
  63.4307504  -1.4265145  78.7537627  69.5836305   3.1777338  81.1574343
  68.9482138   3.2511965  81.8695248  69.2533712   3.7670937  80.4793422
  64.0879234   0.6396816  80.8535318  63.9715492  -0.0358281  81.5216402
  64.1981494   0.1529190  80.0367471  66.4310775   0.1006963  84.5582007
  66.0668982  -0.4262416  85.2694929  67.2877891  -0.2894568  84.3848493
  68.8291595   3.5913841  91.2209186  68.5292318   4.4938880  91.1124993
  68.4842655   3.3246025  92.0730339  62.2804076   0.0427638  87.2545890
  61.3554573  -0.0896148  87.4623582  62.5288490   0.8221857  87.7515833
  59.6412888  -0.3139088  88.0889680  59.7705269  -0.0604609  89.0029091
  58.9610339   0.2788620  87.7694335  63.8112375  10.3558162  84.1880154
  63.7336404  11.3065987  84.2668634  63.2074018  10.0104034  84.8455080
  64.5575977   0.3371480  96.4059488  65.2990661   0.8756524  96.1294311
  63.8512962   0.9637769  96.5631039  70.0331317   2.4800621  95.0031649
  70.4414673   2.0383031  94.2586281  69.3108578   1.9053248  95.2565842
  70.3560131   3.0401812  88.7583938  69.7268994   3.2047526  88.0560006
  69.9685793   3.4543421  89.5294902  74.2349363   3.9756249  86.1128302
  73.5500401   4.3555151  85.5625335  74.3193212   4.5851576  86.8460250
  71.4900295   1.6216208  92.7123645  71.7017190   2.2647968  92.0358026
  71.4430043   0.7878525  92.2445575  65.9088093   2.7776220  86.0234023
  66.3726439   3.0563923  85.2338646  65.6444891   1.8759664  85.8407114
  62.8012174   2.3247701  88.9613786  63.3713531   2.7534970  88.3231271
  63.3920286   2.0430286  89.6597972  64.8456979  -1.1000628  82.8323588
  65.5481022  -0.6479584  83.2997515  64.5137608  -1.7416809  83.4603481
  63.2937341  -2.5088871  97.2074798  62.6636001  -1.8272591  97.4410194
  63.1873428  -2.6205790  96.2627936  58.5882313  -2.8417075  88.1340722
  57.7981367  -2.5859547  87.6580832  59.0793560  -2.0268738  88.2392762
  72.6046123   4.4988164  90.8846003  73.4263566   4.0968351  90.6028684
  72.6008525   4.3956398  91.8362118  60.5397058  -2.4772496  85.0924198
  59.7428222  -2.3653802  85.6107694  60.3122651  -2.1385844  84.2265089
  66.3702726   4.0472207  93.0406713  66.4347159   4.5092614  93.8764885
  65.6613650   3.4169572  93.1689023  56.8720016  -2.5886585  90.5655713
  57.1228054  -1.7039575  90.8313289  57.4079564  -2.7681983  89.7930804
  66.0850744   5.7140315  82.9085693  65.9496418   6.5591850  83.3370541
  66.6260556   5.9159592  82.1451627  59.5380141   3.2315753  83.4813619
  60.0504662   4.0259003  83.6319183  60.1902854   2.5342043  83.4147220
  61.3475026   6.3481509  85.5636372  61.5241654   7.2699474  85.3757356
  62.1431859   6.0339928  85.9930752  60.6327382  -1.6053859  95.4398535
  60.5180897  -2.5068602  95.7405634  59.7771900  -1.3590162  95.0883351
  67.7119220   6.3363881  97.0386036  67.2683074   5.5500260  96.7206940
  68.3736434   6.5243032  96.3729926  62.4706341   7.8659683  91.5646714
  63.0213766   7.7376746  90.7923708  61.6317817   8.1654572  91.2141607
  69.8100458   6.6166681  95.0667437  69.7918933   7.4375562  94.5747706
  70.7320378   6.4920756  95.2917578  66.2673512   4.1310811  95.9090945
  66.8001849   3.3699099  95.6790253  65.7387593   3.8384462  96.6515100
  57.5029058   1.5604407  84.2573189  58.3404280   1.9701415  84.0406897
  57.6807326   0.6203849  84.2273383  74.3727764   1.9811842  81.8810196
  73.5957207   1.6423002  81.4365358  75.0519245   1.9864465  81.2065161
  67.6326225   3.2596803  83.4209757  67.1047587   2.5249563  83.1082995
  67.1313728   4.0371479  83.1749726  72.6119071   1.4545823  88.5376803
  71.9542745   2.1445085  88.6256932  73.4159470   1.8442255  88.8810790
  65.7778825   1.0777013  76.4244730  64.8705887   0.8466267  76.6235879
  66.2749857   0.2814633  76.6118712  68.6846904   9.7874520  79.3441416
  68.0108603  10.0906217  79.9526374  69.0712726  10.5903601  78.9946873
  66.9567059   1.1789608  80.9468720  66.0478278   0.8948641  81.0441190
  66.9862142   1.5988687  80.0872027  72.1886326   4.7896198  84.7159888
  71.7348653   3.9487108  84.7725078  71.5580293   5.4257596  85.0534668
  70.6319265   6.6272694  85.6509706  70.9242240   7.1877751  84.9322072
  71.1417886   6.9201255  86.4062865  57.5255229  -1.1004878  84.9283923
  57.3279629  -1.6935517  84.2034989  56.9701893  -1.4052668  85.6459861
  66.6543146   2.7198352  78.2856799  66.2162576   2.0034211  77.8262436
  67.3953587   2.9474467  77.7241890  65.5952890   7.4053045  86.7403159
  65.5529069   7.6313892  85.8111691  66.5115589   7.1716420  86.8888960
  74.7985641   3.0632076  89.3544389  75.2322147   2.9707365  90.2027443
  75.5117222   3.0389576  88.7164405  63.7118691   4.2816074  86.5365122
  64.5059290   3.7866395  86.3347697  63.0010384   3.7533938  86.1732828
  68.5313536   6.6634170  90.8877490  68.5850558   7.2325106  91.6555205
  67.6628317   6.8336055  90.5231527  60.0201455  -1.5740844  82.6124875
  59.0899043  -1.6356388  82.8294837  60.1158927  -2.0964891  81.8161516
  75.6601190   3.1055776  91.8877274  75.8537080   4.0101587  92.1336549
  75.5601809   2.6463196  92.7215859  70.7216299   3.2562519  97.4618155
  70.5701805   3.0273071  96.5448239  70.7120979   4.2133121  97.4749500
  67.4901635   0.8294432  92.4464421  68.4193695   0.9805592  92.2733389
  67.0692665   0.9178453  91.5913068  66.2889967   4.8545096  90.2162959
  66.1501053   4.4863881  91.0888897  65.5004563   5.3692736  90.0446917
  66.8838119   9.9554193  81.5588496  67.0589875   9.4842236  82.3734118
  66.1970907  10.5819959  81.7869756  67.8395182   4.2326699  87.6051797
  67.5045015   4.1927469  88.5009447  67.3399128   3.5671415  87.1322207
  61.8139426  -0.3605671  93.1304378  61.6759224  -1.0925432  93.7315917
  62.7244350  -0.4496771  92.8488566  70.7754374   1.5782733  77.8788856
  70.1583545   0.8529562  77.7821909  70.3070863   2.3392094  77.5355931
  64.4421727  -0.6485712  92.6188058  65.1521346  -1.2892519  92.5774676
  64.3991035  -0.3972817  93.5414238  72.4308506   6.2881642  95.5394637
  72.3721052   5.6040862  94.8725220  72.8328024   7.0300632  95.0875263
  61.4499205  13.1043556  88.3328356  61.6895803  13.7362080  89.0107374
  60.6068401  12.7531596  88.6193715  72.4325913   4.2521226  93.7708617
  71.5452692   3.9147148  93.8935015  73.0024464   3.5204257  94.0077382
  54.0855060   0.5845317  87.0951668  54.7726100   0.2707048  86.5072683
  53.9303189   1.4886682  86.8218919  65.9627066   8.9122678  90.7369860
  65.8897238   9.7177650  91.2489164  65.5204459   9.1114644  89.9117881
  65.7516846   8.1494448  84.2472681  64.9684368   8.6916128  84.3410906
  66.4509591   8.6668428  84.6466922  68.4225750   8.8109512  92.8928018
  69.1353722   9.4456977  92.8203920  67.9315779   8.9073378  92.0768020
  70.1443277   2.7160765  84.4645310  69.2099556   2.8362227  84.2950014
  70.3219945   1.8133232  84.2005320  63.4737663   6.5603956  93.7133589
  64.1747123   7.1940439  93.8662983  63.0032778   6.9018687  92.9529228
  71.5992059   4.9021905  81.9981496  71.8751903   4.7878500  82.9075370
  70.7296558   4.5039390  81.9593669  68.2346123   9.1508256  85.6414310
  68.4168518   8.3329912  86.1042062  69.0579109   9.3675948  85.2039200
  68.5688289   8.0776441  82.9029358  69.0976055   7.5668896  82.2899520
  68.8316508   7.7618972  83.7674891  67.3226522  -0.1431626  98.0252177
  66.6467159  -0.2437497  98.6954552  68.1454156  -0.2992412  98.4888174
  59.0705381   6.0940311  90.6464692  59.6558818   5.3483999  90.7792596
  58.8730220   6.4044267  91.5301356  61.9244037   9.1291558  85.6627134
  61.2554412   9.6137686  85.1791174  61.7856906   9.3760778  86.5770513
  53.6623036  -1.3354089  89.3669135  53.7007136  -1.8690498  90.1606253
  53.1563329  -1.8618884  88.7480112  66.0649305  11.1635302  92.2609793
  66.6167613  11.3266923  93.0258878  66.4055499  11.7539739  91.5889817
  70.9160180   5.9896559  98.1158447  71.4600084   6.6026517  97.6213402
  70.3347024   6.5476137  98.6325460  57.2931614  -2.6089987  82.4423066
  57.5885055  -3.5179309  82.3890120  56.3919650  -2.6302248  82.1204069
  69.2017693   9.1117277  89.2473475  69.0768832   8.3107017  88.7384420
  69.8596784   9.6063470  88.7587445  71.2652601   6.9126297  90.8753025
  70.3182936   6.7931648  90.8031352  71.6135374   6.0248795  90.9579286
  68.2699034   6.7079013  87.0757377  68.1223997   5.7795721  87.2564947
  69.0952528   6.7299104  86.5914452  71.8733156   7.5307572  88.1622250
  72.7979704   7.3250433  88.0246701  71.7048459   7.2823973  89.0711591
  63.0059770  -2.4797436  88.6460239  62.8604351  -2.1657133  89.5384520
  62.5284974  -1.8612535  88.0931138  71.6628472   8.0493240  83.5184341
  71.8365350   7.4839662  82.7658194  72.1557364   8.8494134  83.3363831
  57.4805432   0.0607909  91.5847900  56.9358900   0.8367717  91.7168174
  58.3584782   0.4078713  91.4267022  72.6503645   7.3660004  80.6181240
  73.3454549   7.9866697  80.8368554  72.9926795   6.5155355  80.8933617
  58.2671454  -0.8122195  94.4778057  57.5253190  -0.6639560  95.0642687
  57.9464198  -0.5513929  93.6144806  74.5495068   4.8159709  82.1468570
  75.0746392   5.1546982  81.4217890  74.4617420   3.8806725  81.9631705
  66.2115117   8.7293783  94.2758447  66.5202243   8.4842930  95.1481147
  67.0090599   8.9340422  93.7877317  66.2335729  10.8831693  86.5063824
  65.7940719  10.3908071  87.1996680  66.9843846  10.3404660  86.2655899
  58.7128068   7.0743234  86.5088452  59.5386088   6.7747005  86.1287095
  58.3622120   6.3050856  86.9578240  63.6809601   6.4269702  88.5786125
  63.0589610   5.7640407  88.2788353  64.3514468   6.4530834  87.8959773
  56.9136673   4.9929560  87.4677385  56.0768581   4.5651734  87.2861386
  56.8860318   5.1862003  88.4048176  74.2388974   5.4492613  97.4519768
  73.4484518   5.4316752  96.9124268  74.0022329   5.9880907  98.2068805
  74.3586849   2.2985079  94.7652497  74.4084854   2.1335087  95.7068020
  74.2500772   1.4312339  94.3750378  63.2423108   4.9773625  82.0544586
  63.3911228   5.6609090  81.4011258  64.0489551   4.9578715  82.5694041
  75.8605046   4.7182021  95.0094518  75.5689854   5.0812002  95.8457979
  75.2477177   4.0049029  94.8307850  60.9975741   1.0038803  83.0605655
  60.7521783   0.1001133  83.2585865  61.1671655   1.0055953  82.1185133
  66.7418513   7.4721756  79.5256333  66.1692480   8.0911943  79.0726805
  67.3151307   8.0221117  80.0596255  69.9615773   7.7558906  80.6564915
  70.8946446   7.6904467  80.8597791  69.8738986   8.5915173  80.1979448
  72.5903790   7.0724776  77.6168863  72.5117421   6.7384640  78.5104621
  73.4113456   7.5646544  77.6160335  67.0104004   2.8600315  98.3273043
  67.9307014   3.0378914  98.5213089  66.9753587   1.9156360  98.1752742
  56.2286169  -1.9461092  87.2526317  55.9088954  -2.7995784  86.9600691
  55.6819597  -1.7312514  88.0084285  60.0066077   0.7701349  90.9695824
  60.2252087   1.7018457  90.9883858  60.4191851   0.4109324  91.7550628
  56.0974429   1.6741820  89.2219439  55.4037901   1.2595772  88.7089393
  56.8447420   1.7162356  88.6252858  64.7425212  -0.2268306  99.1763634
  64.2592294   0.5732054  99.3827523  64.8286151  -0.2160361  98.2231078
  58.0111172   1.6060073  87.0985454  57.9881860   1.7047761  86.1467337
  58.3211808   2.4525224  87.4202620  60.6698550   3.6636228  91.2132068
  61.6241803   3.6320171  91.1462000  60.4711073   3.2026852  92.0282294
  61.2597932   2.2337345  93.7802866  62.0790821   2.7281423  93.8037703
  61.5334740   1.3169313  93.7520433  59.0248778   9.2055848  88.2302266
  58.8903246   8.4456249  87.6640264  58.6080841   9.9296748  87.7631055
  70.1607741   4.3892771  77.2378841  70.8643592   4.5942774  77.8536497
  69.4370390   4.9569533  77.5027925  62.1817904  10.1025165  88.4420709
  62.0650288  11.0470597  88.3399399  61.3610351   9.7998727  88.8306508
  72.0694439   4.8275301  79.2877301  72.9040043   4.3956499  79.1054776
  71.9078782   4.6557314  80.2154196  71.7240331   1.3307414  80.6533641
  71.6689135   1.1651685  79.7122085  71.0986386   2.0383447  80.8095830
  56.5132846  -3.4324522  94.4795063  57.1591710  -3.9425568  94.9682288
  56.3049997  -2.6955840  95.0538488  69.0386238   3.6356326  99.9787203
  69.9077398   3.8096978  99.6173838  68.5592990   4.4550743  99.8562933
  63.2072418  10.7553427  91.6576637  64.1099665  10.7877037  91.9743132
  62.9809789   9.8253878  91.6722973  64.9626020   9.5084413  88.3186716
  64.0121652   9.5086275  88.2051088  65.2658507   8.7617148  87.8022750
  80.6978714  15.3444952  89.3832478  81.3357124  15.2251699  88.6795818
  80.5799557  16.2925796  89.4420430  77.5068420  15.2972380  89.3194003
  77.1686932  15.1813445  88.4314538  78.3758188  14.8963545  89.2995009
  73.3655236  17.1507856  85.3090894  72.8020101  17.0597793  84.5407182
  73.2507631  16.3307761  85.7893386  77.9888203  16.4507232  95.2780208
  77.9776844  16.0560030  94.4060712  78.1508843  15.7173304  95.8713980
  70.9119668  18.6459048  88.1475114  71.7040960  18.3049873  87.7321414
  71.1516318  18.7554023  89.0677268  78.9454795  20.8178824  80.6205359
  78.2942774  21.4032904  80.2339372  79.7399157  21.3485019  80.6800396
  72.8710422  17.9067961  81.0192493  73.6441298  17.3596948  80.8805369
  73.2235821  18.7712211  81.2306954  74.7095464  19.2344343  94.2259392
  74.4185330  20.1389974  94.1106059  75.3452449  19.2760871  94.9403462
  75.6351671  16.6121192  90.8160752  76.2315243  16.3877214  90.1017715
  75.6926643  15.8705937  91.4186200  75.2076700  14.0660627  78.6510943
  75.4602220  13.5442149  77.8894406  74.2701259  13.9026773  78.7537627
  80.2519982  13.0696406  86.4585686  81.0383072  12.6515829  86.1076103
  80.5158687  13.9742498  86.6267335  80.4230060  18.5069256  81.1574343
  79.7875893  18.5803882  81.8695248  80.0927466  19.0962855  80.4793422
  85.6528410  13.0071639  87.3618665  86.3853582  12.4370856  87.5956494
  84.8967765  12.6193239  87.8025170  74.9272988  15.9688733  80.8535318
  74.8109246  15.2933637  81.5216402  75.0375248  15.4821107  80.0367471
  77.2704529  15.4298880  84.5582007  76.9062737  14.9029501  85.2694929
  78.1271645  15.0397349  84.3848493  83.1753830   6.7193213  91.8213273
  82.8437155   7.5888624  91.5974488  82.5799443   6.4029497  92.5007304
  76.9110016  10.4588780  79.5543356  77.0784419  11.3269016  79.9213827
  76.7207185  10.6216062  78.6304645  79.6685349  18.9205759  91.2209186
  79.3686073  19.8230798  91.1124993  79.3236409  18.6537942  92.0730339
  73.1197831  15.3719556  87.2545890  72.1948327  15.2395770  87.4623582
  73.3682244  16.1513775  87.7515833  83.0682493  11.4388299  88.9006623
  82.1599371  11.3703708  88.6065384  83.0170089  11.9160244  89.7288449
  76.8899237  12.9146438  80.5390022  76.7698862  13.3603488  81.3775503
  76.1951826  13.2631755  79.9803561  70.4806642  15.0152829  88.0889680
  70.6099023  15.2687308  89.0029091  69.8004093  15.6080537  87.7694335
  74.6506129  25.6850079  84.1880154  74.5730159  26.6357904  84.2668634
  74.0467773  25.3395952  84.8455080  77.1423359  12.8577945  96.8441521
  76.3656693  13.4171865  96.8344385  77.7813922  13.3434728  97.3656391
  84.9344140   9.6404738  90.6784497  84.2918520   9.9337271  90.0324292
  84.4299068   9.5257658  91.4837694  82.5884303  13.3867911  81.3670357
  83.5002159  13.6195297  81.1918054  82.0793950  13.9704955  80.8045435
  75.3969731  15.6663398  96.4059488  76.1384416  16.2048442  96.1294311
  74.6906717  16.2929687  96.5631039  80.8725071  17.8092539  95.0031649
  81.2808427  17.3674949  94.2586281  80.1502332  17.2345166  95.2565842
  77.2256141  12.7465145  92.3765206  78.0717336  13.1704559  92.5199855
  77.1654779  12.0898770  93.0703769  81.1953886  18.3693729  88.7583938
  80.5662748  18.5339443  88.0560006  80.8079548  18.7835339  89.5294902
  85.0743118  19.3048167  86.1128302  84.3894156  19.6847068  85.5625335
  85.1586967  19.9143494  86.8460250  80.3755586  10.4069514  94.0346380
  80.1316518  11.1611574  93.4980655  80.6515517  10.7854861  94.8693627
  82.3294049  16.9508126  92.7123645  82.5410944  17.5939886  92.0358026
  82.2823797  16.1170443  92.2445575  79.9320278   9.5625947  89.6160217
  79.0704757   9.8607200  89.9076955  79.9582713   9.7796346  88.6841250
  76.7481848  18.1068137  86.0234023  77.2120193  18.3855840  85.2338646
  76.4838646  17.2051582  85.8407114  73.6405929  17.6539619  88.9613786
  74.2107286  18.0826887  88.3231271  74.2314040  17.3722204  89.6597972
  75.6850734  14.2291290  82.8323588  76.3874777  14.6812333  83.2997515
  75.3531362  13.5875109  83.4603481  74.1331095  12.8203046  97.2074798
  73.5029756  13.5019327  97.4410194  74.0267183  12.7086128  96.2627936
  69.4276068  12.4874842  88.1340722  68.6375122  12.7432371  87.6580832
  69.9187315  13.3023180  88.2392762  83.4439877  19.8280081  90.8846003
  84.2657321  19.4260269  90.6028684  83.4402280  19.7248316  91.8362118
  71.3790813  12.8519422  85.0924198  70.5821976  12.9638116  85.6107694
  71.1516405  13.1906074  84.2265089  77.2096481  19.3764125  93.0406713
  77.2740913  19.8384532  93.8764885  76.5007404  18.7461490  93.1689023
  67.7113771  12.7405333  90.5655713  67.9621809  13.6252343  90.8313289
  68.2473319  12.5609934  89.7930804  91.5345870  16.1718830  87.2330974
  90.7809579  15.6026228  87.0774979  91.6693411  16.1381494  88.1801609
  76.9244498  21.0432232  82.9085693  76.7890173  21.8883768  83.3370541
  77.4654311  21.2451510  82.1451627  73.4111838   7.1223812  99.5700049
  73.0178783   6.5690011 100.2447693  74.2277978   7.4334391  99.9606566
  70.3773896  18.5607670  83.4813619  70.8898416  19.3550921  83.6319183
  71.0296608  17.8633961  83.4147220  72.1868780  21.6773427  85.5636372
  72.3635409  22.5991391  85.3757356  72.9825614  21.3631846  85.9930752
  76.3279799   8.5381691  97.1620305  77.0689512   9.1388844  97.0824768
  76.5597722   7.7959329  96.6038348  71.4721137  13.7238058  95.4398535
  71.3574652  12.8223316  95.7405634  70.6165655  13.9701755  95.0883351
  78.5512975  21.6655799  97.0386036  78.1076829  20.8792177  96.7206940
  79.2130188  21.8534949  96.3729926  73.3100096  23.1951600  91.5646714
  73.8607521  23.0668664  90.7923708  72.4711572  23.4946489  91.2141607
  80.6494213  21.9458599  95.0667437  80.6312688  22.7667480  94.5747706
  81.5714133  21.8212674  95.2917578  77.1067267  19.4602728  95.9090945
  77.6395604  18.6991016  95.6790253  76.5781348  19.1676380  96.6515100
  80.2736962   4.5662794  91.4384587  79.9301231   5.4564436  91.3623698
  80.6415924   4.3764452  90.5754172  68.3422812  16.8896325  84.2573189
  69.1798034  17.2993333  84.0406897  68.5201080  15.9495767  84.2273383
  80.2387244  14.5571405  79.9457022  79.7233868  15.3276010  80.1845409
  79.9664553  13.8836541  80.5690083  77.8234356   9.4021106  85.0042260
  76.9675952   9.0127956  84.8247899  78.2361307   9.4813067  84.1442046
  79.3533502   6.9367449  89.4033820  78.8498298   6.8997584  88.5901625
  79.6464109   7.8460192  89.4630477  75.5976388   7.0206179  88.4100002
  76.4629385   6.8248988  88.0505891  75.6653897   6.7916531  89.3369359
  85.2121519  17.3103760  81.8810196  84.4350961  16.9714919  81.4365358
  85.8913000  17.3156383  81.2065161  80.0273548  12.4298497  81.7716803
  79.7223683  12.7444647  82.6226946  80.9803990  12.5079917  81.8144136
  78.4719980  18.5888721  83.4209757  77.9441341  17.8541480  83.1082995
  77.9707482  19.3663397  83.1749726  83.4512826  16.7837741  88.5376803
  82.7936500  17.4737003  88.6256932  84.2553225  17.1734173  88.8810790
  73.2038707   9.2508387  85.7816369  73.7782459   9.0283568  85.0489562
  73.7909690   9.3197081  86.5344970  82.2618284  15.1382114  86.5880745
  82.7750166  15.7712106  87.0902455  82.9119508  14.5383309  86.2224105
  73.5308294  11.2812848  79.8012254  72.6945606  11.6187535  80.1221529
  73.3913064  11.1461828  78.8639391  75.5061375   6.1249636  84.5091438
  74.8525787   5.8098653  83.8848053  75.4641849   5.5025376  85.2351261
  76.6172580  16.4068931  76.4244730  75.7099641  16.1758184  76.6235879
  77.1143612  15.6106550  76.6118712  79.5240659  25.1166438  79.3441416
  78.8502357  25.4198135  79.9526374  79.9106481  25.9195518  78.9946873
  78.7399115  12.6131569  88.8339086  77.8221677  12.8346516  88.6760774
  79.1559259  12.6877880  87.9750793  79.5234163  14.0122985  83.9641766
  80.2705982  14.5244382  83.6548888  79.7925752  13.6907038  84.8246160
  77.7960813  16.5081526  80.9468720  76.8872032  16.2240559  81.0441190
  77.8255897  16.9280604  80.0872027  83.0280081  20.1188115  84.7159888
  82.5742408  19.2779025  84.7725078  82.3974047  20.7549514  85.0534668
  81.9713000  11.0480101  85.9460555  81.2335757  10.5357488  86.2770798
  82.2239774  10.6080483  85.1343832  81.4713020  21.9564612  85.6509706
  81.7635994  22.5169669  84.9322072  81.9811640  22.2493173  86.4062865
  68.3648984  14.2287040  84.9283923  68.1673383  13.6356401  84.2034989
  67.8095647  13.9239250  85.6459861  76.3445707  14.1210146  87.0478516
  76.3994317  13.1683983  86.9720992  75.5336909  14.2769585  87.5319814
  77.4936901  18.0490269  78.2856799  77.0556331  17.3326128  77.8262436
  78.2347342  18.2766384  77.7241890  74.2838067  12.7387206  84.8068895
  73.4705933  13.0381377  85.2134087  74.7797061  12.3442895  85.5243377
  76.4346645  22.7344963  86.7403159  76.3922824  22.9605809  85.8111691
  77.3509344  22.5008338  86.8888960  79.8812279  13.2029031  93.6383788
  80.2361666  13.4300504  94.4978254  80.5284410  13.5347407  93.0161044
  85.6110016  16.3247467  84.3433117  85.4727914  16.5149062  83.4154307
  85.2546235  17.0866849  84.8001169  73.7752142  10.3105562  90.4230129
  74.4151521  10.1694321  89.7253093  72.9429672  10.0240075  90.0468731
  85.6379395  18.3923994  89.3544389  86.0715902  18.2999283  90.2027443
  86.3510976  18.3681494  88.7164405  74.5512446  19.6107992  86.5365122
  75.3453044  19.1158312  86.3347697  73.8404138  19.0825855  86.1732828
  79.3707290  21.9926088  90.8877490  79.4244312  22.5617024  91.6555205
  78.5022072  22.1627973  90.5231527  70.8595209  13.7551074  82.6124875
  69.9292797  13.6935529  82.8294837  70.9552681  13.2327027  81.8161516
  70.7780758  10.2805887  85.2003116  71.0387576  11.1951220  85.0912277
  71.5997931   9.8130329  85.3499729  72.2505684  11.6943644  92.3701941
  72.9228737  11.4861006  91.7214590  71.4235470  11.4965730  91.9307173
  86.4994945  18.4347694  91.8877274  86.6930835  19.3393505  92.1336549
  86.3995563  17.9755113  92.7215859  78.1531256   8.3205585  94.3867602
  77.5059171   9.0195534  94.2932078  78.9232271   8.7541729  94.7543850
  81.5610054  18.5854437  97.4618155  81.4095560  18.3564989  96.5448239
  81.5514733  19.5425038  97.4749500  78.3295390  16.1586350  92.4464421
  79.2587450  16.3097509  92.2733389  77.9086420  16.2470370  91.5913068
  77.1283722  20.1837014  90.2162959  76.9894807  19.8155798  91.0888897
  76.3398318  20.6984654  90.0446917  77.7231874  25.2846111  81.5588496
  77.8983629  24.8134154  82.3734118  77.0364662  25.9111877  81.7869756
  78.6788937  19.5618617  87.6051797  78.3438769  19.5219387  88.5009447
  78.1792883  18.8963333  87.1322207  72.6533181  14.9686247  93.1304378
  72.5152979  14.2366486  93.7315917  73.5638104  14.8795147  92.8488566
  81.6148129  16.9074651  77.8788856  80.9977299  16.1821479  77.7821909
  81.1464617  17.6684011  77.5355931  75.2815482  14.6806206  92.6188058
  75.9915100  14.0399398  92.5774676  75.2384790  14.9319101  93.5414238
  83.2702260  21.6173559  95.5394637  83.2114806  20.9332780  94.8725220
  83.6721779  22.3592549  95.0875263  73.9944415  11.6671424  94.4383697
  73.4581773  11.2162162  95.0905293  73.4061124  11.8017333  93.6954161
  72.2892959  28.4335473  88.3328356  72.5289557  29.0653997  89.0107374
  71.4462155  28.0823513  88.6193715  73.4046674  11.1260075  77.0010161
  72.5276141  11.0048876  76.6372407  73.8804428  10.3346154  76.7489049
  83.2719667  19.5813143  93.7708617  82.3846446  19.2439065  93.8935015
  83.8418219  18.8496175  94.0077382  64.9248815  15.9137235  87.0951668
  65.6119854  15.5998965  86.5072683  64.7696943  16.8178600  86.8218919
  69.7283537  10.8027432  91.5236692  69.6441725  10.1953101  90.7887102
  68.9066243  11.2936450  91.5246188  76.8020821  24.2414596  90.7369860
  76.7290992  25.0469567  91.2489164  76.3598214  24.4406562  89.9117881
  76.5910600  23.4786366  84.2472681  75.8078122  24.0208046  84.3410906
  77.2903346  23.9960345  84.6466922  79.9007251   9.2880995  86.8906887
  80.3975950   8.5350958  86.5707957  79.1294232   9.3245312  86.3250096
  87.7537008  14.9921361  88.5325178  87.7426884  15.8746076  88.1619111
  86.8854387  14.6392912  88.3379715  79.2619504  24.1401430  92.8928018
  79.9747477  24.7748895  92.8203920  78.7709533  24.2365296  92.0768020
  80.9837031  18.0452682  84.4645310  80.0493310  18.1654145  84.2950014
  81.1613700  17.1425149  84.2005320  76.4842219  11.4298378  86.6178571
  76.1140007  10.8769419  87.3059477  76.9801312  10.8256512  86.0653571
  84.3709583  13.8870002  84.9995344  84.8370035  14.7197993  84.9255647
  84.8217083  13.4214983  85.7040603  74.3131418  21.8895873  93.7133589
  75.0140877  22.5232356  93.8662983  73.8426533  22.2310605  92.9529228
  82.4385814  20.2313823  81.9981496  82.7145658  20.1170418  82.9075370
  81.5690312  19.8331308  81.9593669  82.3426245   6.2550589  89.0386246
  81.4289325   6.4854816  89.2068452  82.7719347   6.3389033  89.8900278
  82.1132704  14.4440481  91.5386140  81.4604154  14.6916388  90.8838592
  82.4913084  13.6304619  91.2048617  79.0739878  24.4800174  85.6414310
  79.2562272  23.6621830  86.1042062  79.8972864  24.6967866  85.2039200
  79.4082043  23.4068359  82.9029358  79.9369810  22.8960814  82.2899520
  79.6710263  23.0910889  83.7674891  78.1620277  15.1860292  98.0252177
  77.4860914  15.0854421  98.6954552  78.9847911  15.0299505  98.4888174
  69.9099136  21.4232228  90.6464692  70.4952573  20.6775916  90.7792596
  69.7123974  21.7336185  91.5301356  72.7637791  24.4583476  85.6627134
  72.0948166  24.9429603  85.1791174  72.6250661  24.7052696  86.5770513
  64.5016791  13.9937829  89.3669135  64.5400890  13.4601419  90.1606253
  63.9957084  13.4673034  88.7480112  76.9043060  26.4927219  92.2609793
  77.4561368  26.6558841  93.0258878  77.2449253  27.0831657  91.5889817
  71.8807553   8.8402369  92.8631677  71.9448879   9.7017200  92.4509075
  71.8174673   8.2276371  92.1304036  71.3559826  10.9125502  96.5104712
  71.9831864  10.5302579  97.1242236  70.4987744  10.6939703  96.8760404
  81.7553934  21.3188477  98.1158447  82.2993838  21.9318435  97.6213402
  81.1740779  21.8768055  98.6325460  68.1325368  12.7201931  82.4423066
  68.4278809  11.8112609  82.3890120  67.2313404  12.6989670  82.1204069
  80.0411447  24.4409195  89.2473475  79.9162587  23.6398935  88.7384420
  80.6990538  24.9355388  88.7587445  71.6619615  10.7957927  88.4250615
  70.9406201  11.4093895  88.2858088  72.4512871  11.3315692  88.3467261
  82.1046355  22.2418215  90.8753025  81.1576691  22.1223566  90.8031352
  82.4529129  21.3540713  90.9579286  74.4645929   8.1312354  94.6991267
  74.9880331   8.3774650  95.4617576  74.2458262   8.9632389  94.2794404
  69.8613210  10.4016028  82.5662392  69.5325916   9.5213407  82.3837497
  70.2152581  10.3463697  83.4538781  79.1092789  22.0370931  87.0757377
  78.9617751  21.1087638  87.2564947  79.9346282  22.0591022  86.5914452
  72.9755033  10.6888998  82.9337869  73.3151106  11.2174919  82.2116478
  73.4227154  11.0269404  83.7096436  82.7126911  22.8599490  88.1622250
  83.6373458  22.6542351  88.0246701  82.5442214  22.6115891  89.0711591
  75.6698474   9.0726049  92.3840937  75.3295294   8.2733862  92.7861617
  74.9637480   9.3727760  91.8117770  76.3214946   6.1575361  90.8368260
  77.1441015   5.6835839  90.7147151  76.5653009   6.9365845  91.3366947
  74.9623180   9.1863620  81.1331162  75.6831543   9.5644872  80.6294879
  74.3388484   9.9052497  81.2366140  79.1054303   9.8908769  82.0689494
  79.3217917  10.7733407  81.7678322  78.6248370   9.4994982  81.3395136
  73.8453524  12.8494482  88.6460239  73.6998105  13.1634785  89.5384520
  73.3678728  13.4679382  88.0931138  75.7049907   9.8397030  88.6941128
  75.6911476   8.9438123  88.3573426  76.4222335   9.8467694  89.3279415
  77.5576038  10.2734370  90.7394256  77.2993816  11.1951441  90.7378586
  77.0261078   9.8764805  91.4294720  82.5022227  23.3785157  83.5184341
  82.6759104  22.8131580  82.7658194  82.9951118  24.1786052  83.3363831
  68.3199187  15.3899826  91.5847900  67.7752655  16.1659634  91.7168174
  69.1978536  15.7370631  91.4267022  75.1086803   8.7211410  83.9628699
  75.2302714   7.7928056  84.1619586  74.8188846   8.7350096  83.0507014
  77.9777994   6.4066321  87.0995418  77.9999690   6.4705654  86.1447398
  78.3946053   5.5670829  87.2935925  88.3561618  16.1421580  85.1374641
  88.7992764  15.3928905  84.7393764  87.4788128  16.1331717  84.7548373
  83.4897399  22.6951922  80.6181240  84.1848304  23.3158614  80.8368554
  83.8320549  21.8447273  80.8933617  69.1065208  14.5169723  94.4778057
  68.3646944  14.6652358  95.0642687  68.7857953  14.7777988  93.6144806
  85.3888822  20.1451627  82.1468570  85.9140146  20.4838900  81.4217890
  85.3011175  19.2098642  81.9631705  77.0508871  24.0585701  94.2758447
  77.3595998  23.8134848  95.1481147  77.8484353  24.2632339  93.7877317
  77.0729483  26.2123610  86.5063824  76.6334473  25.7199989  87.1996680
  77.8237600  25.6696578  86.2655899  69.5521822  22.4035151  86.5088452
  70.3779842  22.1038923  86.1287095  69.2015874  21.6342774  86.9578240
  74.5203355  21.7561620  88.5786125  73.8983365  21.0932325  88.2788353
  75.1908222  21.7822751  87.8959773  67.7530427  20.3221478  87.4677385
  66.9162335  19.8943652  87.2861386  67.7254073  20.5153921  88.4048176
  74.5927883  10.2343408  98.1718631  74.6416038  11.1105530  97.7896401
  75.1350397   9.6920801  97.5990274  85.0782728  20.7784531  97.4519768
  84.2878272  20.7608670  96.9124268  84.8416083  21.3172824  98.2068805
  85.1980604  17.6276997  94.7652497  85.2478608  17.4627005  95.7068020
  85.0894527  16.7604256  94.3750378  74.0816862  20.3065543  82.0544586
  74.2304983  20.9901007  81.4011258  74.8883306  20.2870633  82.5694041
  82.4884366  13.6107925  96.0811804  83.3894229  13.4714390  95.7895801
  82.5632340  13.7762380  97.0209981  76.8227171  10.9874780  94.9264990
  75.9530481  11.2808346  94.6547578  77.0586652  11.5715225  95.6472254
  86.6998800  20.0473939  95.0094518  86.4083609  20.4103919  95.8457979
  86.0870932  19.3340947  94.8307850  87.8994483  17.6126818  87.5297089
  88.7341374  18.0516623  87.6934649  88.0353611  17.1365472  86.7105334
  84.9485989  15.1706553  93.4774576  85.4240110  15.3634200  92.6693428
  84.0251554  15.2265739  93.2317960  71.8369495  16.3330720  83.0605655
  71.5915537  15.4293050  83.2585865  72.0065410  16.3347871  82.1185133
  79.5266205   7.2054397  92.4430410  80.0448149   7.9415424  92.1176899
  79.1721338   7.5118390  93.2777169  71.1065143  12.0659078  80.5591816
  70.4134388  12.1403433  79.9031852  70.8616895  11.3019422  81.0813333
  77.5812268  22.8013673  79.5256333  77.0086235  23.4203860  79.0726805
  78.1545061  23.3513035  80.0596255  83.6487658  12.0472313  91.7102882
  84.6005080  12.1470411  91.7315106  83.4791108  11.2550582  92.2200966
  81.6702037   9.1327897  91.8962283  81.0751969   9.4132909  91.2008772
  81.3851734   9.6221798  92.6679024  80.8009528  23.0850823  80.6564915
  81.7340201  23.0196385  80.8597791  80.7132740  23.9207090  80.1979448
  83.4297544  22.4016694  77.6168863  83.3511176  22.0676557  78.5104621
  84.2507211  22.8938462  77.6160335  86.1275735  15.2678433  90.8245182
  86.0952055  14.3294434  91.0104865  86.7376359  15.3462470  90.0911007
  77.9659066  14.1374486  76.8672386  78.9118171  14.0080694  76.9360804
  77.5873311  13.3989148  77.3441814  86.2770224  12.0589477  90.8703465
  85.7609273  11.2747933  90.6833394  87.1610172  11.7308193  91.0349984
  83.9380951   5.8030492  86.8299277  83.7405772   5.4945580  87.7142609
  84.5480656   6.5292131  86.9597207  91.9452285  16.3294440  89.9651218
  92.6755674  16.0679728  90.5258922  91.3359231  15.5923162  90.0053286
  90.0267582  14.4702303  90.5625670  89.3000746  14.3358267  89.9542161
  89.6114869  14.7779131  91.3682388  77.8497759  18.1892232  98.3273043
  78.7700768  18.3670831  98.5213089  77.8147342  17.2448278  98.1752742
  76.1501983  12.0624462  76.8027271  75.2433439  11.7657575  76.8789984
  76.4277964  11.7654281  75.9361557  67.0679924  13.3830826  87.2526317
  66.7482708  12.5296134  86.9600691  66.5213352  13.5979404  88.0084285
  70.8459831  16.0993267  90.9695824  71.0645841  17.0310375  90.9883858
  71.2585605  15.7401241  91.7550628  77.7664049   6.6061352  82.9571512
  76.9564777   6.2608437  83.3326758  78.4548466   6.2968896  83.5459124
  79.6954597   5.6839399  84.5795809  80.2485636   6.1034852  85.2385832
  79.9324684   4.7575147  84.6218765  75.7187697  11.6726473 100.3598573
  75.6184424  12.6220830 100.2910664  75.5009239  11.3444712  99.4874643
  74.9200768   8.9211398  76.9439250  75.7819932   9.2466296  77.2035067
  75.1051112   8.1342894  76.4312316  66.9368184  17.0033737  89.2219439
  66.2431655  16.5887690  88.7089393  67.6841175  17.0454274  88.6252858
  83.0733404   7.7939924  84.0874473  82.4932074   8.4524728  83.7052525
  82.8069337   6.9717269  83.6761891  81.5236971   7.1944982  86.2895793
  82.0236749   7.3061516  85.4810112  82.1672579   6.8906035  86.9296602
  75.5818967  15.1023611  99.1763634  75.0986048  15.9023972  99.3827523
  75.6679906  15.1131556  98.2231078  68.8504926  16.9351991  87.0985454
  68.8275614  17.0339678  86.1467337  69.1605563  17.7817142  87.4202620
  71.5092304  18.9928146  91.2132068  72.4635558  18.9612088  91.1462000
  71.3104828  18.5318770  92.0282294  72.0991686  17.5629262  93.7802866
  72.9184575  18.0573341  93.8037703  72.3728494  16.6461230  93.7520433
  81.8558283   9.9540015  83.1430821  80.9684138  10.2389665  82.9251016
  82.2712272   9.7933778  82.2958098  85.2072819   9.9786535  86.8585161
  85.9833209  10.4682988  87.1309777  84.4820953  10.4044590  87.3157030
  87.6445377  10.6914155  87.9159101  88.2389868  10.4509891  87.2052409
  87.7171961   9.9721285  88.5432638  69.8642533  24.5347766  88.2302266
  69.7297001  23.7748167  87.6640264  69.4474595  25.2588666  87.7631055
  81.0001496  19.7184689  77.2378841  81.7037346  19.9234692  77.8536497
  80.2764145  20.2861451  77.5027925  81.8299306  15.4694550  83.3581112
  81.7734508  15.9263102  82.5188744  82.3827649  14.7085235  83.1803954
  85.6404112  11.2584282  84.1831231  85.3841046  10.8580918  85.0139439
  85.0156980  11.9728076  84.0581370  89.9516450  13.9980356  86.6902522
  89.3916008  14.0673545  87.4634084  89.3459953  13.8221340  85.9702019
  73.0211659  25.4317083  88.4420709  72.9044043  26.3762515  88.3399399
  72.2004105  25.1290644  88.8306508  82.9088193  20.1567218  79.2877301
  83.7433797  19.7248417  79.1054776  82.7472536  19.9849232  80.2154196
  82.5634086  16.6599332  80.6533641  82.5082889  16.4943603  79.7122085
  81.9380141  17.3675365  80.8095830  67.3526601  11.8967396  94.4795063
  67.9985464  11.3866350  94.9682288  67.1443752  12.6336078  95.0538488
  79.8779993  18.9648244  99.9787203  80.7471152  19.1388896  99.6173838
  79.3986744  19.7842660  99.8562933  75.8730211   6.1607441  80.2318959
  75.8608881   7.1049281  80.3887230  76.7653633   5.9777586  79.9378420
  74.0466173  26.0845345  91.6576637  74.9493420  26.1168955  91.9743132
  73.8203543  25.1545796  91.6722973  75.8019775  24.8376331  88.3186716
  74.8515406  24.8378193  88.2051088  76.1052261  24.0909066  87.8022750
  71.6924092   9.0435013  98.5770077  72.5555553   8.6871818  98.7873402
  71.1189502   8.7048908  99.2645481  91.5372468  30.6736869  89.3832478
  92.1750878  30.5543617  88.6795818  91.4193311  31.6217713  89.4420430
  88.3462175  30.6264298  89.3194003  88.0080686  30.5105362  88.4314538
  89.2151943  30.2255463  89.2995009  84.2048990  32.4799774  85.3090894
  83.6413856  32.3889711  84.5407182  84.0901385  31.6599678  85.7893386
  88.8281958  31.7799149  95.2780208  88.8170599  31.3851948  94.4060712
  88.9902597  31.0465222  95.8713980  81.7513422  33.9750966  88.1475114
  82.5434714  33.6341790  87.7321414  81.9910073  34.0845941  89.0677268
  89.7848549  36.1470742  80.6205359  89.1336529  36.7324822  80.2339372
  90.5792912  36.6776937  80.6800396  83.7104176  33.2359879  81.0192493
  84.4835052  32.6888866  80.8805369  84.0629575  34.1004128  81.2306954
  85.5489219  34.5636261  94.2259392  85.2579085  35.4681892  94.1106059
  86.1846203  34.6052789  94.9403462  86.4745426  31.9413110  90.8160752
  87.0708998  31.7169132  90.1017715  86.5320397  31.1997855  91.4186200
  86.0470454  29.3952545  78.6510943  86.2995975  28.8734066  77.8894406
  85.1095013  29.2318690  78.7537627  91.0913737  28.3988323  86.4585686
  91.8776826  27.9807747  86.1076103  91.3552441  29.3034416  86.6267335
  91.2623814  33.8361174  81.1574343  90.6269647  33.9095800  81.8695248
  90.9321221  34.4254772  80.4793422  96.4922164  28.3363557  87.3618665
  97.2247336  27.7662773  87.5956494  95.7361520  27.9485157  87.8025170
  85.7666743  31.2980651  80.8535318  85.6503001  30.6225554  81.5216402
  85.8769003  30.8113025  80.0367471  88.1098284  30.7590798  84.5582007
  87.7456491  30.2321419  85.2694929  88.9665400  30.3689267  84.3848493
  94.0147584  22.0485131  91.8213273  93.6830909  22.9180542  91.5974488
  93.4193198  21.7321415  92.5007304  87.7503771  25.7880698  79.5543356
  87.9178173  26.6560934  79.9213827  87.5600940  25.9507979  78.6304645
  90.5079104  34.2497677  91.2209186  90.2079827  35.1522715  91.1124993
  90.1630163  33.9829860  92.0730339  83.9591585  30.7011473  87.2545890
  83.0342082  30.5687688  87.4623582  84.2075999  31.4805693  87.7515833
  93.9076248  26.7680217  88.9006623  92.9993125  26.6995625  88.6065384
  93.8563844  27.2452162  89.7288449  87.7292992  28.2438355  80.5390022
  87.6092617  28.6895406  81.3775503  87.0345580  28.5923673  79.9803561
  81.3200396  30.3444747  88.0889680  81.4492778  30.5979226  89.0029091
  80.6397848  30.9372455  87.7694335  85.4899884  41.0141997  84.1880154
  85.4123913  41.9649822  84.2668634  84.8861527  40.6687869  84.8455080
  87.9817114  28.1869862  96.8441521  87.2050448  28.7463783  96.8344385
  88.6207677  28.6726645  97.3656391  95.7737894  24.9696655  90.6784497
  95.1312274  25.2629188  90.0324292  95.2692823  24.8549576  91.4837694
  93.4278058  28.7159828  81.3670357  94.3395914  28.9487215  81.1918054
  92.9187705  29.2996873  80.8045435  86.2363486  30.9955316  96.4059488
  86.9778170  31.5340360  96.1294311  85.5300471  31.6221605  96.5631039
  91.7118825  33.1384456  95.0031649  92.1202182  32.6966867  94.2586281
  90.9896087  32.5637084  95.2565842  88.0649896  28.0757063  92.3765206
  88.9111091  28.4996477  92.5199855  88.0048533  27.4190687  93.0703769
  92.0347640  33.6985647  88.7583938  91.4056503  33.8631361  88.0560006
  91.6473302  34.1127256  89.5294902  95.9136872  34.6340085  86.1128302
  95.2287910  35.0138986  85.5625335  95.9980721  35.2435411  86.8460250
  91.2149341  25.7361431  94.0346380  90.9710273  26.4903492  93.4980655
  91.4909271  26.1146779  94.8693627  93.1687804  32.2800044  92.7123645
  93.3804699  32.9231804  92.0358026  93.1217552  31.4462360  92.2445575
  90.7714033  24.8917864  89.6160217  89.9098512  25.1899118  89.9076955
  90.7976467  25.1088263  88.6841250  87.5875602  33.4360055  86.0234023
  88.0513948  33.7147758  85.2338646  87.3232400  32.5343500  85.8407114
  84.4799683  32.9831536  88.9613786  85.0501040  33.4118805  88.3231271
  85.0707795  32.7014121  89.6597972  86.5244488  29.5583207  82.8323588
  87.2268531  30.0104251  83.2997515  86.1925117  28.9167026  83.4603481
  84.9724850  28.1494964  97.2074798  84.3423510  28.8311245  97.4410194
  84.8660937  28.0378046  96.2627936  80.2669822  27.8166760  88.1340722
  79.4768876  28.0724289  87.6580832  80.7581069  28.6315098  88.2392762
  94.2833632  35.1571999  90.8846003  95.1051075  34.7552186  90.6028684
  94.2796034  35.0540233  91.8362118  82.2184567  28.1811339  85.0924198
  81.4215731  28.2930033  85.6107694  81.9910160  28.5197991  84.2265089
  88.0490235  34.7056042  93.0406713  88.1134668  35.1676450  93.8764885
  87.3401159  34.0753407  93.1689023  78.5507525  28.0697250  90.5655713
  78.8015563  28.9544260  90.8313289  79.0867073  27.8901852  89.7930804
 102.3739625  31.5010748  87.2330974 101.6203333  30.9318146  87.0774979
 102.5087166  31.4673412  88.1801609  87.7638253  36.3724150  82.9085693
  87.6283927  37.2175686  83.3370541  88.3048065  36.5743428  82.1451627
  84.2505592  22.4515730  99.5700049  83.8572538  21.8981928 100.2447693
  85.0671733  22.7626308  99.9606566  81.2167650  33.8899588  83.4813619
  81.7292171  34.6842838  83.6319183  81.8690363  33.1925878  83.4147220
  83.0262535  37.0065344  85.5636372  83.2029163  37.9283309  85.3757356
  83.8219368  36.6923763  85.9930752  87.1673553  23.8673609  97.1620305
  87.9083267  24.4680762  97.0824768  87.3991476  23.1251247  96.6038348
  82.3114891  29.0529976  95.4398535  82.1968406  28.1515233  95.7405634
  81.4559409  29.2993673  95.0883351  89.3906729  36.9947716  97.0386036
  88.9470583  36.2084095  96.7206940  90.0523943  37.1826867  96.3729926
  84.1493850  38.5243518  91.5646714  84.7001275  38.3960581  90.7923708
  83.3105326  38.8238407  91.2141607  91.4887967  37.2750516  95.0667437
  91.4706442  38.0959397  94.5747706  92.4107887  37.1504592  95.2917578
  87.9461021  34.7894646  95.9090945  88.4789358  34.0282934  95.6790253
  87.4175102  34.4968298  96.6515100  91.1130716  19.8954712  91.4384587
  90.7694986  20.7856354  91.3623698  91.4809679  19.7056369  90.5754172
  79.1816567  32.2188242  84.2573189  80.0191789  32.6285251  84.0406897
  79.3594835  31.2787684  84.2273383  91.0780999  29.8863323  79.9457022
  90.5627622  30.6567928  80.1845409  90.8058307  29.2128459  80.5690083
  88.6628110  24.7313024  85.0042260  87.8069706  24.3419874  84.8247899
  89.0755062  24.8104985  84.1442046  90.1927257  22.2659367  89.4033820
  89.6892052  22.2289502  88.5901625  90.4857864  23.1752110  89.4630477
  86.4370143  22.3498097  88.4100002  87.3023139  22.1540905  88.0505891
  86.5047651  22.1208448  89.3369359  96.0515273  32.6395678  81.8810196
  95.2744716  32.3006837  81.4365358  96.7306754  32.6448301  81.2065161
  90.8667302  27.7590415  81.7716803  90.5617438  28.0736564  82.6226946
  91.8197744  27.8371835  81.8144136  89.3113734  33.9180638  83.4209757
  88.7835096  33.1833398  83.1082995  88.8101237  34.6955315  83.1749726
  94.2906580  32.1129659  88.5376803  93.6330254  32.8028920  88.6256932
  95.0946979  32.5026091  88.8810790  84.0432462  24.5800305  85.7816369
  84.6176214  24.3575486  85.0489562  84.6303444  24.6488999  86.5344970
  93.1012039  30.4674032  86.5880745  93.6143921  31.1004023  87.0902455
  93.7513263  29.8675227  86.2224105  84.3702049  26.6104766  79.8012254
  83.5339361  26.9479452  80.1221529  84.2306818  26.4753745  78.8639391
  86.3455129  21.4541554  84.5091438  85.6919542  21.1390571  83.8848053
  86.3035603  20.8317294  85.2351261  87.4566334  31.7360849  76.4244730
  86.5493396  31.5050102  76.6235879  87.9537366  30.9398468  76.6118712
  90.3634413  40.4458356  79.3441416  89.6896112  40.7490053  79.9526374
  90.7500235  41.2487436  78.9946873  89.5792870  27.9423487  88.8339086
  88.6615431  28.1638434  88.6760774  89.9953013  28.0169798  87.9750793
  90.3627917  29.3414903  83.9641766  91.1099736  29.8536300  83.6548888
  90.6319507  29.0198955  84.8246160  88.6354568  31.8373443  80.9468720
  87.7265787  31.5532476  81.0441190  88.6649651  32.2572522  80.0872027
  93.8673835  35.4480033  84.7159888  93.4136162  34.6070943  84.7725078
  93.2367802  36.0841431  85.0534668  92.8106755  26.3772019  85.9460555
  92.0729511  25.8649405  86.2770798  93.0633528  25.9372401  85.1343832
  92.3106774  37.2856530  85.6509706  92.6029749  37.8461587  84.9322072
  92.8205395  37.5785091  86.4062865  92.9118382  19.1548271  86.5402325
  93.2177259  18.2945634  86.2528240  93.6370987  19.7465891  86.3401319
  79.2042738  29.5578958  84.9283923  79.0067138  28.9648318  84.2034989
  78.6489402  29.2531168  85.6459861  87.1839462  29.4502064  87.0478516
  87.2388071  28.4975900  86.9720992  86.3730664  29.6061503  87.5319814
  88.3330655  33.3782187  78.2856799  87.8950085  32.6618046  77.8262436
  89.0741096  33.6058302  77.7241890  85.1231822  28.0679124  84.8068895
  84.3099687  28.3673294  85.2134087  85.6190816  27.6734813  85.5243377
  87.2740399  38.0636881  86.7403159  87.2316578  38.2897727  85.8111691
  88.1903098  37.8300255  86.8888960  90.7206033  28.5320948  93.6383788
  91.0755421  28.7592421  94.4978254  91.3678164  28.8639325  93.0161044
  96.4503770  31.6539384  84.3433117  96.3121669  31.8440980  83.4154307
  96.0939989  32.4158767  84.8001169  84.6145896  25.6397479  90.4230129
  85.2545276  25.4986238  89.7253093  83.7823427  25.3531993  90.0468731
  96.4773150  33.7215911  89.3544389  96.9109656  33.6291200  90.2027443
  97.1904731  33.6973412  88.7164405  85.3906200  34.9399910  86.5365122
  86.1846799  34.4450230  86.3347697  84.6797893  34.4117773  86.1732828
  90.2101045  37.3218005  90.8877490  90.2638067  37.8908942  91.6555205
  89.3415826  37.4919890  90.5231527  81.6988964  29.0842992  82.6124875
  80.7686552  29.0227447  82.8294837  81.7946436  28.5618944  81.8161516
  81.6174513  25.6097804  85.2003116  81.8781330  26.5243138  85.0912277
  82.4391685  25.1422247  85.3499729  83.0899438  27.0235562  92.3701941
  83.7622492  26.8152924  91.7214590  82.2629225  26.8257648  91.9307173
  97.3388699  33.7639612  91.8877274  97.5324589  34.6685422  92.1336549
  97.2389318  33.3047031  92.7215859  88.9925010  23.6497502  94.3867602
  88.3452925  24.3487452  94.2932078  89.7626025  24.0833646  94.7543850
  92.4003808  33.9146355  97.4618155  92.2489314  33.6856906  96.5448239
  92.3908488  34.8716956  97.4749500  89.1689144  31.4878267  92.4464421
  90.0981204  31.6389427  92.2733389  88.7480174  31.5762288  91.5913068
  87.9677476  35.5128932  90.2162959  87.8288562  35.1447716  91.0888897
  87.1792072  36.0276571  90.0446917  88.5625628  40.6138028  81.5588496
  88.7377384  40.1426071  82.3734118  87.8758416  41.2403794  81.7869756
  89.5182691  34.8910534  87.6051797  89.1832524  34.8511304  88.5009447
  89.0186637  34.2255250  87.1322207  83.4926935  30.2978164  93.1304378
  83.3546733  29.5658403  93.7315917  84.4031859  30.2087065  92.8488566
  92.4541883  32.2366569  77.8788856  91.8371054  31.5113397  77.7821909
  91.9858371  32.9975929  77.5355931  86.1209236  30.0098124  92.6188058
  86.8308855  29.3691316  92.5774676  86.0778544  30.2611019  93.5414238
  94.1096015  36.9465477  95.5394637  94.0508561  36.2624697  94.8725220
  94.5115533  37.6884467  95.0875263  84.8338170  26.9963342  94.4383697
  84.2975527  26.5454080  95.0905293  84.2454878  27.1309251  93.6954161
  83.1286713  43.7627391  88.3328356  83.3683312  44.3945915  89.0107374
  82.2855910  43.4115431  88.6193715  84.2440429  26.4551993  77.0010161
  83.3669895  26.3340794  76.6372407  84.7198182  25.6638071  76.7489049
  94.1113422  34.9105061  93.7708617  93.2240201  34.5730983  93.8935015
  94.6811973  34.1788092  94.0077382  75.7642569  31.2429153  87.0951668
  76.4513609  30.9290883  86.5072683  75.6090698  32.1470517  86.8218919
  80.5677291  26.1319349  91.5236692  80.4835480  25.5245019  90.7887102
  79.7459998  26.6228368  91.5246188  87.6414575  39.5706513  90.7369860
  87.5684747  40.3761485  91.2489164  87.1991968  39.7698479  89.9117881
  87.4304355  38.8078283  84.2472681  86.6471877  39.3499964  84.3410906
  88.1297100  39.3252263  84.6466922  90.7401005  24.6172913  86.8906887
  91.2369705  23.8642875  86.5707957  89.9687987  24.6537230  86.3250096
  98.5930762  30.3213278  88.5325178  98.5820639  31.2037994  88.1619111
  97.7248142  29.9684829  88.3379715  90.1013259  39.4693347  92.8928018
  90.8141231  40.1040812  92.8203920  89.6103288  39.5657213  92.0768020
  91.8230786  33.3744600  84.4645310  90.8887065  33.4946063  84.2950014
  92.0007454  32.4717067  84.2005320  87.3235974  26.7590296  86.6178571
  86.9533761  26.2061336  87.3059477  87.8195066  26.1548429  86.0653571
  95.2103337  29.2161919  84.9995344  95.6763789  30.0489911  84.9255647
  95.6610838  28.7506901  85.7040603  85.1525172  37.2187791  93.7133589
  85.8534632  37.8524274  93.8662983  84.6820287  37.5602522  92.9529228
  93.2779568  35.5605741  81.9981496  93.5539412  35.4462335  82.9075370
  92.4084067  35.1623226  81.9593669  93.1820000  21.5842506  89.0386246
  92.2683080  21.8146733  89.2068452  93.6113101  21.6680950  89.8900278
  92.9526458  29.7732398  91.5386140  92.2997909  30.0208306  90.8838592
  93.3306838  28.9596537  91.2048617  89.9133632  39.8092092  85.6414310
  90.0956027  38.9913747  86.1042062  90.7366618  40.0259784  85.2039200
  90.2475798  38.7360277  82.9029358  90.7763564  38.2252731  82.2899520
  90.5104017  38.4202807  83.7674891  89.0014031  30.5152209  98.0252177
  88.3254668  30.4146339  98.6954552  89.8241665  30.3591423  98.4888174
  80.7492890  36.7524146  90.6464692  81.3346327  36.0067834  90.7792596
  80.5517729  37.0628103  91.5301356  83.6031546  39.7875393  85.6627134
  82.9341921  40.2721521  85.1791174  83.4644415  40.0344614  86.5770513
  75.3410545  29.3229746  89.3669135  75.3794645  28.7893337  90.1606253
  74.8350838  28.7964952  88.7480112  87.7436814  41.8219137  92.2609793
  88.2955122  41.9850758  93.0258878  88.0843008  42.4123575  91.5889817
  82.7201307  24.1694287  92.8631677  82.7842634  25.0309118  92.4509075
  82.6568428  23.5568288  92.1304036  82.1953580  26.2417419  96.5104712
  82.8225619  25.8594497  97.1242236  81.3381499  26.0231621  96.8760404
  92.5947689  36.6480394  98.1158447  93.1387593  37.2610353  97.6213402
  92.0134533  37.2059973  98.6325460  78.9719123  28.0493848  82.4423066
  79.2672564  27.1404527  82.3890120  78.0707159  28.0281588  82.1204069
  90.8805202  39.7701112  89.2473475  90.7556341  38.9690852  88.7384420
  91.5384293  40.2647306  88.7587445  82.5013370  26.1249845  88.4250615
  81.7799956  26.7385813  88.2858088  83.2906626  26.6607610  88.3467261
  92.9440110  37.5710132  90.8753025  91.9970445  37.4515484  90.8031352
  93.2922883  36.6832631  90.9579286  85.3039683  23.4604271  94.6991267
  85.8274085  23.7066568  95.4617576  85.0852017  24.2924306  94.2794404
  80.7006964  25.7307946  82.5662392  80.3719671  24.8505325  82.3837497
  81.0546335  25.6755615  83.4538781  89.9486543  37.3662849  87.0757377
  89.8011506  36.4379556  87.2564947  90.7740037  37.3882939  86.5914452
  83.8148788  26.0180916  82.9337869  84.1544860  26.5466837  82.2116478
  84.2620908  26.3561322  83.7096436  93.5520665  38.1891407  88.1622250
  94.4767213  37.9834269  88.0246701  93.3835968  37.9407809  89.0711591
  86.5092228  24.4017967  92.3840937  86.1689049  23.6025780  92.7861617
  85.8031235  24.7019677  91.8117770  87.1608700  21.4867279  90.8368260
  87.9834769  21.0127757  90.7147151  87.4046764  22.2657763  91.3366947
  85.8016935  24.5155537  81.1331162  86.5225297  24.8936790  80.6294879
  85.1782239  25.2344414  81.2366140  89.9448058  25.2200686  82.0689494
  90.1611672  26.1025324  81.7678322  89.4642125  24.8286900  81.3395136
  84.6847279  28.1786400  88.6460239  84.5391860  28.4926703  89.5384520
  84.2072483  28.7971300  88.0931138  86.5443662  25.1688948  88.6941128
  86.5305231  24.2730041  88.3573426  87.2616090  25.1759611  89.3279415
  88.3969793  25.6026288  90.7394256  88.1387570  26.5243358  90.7378586
  87.8654833  25.2056722  91.4294720  93.3415981  38.7077075  83.5184341
  93.5152859  38.1423497  82.7658194  93.8344873  39.5077970  83.3363831
  79.1592941  30.7191744  91.5847900  78.6146409  31.4951552  91.7168174
  80.0372291  31.0662548  91.4267022  85.9480558  24.0503328  83.9628699
  86.0696469  23.1219974  84.1619586  85.6582600  24.0642014  83.0507014
  88.8171748  21.7358238  87.0995418  88.8393445  21.7997571  86.1447398
  89.2339807  20.8962747  87.2935925  99.1955372  31.4713498  85.1374641
  99.6386518  30.7220823  84.7393764  98.3181883  31.4623634  84.7548373
  94.3291154  38.0243839  80.6181240  95.0242058  38.6450532  80.8368554
  94.6714304  37.1739191  80.8933617  79.9458963  29.8461640  94.4778057
  79.2040699  29.9944276  95.0642687  79.6251707  30.1069906  93.6144806
  96.2282577  35.4743545  82.1468570  96.7533901  35.8130818  81.4217890
  96.1404929  34.5390560  81.9631705  87.8902626  39.3877618  94.2758447
  88.1989752  39.1426765  95.1481147  88.6878108  39.5924257  93.7877317
  87.9123238  41.5415528  86.5063824  87.4728228  41.0491907  87.1996680
  88.6631355  40.9988496  86.2655899  80.3915577  37.7327069  86.5088452
  81.2173597  37.4330841  86.1287095  80.0409629  36.9634691  86.9578240
  85.3597110  37.0853537  88.5786125  84.7377119  36.4224242  88.2788353
  86.0301977  37.1114669  87.8959773  78.5924182  35.6513395  87.4677385
  77.7556090  35.2235570  87.2861386  78.5647827  35.8445839  88.4048176
  85.4321637  25.5635325  98.1718631  85.4809793  26.4397448  97.7896401
  85.9744151  25.0212718  97.5990274  95.9176483  36.1076448  97.4519768
  95.1272027  36.0900587  96.9124268  95.6809838  36.6464742  98.2068805
  96.0374358  32.9568915  94.7652497  96.0872363  32.7918922  95.7068020
  95.9288281  32.0896174  94.3750378  84.9210617  35.6357461  82.0544586
  85.0698737  36.3192925  81.4011258  85.7277060  35.6162551  82.5694041
  93.3278120  28.9399843  96.0811804  94.2287983  28.8006308  95.7895801
  93.4026095  29.1054298  97.0209981  87.6620926  26.3166698  94.9264990
  86.7924235  26.6100264  94.6547578  87.8980406  26.9007143  95.6472254
  97.5392555  35.3765856  95.0094518  97.2477363  35.7395837  95.8457979
  96.9264686  34.6632865  94.8307850  98.7388237  32.9418736  87.5297089
  99.5735129  33.3808540  87.6934649  98.8747366  32.4657389  86.7105334
  95.7879743  30.4998471  93.4774576  96.2633865  30.6926117  92.6693428
  94.8645308  30.5557657  93.2317960  82.6763250  31.6622638  83.0605655
  82.4309292  30.7584968  83.2585865  82.8459164  31.6639789  82.1185133
  90.3659960  22.5346315  92.4430410  90.8841903  23.2707341  92.1176899
  90.0115092  22.8410308  93.2777169  81.9458897  27.3950996  80.5591816
  81.2528142  27.4695351  79.9031852  81.7010649  26.6311339  81.0813333
  90.6172554  18.9546597  87.9631307  90.8974308  18.2869786  88.5891733
  91.4023161  19.1475693  87.4505971  88.4206022  38.1305591  79.5256333
  87.8479989  38.7495778  79.0726805  88.9938816  38.6804953  80.0596255
  94.4881412  27.3764231  91.7102882  95.4398835  27.4762329  91.7315106
  94.3184862  26.5842500  92.2200966  92.5095792  24.4619814  91.8962283
  91.9145724  24.7424827  91.2008772  92.2245488  24.9513715  92.6679024
  91.6403282  38.4142741  80.6564915  92.5733955  38.3488303  80.8597791
  91.5526495  39.2499008  80.1979448  94.2691299  37.7308611  77.6168863
  94.1904930  37.3968475  78.5104621  95.0900965  38.2230379  77.6160335
  96.9669490  30.5970351  90.8245182  96.9345810  29.6586351  91.0104865
  97.5770114  30.6754387  90.0911007  88.8052821  29.4666404  76.8672386
  89.7511925  29.3372612  76.9360804  88.4267066  28.7281066  77.3441814
  97.1163978  27.3881394  90.8703465  96.6003027  26.6039851  90.6833394
  98.0003927  27.0600111  91.0349984  94.7774705  21.1322410  86.8299277
  94.5799526  20.8237498  87.7142609  95.3874411  21.8584049  86.9597207
 102.7846040  31.6586358  89.9651218 103.5149428  31.3971646  90.5258922
 102.1752985  30.9215080  90.0053286 100.8661337  29.7994220  90.5625670
 100.1394500  29.6650185  89.9542161 100.4508624  30.1071049  91.3682388
  88.6891513  33.5184150  98.3273043  89.6094523  33.6962749  98.5213089
  88.6541096  32.5740195  98.1752742  86.9895738  27.3916380  76.8027271
  86.0827193  27.0949493  76.8789984  87.2671719  27.0946198  75.9361557
  77.9073678  28.7122744  87.2526317  77.5876463  27.8588052  86.9600691
  77.3607106  28.9271322  88.0084285  81.6853586  31.4285185  90.9695824
  81.9039596  32.3602292  90.9883858  82.0979360  31.0693159  91.7550628
  88.6057804  21.9353270  82.9571512  87.7958532  21.5900355  83.3326758
  89.2942221  21.6260814  83.5459124  90.5348352  21.0131317  84.5795809
  91.0879391  21.4326770  85.2385832  90.7718438  20.0867065  84.6218765
  86.5581451  27.0018390 100.3598573  86.4578178  27.9512747 100.2910664
  86.3402993  26.6736629  99.4874643  85.7594523  24.2503315  76.9439250
  86.6213687  24.5758214  77.2035067  85.9444867  23.4634811  76.4312316
  77.7761938  32.3325655  89.2219439  77.0825410  31.9179608  88.7089393
  78.5234929  32.3746192  88.6252858  93.9127159  23.1231842  84.0874473
  93.3325828  23.7816646  83.7052525  93.6463092  22.3009186  83.6761891
  92.3630725  22.5236900  86.2895793  92.8630504  22.6353434  85.4810112
  93.0066333  22.2197952  86.9296602  86.4212721  30.4315529  99.1763634
  85.9379803  31.2315889  99.3827523  86.5073660  30.4423474  98.2231078
  79.6898681  32.2643909  87.0985454  79.6669369  32.3631596  86.1467337
  79.9999317  33.1109060  87.4202620  82.3486059  34.3220064  91.2132068
  83.3029312  34.2904006  91.1462000  82.1498582  33.8610688  92.0282294
  82.9385441  32.8921180  93.7802866  83.7578330  33.3865259  93.8037703
  83.2122249  31.9753148  93.7520433  92.6952037  25.2831932  83.1430821
  91.8077892  25.5681583  82.9251016  93.1106026  25.1225696  82.2958098
  96.0466573  25.3078453  86.8585161  96.8226963  25.7974906  87.1309777
  95.3214707  25.7336507  87.3157030  98.4839132  26.0206072  87.9159101
  99.0783623  25.7801808  87.2052409  98.5565715  25.3013203  88.5432638
  80.7036287  39.8639683  88.2302266  80.5690755  39.1040084  87.6640264
  80.2868350  40.5880583  87.7631055  91.8395250  35.0476607  77.2378841
  92.5431101  35.2526609  77.8536497  91.1157899  35.6153369  77.5027925
  92.6693061  30.7986468  83.3581112  92.6128262  31.2555020  82.5188744
  93.2221403  30.0377153  83.1803954  96.4797867  26.5876200  84.1831231
  96.2234801  26.1872836  85.0139439  95.8550735  27.3019994  84.0581370
 100.7910205  29.3272273  86.6902522 100.2309762  29.3965463  87.4634084
 100.1853708  29.1513258  85.9702019  83.8605413  40.7609000  88.4420709
  83.7437797  41.7054433  88.3399399  83.0397860  40.4582562  88.8306508
  93.7481948  35.4859136  79.2877301  94.5827552  35.0540335  79.1054776
  93.5866291  35.3141150  80.2154196  93.4027840  31.9891249  80.6533641
  93.3476644  31.8235521  79.7122085  92.7773895  32.6967282  80.8095830
  78.1920355  27.2259314  94.4795063  78.8379219  26.7158268  94.9682288
  77.9837506  27.9627995  95.0538488  90.7173747  34.2940161  99.9787203
  91.5864907  34.4680814  99.6173838  90.2380499  35.1134578  99.8562933
  86.7123966  21.4899358  80.2318959  86.7002635  22.4341198  80.3887230
  87.6047387  21.3069504  79.9378420  84.8859927  41.4137262  91.6576637
  85.7887174  41.4460873  91.9743132  84.6597298  40.4837713  91.6722973
  86.6413529  40.1668249  88.3186716  85.6909160  40.1670110  88.2051088
  86.9446016  39.4200983  87.8022750  90.5276085  18.0842135  84.4864896
  89.7608481  17.5300622  84.6321578  90.9386790  18.1564004  85.3479048
  82.5317846  24.3726931  98.5770077  83.3949308  24.0163736  98.7873402
  81.9583257  24.0340826  99.2645481 102.3766223  46.0028787  89.3832478
 103.0144633  45.8835535  88.6795818 102.2587066  46.9509631  89.4420430
  99.1855929  45.9556215  89.3194003  98.8474441  45.8397280  88.4314538
 100.0545697  45.5547380  89.2995009  95.0442745  47.8091692  85.3090894
  94.4807610  47.7181629  84.5407182  94.9295140  46.9891596  85.7893386
  99.6675712  47.1091067  95.2780208  99.6564353  46.7143865  94.4060712
  99.8296352  46.3757140  95.8713980  92.5907177  49.3042883  88.1475114
  93.3828469  48.9633708  87.7321414  92.8303827  49.4137858  89.0677268
 100.6242304  51.4762659  80.6205359  99.9730283  52.0616740  80.2339372
 101.4186666  52.0068854  80.6800396  94.5497931  48.5651797  81.0192493
  95.3228807  48.0180784  80.8805369  94.9023330  49.4296046  81.2306954
  96.3882973  49.8928179  94.2259392  96.0972839  50.7973810  94.1106059
  97.0239958  49.9344706  94.9403462  97.3139180  47.2705027  90.8160752
  97.9102752  47.0461050  90.1017715  97.3714152  46.5289773  91.4186200
  96.8864209  44.7244463  78.6510943  97.1389729  44.2025984  77.8894406
  95.9488768  44.5610608  78.7537627 101.9307491  43.7280241  86.4585686
 102.7170581  43.3099664  86.1076103 102.1946196  44.6326333  86.6267335
 102.1017569  49.1653091  81.1574343 101.4663402  49.2387718  81.8695248
 101.7714975  49.7546690  80.4793422 107.3315919  43.6655474  87.3618665
 108.0641091  43.0954691  87.5956494 106.5755274  43.2777075  87.8025170
  96.6060497  46.6272569  80.8535318  96.4896755  45.9517472  81.5216402
  96.7162757  46.1404943  80.0367471  98.9492038  46.0882716  84.5582007
  98.5850246  45.5613337  85.2694929  99.8059154  45.6981185  84.3848493
 104.8541339  37.3777048  91.8213273 104.5224664  38.2472459  91.5974488
 104.2586952  37.0613332  92.5007304  98.5897525  41.1172615  79.5543356
  98.7571928  41.9852852  79.9213827  98.3994694  41.2799897  78.6304645
 101.3472858  49.5789594  91.2209186 101.0473582  50.4814633  91.1124993
 101.0023918  49.3121778  92.0730339  94.7985340  46.0303391  87.2545890
  93.8735836  45.8979605  87.4623582  95.0469753  46.8097610  87.7515833
 104.7470002  42.0972135  88.9006623 103.8386880  42.0287543  88.6065384
 104.6957598  42.5744079  89.7288449  98.5686746  43.5730273  80.5390022
  98.4486371  44.0187324  81.3775503  97.8739335  43.9215591  79.9803561
  92.1594151  45.6736665  88.0889680  92.2886532  45.9271144  89.0029091
  91.4791602  46.2664373  87.7694335  96.3293638  56.3433915  84.1880154
  96.2517668  57.2941740  84.2668634  95.7255282  55.9979787  84.8455080
  98.8210868  43.5161780  96.8441521  98.0444202  44.0755700  96.8344385
  99.4601431  44.0018563  97.3656391 106.6131649  40.2988573  90.6784497
 105.9706029  40.5921106  90.0324292 106.1086577  40.1841493  91.4837694
 104.2671812  44.0451746  81.3670357 105.1789668  44.2779133  81.1918054
 103.7581459  44.6288790  80.8045435  97.0757240  46.3247233  96.4059488
  97.8171925  46.8632277  96.1294311  96.3694226  46.9513522  96.5631039
 102.5512580  48.4676374  95.0031649 102.9595936  48.0258784  94.2586281
 101.8289841  47.8929001  95.2565842  98.9043650  43.4048981  92.3765206
  99.7504845  43.8288394  92.5199855  98.8442288  42.7482605  93.0703769
 102.8741395  49.0277565  88.7583938 102.2450257  49.1923279  88.0560006
 102.4867057  49.4419174  89.5294902 106.7530627  49.9632002  86.1128302
 106.0681665  50.3430904  85.5625335 106.8374476  50.5727329  86.8460250
 102.0543095  41.0653349  94.0346380 101.8104027  41.8195410  93.4980655
 102.3303026  41.4438697  94.8693627 104.0081558  47.6091961  92.7123645
 104.2198453  48.2523721  92.0358026 103.9611306  46.7754278  92.2445575
 101.6107787  40.2209782  89.6160217 100.7492266  40.5191036  89.9076955
 101.6370222  40.4380181  88.6841250  98.4269356  48.7651973  86.0234023
  98.8907702  49.0439676  85.2338646  98.1626155  47.8635417  85.8407114
  95.3193438  48.3123454  88.9613786  95.8894795  48.7410723  88.3231271
  95.9101549  48.0306039  89.6597972  97.3638243  44.8875125  82.8323588
  98.0662286  45.3396169  83.2997515  97.0318871  44.2458944  83.4603481
  95.8118604  43.4786882  97.2074798  95.1817265  44.1603162  97.4410194
  95.7054692  43.3669963  96.2627936  91.1063577  43.1458678  88.1340722
  90.3162630  43.4016206  87.6580832  91.5974824  43.9607016  88.2392762
 105.1227386  50.4863917  90.8846003 105.9444830  50.0844104  90.6028684
 105.1189789  50.3832151  91.8362118  93.0578322  43.5103257  85.0924198
  92.2609485  43.6221951  85.6107694  92.8303914  43.8489909  84.2265089
  98.8883990  50.0347960  93.0406713  98.9528422  50.4968367  93.8764885
  98.1794913  49.4045325  93.1689023  89.3901279  43.3989168  90.5655713
  89.6409318  44.2836178  90.8313289  89.9260828  43.2193770  89.7930804
 113.2133379  46.8302665  87.2330974 112.4597088  46.2610063  87.0774979
 113.3480920  46.7965330  88.1801609  98.6032007  51.7016068  82.9085693
  98.4677682  52.5467603  83.3370541  99.1441820  51.9035345  82.1451627
  95.0899347  37.7807647  99.5700049  94.6966292  37.2273846 100.2447693
  95.9065487  38.0918226  99.9606566  92.0561405  49.2191506  83.4813619
  92.5685925  50.0134756  83.6319183  92.7084117  48.5217796  83.4147220
  93.8656289  52.3357262  85.5636372  94.0422918  53.2575227  85.3757356
  94.6613123  52.0215681  85.9930752  98.0067308  39.1965527  97.1620305
  98.7477021  39.7972680  97.0824768  98.2385231  38.4543164  96.6038348
  93.1508646  44.3821894  95.4398535  93.0362161  43.4807151  95.7405634
  92.2953164  44.6285591  95.0883351 100.2300484  52.3239634  97.0386036
  99.7864338  51.5376013  96.7206940 100.8917697  52.5118785  96.3729926
  94.9887605  53.8535436  91.5646714  95.5395030  53.7252499  90.7923708
  94.1499081  54.1530325  91.2141607 102.3281722  52.6042434  95.0667437
 102.3100197  53.4251315  94.5747706 103.2501642  52.4796509  95.2917578
  98.7854776  50.1186564  95.9090945  99.3183113  49.3574852  95.6790253
  98.2568857  49.8260215  96.6515100 101.9524471  35.2246630  91.4384587
 101.6088740  36.1148271  91.3623698 102.3203433  35.0348287  90.5754172
  90.0210321  47.5480160  84.2573189  90.8585543  47.9577168  84.0406897
  90.1988589  46.6079602  84.2273383 101.9174753  45.2155241  79.9457022
 101.4021377  45.9859845  80.1845409 101.6452062  44.5420377  80.5690083
  99.5021864  40.0604941  85.0042260  98.6463461  39.6711792  84.8247899
  99.9148816  40.1396902  84.1442046 101.0321011  37.5951285  89.4033820
 100.5285807  37.5581420  88.5901625 101.3251618  38.5044027  89.4630477
  97.2763897  37.6790014  88.4100002  98.1416894  37.4832823  88.0505891
  97.3441406  37.4500366  89.3369359 106.8909028  47.9687595  81.8810196
 106.1138470  47.6298755  81.4365358 107.5700509  47.9740218  81.2065161
 101.7061057  43.0882333  81.7716803 101.4011192  43.4028482  82.6226946
 102.6591499  43.1663753  81.8144136 100.1507488  49.2472556  83.4209757
  99.6228850  48.5125316  83.1082995  99.6494991  50.0247232  83.1749726
 105.1300335  47.4421577  88.5376803 104.4724009  48.1320838  88.6256932
 105.9340734  47.8318008  88.8810790  94.8826216  39.9092222  85.7816369
  95.4569968  39.6867404  85.0489562  95.4697199  39.9780917  86.5344970
 103.9405793  45.7965949  86.5880745 104.4537675  46.4295941  87.0902455
 104.5907017  45.1967145  86.2224105  95.2095803  41.9396683  79.8012254
  94.3733115  42.2771370  80.1221529  95.0700573  41.8045663  78.8639391
  97.1848884  36.7833471  84.5091438  96.5313296  36.4682488  83.8848053
  97.1429358  36.1609212  85.2351261  98.2960089  47.0652766  76.4244730
  97.3887150  46.8342020  76.6235879  98.7931121  46.2690386  76.6118712
 101.2028168  55.7750273  79.3441416 100.5289866  56.0781970  79.9526374
 101.5893990  56.5779354  78.9946873 100.4186624  43.2715405  88.8339086
  99.5009186  43.4930352  88.6760774 100.8346768  43.3461715  87.9750793
 101.2021672  44.6706820  83.9641766 101.9493491  45.1828218  83.6548888
 101.4713261  44.3490873  84.8246160  99.4748322  47.1665361  80.9468720
  98.5659541  46.8824394  81.0441190  99.5043406  47.5864440  80.0872027
 104.7067590  50.7771951  84.7159888 104.2529917  49.9362861  84.7725078
 104.0761556  51.4133349  85.0534668 103.6500509  41.7063937  85.9460555
 102.9123266  41.1941323  86.2770798 103.9027283  41.2664318  85.1343832
 103.1500529  52.6148447  85.6509706 103.4423503  53.1753504  84.9322072
 103.6599149  52.9077008  86.4062865 103.7512136  34.4840189  86.5402325
 104.0571013  33.6237552  86.2528240 104.4764741  35.0757809  86.3401319
  90.0436492  44.8870875  84.9283923  89.8460892  44.2940236  84.2034989
  89.4883156  44.5823085  85.6459861  98.0233216  44.7793982  87.0478516
  98.0781826  43.8267818  86.9720992  97.2124418  44.9353421  87.5319814
  99.1724410  48.7074105  78.2856799  98.7343840  47.9909964  77.8262436
  99.9134851  48.9350220  77.7241890  95.9625576  43.3971041  84.8068895
  95.1493442  43.6965212  85.2134087  96.4584570  43.0026730  85.5243377
  98.1134154  53.3928798  86.7403159  98.0710333  53.6189645  85.8111691
  99.0296853  53.1592173  86.8888960 101.5599788  43.8612866  93.6383788
 101.9149175  44.0884339  94.4978254 102.2071919  44.1931243  93.0161044
 107.2897525  46.9831302  84.3433117 107.1515423  47.1732898  83.4154307
 106.9333743  47.7450685  84.8001169  95.4539651  40.9689397  90.4230129
  96.0939030  40.8278156  89.7253093  94.6217181  40.6823910  90.0468731
 107.3166904  49.0507829  89.3544389 107.7503411  48.9583118  90.2027443
 108.0298485  49.0265329  88.7164405  96.2299955  50.2691827  86.5365122
  97.0240553  49.7742148  86.3347697  95.5191647  49.7409691  86.1732828
 101.0494799  52.6509923  90.8877490 101.1031821  53.2200859  91.6555205
 100.1809581  52.8211808  90.5231527  92.5382718  44.4134909  82.6124875
  91.6080306  44.3519365  82.8294837  92.6340190  43.8910862  81.8161516
  92.4568267  40.9389722  85.2003116  92.7175085  41.8535055  85.0912277
  93.2785440  40.4714165  85.3499729  93.9293193  42.3527479  92.3701941
  94.6016246  42.1444841  91.7214590  93.1022979  42.1549565  91.9307173
 108.1782454  49.0931530  91.8877274 108.3718344  49.9977340  92.1336549
 108.0783072  48.6338949  92.7215859  99.8318765  38.9789420  94.3867602
  99.1846680  39.6779370  94.2932078 100.6019780  39.4125564  94.7543850
 103.2397563  49.2438272  97.4618155 103.0883069  49.0148824  96.5448239
 103.2302242  50.2008874  97.4749500 100.0082899  46.8170185  92.4464421
 100.9374959  46.9681345  92.2733389  99.5873929  46.9054206  91.5913068
  98.8071231  50.8420849  90.2162959  98.6682316  50.4739634  91.0888897
  98.0185827  51.3568489  90.0446917  99.4019383  55.9429946  81.5588496
  99.5771138  55.4717989  82.3734118  98.7152171  56.5695712  81.7869756
 100.3576446  50.2202452  87.6051797 100.0226278  50.1803222  88.5009447
  99.8580392  49.5547168  87.1322207  94.3320690  45.6270082  93.1304378
  94.1940488  44.8950321  93.7315917  95.2425613  45.5378982  92.8488566
 103.2935638  47.5658486  77.8788856 102.6764808  46.8405315  77.7821909
 102.8252126  48.3267847  77.5355931  96.9602990  45.3390041  92.6188058
  97.6702609  44.6983234  92.5774676  96.9172299  45.5902936  93.5414238
 104.9489769  52.2757395  95.5394637 104.8902315  51.5916615  94.8725220
 105.3509288  53.0176385  95.0875263  95.6731924  42.3255259  94.4383697
  95.1369281  41.8745998  95.0905293  95.0848633  42.4601168  93.6954161
  93.9680468  59.0919309  88.3328356  94.2077066  59.7237833  89.0107374
  93.1249664  58.7407349  88.6193715  95.0834183  41.7843911  77.0010161
  94.2063650  41.6632712  76.6372407  95.5591936  40.9929989  76.7489049
 104.9507176  50.2396979  93.7708617 104.0633955  49.9022901  93.8935015
 105.5205728  49.5080010  94.0077382  86.6036324  46.5721070  87.0951668
  87.2907363  46.2582801  86.5072683  86.4484452  47.4762435  86.8218919
  91.4071046  41.4611267  91.5236692  91.3229234  40.8536937  90.7887102
  90.5853752  41.9520285  91.5246188  98.4808330  54.8998431  90.7369860
  98.4078501  55.7053403  91.2489164  98.0385723  55.0990397  89.9117881
  98.2698109  54.1370201  84.2472681  97.4865631  54.6791881  84.3410906
  98.9690855  54.6544181  84.6466922 101.5794760  39.9464831  86.8906887
 102.0763459  39.1934793  86.5707957 100.8081741  39.9829147  86.3250096
 109.4324517  45.6505196  88.5325178 109.4214393  46.5329912  88.1619111
 108.5641896  45.2976747  88.3379715 100.9407013  54.7985265  92.8928018
 101.6534986  55.4332730  92.8203920 100.4497042  54.8949131  92.0768020
 102.6624540  48.7036518  84.4645310 101.7280819  48.8237980  84.2950014
 102.8401209  47.8008985  84.2005320  98.1629728  42.0882214  86.6178571
  97.7927516  41.5353254  87.3059477  98.6588821  41.4840347  86.0653571
 106.0497092  44.5453837  84.9995344 106.5157544  45.3781829  84.9255647
 106.5004592  44.0798819  85.7040603  95.9918927  52.5479709  93.7133589
  96.6928386  53.1816192  93.8662983  95.5214042  52.8894440  92.9529228
 104.1173323  50.8897658  81.9981496 104.3933167  50.7754253  82.9075370
 103.2477821  50.4915143  81.9593669 104.0213754  36.9134424  89.0386246
 103.1076834  37.1438651  89.2068452 104.4506856  36.9972868  89.8900278
 103.7920213  45.1024316  91.5386140 103.1391663  45.3500223  90.8838592
 104.1700593  44.2888454  91.2048617 100.7527387  55.1384009  85.6414310
 100.9349781  54.3205665  86.1042062 101.5760373  55.3551701  85.2039200
 101.0869552  54.0652194  82.9029358 101.6157319  53.5544649  82.2899520
 101.3497772  53.7494725  83.7674891  99.8407786  45.8444127  98.0252177
  99.1648423  45.7438256  98.6954552 100.6635420  45.6883341  98.4888174
  91.5886645  52.0816064  90.6464692  92.1740082  51.3359752  90.7792596
  91.3911483  52.3920020  91.5301356  94.4425300  55.1167311  85.6627134
  93.7735675  55.6013439  85.1791174  94.3038170  55.3636531  86.5770513
  86.1804300  44.6521664  89.3669135  86.2188399  44.1185255  90.1606253
  85.6744593  44.1256869  88.7480112  98.5830569  57.1511055  92.2609793
  99.1348877  57.3142676  93.0258878  98.9236762  57.7415492  91.5889817
  93.5595062  39.4986204  92.8631677  93.6236388  40.3601035  92.4509075
  93.4962182  38.8860206  92.1304036  93.0347335  41.5709337  96.5104712
  93.6619373  41.1886414  97.1242236  92.1775253  41.3523539  96.8760404
 103.4341443  51.9772312  98.1158447 103.9781347  52.5902270  97.6213402
 102.8528288  52.5351890  98.6325460  89.8112877  43.3785766  82.4423066
  90.1066318  42.4696444  82.3890120  88.9100913  43.3573505  82.1204069
 101.7198956  55.0993030  89.2473475 101.5950095  54.2982770  88.7384420
 102.3778047  55.5939223  88.7587445  93.3407124  41.4541763  88.4250615
  92.6193710  42.0677730  88.2858088  94.1300380  41.9899527  88.3467261
 103.7833864  52.9002050  90.8753025 102.8364200  52.7807401  90.8031352
 104.1316638  52.0124548  90.9579286  96.1433438  38.7896189  94.6991267
  96.6667840  39.0358486  95.4617576  95.9245771  39.6216224  94.2794404
  91.5400719  41.0599864  82.5662392  91.2113425  40.1797243  82.3837497
  91.8940090  41.0047532  83.4538781 100.7880298  52.6954766  87.0757377
 100.6405260  51.7671474  87.2564947 101.6133791  52.7174857  86.5914452
  94.6542542  41.3472833  82.9337869  94.9938615  41.8758755  82.2116478
  95.1014662  41.6853240  83.7096436 104.3914420  53.5183325  88.1622250
 105.3160967  53.3126186  88.0246701 104.2229723  53.2699726  89.0711591
  97.3485983  39.7309884  92.3840937  97.0082803  38.9317697  92.7861617
  96.6424989  40.0311595  91.8117770  98.0002455  36.8159197  90.8368260
  98.8228524  36.3419675  90.7147151  98.2440518  37.5949680  91.3366947
  96.6410689  39.8447455  81.1331162  97.3619052  40.2228708  80.6294879
  96.0175993  40.5636332  81.2366140 100.7841812  40.5492604  82.0689494
 101.0005426  41.4317242  81.7678322 100.3035879  40.1578817  81.3395136
  95.5241033  43.5078317  88.6460239  95.3785614  43.8218620  89.5384520
  95.0466237  44.1263218  88.0931138  97.3837416  40.4980865  88.6941128
  97.3698985  39.6021959  88.3573426  98.1009844  40.5051529  89.3279415
  99.2363547  40.9318205  90.7394256  98.9781325  41.8535276  90.7378586
  98.7048587  40.5348640  91.4294720 104.1809736  54.0368993  83.5184341
 104.3546613  53.4715415  82.7658194 104.6738627  54.8369887  83.3363831
  89.9986696  46.0483662  91.5847900  89.4540164  46.8243470  91.7168174
  90.8766045  46.3954466  91.4267022  96.7874312  39.3795246  83.9628699
  96.9090223  38.4511892  84.1619586  96.4976355  39.3933931  83.0507014
  99.6565503  37.0650156  87.0995418  99.6787199  37.1289489  86.1447398
 100.0733562  36.2254665  87.2935925 110.0349127  46.8005416  85.1374641
 110.4780273  46.0512741  84.7393764 109.1575637  46.7915552  84.7548373
 105.1684908  53.3535757  80.6181240 105.8635813  53.9742450  80.8368554
 105.5108058  52.5031108  80.8933617  90.7852717  45.1753558  94.4778057
  90.0434453  45.3236193  95.0642687  90.4645462  45.4361824  93.6144806
 107.0676331  50.8035463  82.1468570 107.5927655  51.1422735  81.4217890
 106.9798684  49.8682478  81.9631705  98.7296380  54.7169536  94.2758447
  99.0383507  54.4718683  95.1481147  99.5271862  54.9216175  93.7877317
  98.7516992  56.8707446  86.5063824  98.3121982  56.3783824  87.1996680
  99.5025109  56.3280413  86.2655899  91.2309331  53.0618987  86.5088452
  92.0567351  52.7622759  86.1287095  90.8803383  52.2926609  86.9578240
  96.1990864  52.4145455  88.5786125  95.5770874  51.7516160  88.2788353
  96.8695731  52.4406587  87.8959773  89.4317936  50.9805313  87.4677385
  88.5949844  50.5527487  87.2861386  89.4041582  51.1737756  88.4048176
  96.2715392  40.8927243  98.1718631  96.3203547  41.7689366  97.7896401
  96.8137906  40.3504636  97.5990274 106.7570237  51.4368366  97.4519768
 105.9665781  51.4192505  96.9124268 106.5203592  51.9756660  98.2068805
 106.8768112  48.2860833  94.7652497 106.9266117  48.1210840  95.7068020
 106.7682036  47.4188092  94.3750378  95.7604371  50.9649378  82.0544586
  95.9092492  51.6484843  81.4011258  96.5670815  50.9454468  82.5694041
 104.1671875  44.2691761  96.0811804 105.0681738  44.1298225  95.7895801
 104.2419849  44.4346215  97.0209981  98.5014680  41.6458615  94.9264990
  97.6317990  41.9392181  94.6547578  98.7374161  42.2299060  95.6472254
 108.3786309  50.7057774  95.0094518 108.0871118  51.0687755  95.8457979
 107.7658441  49.9924782  94.8307850 109.5781992  48.2710654  87.5297089
 110.4128883  48.7100458  87.6934649 109.7141120  47.7949307  86.7105334
 106.6273498  45.8290389  93.4774576 107.1027619  46.0218035  92.6693428
 105.7039063  45.8849574  93.2317960  93.5157004  46.9914556  83.0605655
  93.2703046  46.0876886  83.2585865  93.6852919  46.9931706  82.1185133
 101.2053714  37.8638232  92.4430410 101.7235658  38.5999259  92.1176899
 100.8508847  38.1702226  93.2777169  92.7852652  42.7242913  80.5591816
  92.0921897  42.7987268  79.9031852  92.5404404  41.9603257  81.0813333
 101.4566308  34.2838515  87.9631307 101.7368062  33.6161704  88.5891733
 102.2416915  34.4767610  87.4505971  99.2599777  53.4597509  79.5256333
  98.6873744  54.0787696  79.0726805  99.8332570  54.0096870  80.0596255
 105.3275167  42.7056149  91.7102882 106.2792589  42.8054246  91.7315106
 105.1578617  41.9134417  92.2200966 103.3489546  39.7911732  91.8962283
 102.7539478  40.0716745  91.2008772 103.0639243  40.2805633  92.6679024
 102.4797037  53.7434659  80.6564915 103.4127710  53.6780220  80.8597791
 102.3920249  54.5790926  80.1979448 105.1085053  53.0600529  77.6168863
 105.0298685  52.7260393  78.5104621 105.9294720  53.5522297  77.6160335
 107.8063244  45.9262268  90.8245182 107.7739564  44.9878269  91.0104865
 108.4163868  46.0046305  90.0911007  99.6446575  44.7958321  76.8672386
 100.5905680  44.6664530  76.9360804  99.2660820  44.0572983  77.3441814
 107.9557733  42.7173312  90.8703465 107.4396781  41.9331769  90.6833394
 108.8397681  42.3892028  91.0349984 105.6168460  36.4614327  86.8299277
 105.4193281  36.1529416  87.7142609 106.2268165  37.1875966  86.9597207
 113.6239794  46.9878275  89.9651218 114.3543183  46.7263563  90.5258922
 113.0146740  46.2506997  90.0053286 111.7055091  45.1286138  90.5625670
 110.9788255  44.9942103  89.9542161 111.2902378  45.4362966  91.3682388
  99.5285268  48.8476068  98.3273043 100.4488277  49.0254667  98.5213089
  99.4934851  47.9032113  98.1752742  97.8289492  42.7208298  76.8027271
  96.9220948  42.4241411  76.8789984  98.1065473  42.4238116  75.9361557
  88.7467433  44.0414661  87.2526317  88.4270217  43.1879969  86.9600691
  88.2000861  44.2563239  88.0084285  92.5247340  46.7577102  90.9695824
  92.7433350  47.6894210  90.9883858  92.9373114  46.3985077  91.7550628
  99.4451558  37.2645188  82.9571512  98.6352286  36.9192272  83.3326758
 100.1335975  36.9552731  83.5459124 101.3742106  36.3423234  84.5795809
 101.9273145  36.7618688  85.2385832 101.6112193  35.4158982  84.6218765
  97.3975206  42.3310308 100.3598573  97.2971933  43.2804665 100.2910664
  97.1796748  42.0028547  99.4874643  96.5988277  39.5795233  76.9439250
  97.4607441  39.9050131  77.2035067  96.7838621  38.7926729  76.4312316
  88.6155693  47.6617573  89.2219439  87.9219164  47.2471525  88.7089393
  89.3628684  47.7038109  88.6252858 104.7520913  38.4523759  84.0874473
 104.1719583  39.1108564  83.7052525 104.4856846  37.6301104  83.6761891
 103.2024480  37.8528817  86.2895793 103.7024258  37.9645352  85.4810112
 103.8460088  37.5489870  86.9296602  97.2606476  45.7607447  99.1763634
  96.7773557  46.5607807  99.3827523  97.3467415  45.7715392  98.2231078
  90.5292435  47.5935826  87.0985454  90.5063123  47.6923514  86.1467337
  90.8393072  48.4400977  87.4202620  93.1879813  49.6511982  91.2132068
  94.1423067  49.6195924  91.1462000  92.9892337  49.1902605  92.0282294
  93.7779195  48.2213098  93.7802866  94.5972084  48.7157176  93.8037703
  94.0516003  47.3045066  93.7520433 103.5345791  40.6123850  83.1430821
 102.6471647  40.8973500  82.9251016 103.9499781  40.4517613  82.2958098
 106.8860328  40.6370371  86.8585161 107.6620718  41.1266823  87.1309777
 106.1608462  41.0628425  87.3157030 109.3232886  41.3497990  87.9159101
 109.9177377  41.1093726  87.2052409 109.3959470  40.6305121  88.5432638
  91.5430042  55.1931601  88.2302266  91.4084510  54.4332002  87.6640264
  91.1262104  55.9172501  87.7631055 102.6789005  50.3768525  77.2378841
 103.3824855  50.5818527  77.8536497 101.9551654  50.9445286  77.5027925
 103.5086815  46.1278386  83.3581112 103.4522017  46.5846937  82.5188744
 104.0615158  45.3669070  83.1803954 107.3191621  41.9168118  84.1831231
 107.0628555  41.5164753  85.0139439 106.6944489  42.6311912  84.0581370
 111.6303959  44.6564191  86.6902522 111.0703517  44.7257380  87.4634084
 111.0247462  44.4805176  85.9702019  94.6999168  56.0900918  88.4420709
  94.5831552  57.0346351  88.3399399  93.8791614  55.7874480  88.8306508
 104.5875702  50.8151054  79.2877301 105.4221306  50.3832252  79.1054776
 104.4260045  50.6433067  80.2154196 104.2421595  47.3183167  80.6533641
 104.1870398  47.1527438  79.7122085 103.6167650  48.0259200  80.8095830
  89.0314110  42.5551231  94.4795063  89.6772973  42.0450185  94.9682288
  88.8231261  43.2919913  95.0538488 101.5567502  49.6232079  99.9787203
 102.4258661  49.7972731  99.6173838 101.0774253  50.4426496  99.8562933
  97.5517720  36.8191276  80.2318959  97.5396390  37.7633116  80.3887230
  98.4441142  36.6361421  79.9378420  95.7253682  56.7429180  91.6576637
  96.6280929  56.7752790  91.9743132  95.4991052  55.8129631  91.6722973
  97.4807284  55.4960166  88.3186716  96.5302915  55.4962028  88.2051088
  97.7839770  54.7492901  87.8022750 101.3669839  33.4134053  84.4864896
 100.6002235  32.8592539  84.6321578 101.7780544  33.4855921  85.3479048
  93.3711601  39.7018848  98.5770077  94.2343062  39.3455653  98.7873402
  92.7977011  39.3632743  99.2645481 113.2159977  61.3320705  89.3832478
 113.8538387  61.2127452  88.6795818 113.0980820  62.2801549  89.4420430
 110.0249684  61.2848133  89.3194003 109.6868195  61.1689198  88.4314538
 110.8939452  60.8839298  89.2995009 105.8836499  63.1383609  85.3090894
 105.3201365  63.0473546  84.5407182 105.7688894  62.3183514  85.7893386
 110.5069467  62.4382985  95.2780208 110.4958107  62.0435783  94.4060712
 110.6690106  61.7049057  95.8713980 103.4300931  64.6334801  88.1475114
 104.2222223  64.2925626  87.7321414 103.6697582  64.7429776  89.0677268
 111.4636058  66.8054577  80.6205359 110.8124038  67.3908657  80.2339372
 112.2580421  67.3360772  80.6800396 105.3891685  63.8943714  81.0192493
 106.1622561  63.3472701  80.8805369 105.7417084  64.7587964  81.2306954
 107.2276728  65.2220096  94.2259392 106.9366594  66.1265727  94.1106059
 107.8633712  65.2636624  94.9403462 108.1532935  62.5996945  90.8160752
 108.7496507  62.3752967  90.1017715 108.2107906  61.8581690  91.4186200
 107.7257963  60.0536380  78.6510943 107.9783484  59.5317902  77.8894406
 106.7882522  59.8902526  78.7537627 112.7701246  59.0572159  86.4585686
 113.5564335  58.6391582  86.1076103 113.0339950  59.9618251  86.6267335
 112.9411323  64.4945009  81.1574343 112.3057156  64.5679636  81.8695248
 112.6108730  65.0838608  80.4793422 118.1709673  58.9947392  87.3618665
 118.9034845  58.4246609  87.5956494 117.4149029  58.6068992  87.8025170
 107.4454252  61.9564486  80.8535318 107.3290510  61.2809390  81.5216402
 107.5556512  61.4696860  80.0367471 109.7885793  61.4174633  84.5582007
 109.4244000  60.8905254  85.2694929 110.6452909  61.0273102  84.3848493
 115.6935093  52.7068966  91.8213273 115.3618418  53.5764377  91.5974488
 115.0980707  52.3905250  92.5007304 109.4291280  56.4464533  79.5543356
 109.5965682  57.3144769  79.9213827 109.2388449  56.6091815  78.6304645
 112.1866613  64.9081512  91.2209186 111.8867336  65.8106551  91.1124993
 111.8417672  64.6413695  92.0730339 105.6379094  61.3595309  87.2545890
 104.7129591  61.2271523  87.4623582 105.8863508  62.1389528  87.7515833
 115.5863757  57.4264052  88.9006623 114.6780634  57.3579461  88.6065384
 115.5351353  57.9035997  89.7288449 109.4080501  58.9022191  80.5390022
 109.2880126  59.3479241  81.3775503 108.7133089  59.2507508  79.9803561
 102.9987905  61.0028582  88.0889680 103.1280287  61.2563061  89.0029091
 102.3185357  61.5956290  87.7694335 107.1687393  71.6725832  84.1880154
 107.0911422  72.6233657  84.2668634 106.5649036  71.3271705  84.8455080
 109.6604623  58.8453698  96.8441521 108.8837957  59.4047618  96.8344385
 110.2995186  59.3310481  97.3656391 117.4525403  55.6280491  90.6784497
 116.8099783  55.9213024  90.0324292 116.9480332  55.5133411  91.4837694
 115.1065567  59.3743664  81.3670357 116.0183423  59.6071051  81.1918054
 114.5975214  59.9580708  80.8045435 107.9150995  61.6539151  96.4059488
 108.6565679  62.1924195  96.1294311 107.2087980  62.2805440  96.5631039
 113.3906334  63.7968292  95.0031649 113.7989691  63.3550702  94.2586281
 112.6683596  63.2220919  95.2565842 109.7437405  58.7340898  92.3765206
 110.5898600  59.1580312  92.5199855 109.6836042  58.0774523  93.0703769
 113.7135149  64.3569482  88.7583938 113.0844012  64.5215196  88.0560006
 113.3260811  64.7711092  89.5294902 117.5924381  65.2923920  86.1128302
 116.9075419  65.6722821  85.5625335 117.6768230  65.9019247  86.8460250
 112.8936850  56.3945267  94.0346380 112.6497782  57.1487327  93.4980655
 113.1696780  56.7730614  94.8693627 114.8475313  62.9383879  92.7123645
 115.0592208  63.5815639  92.0358026 114.8005061  62.1046196  92.2445575
 112.4501542  55.5501700  89.6160217 111.5886021  55.8482953  89.9076955
 112.4763976  55.7672099  88.6841250 109.2663111  64.0943890  86.0234023
 109.7301457  64.3731593  85.2338646 109.0019909  63.1927335  85.8407114
 106.1587192  63.6415372  88.9613786 106.7288549  64.0702640  88.3231271
 106.7495304  63.3597957  89.6597972 108.2031997  60.2167043  82.8323588
 108.9056040  60.6688086  83.2997515 107.8712626  59.5750862  83.4603481
 106.6512359  58.8078799  97.2074798 106.0211019  59.4895080  97.4410194
 106.5448446  58.6961881  96.2627936 101.9457331  58.4750595  88.1340722
 101.1556385  58.7308124  87.6580832 102.4368578  59.2898933  88.2392762
 115.9621141  65.8155835  90.8846003 116.7838584  65.4136022  90.6028684
 115.9583543  65.7124069  91.8362118 103.8972076  58.8395175  85.0924198
 103.1003240  58.9513869  85.6107694 103.6697669  59.1781827  84.2265089
 109.7277744  65.3639878  93.0406713 109.7922177  65.8260285  93.8764885
 109.0188668  64.7337243  93.1689023 100.2295034  58.7281086  90.5655713
 100.4803072  59.6128096  90.8313289 100.7654582  58.5485687  89.7930804
 109.4425762  67.0307985  82.9085693 109.3071436  67.8759521  83.3370541
 109.9835574  67.2327263  82.1451627 105.9293101  53.1099565  99.5700049
 105.5360047  52.5565764 100.2447693 106.7459242  53.4210144  99.9606566
 102.8955159  64.5483423  83.4813619 103.4079680  65.3426674  83.6319183
 103.5477872  63.8509714  83.4147220 104.7050044  67.6649180  85.5636372
 104.8816672  68.5867144  85.3757356 105.5006877  67.3507599  85.9930752
 108.8461062  54.5257444  97.1620305 109.5870776  55.1264597  97.0824768
 109.0778985  53.7835082  96.6038348 103.9902400  59.7113812  95.4398535
 103.8755915  58.8099069  95.7405634 103.1346918  59.9577508  95.0883351
 111.0694238  67.6531552  97.0386036 110.6258092  66.8667930  96.7206940
 111.7311452  67.8410702  96.3729926 105.8281359  69.1827353  91.5646714
 106.3788784  69.0544417  90.7923708 104.9892835  69.4822242  91.2141607
 113.1675476  67.9334352  95.0667437 113.1493951  68.7543233  94.5747706
 114.0895396  67.8088427  95.2917578 109.6248530  65.4478481  95.9090945
 110.1576867  64.6866769  95.6790253 109.0962611  65.1552133  96.6515100
 112.7918225  50.5538547  91.4384587 112.4482495  51.4440189  91.3623698
 113.1597188  50.3640205  90.5754172 100.8604076  62.8772078  84.2573189
 101.6979298  63.2869086  84.0406897 101.0382344  61.9371520  84.2273383
 112.7568508  60.5447158  79.9457022 112.2415131  61.3151763  80.1845409
 112.4845816  59.8712294  80.5690083 110.3415619  55.3896859  85.0042260
 109.4857215  55.0003709  84.8247899 110.7542571  55.4688820  84.1442046
 111.8714766  52.9243202  89.4033820 111.3679561  52.8873337  88.5901625
 112.1645372  53.8335945  89.4630477 108.1157652  53.0081932  88.4100002
 108.9810648  52.8124741  88.0505891 108.1835160  52.7792284  89.3369359
 117.7302782  63.2979513  81.8810196 116.9532225  62.9590672  81.4365358
 118.4094263  63.3032136  81.2065161 112.5454811  58.4174250  81.7716803
 112.2404947  58.7320400  82.6226946 113.4985253  58.4955670  81.8144136
 110.9901243  64.5764474  83.4209757 110.4622605  63.8417233  83.1082995
 110.4888746  65.3539150  83.1749726 115.9694089  62.7713494  88.5376803
 115.3117763  63.4612756  88.6256932 116.7734488  63.1609926  88.8810790
 105.7219971  55.2384140  85.7816369 106.2963722  55.0159321  85.0489562
 106.3090953  55.3072834  86.5344970 114.7799548  61.1257867  86.5880745
 115.2931430  61.7587859  87.0902455 115.4300772  60.5259062  86.2224105
 106.0489558  57.2688601  79.8012254 105.2126870  57.6063288  80.1221529
 105.9094327  57.1337581  78.8639391 108.0242638  52.1125389  84.5091438
 107.3707051  51.7974406  83.8848053 107.9823112  51.4901129  85.2351261
 109.1353843  62.3944684  76.4244730 108.2280905  62.1633937  76.6235879
 109.6324875  61.5982303  76.6118712 112.0421922  71.1042191  79.3441416
 111.3683621  71.4073888  79.9526374 112.4287744  71.9071271  78.9946873
 111.2580379  58.6007322  88.8339086 110.3402940  58.8222269  88.6760774
 111.6740522  58.6753633  87.9750793 112.0415426  59.9998738  83.9641766
 112.7887245  60.5120135  83.6548888 112.3107016  59.6782791  84.8246160
 110.3142077  62.4957279  80.9468720 109.4053296  62.2116312  81.0441190
 110.3437160  62.9156357  80.0872027 115.5461344  66.1063868  84.7159888
 115.0923671  65.2654778  84.7725078 114.9155311  66.7425267  85.0534668
 114.4894264  57.0355854  85.9460555 113.7517020  56.5233241  86.2770798
 114.7421037  56.5956236  85.1343832 113.9894283  67.9440365  85.6509706
 114.2817258  68.5045422  84.9322072 114.4992904  68.2368926  86.4062865
 114.5905891  49.8132106  86.5402325 114.8964768  48.9529470  86.2528240
 115.3158496  50.4049727  86.3401319 100.8830247  60.2162793  84.9283923
 100.6854647  59.6232154  84.2034989 100.3276911  59.9115003  85.6459861
 108.8626971  60.1085899  87.0478516 108.9175580  59.1559736  86.9720992
 108.0518173  60.2645339  87.5319814 110.0118164  64.0366023  78.2856799
 109.5737594  63.3201881  77.8262436 110.7528605  64.2642137  77.7241890
 106.8019331  58.7262959  84.8068895 105.9887196  59.0257130  85.2134087
 107.2978325  58.3318648  85.5243377 108.9527908  68.7220716  86.7403159
 108.9104087  68.9481562  85.8111691 109.8690607  68.4884091  86.8888960
 112.3993542  59.1904784  93.6383788 112.7542930  59.4176257  94.4978254
 113.0465673  59.5223160  93.0161044 118.1291279  62.3123220  84.3433117
 117.9909178  62.5024816  83.4154307 117.7727498  63.0742602  84.8001169
 106.2933405  56.2981315  90.4230129 106.9332785  56.1570074  89.7253093
 105.4610936  56.0115828  90.0468731 118.1560659  64.3799747  89.3544389
 118.5897165  64.2875036  90.2027443 118.8692239  64.3557247  88.7164405
 107.0693709  65.5983745  86.5365122 107.8634308  65.1034065  86.3347697
 106.3585402  65.0701608  86.1732828 111.8888554  67.9801841  90.8877490
 111.9425576  68.5492777  91.6555205 111.0203335  68.1503726  90.5231527
 103.3776473  59.7426827  82.6124875 102.4474061  59.6811282  82.8294837
 103.4733945  59.2202780  81.8161516 103.2962022  56.2681640  85.2003116
 103.5568839  57.1826973  85.0912277 104.1179194  55.8006082  85.3499729
 104.7686947  57.6819397  92.3701941 105.4410000  57.4736759  91.7214590
 103.9416734  57.4841483  91.9307173 119.0176208  64.4223447  91.8877274
 119.2112098  65.3269258  92.1336549 118.9176827  63.9630866  92.7215859
 110.6712519  54.3081338  94.3867602 110.0240434  55.0071287  94.2932078
 111.4413534  54.7417482  94.7543850 114.0791317  64.5730190  97.4618155
 113.9276823  64.3440742  96.5448239 114.0695996  65.5300791  97.4749500
 110.8476653  62.1462103  92.4464421 111.7768713  62.2973262  92.2733389
 110.4267683  62.2346123  91.5913068 109.6464985  66.1712767  90.2162959
 109.5076071  65.8031552  91.0888897 108.8579581  66.6860407  90.0446917
 110.2413137  71.2721864  81.5588496 110.4164893  70.8009907  82.3734118
 109.5545925  71.8987630  81.7869756 111.1970200  65.5494370  87.6051797
 110.8620033  65.5095140  88.5009447 110.6974146  64.8839086  87.1322207
 105.1714444  60.9562000  93.1304378 105.0334242  60.2242239  93.7315917
 106.0819368  60.8670900  92.8488566 114.1329392  62.8950404  77.8788856
 113.5158563  62.1697232  77.7821909 113.6645880  63.6559764  77.5355931
 107.7996745  60.6681959  92.6188058 108.5096364  60.0275151  92.5774676
 107.7566053  60.9194854  93.5414238 115.7883524  67.6049312  95.5394637
 115.7296070  66.9208533  94.8725220 116.1903042  68.3468303  95.0875263
 106.5125679  57.6547177  94.4383697 105.9763036  57.2037915  95.0905293
 105.9242387  57.7893086  93.6954161 104.8074222  74.4211226  88.3328356
 105.0470821  75.0529750  89.0107374 103.9643419  74.0699266  88.6193715
 105.9227938  57.1135828  77.0010161 105.0457404  56.9924629  76.6372407
 106.3985691  56.3221907  76.7489049 115.7900931  65.5688896  93.7708617
 114.9027710  65.2314818  93.8935015 116.3599482  64.8371928  94.0077382
  97.4430078  61.9012988  87.0951668  98.1301118  61.5874718  86.5072683
  97.2878207  62.8054353  86.8218919 102.2464800  56.7903185  91.5236692
 102.1622989  56.1828854  90.7887102 101.4247507  57.2812203  91.5246188
 109.3202084  70.2290349  90.7369860 109.2472256  71.0345320  91.2489164
 108.8779477  70.4282315  89.9117881 109.1091864  69.4662119  84.2472681
 108.3259386  70.0083799  84.3410906 109.8084609  69.9836098  84.6466922
 112.4188514  55.2756748  86.8906887 112.9157214  54.5226711  86.5707957
 111.6475496  55.3121065  86.3250096 120.2718271  60.9797114  88.5325178
 120.2608148  61.8621829  88.1619111 119.4035651  60.6268665  88.3379715
 111.7800768  70.1277183  92.8928018 112.4928740  70.7624648  92.8203920
 111.2890796  70.2241049  92.0768020 113.5018295  64.0328435  84.4645310
 112.5674573  64.1529898  84.2950014 113.6794963  63.1300902  84.2005320
 109.0023483  57.4174131  86.6178571 108.6321270  56.8645172  87.3059477
 109.4982575  56.8132265  86.0653571 116.8890846  59.8745755  84.9995344
 117.3551298  60.7073746  84.9255647 117.3398347  59.4090736  85.7040603
 106.8312681  67.8771626  93.7133589 107.5322141  68.5108109  93.8662983
 106.3607796  68.2186358  92.9529228 114.9567077  66.2189576  81.9981496
 115.2326921  66.1046171  82.9075370 114.0871576  65.8207061  81.9593669
 114.8607509  52.2426342  89.0386246 113.9470589  52.4730569  89.2068452
 115.2900610  52.3264786  89.8900278 114.6313967  60.4316234  91.5386140
 113.9785418  60.6792141  90.8838592 115.0094347  59.6180372  91.2048617
 111.5921141  70.4675927  85.6414310 111.7743536  69.6497583  86.1042062
 112.4154127  70.6843619  85.2039200 111.9263307  69.3944112  82.9029358
 112.4551073  68.8836567  82.2899520 112.1891526  69.0786642  83.7674891
 110.6801540  61.1736045  98.0252177 110.0042177  61.0730174  98.6954552
 111.5029174  61.0175259  98.4888174 102.4280399  67.4107981  90.6464692
 103.0133836  66.6651669  90.7792596 102.2305238  67.7211938  91.5301356
 105.2819055  70.4459229  85.6627134 104.6129430  70.9305356  85.1791174
 105.1431924  70.6928449  86.5770513  97.0198054  59.9813582  89.3669135
  97.0582154  59.4477172  90.1606253  96.5138347  59.4548787  88.7480112
 109.4224323  72.4802972  92.2609793 109.9742631  72.6434594  93.0258878
 109.7630517  73.0707410  91.5889817 104.3988816  54.8278122  92.8631677
 104.4630143  55.6892953  92.4509075 104.3355937  54.2152124  92.1304036
 103.8741089  56.9001255  96.5104712 104.5013128  56.5178332  97.1242236
 103.0169008  56.6815457  96.8760404 114.2735198  67.3064230  98.1158447
 114.8175102  67.9194188  97.6213402 113.6922042  67.8643808  98.6325460
 100.6506632  58.7077684  82.4423066 100.9460073  57.7988362  82.3890120
  99.7494668  58.6865423  82.1204069 112.5592711  70.4284948  89.2473475
 112.4343850  69.6274688  88.7384420 113.2171802  70.9231141  88.7587445
 104.1800879  56.7833680  88.4250615 103.4587465  57.3969648  88.2858088
 104.9694135  57.3191445  88.3467261 114.6227619  68.2293968  90.8753025
 113.6757954  68.1099319  90.8031352 114.9710392  67.3416466  90.9579286
 106.9827192  54.1188107  94.6991267 107.5061594  54.3650403  95.4617576
 106.7639526  54.9508142  94.2794404 102.3794473  56.3891781  82.5662392
 102.0507180  55.5089160  82.3837497 102.7333844  56.3339450  83.4538781
 111.6274052  68.0246684  87.0757377 111.4799015  67.0963391  87.2564947
 112.4527546  68.0466775  86.5914452 105.4936297  56.6764751  82.9337869
 105.8332369  57.2050672  82.2116478 105.9408417  57.0145157  83.7096436
 115.2308174  68.8475243  88.1622250 116.1554722  68.6418104  88.0246701
 115.0623477  68.5991644  89.0711591 108.1879737  55.0601802  92.3840937
 107.8476558  54.2609615  92.7861617 107.4818744  55.3603513  91.8117770
 108.8396209  52.1451114  90.8368260 109.6622278  51.6711592  90.7147151
 109.0834273  52.9241598  91.3366947 107.4804444  55.1739373  81.1331162
 108.2012806  55.5520626  80.6294879 106.8569748  55.8928250  81.2366140
 111.6235567  55.8784522  82.0689494 111.8399181  56.7609160  81.7678322
 111.1429634  55.4870735  81.3395136 106.3634788  58.8370235  88.6460239
 106.2179369  59.1510538  89.5384520 105.8859992  59.4555135  88.0931138
 108.2231171  55.8272783  88.6941128 108.2092740  54.9313876  88.3573426
 108.9403599  55.8343447  89.3279415 110.0757302  56.2610123  90.7394256
 109.8175079  57.1827194  90.7378586 109.5442342  55.8640558  91.4294720
 115.0203490  69.3660910  83.5184341 115.1940368  68.8007333  82.7658194
 115.5132382  70.1661805  83.3363831 100.8380450  61.3775579  91.5847900
 100.2933918  62.1535387  91.7168174 101.7159800  61.7246384  91.4267022
 107.6268067  54.7087163  83.9628699 107.7483978  53.7803809  84.1619586
 107.3370109  54.7225849  83.0507014 110.4959257  52.3942074  87.0995418
 110.5180954  52.4581407  86.1447398 110.9127316  51.5546582  87.2935925
 120.8742881  62.1297333  85.1374641 121.3174027  61.3804658  84.7393764
 119.9969392  62.1207470  84.7548373 116.0078663  68.6827675  80.6181240
 116.7029567  69.3034367  80.8368554 116.3501813  67.8323026  80.8933617
 101.6246472  60.5045476  94.4778057 100.8828208  60.6528111  95.0642687
 101.3039216  60.7653741  93.6144806 117.9070086  66.1327380  82.1468570
 118.4321410  66.4714653  81.4217890 117.8192438  65.1974396  81.9631705
 109.5690135  70.0461454  94.2758447 109.8777261  69.8010601  95.1481147
 110.3665617  70.2508092  93.7877317 109.5910747  72.1999363  86.5063824
 109.1515737  71.7075742  87.1996680 110.3418864  71.6572331  86.2655899
 102.0703086  68.3910904  86.5088452 102.8961106  68.0914676  86.1287095
 101.7197138  67.6218527  86.9578240 107.0384619  67.7437373  88.5786125
 106.4164628  67.0808078  88.2788353 107.7089486  67.7698504  87.8959773
 100.2711691  66.3097231  87.4677385  99.4343599  65.8819405  87.2861386
 100.2435336  66.5029674  88.4048176 107.1109146  56.2219161  98.1718631
 107.1597302  57.0981283  97.7896401 107.6531660  55.6796554  97.5990274
 117.5963992  66.7660284  97.4519768 116.8059536  66.7484423  96.9124268
 117.3597347  67.3048578  98.2068805 117.7161867  63.6152750  94.7652497
 117.7659872  63.4502758  95.7068020 117.6075790  62.7480009  94.3750378
 106.5998126  66.2941296  82.0544586 106.7486246  66.9776760  81.4011258
 107.4064569  66.2746386  82.5694041 115.0065629  59.5983678  96.0811804
 115.9075492  59.4590143  95.7895801 115.0813604  59.7638133  97.0209981
 109.3408435  56.9750533  94.9264990 108.4711744  57.2684099  94.6547578
 109.5767915  57.5590978  95.6472254 119.2180064  66.0349692  95.0094518
 118.9264872  66.3979672  95.8457979 118.6052195  65.3216700  94.8307850
 120.4175746  63.6002571  87.5297089 121.2522638  64.0392376  87.6934649
 120.5534875  63.1241225  86.7105334 117.4667252  61.1582306  93.4774576
 117.9421374  61.3509953  92.6693428 116.5432817  61.2141492  93.2317960
 104.3550759  62.3206474  83.0605655 104.1096801  61.4168804  83.2585865
 104.5246673  62.3223624  82.1185133 112.0447469  53.1930150  92.4430410
 112.5629412  53.9291177  92.1176899 111.6902601  53.4994143  93.2777169
 103.6246406  58.0534831  80.5591816 102.9315651  58.1279186  79.9031852
 103.3798158  57.2895175  81.0813333 112.2960063  49.6130432  87.9631307
 112.5761816  48.9453622  88.5891733 113.0810670  49.8059528  87.4505971
 110.0993531  68.7889426  79.5256333 109.5267498  69.4079613  79.0726805
 110.6726325  69.3388788  80.0596255 116.1668921  58.0348066  91.7102882
 117.1186344  58.1346164  91.7315106 115.9972371  57.2426335  92.2200966
 114.1883301  55.1203650  91.8962283 113.5933233  55.4008662  91.2008772
 113.9032997  55.6097551  92.6679024 113.3190791  69.0726576  80.6564915
 114.2521464  69.0072138  80.8597791 113.2314004  69.9082843  80.1979448
 115.9478808  68.3892447  77.6168863 115.8692439  68.0552310  78.5104621
 116.7688474  68.8814215  77.6160335 118.6456999  61.2554186  90.8245182
 118.6133319  60.3170187  91.0104865 119.2557622  61.3338223  90.0911007
 110.4840330  60.1250239  76.8672386 111.4299434  59.9956447  76.9360804
 110.1054575  59.3864901  77.3441814 118.7951487  58.0465230  90.8703465
 118.2790536  57.2623686  90.6833394 119.6791436  57.7183946  91.0349984
 116.4562214  51.7906245  86.8299277 116.2587035  51.4821333  87.7142609
 117.0661920  52.5167884  86.9597207 110.3679022  64.1767985  98.3273043
 111.2882032  64.3546584  98.5213089 110.3328605  63.2324031  98.1752742
 108.6683247  58.0500215  76.8027271 107.7614702  57.7533328  76.8789984
 108.9459228  57.7530034  75.9361557  99.5861187  59.3706579  87.2526317
  99.2663972  58.5171887  86.9600691  99.0394615  59.5855157  88.0084285
 103.3641095  62.0869020  90.9695824 103.5827105  63.0186128  90.9883858
 103.7766869  61.7276994  91.7550628 110.2845313  52.5937105  82.9571512
 109.4746041  52.2484190  83.3326758 110.9729730  52.2844649  83.5459124
 112.2135861  51.6715152  84.5795809 112.7666899  52.0910605  85.2385832
 112.4505947  50.7450900  84.6218765 108.2368960  57.6602226 100.3598573
 108.1365687  58.6096583 100.2910664 108.0190502  57.3320465  99.4874643
 107.4382031  54.9087151  76.9439250 108.3001195  55.2342049  77.2035067
 107.6232376  54.1218647  76.4312316  99.4549447  62.9909490  89.2219439
  98.7612919  62.5763443  88.7089393 100.2022438  63.0330027  88.6252858
 115.5914668  53.7815677  84.0874473 115.0113337  54.4400481  83.7052525
 115.3250601  52.9593022  83.6761891 114.0418234  53.1820735  86.2895793
 114.5418013  53.2937269  85.4810112 114.6853842  52.8781788  86.9296602
 108.1000230  61.0899364  99.1763634 107.6167312  61.8899725  99.3827523
 108.1861169  61.1007309  98.2231078 101.3686190  62.9227744  87.0985454
 101.3456878  63.0215431  86.1467337 101.6786826  63.7692895  87.4202620
 104.0273568  64.9803899  91.2132068 104.9816821  64.9487842  91.1462000
 103.8286091  64.5194523  92.0282294 104.6172950  63.5505015  93.7802866
 105.4365839  64.0449094  93.8037703 104.8909757  62.6336983  93.7520433
 114.3739546  55.9415768  83.1430821 113.4865401  56.2265418  82.9251016
 114.7893535  55.7809531  82.2958098 117.7254082  55.9662289  86.8585161
 118.5014472  56.4558741  87.1309777 117.0002216  56.3920343  87.3157030
 120.1626641  56.6789908  87.9159101 120.7571132  56.4385644  87.2052409
 120.2353224  55.9597038  88.5432638 102.3823796  70.5223519  88.2302266
 102.2478264  69.7623920  87.6640264 101.9655859  71.2464419  87.7631055
 113.5182759  65.7060442  77.2378841 114.2218610  65.9110445  77.8536497
 112.7945408  66.2737204  77.5027925 114.3480570  61.4570303  83.3581112
 114.2915771  61.9138855  82.5188744 114.9008912  60.6960988  83.1803954
 118.1585376  57.2460035  84.1831231 117.9022310  56.8456671  85.0139439
 117.5338244  57.9603829  84.0581370 122.4697713  59.9856109  86.6902522
 121.9097271  60.0549298  87.4634084 121.8641217  59.8097093  85.9702019
 105.5392922  71.4192836  88.4420709 105.4225306  72.3638268  88.3399399
 104.7185369  71.1166397  88.8306508 115.4269457  66.1442971  79.2877301
 116.2615061  65.7124170  79.1054776 115.2653800  65.9724985  80.2154196
 115.0815349  62.6475085  80.6533641 115.0264153  62.4819356  79.7122085
 114.4561404  63.3551118  80.8095830  99.8707864  57.8843149  94.4795063
 100.5166728  57.3742103  94.9682288  99.6625015  58.6211831  95.0538488
 112.3961256  64.9523997  99.9787203 113.2652416  65.1264649  99.6173838
 111.9168008  65.7718413  99.8562933 108.3911474  52.1483194  80.2318959
 108.3790144  53.0925034  80.3887230 109.2834896  51.9653339  79.9378420
 106.5647436  72.0721098  91.6576637 107.4674683  72.1044708  91.9743132
 106.3384807  71.1421549  91.6722973 108.3201038  70.8252084  88.3186716
 107.3696669  70.8253946  88.2051088 108.6233525  70.0784819  87.8022750
 112.2063594  48.7425970  84.4864896 111.4395990  48.1884457  84.6321578
 112.6174299  48.8147839  85.3479048 104.2105355  55.0310766  98.5770077
 105.0736817  54.6747571  98.7873402 103.6370766  54.6924661  99.2645481
 120.8643438  76.6140051  89.3194003 120.5261950  76.4981115  88.4314538
 121.7333206  76.2131216  89.2995009 116.7230254  78.4675527  85.3090894
 116.1595119  78.3765464  84.5407182 116.6082649  77.6475431  85.7893386
 121.3463221  77.7674902  95.2780208 121.3351862  77.3727701  94.4060712
 121.5083861  77.0340975  95.8713980 114.2694686  79.9626719  88.1475114
 115.0615978  79.6217543  87.7321414 114.5091336  80.0721694  89.0677268
 116.2285440  79.2235632  81.0192493 117.0016316  78.6764619  80.8805369
 116.5810839  80.0879881  81.2306954 118.0670482  80.5512014  94.2259392
 117.7760348  81.4557645  94.1106059 118.7027467  80.5928542  94.9403462
 118.9926689  77.9288863  90.8160752 119.5890261  77.7044885  90.1017715
 119.0501661  77.1873608  91.4186200 118.5651718  75.3828298  78.6510943
 118.8177238  74.8609819  77.8894406 117.6276277  75.2194443  78.7537627
 118.2848006  77.2856404  80.8535318 118.1684264  76.6101307  81.5216402
 118.3950266  76.7988778  80.0367471 120.6279547  76.7466551  84.5582007
 120.2637755  76.2197172  85.2694929 121.4846663  76.3565020  84.3848493
 120.2685034  71.7756451  79.5543356 120.4359437  72.6436687  79.9213827
 120.0782203  71.9383732  78.6304645 116.4772849  76.6887227  87.2545890
 115.5523345  76.5563441  87.4623582 116.7257262  77.4681446  87.7515833
 120.2474255  74.2314108  80.5390022 120.1273880  74.6771159  81.3775503
 119.5526844  74.5799426  79.9803561 113.8381660  76.3320500  88.0889680
 113.9674041  76.5854979  89.0029091 113.1579111  76.9248208  87.7694335
 118.0081147  87.0017750  84.1880154 117.9305177  87.9525575  84.2668634
 117.4042791  86.6563623  84.8455080 120.4998377  74.1745615  96.8441521
 119.7231711  74.7339536  96.8344385 121.1388940  74.6602398  97.3656391
 118.7544749  76.9831069  96.4059488 119.4959434  77.5216113  96.1294311
 118.0481735  77.6097358  96.5631039 120.5831159  74.0632816  92.3765206
 121.4292354  74.4872230  92.5199855 120.5229797  73.4066440  93.0703769
 120.1056865  79.4235808  86.0234023 120.5695211  79.7023511  85.2338646
 119.8413664  78.5219253  85.8407114 116.9980947  78.9707290  88.9613786
 117.5682304  79.3994558  88.3231271 117.5889058  78.6889874  89.6597972
 119.0425752  75.5458960  82.8323588 119.7449795  75.9980004  83.2997515
 118.7106380  74.9042779  83.4603481 117.4906113  74.1370717  97.2074798
 116.8604774  74.8186998  97.4410194 117.3842201  74.0253799  96.2627936
 112.7851085  73.8042513  88.1340722 111.9950139  74.0600042  87.6580832
 113.2762333  74.6190851  88.2392762 114.7365831  74.1687092  85.0924198
 113.9396994  74.2805787  85.6107694 114.5091423  74.5073744  84.2265089
 120.5671498  80.6931795  93.0406713 120.6315931  81.1552203  93.8764885
 119.8582422  80.0629160  93.1689023 111.0688788  74.0573003  90.5655713
 111.3196827  74.9420013  90.8313289 111.6048337  73.8777605  89.7930804
 120.2819516  82.3599903  82.9085693 120.1465191  83.2051439  83.3370541
 120.8229329  82.5619181  82.1451627 116.7686856  68.4391483  99.5700049
 116.3753801  67.8857681 100.2447693 117.5852996  68.7502061  99.9606566
 113.7348914  79.8775341  83.4813619 114.2473434  80.6718591  83.6319183
 114.3871626  79.1801631  83.4147220 115.5443798  82.9941097  85.5636372
 115.7210427  83.9159062  85.3757356 116.3400632  82.6799517  85.9930752
 119.6854817  69.8549362  97.1620305 120.4264530  70.4556515  97.0824768
 119.9172740  69.1127000  96.6038348 114.8296155  75.0405729  95.4398535
 114.7149670  74.1390986  95.7405634 113.9740673  75.2869426  95.0883351
 116.6675114  84.5119271  91.5646714 117.2182539  84.3836334  90.7923708
 115.8286590  84.8114160  91.2141607 120.4642285  80.7770399  95.9090945
 120.9970622  80.0158687  95.6790253 119.9356366  80.4844051  96.6515100
 111.6997830  78.2063995  84.2573189 112.5373052  78.6161004  84.0406897
 111.8776098  77.2663437  84.2273383 121.1809373  70.7188777  85.0042260
 120.3250970  70.3295627  84.8247899 121.5936325  70.7980738  84.1442046
 118.9551406  68.3373850  88.4100002 119.8204403  68.1416658  88.0505891
 119.0228915  68.1084202  89.3369359 121.8294997  79.9056391  83.4209757
 121.3016359  79.1709151  83.1082995 121.3282500  80.6831068  83.1749726
 116.5613725  70.5676058  85.7816369 117.1357477  70.3451239  85.0489562
 117.1484708  70.6364752  86.5344970 116.8883312  72.5980519  79.8012254
 116.0520624  72.9355205  80.1221529 116.7488082  72.4629498  78.8639391
 118.8636393  67.4417307  84.5091438 118.2100805  67.1266324  83.8848053
 118.8216867  66.8193047  85.2351261 119.9747598  77.7236602  76.4244730
 119.0674659  77.4925855  76.6235879 120.4718630  76.9274221  76.6118712
 121.1535831  77.8249197  80.9468720 120.2447050  77.5408229  81.0441190
 121.1830915  78.2448275  80.0872027 111.7224001  75.5454711  84.9283923
 111.5248401  74.9524071  84.2034989 111.1670665  75.2406921  85.6459861
 119.7020725  75.4377817  87.0478516 119.7569335  74.4851654  86.9720992
 118.8911927  75.5937256  87.5319814 120.8511919  79.3657940  78.2856799
 120.4131349  78.6493799  77.8262436 121.5922360  79.5934055  77.7241890
 117.6413085  74.0554877  84.8068895 116.8280951  74.3549047  85.2134087
 118.1372079  73.6610566  85.5243377 119.7921663  84.0512634  86.7403159
 119.7497842  84.2773480  85.8111691 120.7084362  83.8176008  86.8888960
 117.1327160  71.6273232  90.4230129 117.7726539  71.4861991  89.7253093
 116.3004690  71.3407746  90.0468731 117.9087464  80.9275663  86.5365122
 118.7028062  80.4325983  86.3347697 117.1979156  80.3993526  86.1732828
 114.2170227  75.0718745  82.6124875 113.2867815  75.0103200  82.8294837
 114.3127699  74.5494697  81.8161516 114.1355776  71.5973557  85.2003116
 114.3962594  72.5118891  85.0912277 114.9572949  71.1298000  85.3499729
 115.6080702  73.0111315  92.3701941 116.2803755  72.8028677  91.7214590
 114.7810488  72.8133401  91.9307173 121.5106274  69.6373255  94.3867602
 120.8634189  70.3363205  94.2932078 122.2807289  70.0709399  94.7543850
 120.4858740  81.5004685  90.2162959 120.3469825  81.1323469  91.0888897
 119.6973336  82.0152324  90.0446917 121.0806892  86.6013781  81.5588496
 121.2558647  86.1301824  82.3734118 120.3939680  87.2279547  81.7869756
 122.0363955  80.8786287  87.6051797 121.7013787  80.8387057  88.5009447
 121.5367901  80.2131003  87.1322207 116.0108199  76.2853918  93.1304378
 115.8727997  75.5534156  93.7315917 116.9213122  76.1962818  92.8488566
 118.6390499  75.9973877  92.6188058 119.3490118  75.3567069  92.5774676
 118.5959808  76.2486772  93.5414238 117.3519433  72.9839095  94.4383697
 116.8156790  72.5329833  95.0905293 116.7636142  73.1185004  93.6954161
 115.6467977  89.7503144  88.3328356 115.8864575  90.3821668  89.0107374
 114.8037173  89.3991184  88.6193715 116.7621692  72.4427746  77.0010161
 115.8851159  72.3216547  76.6372407 117.2379445  71.6513824  76.7489049
 108.2823833  77.2304906  87.0951668 108.9694872  76.9166636  86.5072683
 108.1271961  78.1346270  86.8218919 113.0858555  72.1195102  91.5236692
 113.0016743  71.5120772  90.7887102 112.2641261  72.6104121  91.5246188
 120.1595839  85.5582266  90.7369860 120.0866010  86.3637238  91.2489164
 119.7173232  85.7574232  89.9117881 119.9485618  84.7954036  84.2472681
 119.1653140  85.3375717  84.3410906 120.6478364  85.3128016  84.6466922
 119.8417237  72.7466049  86.6178571 119.4715025  72.1937089  87.3059477
 120.3376330  72.1424182  86.0653571 117.6706436  83.2063544  93.7133589
 118.3715895  83.8400027  93.8662983 117.2001551  83.5478275  92.9529228
 121.5195295  76.5027962  98.0252177 120.8435932  76.4022092  98.6954552
 122.3422929  76.3467176  98.4888174 113.2674154  82.7399899  90.6464692
 113.8527591  81.9943587  90.7792596 113.0698992  83.0503856  91.5301356
 116.1212809  85.7751146  85.6627134 115.4523184  86.2597274  85.1791174
 115.9825679  86.0220367  86.5770513 107.8591809  75.3105499  89.3669135
 107.8975908  74.7769090  90.1606253 107.3532101  74.7840705  88.7480112
 120.2618078  87.8094890  92.2609793 120.8136386  87.9726511  93.0258878
 120.6024271  88.3999328  91.5889817 115.2382571  70.1570040  92.8631677
 115.3023897  71.0184871  92.4509075 115.1749691  69.5444041  92.1304036
 114.7134843  72.2293172  96.5104712 115.3406882  71.8470250  97.1242236
 113.8562762  72.0107374  96.8760404 111.4900386  74.0369601  82.4423066
 111.7853827  73.1280280  82.3890120 110.5888422  74.0157341  82.1204069
 115.0194633  72.1125598  88.4250615 114.2981219  72.7261566  88.2858088
 115.8087889  72.6483363  88.3467261 117.8220947  69.4480024  94.6991267
 118.3455349  69.6942321  95.4617576 117.6033280  70.2800059  94.2794404
 113.2188228  71.7183699  82.5662392 112.8900934  70.8381078  82.3837497
 113.5727599  71.6631368  83.4538781 116.3330051  72.0056669  82.9337869
 116.6726123  72.5342590  82.2116478 116.7802171  72.3437075  83.7096436
 119.0273492  70.3893720  92.3840937 118.6870312  69.5901533  92.7861617
 118.3212498  70.6895430  91.8117770 119.6789964  67.4743032  90.8368260
 120.5016033  67.0003510  90.7147151 119.9228027  68.2533516  91.3366947
 118.3198198  70.5031290  81.1331162 119.0406561  70.8812543  80.6294879
 117.6963502  71.2220167  81.2366140 117.2028542  74.1662153  88.6460239
 117.0573123  74.4802456  89.5384520 116.7253746  74.7847053  88.0931138
 119.0624925  71.1564701  88.6941128 119.0486494  70.2605794  88.3573426
 119.7797353  71.1635364  89.3279415 120.9151056  71.5902041  90.7394256
 120.6568834  72.5119111  90.7378586 120.3836096  71.1932475  91.4294720
 111.6774205  76.7067497  91.5847900 111.1327673  77.4827305  91.7168174
 112.5553554  77.0538301  91.4267022 118.4661821  70.0379081  83.9628699
 118.5877732  69.1095727  84.1619586 118.1763864  70.0517767  83.0507014
 121.3353012  67.7233991  87.0995418 121.3574708  67.7873324  86.1447398
 121.7521071  66.8838500  87.2935925 112.4640226  75.8337393  94.4778057
 111.7221962  75.9820029  95.0642687 112.1432971  76.0945659  93.6144806
 120.4083889  85.3753372  94.2758447 120.7171016  85.1302518  95.1481147
 121.2059371  85.5800010  93.7877317 120.4304501  87.5291281  86.5063824
 119.9909491  87.0367660  87.1996680 121.1812618  86.9864249  86.2655899
 112.9096840  83.7202822  86.5088452 113.7354860  83.4206594  86.1287095
 112.5590892  82.9510444  86.9578240 117.8778373  83.0729290  88.5786125
 117.2558383  82.4099995  88.2788353 118.5483240  83.0990422  87.8959773
 111.1105445  81.6389148  87.4677385 110.2737353  81.2111323  87.2861386
 111.0829091  81.8321592  88.4048176 117.9502901  71.5511078  98.1718631
 117.9991056  72.4273201  97.7896401 118.4925415  71.0088471  97.5990274
 117.4391880  81.6233214  82.0544586 117.5880001  82.3068678  81.4011258
 118.2458324  81.6038304  82.5694041 120.1802189  72.3042451  94.9264990
 119.3105499  72.5976017  94.6547578 120.4161670  72.8882896  95.6472254
 115.1944513  77.6498391  83.0605655 114.9490555  76.7460721  83.2585865
 115.3640428  77.6515542  82.1185133 114.4640161  73.3826749  80.5591816
 113.7709406  73.4571104  79.9031852 114.2191913  72.6187092  81.0813333
 120.9387286  84.1181344  79.5256333 120.3661253  84.7371531  79.0726805
 121.5120079  84.6680706  80.0596255 121.3234084  75.4542157  76.8672386
 122.2693189  75.3248365  76.9360804 120.9448329  74.7156819  77.3441814
 121.2072777  79.5059903  98.3273043 122.1275786  79.6838502  98.5213089
 121.1722360  78.5615948  98.1752742 119.5077001  73.3792133  76.8027271
 118.6008457  73.0825246  76.8789984 119.7852982  73.0821951  75.9361557
 110.4254942  74.6998497  87.2526317 110.1057726  73.8463805  86.9600691
 109.8788370  74.9147075  88.0084285 114.2034849  77.4160938  90.9695824
 114.4220859  78.3478045  90.9883858 114.6160623  77.0568912  91.7550628
 121.1239067  67.9229023  82.9571512 120.3139795  67.5776108  83.3326758
 121.8123484  67.6136567  83.5459124 119.0762715  72.9894143 100.3598573
 118.9759441  73.9388500 100.2910664 118.8584257  72.6612382  99.4874643
 118.2775786  70.2379068  76.9439250 119.1394950  70.5633967  77.2035067
 118.4626130  69.4510564  76.4312316 110.2943202  78.3201408  89.2219439
 109.6006673  77.9055361  88.7089393 111.0416193  78.3621945  88.6252858
 118.9393985  76.4191282  99.1763634 118.4561066  77.2191642  99.3827523
 119.0254924  76.4299227  98.2231078 112.2079944  78.2519662  87.0985454
 112.1850632  78.3507349  86.1467337 112.5180581  79.0984813  87.4202620
 114.8667322  80.3095817  91.2132068 115.8210576  80.2779759  91.1462000
 114.6679846  79.8486441  92.0282294 115.4566704  78.8796933  93.7802866
 116.2759593  79.3741012  93.8037703 115.7303512  77.9628901  93.7520433
 113.2217551  85.8515436  88.2302266 113.0872019  85.0915837  87.6640264
 112.8049613  86.5756336  87.7631055 116.3786677  86.7484753  88.4420709
 116.2619061  87.6930186  88.3399399 115.5579123  86.4458315  88.8306508
 110.7101619  73.2135067  94.4795063 111.3560482  72.7034021  94.9682288
 110.5018770  73.9503748  95.0538488 119.2305229  67.4775111  80.2318959
 119.2183899  68.4216951  80.3887230 120.1228651  67.2945257  79.9378420
 117.4041191  87.4013015  91.6576637 118.3068438  87.4336626  91.9743132
 117.1778561  86.4713466  91.6722973 119.1594793  86.1544002  88.3186716
 118.2090424  86.1545863  88.2051088 119.4627279  85.4076736  87.8022750
 115.0499110  70.3602684  98.5770077 115.9130571  70.0039489  98.7873402
 114.4764520  70.0216579  99.2645481 121.9082543  89.3864921  90.5655713
 122.1590581  90.2711931  90.8313289 122.4442091  89.2069523  89.7930804
 119.1217587  92.5596824  87.0951668 119.8088627  92.2458554  86.5072683
 118.9665716  93.4638188  86.8218919 118.6985563  90.6397417  89.3669135
 118.7369663  90.1061008  90.1606253 118.1925856  90.1132622  88.7480112
 121.9499200  96.9681066  87.4677385 121.1131108  96.5403240  87.2861386
 121.9222845  97.1613509  88.4048176 121.2648696  90.0290414  87.2526317
 120.9451481  89.1755722  86.9600691 120.7182124  90.2438992  88.0084285
 121.1336956  93.6493326  89.2219439 120.4400428  93.2347279  88.7089393
 121.8809947  93.6913862  88.6252858 121.5495373  88.5426984  94.4795063
 122.1954237  88.0325938  94.9682288 121.3412524  89.2795666  95.0538488
  74.6506131   2.6912202  70.9125460  74.5730160   3.6420027  70.9913941
  74.0467774   2.3458074  71.5700387  72.2892960   5.4397596  75.0573662
  72.5289558   6.0716120  75.7352681  71.4462157   5.0885636  75.3439022
  72.7637792   1.4645598  72.3872441  72.0948168   1.9491726  71.9036481
  72.6250662   1.7114819  73.3015819  76.9043061   3.4989342  78.9855099
  77.4561369   3.6620963  79.7504184  77.2449254   4.0893780  78.3135124
  77.0729484   3.2185733  73.2309130  76.6334475   2.7262112  73.9241987
  77.8237601   2.6758701  72.9901205  69.8642534   1.5409888  74.9547573
  69.7297002   0.7810289  74.3885571  69.4474596   2.2650788  74.4876362
  73.0211660   2.4379205  75.1666015  72.9044044   3.3824638  75.0644706
  72.2004106   2.1352767  75.5551815  74.0466174   3.0907467  78.3821944
  74.9493421   3.1231077  78.6988439  73.8203544   2.1607918  78.3968280
  88.3462176   7.6326420  76.0439309  88.0080688   7.5167485  75.1559844
  89.2151944   7.2317585  76.0240316  84.2048992   9.4861897  72.0336200
  83.6413857   9.3951834  71.2652488  84.0901387   8.6661801  72.5138693
  88.8281959   8.7861272  82.0025515  88.8170600   8.3914070  81.1306019
  88.9902598   8.0527345  82.5959286  81.7513424  10.9813088  74.8720421
  82.5434716  10.6403913  74.4566720  81.9910074  11.0908063  75.7922574
  89.7848550  13.1532864  67.3450665  89.1336530  13.7386945  66.9584679
  90.5792913  13.6839059  67.4045703  83.7104178  10.2422001  67.7437800
  84.4835054   9.6950989  67.6050675  84.0629576  11.1066251  67.9552261
  85.5489220  11.5698384  80.9504699  85.2579086  12.4744015  80.8351365
  86.1846204  11.6114911  81.6648769  86.4745427   8.9475232  77.5406059
  87.0708999   8.7231255  76.8263022  86.5320399   8.2059978  78.1431506
  86.0470455   6.4014668  65.3756250  86.2995976   5.8796189  64.6139713
  85.1095014   6.2380813  65.4782933  91.2623816  10.8423296  67.8819650
  90.6269649  10.9157923  68.5940554  90.9321222  11.4316895  67.2038729
  85.7666744   8.3042774  67.5780625  85.6503002   7.6287677  68.2461709
  85.8769004   7.8175147  66.7612778  88.1098285   7.7652921  71.2827314
  87.7456492   7.2383542  71.9940235  88.9665401   7.3751390  71.1093799
  90.5079105  11.2559799  77.9454493  90.2079828  12.1584838  77.8370300
  90.1630165  10.9891982  78.7975646  83.9591587   7.7073596  73.9791197
  83.0342083   7.5749810  74.1868889  84.2076000   8.4867815  74.4761139
  81.3200398   7.3506870  74.8134986  81.4492779   7.6041349  75.7274398
  80.6397849   7.9434578  74.4939641  85.4899885  18.0204120  70.9125460
  85.4123915  18.9711945  70.9913941  84.8861529  17.6749992  71.5700387
  86.2363487   8.0017438  83.1304794  86.9778171   8.5402482  82.8539618
  85.5300473   8.6283727  83.2876346  91.7118827  10.1446579  81.7276956
  92.1202183   9.7028989  80.9831588  90.9896088   9.5699206  81.9811149
  92.0347641  10.7047769  75.4829245  91.4056504  10.8693484  74.7805312
  91.6473303  11.1189379  76.2540209  95.9136873  11.6402207  72.8373608
  95.2287911  12.0201109  72.2870642  95.9980723  12.2497534  73.5705556
  93.1687805   9.2862166  79.4368952  93.3804700   9.9293926  78.7603333
  93.1217553   8.4524483  78.9690882  87.5875603  10.4422178  72.7479330
  88.0513949  10.7209881  71.9583952  87.3232401   9.5405622  72.5652420
  84.4799684   9.9893659  75.6859093  85.0501041  10.4180927  75.0476577
  85.0707796   9.7076244  76.3843279  86.5244489   6.5645330  69.5568895
  87.2268533   7.0166374  70.0242821  86.1925118   5.9229149  70.1848788
  84.9724851   5.1557087  83.9320104  84.3423511   5.8373367  84.1655501
  84.8660939   5.0440168  82.9873243  80.2669823   4.8228883  74.8586028
  79.4768877   5.0786411  74.3826139  80.7581071   5.6377220  74.9638069
  94.2833633  12.1634122  77.6091309  95.1051077  11.7614309  77.3273991
  94.2796036  12.0602356  78.5607425  82.2184569   5.1873462  71.8169505
  81.4215732   5.2992156  72.3353001  81.9910161   5.5260114  70.9510396
  88.0490236  11.7118165  79.7652020  88.1134669  12.1738572  80.6010192
  87.3401160  11.0815530  79.8934330  78.5507526   5.0759373  77.2901019
  78.8015565   5.9606383  77.5558595  79.0867075   4.8963975  76.5176111
  87.7638254  13.3786273  69.6331000  87.6283929  14.2237808  70.0615848
  88.3048066  13.5805550  68.8696934  81.2167651  10.8961711  70.2058925
  81.7292172  11.6904961  70.3564490  81.8690364  10.1988001  70.1392527
  83.0262536  14.0127467  72.2881678  83.2029164  14.9345432  72.1002662
  83.8219370  13.6985886  72.7176058  82.3114893   6.0592099  82.1643842
  82.1968408   5.1577356  82.4650940  81.4559410   6.3055796  81.8128658
  89.3906730  14.0009839  83.7631342  88.9470585  13.2146218  83.4452247
  90.0523944  14.1888990  83.0975233  84.1493852  15.5305641  78.2892021
  84.7001277  15.4022704  77.5169015  83.3105327  15.8300530  77.9386913
  91.4887968  14.2812639  81.7912743  91.4706444  15.1021520  81.2993013
  92.4107888  14.1566714  82.0162885  87.9461023  11.7956768  82.6336252
  88.4789359  11.0345057  82.4035560  87.4175104  11.5030420  83.3760406
  79.1816568   9.2250365  70.9818496  80.0191790   9.6347373  70.7652203
  79.3594836   8.2849807  70.9518690  96.0515274   9.6457800  68.6055502
  95.2744717   9.3068960  68.1610664  96.7306755   9.6510423  67.9310467
  89.3113735  10.9242761  70.1455064  88.7835097  10.1895521  69.8328301
  88.8101238  11.7017437  69.8995032  94.2906581   9.1191781  75.2622110
  93.6330256   9.8091043  75.3502239  95.0946980   9.5088213  75.6056096
  87.4566335   8.7422971  63.1490037  86.5493397   8.5112225  63.3481186
  87.9537367   7.9460590  63.3364018  90.3634414  17.4520478  66.0686723
  89.6896113  17.7552175  66.6771681  90.7500236  18.2549559  65.7192180
  88.6354569   8.8435566  67.6714027  87.7265788   8.5594599  67.7686497
  88.6649653   9.2634645  66.8117334  93.8673836  12.4542156  71.4405195
  93.4136163  11.6133065  71.4970385  93.2367803  13.0903554  71.7779975
  92.3106776  14.2918652  72.3755013  92.6029750  14.8523709  71.6567378
  92.8205396  14.5847213  73.1308172  79.2042739   6.5641080  71.6529229
  79.0067139   5.9710441  70.9280296  78.6489403   6.2593290  72.3705168
  88.3330657  10.3844310  65.0102106  87.8950087   9.6680169  64.5507743
  89.0741098  10.6120425  64.4487197  87.2740401  15.0699003  73.4648466
  87.2316580  15.2959850  72.5356998  88.1903100  14.8362378  73.6134267
  96.4773151  10.7278034  76.0789696  96.9109658  10.6353323  76.9272750
  97.1904732  10.7035534  75.4409712  85.3906201  11.9462032  73.2610429
  86.1846800  11.4512353  73.0593004  84.6797894  11.4179895  72.8978134
  90.2101046  14.3280128  77.6122796  90.2638068  14.8971064  78.3800512
  89.3415827  14.4982013  77.2476833  81.6988965   6.0905114  69.3370181
  80.7686553   6.0289570  69.5540143  81.7946437   5.5681067  68.5406823
  97.3388701  10.7701734  78.6122581  97.5324591  11.6747545  78.8581856
  97.2389319  10.3109154  79.4461166  92.4003809  10.9208477  84.1863462
  92.2489316  10.6919029  83.2693545  92.3908489  11.8779079  84.1994807
  89.1689146   8.4940390  79.1709728  90.0981206   8.6451550  78.9978695
  88.7480176   8.5824411  78.3158375  87.9677477  12.5191054  76.9408266
  87.8288563  12.1509839  77.8134204  87.1792074  13.0338694  76.7692223
  88.5625629  17.6200151  68.2833802  88.7377385  17.1488194  69.0979425
  87.8758417  18.2465917  68.5115063  89.5182693  11.8972657  74.3297103
  89.1832525  11.8573427  75.2254753  89.0186638  11.2317373  73.8567514
  83.4926937   7.3040287  79.8549685  83.3546735   6.5720526  80.4561224
  84.4031860   7.2149187  79.5733872  92.4541884   9.2428691  64.6034163
  91.8371055   8.5175520  64.5067216  91.9858373  10.0038052  64.2601237
  86.1209237   7.0160246  79.3433364  86.8308856   6.3753439  79.3019983
  86.0778545   7.2673141  80.2659545  94.1096016  13.9527600  82.2639943
  94.0508562  13.2686820  81.5970526  94.5115534  14.6946590  81.8120569
  83.1286715  20.7689514  75.0573662  83.3683313  21.4008038  75.7352681
  82.2855911  20.4177554  75.3439022  94.1113423  11.9167184  80.4953923
  93.2240202  11.5793105  80.6180322  94.6811974  11.1850215  80.7322689
  75.7642570   8.2491275  73.8196975  76.4513610   7.9353005  73.2317990
  75.6090699   9.1532640  73.5464226  87.6414577  16.5768636  77.4615166
  87.5684748  17.3823608  77.9734471  87.1991970  16.7760602  76.6363188
  87.4304356  15.8140406  70.9717988  86.6471878  16.3562086  71.0656212
  88.1297101  16.3314386  71.3712229  90.1013260  16.4755470  79.6173325
  90.8141232  17.1102935  79.5449226  89.6103289  16.5719336  78.8013327
  91.8230787  10.3806723  71.1890617  90.8887066  10.5008185  71.0195321
  92.0007455   9.4779190  70.9250627  85.1525174  14.2249914  80.4378896
  85.8534633  14.8586396  80.5908290  84.6820289  14.5664645  79.6774535
  93.2779569  12.5667863  68.7226803  93.5539413  12.4524458  69.6320677
  92.4084068  12.1685348  68.6838976  89.9133634  16.8154214  72.3659616
  90.0956028  15.9975870  72.8287369  90.7366620  17.0321906  71.9284506
  90.2475799  15.7422399  69.6274665  90.7763565  15.2314854  69.0144827
  90.5104019  15.4264929  70.4920198  89.0014033   7.5214332  84.7497483
  88.3254670   7.4208461  85.4199858  89.8241667   7.3653546  85.2133480
  80.7492892  13.7586269  77.3709999  81.3346329  13.0129956  77.5037903
  80.5517730  14.0690225  78.2546662  83.6031547  16.7937516  72.3872441
  82.9341922  17.2783644  71.9036481  83.4644417  17.0406736  73.3015819
  75.3410546   6.3291869  76.0914442  75.3794646   5.7955459  76.8851560
  74.8350839   5.8027074  75.4725419  87.7436816  18.8281259  78.9855099
  88.2955124  18.9912881  79.7504184  88.0843009  19.4185697  78.3135124
  92.5947690  13.6542517  84.8403754  93.1387594  14.2672475  84.3458708
  92.0134535  14.2122095  85.3570767  78.9719124   5.0555971  69.1668373
  79.2672565   4.1466649  69.1135427  78.0707160   5.0343710  68.8449375
  90.8805203  16.7763235  75.9718781  90.7556342  15.9752975  75.4629727
  91.5384294  17.2709428  75.4832751  92.9440111  14.5772255  77.5998332
  91.9970447  14.4577606  77.5276658  93.2922884  13.6894753  77.6824593
  89.9486544  14.3724971  73.8002684  89.8011507  13.4441679  73.9810254
  90.7740038  14.3945062  73.3159759  93.5520666  15.1953530  74.8867556
  94.4767214  14.9896391  74.7492008  93.3835970  14.9469931  75.7956898
  84.6847280   5.1848522  75.3705546  84.5391861   5.4988825  76.2629827
  84.2072484   5.8033423  74.8176444  93.3415983  15.7139197  70.2429648
  93.5152860  15.1485620  69.4903500  93.8344874  16.5140092  70.0609138
  79.1592942   7.7253867  78.3093207  78.6146410   8.5013675  78.4413481
  80.0372292   8.0724671  78.1512328  94.3291155  15.0305962  67.3426546
  95.0242060  15.6512655  67.5613861  94.6714305  14.1801313  67.6178924
  79.9458964   6.8523763  81.2023364  79.2040700   7.0006398  81.7887994
  79.6251708   7.1132028  80.3390113  96.2282578  12.4805667  68.8713877
  96.7533902  12.8192940  68.1463197  96.1404931  11.5452683  68.6877012
  87.8902627  16.3939741  81.0003754  88.1989753  16.1488888  81.8726453
  88.6878109  16.5986380  80.5122624  87.9123239  18.5477651  73.2309130
  87.4728229  18.0554029  73.9241987  88.6631356  18.0050618  72.9901205
  80.3915578  14.7389192  73.2333758  81.2173598  14.4392963  72.8532402
  80.0409630  13.9696814  73.6823547  85.3597111  14.0915660  75.3031432
  84.7377120  13.4286365  75.0033660  86.0301978  14.1176792  74.6205080
  78.5924183  12.6575518  74.1922692  77.7556091  12.2297692  74.0106693
  78.5647828  12.8507961  75.1293483  95.9176484  13.1138571  84.1765075
  95.1272028  13.0962710  83.6369574  95.6809839  13.6526865  84.9314112
  96.0374359   9.9631037  81.4897803  96.0872364   9.7981045  82.4313326
  95.9288283   9.0958296  81.0995684  84.9210618  12.6419583  68.7789892
  85.0698738  13.3255048  68.1256565  85.7277061  12.6224673  69.2939348
  97.5392556  12.3827979  81.7339825  97.2477364  12.7457960  82.5703286
  96.9264687  11.6694987  81.5553157  82.6763251   8.6684761  69.7850961
  82.4309293   7.7647091  69.9831171  82.8459165   8.6701911  68.8430439
  88.4206023  15.1367714  66.2501640  87.8479991  15.7557901  65.7972112
  88.9938817  15.6867075  66.7841562  91.6403283  15.4204864  67.3810222
  92.5733956  15.3550425  67.5843098  91.5526496  16.2561131  66.9224755
  94.2691300  14.7370734  64.3414170  94.1904931  14.4030598  65.2349928
  95.0900967  15.2292502  64.3405642  88.6891515  10.5246272  85.0518349
  89.6094524  10.7024871  85.2458396  88.6541098   9.5802318  84.8998049
  77.9073680   5.7184866  73.9771624  77.5876464   4.8650174  73.6845998
  77.3607108   5.9333444  74.7329591  81.6853587   8.4347307  77.6941130
  81.9039597   9.3664415  77.7129164  82.0979361   8.0755282  78.4795934
  77.7761940   9.3387778  75.9464746  77.0825411   8.9241730  75.4334700
  78.5234931   9.3808314  75.3498164  86.4212722   7.4377652  85.9008941
  85.9379804   8.2378012  86.1072830  86.5073661   7.4485597  84.9476385
  79.6898682   9.2706031  73.8230760  79.6669370   9.3693719  72.8712643
  79.9999319  10.1171182  74.1447927  82.3486060  11.3282186  77.9377375
  83.3029313  11.2966129  77.8707306  82.1498584  10.8672810  78.7527601
  82.9385442   9.8983302  80.5048172  83.7578331  10.3927381  80.5283010
  83.2122250   8.9815271  80.4765740  80.7036289  16.8701806  74.9547573
  80.5690757  16.1102207  74.3885571  80.2868351  17.5942706  74.4876362
  91.8395252  12.0538729  63.9624148  92.5431102  12.2588732  64.5781804
  91.1157900  12.6215491  64.2273231  83.8605415  17.7671123  75.1666015
  83.7437799  18.7116555  75.0644706  83.0397861  17.4644684  75.5551815
  93.7481949  12.4921259  66.0122608  94.5827553  12.0602457  65.8300083
  93.5866292  12.3203272  66.9399503  93.4027841   8.9953372  67.3778947
  93.3476645   8.8297643  66.4367391  92.7773897   9.7029405  67.5341137
  78.1920356   4.2321436  81.2040370  78.8379220   3.7220390  81.6927595
  77.9837507   4.9690118  81.7783795  90.7173748  11.3002284  86.7032510
  91.5864908  11.4742936  86.3419145  90.2380500  12.1196701  86.5808239
  84.8859929  18.4199385  78.3821944  85.7887175  18.4522995  78.6988439
  84.6597299  17.4899836  78.3968280  86.6413531  17.1730371  75.0432022
  85.6909162  17.1732233  74.9296395  86.9446017  16.4263106  74.5268057
 102.3766224  23.0090910  76.1077785 103.0144634  22.8897657  75.4041125
 102.2587067  23.9571754  76.1665737  99.1855931  22.9618338  76.0439309
  98.8474442  22.8459403  75.1559844 100.0545699  22.5609503  76.0240316
  95.0442746  24.8153814  72.0336200  94.4807611  24.7243751  71.2652488
  94.9295141  23.9953719  72.5138693  99.6675713  24.1153190  82.0025515
  99.6564354  23.7205988  81.1306019  99.8296353  23.3819262  82.5959286
  92.5907178  26.3105006  74.8720421  93.3828470  25.9695831  74.4566720
  92.8303828  26.4199981  75.7922574 100.6242305  28.4824782  67.3450665
  99.9730285  29.0678862  66.9584679 101.4186668  29.0130977  67.4045703
  94.5497932  25.5713919  67.7437800  95.3228808  25.0242906  67.6050675
  94.9023331  26.4358168  67.9552261  96.3882975  26.8990301  80.9504699
  96.0972841  27.8035932  80.8351365  97.0239959  26.9406829  81.6648769
  97.3139181  24.2767150  77.5406059  97.9102754  24.0523172  76.8263022
  97.3714153  23.5351895  78.1431506  96.8864210  21.7306585  65.3756250
  97.1389731  21.2088107  64.6139713  95.9488769  21.5672731  65.4782933
 101.9307493  20.7342364  73.1830993 102.7170582  20.3161787  72.8321410
 102.1946197  21.6388456  73.3512641 102.1017570  26.1715214  67.8819650
 101.4663403  26.2449840  68.5940554 101.7714976  26.7608813  67.2038729
 107.3315920  20.6717597  74.0863971 108.0641092  20.1016814  74.3201801
 106.5755276  20.2839197  74.5270477  96.6060499  23.6334691  67.5780625
  96.4896757  22.9579595  68.2461709  96.7162759  23.1467065  66.7612778
  98.9492040  23.0944838  71.2827314  98.5850247  22.5675459  71.9940235
  99.8059155  22.7043307  71.1093799 104.8541340  14.3839171  78.5458580
 104.5224665  15.2534582  78.3219795 104.2586954  14.0675455  79.2252610
  98.5897527  18.1234738  66.2788662  98.7571929  18.9914974  66.6459133
  98.3994696  18.2862020  65.3549952 101.3472860  26.5851717  77.9454493
 101.0473583  27.4876756  77.8370300 101.0023919  26.3183900  78.7975646
  94.7985341  23.0365514  73.9791197  93.8735838  22.9041728  74.1868889
  95.0469754  23.8159733  74.4761139 104.7470004  19.1034257  75.6251930
 103.8386881  19.0349666  75.3310691 104.6957599  19.5806202  76.4533755
  98.5686747  20.5792396  67.2635329  98.4486373  21.0249446  68.1020809
  97.8739336  20.9277713  66.7048867  92.1594152  22.6798787  74.8134986
  92.2886533  22.9333266  75.7274398  91.4791604  23.2726495  74.4939641
  96.3293640  33.3496037  70.9125460  96.2517669  34.3003862  70.9913941
  95.7255283  33.0041910  71.5700387  98.8210869  20.5223903  83.5686827
  98.0444203  21.0817823  83.5589692  99.4601432  21.0080686  84.0901697
 106.6131650  17.3050695  77.4029804 105.9706030  17.5983229  76.7569598
 106.1086578  17.1903616  78.2083001 104.2671814  21.0513869  68.0915663
 105.1789670  21.2841255  67.9163361 103.7581461  21.6350913  67.5290742
  97.0757242  23.3309356  83.1304794  97.8171926  23.8694400  82.8539618
  96.3694227  23.9575645  83.2876346 102.5512581  25.4738497  81.7276956
 102.9595937  25.0320907  80.9831588 101.8289843  24.8991124  81.9811149
  98.9043651  20.4111103  79.1010513  99.7504846  20.8350517  79.2445162
  98.8442289  19.7544728  79.7949076 102.8741396  26.0339687  75.4829245
 102.2450258  26.1985401  74.7805312 102.4867058  26.4481297  76.2540209
 106.7530628  26.9694125  72.8373608 106.0681666  27.3493026  72.2870642
 106.8374477  27.5789452  73.5705556 102.0543097  18.0715472  80.7591686
 101.8104028  18.8257532  80.2225962 102.3303027  18.4500819  81.5938933
 104.0081559  24.6154084  79.4368952 104.2198455  25.2585844  78.7603333
 103.9611308  23.7816401  78.9690882 101.6107788  17.2271905  76.3405524
 100.7492267  17.5253158  76.6322262 101.6370223  17.4442304  75.4086557
  98.4269358  25.7714095  72.7479330  98.8907703  26.0501798  71.9583952
  98.1626156  24.8697540  72.5652420  95.3193439  25.3185577  75.6859093
  95.8894796  25.7472845  75.0476577  95.9101551  25.0368161  76.3843279
  97.3638244  21.8937248  69.5568895  98.0662287  22.3458291  70.0242821
  97.0318872  21.2521066  70.1848788  95.8118605  20.4849004  83.9320104
  95.1817266  21.1665285  84.1655501  95.7054693  20.3732086  82.9873243
  91.1063578  20.1520800  74.8586028  90.3162632  20.4078329  74.3826139
  91.5974825  20.9669138  74.9638069 105.1227387  27.4926039  77.6091309
 105.9444831  27.0906227  77.3273991 105.1189790  27.3894274  78.5607425
  93.0578323  20.5165380  71.8169505  92.2609486  20.6284074  72.3353001
  92.8303915  20.8552032  70.9510396  98.8883991  27.0410083  79.7652020
  98.9528423  27.5030490  80.6010192  98.1794915  26.4107448  79.8934330
  89.3901281  20.4051291  77.2901019  89.6409319  21.2898301  77.5558595
  89.9260829  20.2255892  76.5176111 113.2133380  23.8364788  73.9576281
 112.4597089  23.2672186  73.8020285 113.3480922  23.8027452  74.9046915
  98.6032008  28.7078190  69.6331000  98.4677683  29.5529726  70.0615848
  99.1441821  28.9097468  68.8696934  95.0899348  14.7869770  86.2945355
  94.6966294  14.2335969  86.9693000  95.9065488  15.0980349  86.6851873
  92.0561406  26.2253628  70.2058925  92.5685926  27.0196879  70.3564490
  92.7084119  25.5279919  70.1392527  93.8656291  29.3419385  72.2881678
  94.0422919  30.2637349  72.1002662  94.6613124  29.0277804  72.7176058
  98.0067309  16.2027649  83.8865612  98.7477022  16.8034802  83.8070074
  98.2385232  15.4605287  83.3283654  93.1508647  21.3884016  82.1643842
  93.0362162  20.4869274  82.4650940  92.2953165  21.6347713  81.8128658
 100.2300485  29.3301757  83.7631342  99.7864339  28.5438135  83.4452247
 100.8917698  29.5180907  83.0975233  94.9887606  30.8597558  78.2892021
  95.5395031  30.7314622  77.5169015  94.1499082  31.1592447  77.9386913
 102.3281723  29.6104557  81.7912743 102.3100198  30.4313438  81.2993013
 103.2501643  29.4858632  82.0162885  98.7854777  27.1248686  82.6336252
  99.3183114  26.3636974  82.4035560  98.2568858  26.8322338  83.3760406
 101.9524472  12.2308752  78.1629894 101.6088741  13.1210394  78.0869004
 102.3203435  12.0410410  77.2999479  90.0210323  24.5542283  70.9818496
  90.8585545  24.9639291  70.7652203  90.1988590  23.6141725  70.9518690
 101.9174755  22.2217363  66.6702329 101.4021378  22.9921968  66.9090716
 101.6452063  21.5482499  67.2935390  99.5021866  17.0667064  71.7287567
  98.6463462  16.6773914  71.5493206  99.9148818  17.1459025  70.8687353
 101.0321012  14.6013407  76.1279127 100.5285808  14.5643542  75.3146932
 101.3251619  15.5106150  76.1875783  97.2763898  14.6852137  75.1345309
  98.1416895  14.4894946  74.7751198  97.3441407  14.4562489  76.0614665
 106.8909029  24.9749718  68.6055502 106.1138472  24.6360877  68.1610664
 107.5700510  24.9802341  67.9310467 101.7061058  20.0944455  68.4962110
 101.4011193  20.4090604  69.3472253 102.6591500  20.1725875  68.5389443
 100.1507490  26.2534679  70.1455064  99.6228851  25.5187438  69.8328301
  99.6494992  27.0309355  69.8995032 105.1300336  24.4483699  75.2622110
 104.4724010  25.1382961  75.3502239 105.9340735  24.8380131  75.6056096
  94.8826217  16.9154345  72.5061675  95.4569969  16.6929526  71.7734868
  95.4697200  16.9843039  73.2590277 103.9405795  22.8028072  73.3126052
 104.4537676  23.4358064  73.8147762 104.5907018  22.2029267  72.9469412
  95.2095804  18.9458806  66.5257561  94.3733117  19.2833492  66.8466835
  95.0700574  18.8107786  65.5884698  97.1848885  13.7895594  71.2336745
  96.5313297  13.4744611  70.6093360  97.1429359  13.1671334  71.9596568
  98.2960090  24.0714889  63.1490037  97.3887152  23.8404142  63.3481186
  98.7931122  23.2752508  63.3364018 101.2028169  32.7812396  66.0686723
 100.5289868  33.0844093  66.6771681 101.5893991  33.5841476  65.7192180
 100.4186625  20.2777527  75.5584392  99.5009187  20.4992474  75.4006080
 100.8346769  20.3523838  74.6996100 101.2021673  21.6768943  70.6887073
 101.9493492  22.1890340  70.3794195 101.4713263  21.3552996  71.5491466
  99.4748323  24.1727484  67.6714027  98.5659543  23.8886517  67.7686497
  99.5043407  24.5926562  66.8117334 104.7067591  27.7834073  71.4405195
 104.2529918  26.9424983  71.4970385 104.0761557  28.4195472  71.7779975
 103.6500510  18.7126059  72.6705862 102.9123267  18.2003445  73.0016105
 103.9027284  18.2726441  71.8589139 103.1500530  29.6210570  72.3755013
 103.4423504  30.1815627  71.6567378 103.6599151  29.9139131  73.1308172
  90.0436494  21.8932998  71.6529229  89.8460894  21.3002359  70.9280296
  89.4883158  21.5885208  72.3705168  98.0233217  21.7856104  73.7723822
  98.0781827  20.8329941  73.6966299  97.2124419  21.9415543  74.2565121
  99.1724411  25.7136227  65.0102106  98.7343841  24.9972086  64.5507743
  99.9134852  25.9412342  64.4487197  95.9625577  20.4033164  71.5314201
  95.1493443  20.7027335  71.9379393  96.4584572  20.0088853  72.2488683
  98.1134155  30.3990921  73.4648466  98.0710334  30.6251767  72.5356998
  99.0296854  30.1654296  73.6134267 101.5599789  20.8674989  80.3629095
 101.9149177  21.0946462  81.2223561 102.2071920  21.1993365  79.7406350
 107.2897526  23.9893424  71.0678424 107.1515425  24.1795020  70.1399613
 106.9333745  24.7512807  71.5246475  95.4539652  17.9751520  77.1475436
  96.0939031  17.8340279  76.4498399  94.6217183  17.6886033  76.7714038
 107.3166906  26.0569951  76.0789696 107.7503412  25.9645241  76.9272750
 108.0298486  26.0327452  75.4409712  96.2299956  27.2753950  73.2610429
  97.0240554  26.7804270  73.0593004  95.5191648  26.7471813  72.8978134
 101.0494800  29.6572046  77.6122796 101.1031823  30.2262982  78.3800512
 100.1809582  29.8273931  77.2476833  92.5382719  21.4197032  69.3370181
  91.6080308  21.3581487  69.5540143  92.6340191  20.8972985  68.5406823
  92.4568268  17.9451845  71.9248423  92.7175086  18.8597178  71.8157583
  93.2785441  17.4776287  72.0745036  93.9293194  19.3589602  79.0947247
  94.6016247  19.1506964  78.4459896  93.1022980  19.1611688  78.6552480
 108.1782455  26.0993652  78.6122581 108.3718345  27.0039463  78.8581856
 108.0783073  25.6401071  79.4461166  99.8318766  15.9851543  81.1112908
  99.1846681  16.6841492  81.0177385 100.6019781  16.4187687  81.4789157
 103.2397564  26.2500395  84.1863462 103.0883070  26.0210947  83.2693545
 103.2302243  27.2070996  84.1994807 100.0082900  23.8232308  79.1709728
 100.9374960  23.9743467  78.9978695  99.5873930  23.9116328  78.3158375
  98.8071232  27.8482972  76.9408266  98.6682318  27.4801756  77.8134204
  98.0185828  28.3630611  76.7692223  99.4019384  32.9492068  68.2833802
  99.5771140  32.4780112  69.0979425  98.7152172  33.5757835  68.5115063
 100.3576447  27.2264575  74.3297103 100.0226280  27.1865345  75.2254753
  99.8580393  26.5609291  73.8567514  94.3320691  22.6332205  79.8549685
  94.1940489  21.9012444  80.4561224  95.2425615  22.5441105  79.5733872
 103.2935639  24.5720609  64.6034163 102.6764809  23.8467437  64.5067216
 102.8252127  25.3329969  64.2601237  96.9602992  22.3452164  79.3433364
  97.6702610  21.7045356  79.3019983  96.9172300  22.5965059  80.2659545
 104.9489770  29.2819517  82.2639943 104.8902317  28.5978738  81.5970526
 105.3509289  30.0238507  81.8120569  95.6731926  19.3317382  81.1629004
  95.1369283  18.8808120  81.8150600  95.0848634  19.4663291  80.4199468
  93.9680469  36.0981431  75.0573662  94.2077067  36.7299955  75.7352681
  93.1249666  35.7469471  75.3439022  95.0834185  18.7906033  63.7255467
  94.2063651  18.6694834  63.3617714  95.5591938  17.9992112  63.4734356
 104.9507178  27.2459101  80.4953923 104.0633956  26.9085023  80.6180322
 105.5205729  26.5142133  80.7322689  86.6036325  23.5783193  73.8196975
  87.2907365  23.2644923  73.2317990  86.4484454  24.4824558  73.5464226
  91.4071047  18.4673390  78.2481998  91.3229236  17.8599059  77.5132408
  90.5853753  18.9582408  78.2491495  98.4808331  31.9060554  77.4615166
  98.4078503  32.7115525  77.9734471  98.0385724  32.1052520  76.6363188
  98.2698111  31.1432324  70.9717988  97.4865633  31.6854004  71.0656212
  98.9690856  31.6606303  71.3712229 101.5794761  16.9526953  73.6152193
 102.0763460  16.1996916  73.2953264 100.8081742  16.9891270  73.0495403
 109.4324518  22.6567319  75.2570485 109.4214394  23.5392034  74.8864418
 108.5641898  22.3038870  75.0625022 100.9407015  31.8047388  79.6173325
 101.6534987  32.4394853  79.5449226 100.4497043  31.9011254  78.8013327
 102.6624542  25.7098640  71.1890617 101.7280820  25.8300103  71.0195321
 102.8401210  24.8071107  70.9250627  98.1629730  19.0944336  73.3423878
  97.7927517  18.5415377  74.0304783  98.6588822  18.4902470  72.7898878
 106.0497093  21.5515960  71.7240651 106.5157545  22.3843951  71.6500953
 106.5004593  21.0860941  72.4285909  95.9918928  29.5541831  80.4378896
  96.6928388  30.1878314  80.5908290  95.5214043  29.8956563  79.6774535
 104.1173324  27.8959781  68.7226803 104.3933168  27.7816376  69.6320677
 103.2477823  27.4977266  68.6838976 104.0213756  13.9196547  75.7631552
 103.1076835  14.1500774  75.9313759 104.4506857  14.0034991  76.6145585
 103.7920214  22.1086439  78.2631446 103.1391664  22.3562346  77.6083899
 104.1700594  21.2950577  77.9293923 100.7527388  32.1446132  72.3659616
 100.9349783  31.3267788  72.8287369 101.5760374  32.3613824  71.9284506
 101.0869553  31.0714317  69.6274665 101.6157320  30.5606772  69.0144827
 101.3497773  30.7556847  70.4920198  99.8407787  22.8506250  84.7497483
  99.1648424  22.7500379  85.4199858 100.6635421  22.6945463  85.2133480
  91.5886646  29.0878186  77.3709999  92.1740083  28.3421874  77.5037903
  91.3911485  29.3982143  78.2546662  94.4425301  32.1229434  72.3872441
  93.7735677  32.6075561  71.9036481  94.3038171  32.3698654  73.3015819
  86.1804301  21.6583786  76.0914442  86.2188400  21.1247377  76.8851560
  85.6744594  21.1318992  75.4725419  98.5830570  34.1573177  78.9855099
  99.1348878  34.3204799  79.7504184  98.9236763  34.7477615  78.3135124
  93.5595063  16.5048327  79.5876984  93.6236390  17.3663158  79.1754382
  93.4962183  15.8922329  78.8549342  93.0347336  18.5771460  83.2350018
  93.6619375  18.1948537  83.8487543  92.1775255  18.3585661  83.6005711
 103.4341444  28.9834435  84.8403754 103.9781348  29.5964393  84.3458708
 102.8528289  29.5414013  85.3570767  89.8112879  20.3847889  69.1668373
  90.1066320  19.4758567  69.1135427  88.9100914  20.3635628  68.8449375
 101.7198957  32.1055153  75.9718781 101.5950097  31.3044893  75.4629727
 102.3778048  32.6001346  75.4832751  93.3407126  18.4603885  75.1495922
  92.6193711  19.0739853  75.0103395  94.1300381  18.9961650  75.0712568
 103.7833866  29.9064173  77.5998332 102.8364201  29.7869524  77.5276658
 104.1316639  29.0186671  77.6824593  96.1433439  15.7958312  81.4236573
  96.6667841  16.0420608  82.1862883  95.9245772  16.6278346  81.0039711
  91.5400720  18.0661986  69.2907698  91.2113426  17.1859365  69.1082804
  91.8940091  18.0109655  70.1784087 100.7880299  29.7016889  73.8002684
 100.6405261  28.7733596  73.9810254 101.6133792  29.7236980  73.3159759
  94.6542543  18.3534956  69.6583176  94.9938616  18.8820877  68.9361784
  95.1014664  18.6915362  70.4341742 104.3914421  30.5245448  74.8867556
 105.3160968  30.3188309  74.7492008 104.2229724  30.2761849  75.7956898
  97.3485984  16.7372007  79.1086244  97.0082804  15.9379820  79.5106924
  96.6424990  17.0373718  78.5363077  98.0002456  13.8221319  77.5613567
  98.8228525  13.3481797  77.4392457  98.2440519  14.6011803  78.0612253
  96.6410690  16.8509578  67.8576469  97.3619053  17.2290830  67.3540185
  96.0175995  17.5698454  67.9611447 100.7841813  17.5554727  68.7934801
 101.0005428  18.4379365  68.4923629 100.3035880  17.1640940  68.0640443
  95.5241035  20.5140440  75.3705546  95.3785615  20.8280743  76.2629827
  95.0466238  21.1325340  74.8176444  97.3837418  17.5042988  75.4186435
  97.3698986  16.6084081  75.0818733  98.1009846  17.5113652  76.0524721
  99.2363548  17.9380328  77.4639563  98.9781326  18.8597399  77.4623893
  98.7048589  17.5410763  78.1540027 104.1809737  31.0431115  70.2429648
 104.3546615  30.4777538  69.4903500 104.6738628  31.8432010  70.0609138
  89.9986697  23.0545784  78.3093207  89.4540165  23.8305592  78.4413481
  90.8766047  23.4016589  78.1512328  96.7874313  16.3857368  70.6874005
  96.9090225  15.4574014  70.8864893  96.4976356  16.3996054  69.7752321
  99.6565504  14.0712279  73.8240725  99.6787201  14.1351612  72.8692705
 100.0733563  13.2316787  74.0181231 110.0349128  23.8067538  71.8619948
 110.4780274  23.0574863  71.4639071 109.1575638  23.7977674  71.4793680
 105.1684910  30.3597880  67.3426546 105.8635814  30.9804572  67.5613861
 105.5108060  29.5093231  67.6178924  90.7852719  22.1815681  81.2023364
  90.0434455  22.3298316  81.7887994  90.4645463  22.4423946  80.3390113
 107.0676333  27.8097585  68.8713877 107.5927657  28.1484858  68.1463197
 106.9798685  26.8744600  68.6877012  98.7296381  31.7231659  81.0003754
  99.0383508  31.4780806  81.8726453  99.5271863  31.9278297  80.5122624
  98.7516993  33.8769568  73.2309130  98.3121984  33.3845947  73.9241987
  99.5025110  33.3342536  72.9901205  91.2309332  30.0681109  73.2333758
  92.0567352  29.7684881  72.8532402  90.8803384  29.2988732  73.6823547
  96.1990866  29.4207577  75.3031432  95.5770875  28.7578282  75.0033660
  96.8695732  29.4468709  74.6205080  89.4317937  27.9867436  74.1922692
  88.5949846  27.5589610  74.0106693  89.4041583  28.1799879  75.1293483
  96.2715393  17.8989365  84.8963938  96.3203549  18.7751488  84.5141707
  96.8137907  17.3566759  84.3235581 106.7570239  28.4430489  84.1765075
 105.9665782  28.4254628  83.6369574 106.5203593  28.9818782  84.9314112
 106.8768114  25.2922955  81.4897803 106.9266119  25.1272963  82.4313326
 106.7682037  24.4250214  81.0995684  95.7604372  27.9711501  68.7789892
  95.9092493  28.6546965  68.1256565  96.5670816  27.9516591  69.2939348
 104.1671876  21.2753883  82.8057110 105.0681739  21.1360348  82.5141108
 104.2419851  21.4408338  83.7455288  98.5014681  18.6520738  81.6510297
  97.6317991  18.9454304  81.3792885  98.7374162  19.2361183  82.3717560
 108.3786311  27.7119897  81.7339825 108.0871119  28.0749877  82.5703286
 107.7658442  26.9986905  81.5553157 109.5781993  25.2772776  74.2542395
 110.4128884  25.7162580  74.4179956 109.7141122  24.8011430  73.4350641
 106.6273499  22.8352511  80.2019883 107.1027620  23.0280158  79.3938734
 105.7039064  22.8911697  79.9563267  93.5157005  23.9976678  69.7850961
  93.2703047  23.0939008  69.9831171  93.6852920  23.9993829  68.8430439
 101.2053715  14.8700355  79.1675717 101.7235659  15.6061382  78.8422205
 100.8508848  15.1764348  80.0022476  92.7852653  19.7305036  67.2837123
  92.0921898  19.8049391  66.6277159  92.5404405  18.9665380  67.8058640
  99.2599778  30.4659631  66.2501640  98.6873745  31.0849818  65.7972112
  99.8332572  31.0158993  66.7841562 105.3275168  19.7118271  78.4348189
 106.2792591  19.8116369  78.4560413 105.1578618  18.9196540  78.9446273
 103.3489547  16.7973855  78.6207590 102.7539479  17.0778867  77.9254078
 103.0639244  17.2867755  79.3924331 102.4797038  30.7496781  67.3810222
 103.4127711  30.6842343  67.5843098 102.3920251  31.5853048  66.9224755
 105.1085054  30.0662652  64.3414170 105.0298686  29.7322515  65.2349928
 105.9294721  30.5584420  64.3405642 107.8063246  22.9324391  77.5490488
 107.7739566  21.9940392  77.7350172 108.4163869  23.0108428  76.8156313
  99.6446576  21.8020444  63.5917692 100.5905681  21.6726652  63.6606110
  99.2660821  21.0635106  64.0687120 107.9557734  19.7235434  77.5948771
 107.4396783  18.9393891  77.4078700 108.8397683  19.3954151  77.7595291
 105.6168461  13.4676450  73.5544584 105.4193282  13.1591538  74.4387916
 106.2268167  14.1938089  73.6842514 113.6239795  23.9940398  76.6896525
 114.3543184  23.7325686  77.2504228 113.0146741  23.2569120  76.7298593
 111.7055093  22.1348260  77.2870976 110.9788256  22.0004225  76.6787468
 111.2902379  22.4425089  78.0927694  99.5285269  25.8538190  85.0518349
 100.4488278  26.0316789  85.2458396  99.4934852  24.9094235  84.8998049
  97.8289494  19.7270420  63.5272578  96.9220949  19.4303533  63.6035291
  98.1065475  19.4300238  62.6606864  88.7467434  21.0476784  73.9771624
  88.4270218  20.1942092  73.6845998  88.2000862  21.2625362  74.7329591
  92.5247342  23.7639225  77.6941130  92.7433351  24.6956333  77.7129164
  92.9373115  23.4047199  78.4795934  99.4451559  14.2707310  69.6816819
  98.6352288  13.9254395  70.0572065 100.1335976  13.9614854  70.2704430
 101.3742108  13.3485357  71.3041115 101.9273146  13.7680810  71.9631139
 101.6112194  12.4221105  71.3464071  97.3975207  19.3372431  87.0843879
  97.2971934  20.2866788  87.0155970  97.1796749  19.0090669  86.2119949
  96.5988278  16.5857356  63.6684557  97.4607442  16.9112254  63.9280374
  96.7838622  15.7988852  63.1557623  88.6155694  24.6679695  75.9464746
  87.9219165  24.2533648  75.4334700  89.3628685  24.7100232  75.3498164
 104.7520915  15.4585882  70.8119780 104.1719584  16.1170686  70.4297832
 104.4856847  14.6363227  70.4007197 103.2024481  14.8590940  73.0141100
 103.7024259  14.9707474  72.2055419 103.8460089  14.5551993  73.6541909
  97.2606477  22.7669569  85.9008941  96.7773559  23.5669930  86.1072830
  97.3467416  22.7777514  84.9476385  90.5292437  24.5997949  73.8230760
  90.5063125  24.6985636  72.8712643  90.8393073  25.4463100  74.1447927
  93.1879814  26.6574104  77.9377375  94.1423068  26.6258046  77.8707306
  92.9892338  26.1964728  78.7527601  93.7779197  25.2275220  80.5048172
  94.5972086  25.7219299  80.5283010  94.0516004  24.3107188  80.4765740
 103.5345793  17.6185972  69.8676128 102.6471648  17.9035623  69.6496323
 103.9499782  17.4579736  69.0203405 106.8860329  17.6432493  73.5830467
 107.6620719  18.1328946  73.8555084 106.1608463  18.0690548  74.0402337
 109.3232888  18.3560113  74.6404408 109.9177378  18.1155849  73.9297716
 109.3959471  17.6367243  75.2677944  91.5430043  32.1993724  74.9547573
  91.4084511  31.4394124  74.3885571  91.1262105  32.9234623  74.4876362
 102.6789006  27.3830647  63.9624148 103.3824856  27.5880650  64.5781804
 101.9551655  27.9507409  64.2273231 103.5086816  23.1340508  70.0826418
 103.4522018  23.5909060  69.2434051 104.0615159  22.3731193  69.9049261
 107.3191622  18.9230240  70.9076538 107.0628557  18.5226876  71.7384745
 106.6944490  19.6374034  70.7826677 111.6303960  21.6626314  73.4147829
 111.0703518  21.7319503  74.1879391 111.0247464  21.4867298  72.6947325
  94.6999169  33.0963041  75.1666015  94.5831553  34.0408473  75.0644706
  93.8791615  32.7936602  75.5551815 104.5875704  27.8213176  66.0122608
 105.4221308  27.3894375  65.8300083 104.4260047  27.6495190  66.9399503
 104.2421596  24.3245290  67.3778947 104.1870400  24.1589561  66.4367391
 103.6167651  25.0321323  67.5341137  89.0314111  19.5613354  81.2040370
  89.6772974  19.0512308  81.6927595  88.8231262  20.2982036  81.7783795
 101.5567503  26.6294201  86.7032510 102.4258663  26.8034854  86.3419145
 101.0774254  27.4488618  86.5808239  97.5517721  13.8253399  66.9564266
  97.5396391  14.7695239  67.1132537  98.4441143  13.6423544  66.6623727
  95.7253683  33.7491303  78.3821944  96.6280930  33.7814913  78.6988439
  95.4991053  32.8191753  78.3968280  97.4807285  32.5022289  75.0432022
  96.5302916  32.5024151  74.9296395  97.7839771  31.7555024  74.5268057
  93.3711602  16.7080971  85.3015384  94.2343063  16.3517776  85.5118708
  92.7977012  16.3694866  85.9890788 113.2159979  38.3382827  76.1077785
 113.8538389  38.2189575  75.4041125 113.0980822  39.2863671  76.1665737
 110.0249685  38.2910256  76.0439309 109.6868197  38.1751320  75.1559844
 110.8939453  37.8901421  76.0240316 105.8836501  40.1445732  72.0336200
 105.3201366  40.0535669  71.2652488 105.7688896  39.3245636  72.5138693
 110.5069468  39.4445107  82.0025515 110.4958109  39.0497906  81.1306019
 110.6690107  38.7111180  82.5959286 103.4300933  41.6396924  74.8720421
 104.2222225  41.2987748  74.4566720 103.6697583  41.7491899  75.7922574
 111.4636059  43.8116700  67.3450665 110.8124039  44.3970780  66.9584679
 112.2580422  44.3422895  67.4045703 105.3891687  40.9005837  67.7437800
 106.1622563  40.3534824  67.6050675 105.7417085  41.7650086  67.9552261
 107.2276729  42.2282219  80.9504699 106.9366595  43.1327850  80.8351365
 107.8633713  42.2698747  81.6648769 108.1532936  39.6059068  77.5406059
 108.7496508  39.3815090  76.8263022 108.2107908  38.8643813  78.1431506
 107.7257964  37.0598503  65.3756250 107.9783485  36.5380024  64.6139713
 106.7882523  36.8964648  65.4782933 112.7701247  36.0634281  73.1830993
 113.5564336  35.6453704  72.8321410 113.0339952  36.9680373  73.3512641
 112.9411325  41.5007132  67.8819650 112.3057158  41.5741758  68.5940554
 112.6108731  42.0900730  67.2038729 118.1709674  36.0009514  74.0863971
 118.9034846  35.4308731  74.3201801 117.4149030  35.6131115  74.5270477
 107.4454253  38.9626609  67.5780625 107.3290511  38.2871512  68.2461709
 107.5556513  38.4758983  66.7612778 109.7885794  38.4236756  71.2827314
 109.4244001  37.8967377  71.9940235 110.6452910  38.0335225  71.1093799
 115.6935095  29.7131089  78.5458580 115.3618419  30.5826500  78.3219795
 115.0980708  29.3967373  79.2252610 109.4291281  33.4526656  66.2788662
 109.5965683  34.3206892  66.6459133 109.2388450  33.6153937  65.3549952
 112.1866614  41.9143635  77.9454493 111.8867337  42.8168673  77.8370300
 111.8417674  41.6475818  78.7975646 105.6379096  38.3657431  73.9791197
 104.7129592  38.2333646  74.1868889 105.8863509  39.1451651  74.4761139
 115.5863758  34.4326175  75.6251930 114.6780635  34.3641583  75.3310691
 115.5351354  34.9098120  76.4533755 109.4080502  35.9084313  67.2635329
 109.2880127  36.3541364  68.1020809 108.7133090  36.2569631  66.7048867
 102.9987907  38.0090705  74.8134986 103.1280288  38.2625184  75.7274398
 102.3185358  38.6018413  74.4939641 107.1687394  48.6787955  70.9125460
 107.0911424  49.6295780  70.9913941 106.5649038  48.3333827  71.5700387
 109.6604624  35.8515820  83.5686827 108.8837958  36.4109741  83.5589692
 110.2995187  36.3372603  84.0901697 117.4525404  32.6342613  77.4029804
 116.8099785  32.9275146  76.7569598 116.9480333  32.5195534  78.2083001
 115.1065568  36.3805786  68.0915663 116.0183424  36.6133173  67.9163361
 114.5975215  36.9642831  67.5290742 107.9150996  38.6601274  83.1304794
 108.6565680  39.1986318  82.8539618 107.2087982  39.2867562  83.2876346
 113.3906336  40.8030414  81.7276956 113.7989692  40.3612825  80.9831588
 112.6683597  40.2283042  81.9811149 109.7437406  35.7403021  79.1010513
 110.5898601  36.1642435  79.2445162 109.6836043  35.0836645  79.7949076
 113.7135150  41.3631605  75.4829245 113.0844013  41.5277319  74.7805312
 113.3260812  41.7773214  76.2540209 117.5924382  42.2986043  72.8373608
 116.9075420  42.6784944  72.2870642 117.6768232  42.9081369  73.5705556
 112.8936851  33.4007389  80.7591686 112.6497783  34.1549450  80.2225962
 113.1696782  33.7792737  81.5938933 114.8475314  39.9446002  79.4368952
 115.0592209  40.5877762  78.7603333 114.8005062  39.1108318  78.9690882
 112.4501543  32.5563822  76.3405524 111.5886022  32.8545076  76.6322262
 112.4763977  32.7734221  75.4086557 109.2663112  41.1006013  72.7479330
 109.7301458  41.3793716  71.9583952 109.0019910  40.1989457  72.5652420
 106.1587193  40.6477494  75.6859093 106.7288550  41.0764763  75.0476577
 106.7495305  40.3660079  76.3843279 108.2031998  37.2229165  69.5568895
 108.9056042  37.6750209  70.0242821 107.8712627  36.5812984  70.1848788
 106.6512360  35.8140922  83.9320104 106.0211020  36.4957203  84.1655501
 106.5448448  35.7024004  82.9873243 101.9457332  35.4812718  74.8586028
 101.1556386  35.7370246  74.3826139 102.4368580  36.2961056  74.9638069
 115.9621142  42.8217957  77.6091309 116.7838586  42.4198144  77.3273991
 115.9583545  42.7186191  78.5607425 103.8972078  35.8457297  71.8169505
 103.1003241  35.9575991  72.3353001 103.6697670  36.1843949  70.9510396
 109.7277745  42.3702000  79.7652020 109.7922178  42.8322408  80.6010192
 109.0188669  41.7399365  79.8934330 100.2295035  35.7343208  77.2901019
 100.4803074  36.6190218  77.5558595 100.7654584  35.5547810  76.5176111
 109.4425763  44.0370108  69.6331000 109.3071438  44.8821644  70.0615848
 109.9835575  44.2389386  68.8696934 105.9293103  30.1161688  86.2945355
 105.5360048  29.5627886  86.9693000 106.7459243  30.4272266  86.6851873
 102.8955160  41.5545546  70.2058925 103.4079681  42.3488796  70.3564490
 103.5477873  40.8571836  70.1392527 104.7050045  44.6711302  72.2881678
 104.8816673  45.5929267  72.1002662 105.5006879  44.3569721  72.7176058
 108.8461064  31.5319567  83.8865612 109.5870777  32.1326720  83.8070074
 109.0778986  30.7897205  83.3283654 103.9902402  36.7175934  82.1643842
 103.8755917  35.8161191  82.4650940 103.1346919  36.9639631  81.8128658
 111.0694239  44.6593674  83.7631342 110.6258093  43.8730053  83.4452247
 111.7311453  44.8472825  83.0975233 105.8281360  46.1889476  78.2892021
 106.3788786  46.0606539  77.5169015 104.9892836  46.4884365  77.9386913
 113.1675477  44.9396474  81.7912743 113.1493953  45.7605355  81.2993013
 114.0895397  44.8150550  82.0162885 109.6248532  42.4540604  82.6336252
 110.1576868  41.6928892  82.4035560 109.0962613  42.1614256  83.3760406
 112.7918226  27.5600670  78.1629894 112.4482496  28.4502311  78.0869004
 113.1597189  27.3702327  77.2999479 100.8604077  39.8834200  70.9818496
 101.6979299  40.2931209  70.7652203 101.0382345  38.9433642  70.9518690
 112.7568509  37.5509281  66.6702329 112.2415133  38.3213886  66.9090716
 112.4845818  36.8774417  67.2935390 110.3415620  32.3958982  71.7287567
 109.4857217  32.0065832  71.5493206 110.7542572  32.4750942  70.8687353
 111.8714767  29.9305325  76.1279127 111.3679562  29.8935460  75.3146932
 112.1645374  30.8398068  76.1875783 108.1157653  30.0144055  75.1345309
 108.9810650  29.8186863  74.7751198 108.1835162  29.7854406  76.0614665
 117.7302783  40.3041636  68.6055502 116.9532226  39.9652795  68.1610664
 118.4094264  40.3094259  67.9310467 112.5454812  35.4236373  68.4962110
 112.2404948  35.7382522  69.3472253 113.4985255  35.5017793  68.5389443
 110.9901244  41.5826596  70.1455064 110.4622606  40.8479356  69.8328301
 110.4888747  42.3601273  69.8995032 115.9694090  39.7775617  75.2622110
 115.3117765  40.4674878  75.3502239 116.7734489  40.1672049  75.6056096
 105.7219972  32.2446263  72.5061675 106.2963724  32.0221444  71.7734868
 106.3090954  32.3134957  73.2590277 114.7799549  38.1319989  73.3126052
 115.2931431  38.7649981  73.8147762 115.4300773  37.5321185  72.9469412
 106.0489559  34.2750724  66.5257561 105.2126871  34.6125410  66.8466835
 105.9094329  34.1399703  65.5884698 108.0242640  29.1187511  71.2336745
 107.3707052  28.8036529  70.6093360 107.9823114  28.4963252  71.9596568
 109.1353844  39.4006807  63.1490037 108.2280906  39.1696060  63.3481186
 109.6324876  38.6044426  63.3364018 112.0421923  48.1104314  66.0686723
 111.3683622  48.4136011  66.6771681 112.4287745  48.9133394  65.7192180
 111.2580380  35.6069445  75.5584392 110.3402941  35.8284392  75.4006080
 111.6740524  35.6815755  74.6996100 112.0415428  37.0060861  70.6887073
 112.7887247  37.5182258  70.3794195 112.3107017  36.6844913  71.5491466
 110.3142078  39.5019401  67.6714027 109.4053297  39.2178434  67.7686497
 110.3437162  39.9218480  66.8117334 115.5461345  43.1125991  71.4405195
 115.0923672  42.2716901  71.4970385 114.9155312  43.7487389  71.7779975
 114.4894265  34.0417977  72.6705862 113.7517022  33.5295363  73.0016105
 114.7421038  33.6018359  71.8589139 113.9894285  44.9502488  72.3755013
 114.2817259  45.5107545  71.6567378 114.4992905  45.2431049  73.1308172
 114.5905892  26.8194229  73.2647631 114.8964769  25.9591592  72.9773546
 115.3158497  27.4111849  73.0646625 100.8830248  37.2224916  71.6529229
 100.6854648  36.6294276  70.9280296 100.3276912  36.9177126  72.3705168
 108.8626972  37.1148022  73.7723822 108.9175582  36.1621858  73.6966299
 108.0518174  37.2707461  74.2565121 110.0118166  41.0428145  65.0102106
 109.5737596  40.3264004  64.5507743 110.7528607  41.2704260  64.4487197
 106.8019332  35.7325082  71.5314201 105.9887197  36.0319252  71.9379393
 107.2978326  35.3380771  72.2488683 108.9527910  45.7282839  73.4648466
 108.9104088  45.9543685  72.5356998 109.8690609  45.4946213  73.6134267
 112.3993543  36.1966906  80.3629095 112.7542931  36.4238379  81.2223561
 113.0465675  36.5285283  79.7406350 118.1291280  39.3185342  71.0678424
 117.9909179  39.5086938  70.1399613 117.7727499  40.0804725  71.5246475
 106.2933407  33.3043437  77.1475436 106.9332786  33.1632196  76.4498399
 105.4610937  33.0177951  76.7714038 118.1560660  41.3861869  76.0789696
 118.5897167  41.2937158  76.9272750 118.8692241  41.3619370  75.4409712
 107.0693710  42.6045868  73.2610429 107.8634309  42.1096188  73.0593004
 106.3585403  42.0763731  72.8978134 111.8888555  44.9863963  77.6122796
 111.9425577  45.5554900  78.3800512 111.0203336  45.1565848  77.2476833
 103.3776474  36.7488949  69.3370181 102.4474062  36.6873405  69.5540143
 103.4733946  36.2264902  68.5406823 103.2962023  33.2743762  71.9248423
 103.5568840  34.1889096  71.8157583 104.1179195  32.8068205  72.0745036
 104.7686948  34.6881519  79.0947247 105.4410002  34.4798882  78.4459896
 103.9416735  34.4903605  78.6552480 119.0176210  41.4285570  78.6122581
 119.2112100  42.3331380  78.8581856 118.9176828  40.9692989  79.4461166
 110.6712520  31.3143460  81.1112908 110.0240435  32.0133410  81.0177385
 111.4413536  31.7479604  81.4789157 114.0791318  41.5792313  84.1863462
 113.9276825  41.3502864  83.2693545 114.0695998  42.5362914  84.1994807
 110.8476655  39.1524225  79.1709728 111.7768715  39.3035385  78.9978695
 110.4267685  39.2408246  78.3158375 109.6464986  43.1774890  76.9408266
 109.5076072  42.8093674  77.8134204 108.8579583  43.6922529  76.7692223
 110.2413138  48.2783986  68.2833802 110.4164894  47.8072029  69.0979425
 109.5545926  48.9049752  68.5115063 111.1970202  42.5556492  74.3297103
 110.8620034  42.5157262  75.2254753 110.6974147  41.8901208  73.8567514
 105.1714446  37.9624122  79.8549685 105.0334244  37.2304361  80.4561224
 106.0819369  37.8733023  79.5733872 114.1329393  39.9012527  64.6034163
 113.5158564  39.1759355  64.5067216 113.6645882  40.6621887  64.2601237
 107.7996746  37.6744082  79.3433364 108.5096365  37.0337274  79.3019983
 107.7566054  37.9256977  80.2659545 115.7883525  44.6111435  82.2639943
 115.7296071  43.9270655  81.5970526 116.1903043  45.3530425  81.8120569
 106.5125680  34.6609300  81.1629004 105.9763037  34.2100038  81.8150600
 105.9242389  34.7955208  80.4199468 104.8074224  51.4273349  75.0573662
 105.0470822  52.0591873  75.7352681 103.9643420  51.0761389  75.3439022
 105.9227939  34.1197951  63.7255467 105.0457405  33.9986752  63.3617714
 106.3985692  33.3284029  63.4734356 115.7900932  42.5751019  80.4953923
 114.9027711  42.2376941  80.6180322 116.3599483  41.8434050  80.7322689
  97.4430079  38.9075111  73.8196975  98.1301119  38.5936841  73.2317990
  97.2878208  39.8116475  73.5464226 102.2464801  33.7965307  78.2481998
 102.1622990  33.1890977  77.5132408 101.4247508  34.2874326  78.2491495
 109.3202086  47.2352471  77.4615166 109.2472257  48.0407443  77.9734471
 108.8779479  47.4344437  76.6363188 109.1091865  46.4724241  70.9717988
 108.3259387  47.0145922  71.0656212 109.8084610  46.9898221  71.3712229
 112.4188515  32.2818871  73.6152193 112.9157215  31.5288833  73.2953264
 111.6475497  32.3183188  73.0495403 120.2718273  37.9859236  75.2570485
 120.2608149  38.8683952  74.8864418 119.4035652  37.6330787  75.0625022
 111.7800769  47.1339305  79.6173325 112.4928741  47.7686770  79.5449226
 111.2890798  47.2303171  78.8013327 113.5018296  41.0390558  71.1890617
 112.5674575  41.1592021  71.0195321 113.6794964  40.1363025  70.9250627
 109.0023484  34.4236254  73.3423878 108.6321272  33.8707294  74.0304783
 109.4982577  33.8194387  72.7898878 116.8890847  36.8807877  71.7240651
 117.3551300  37.7135869  71.6500953 117.3398348  36.4152859  72.4285909
 106.8312683  44.8833749  80.4378896 107.5322142  45.5170232  80.5908290
 106.3607798  45.2248480  79.6774535 114.9567078  43.2251699  68.7226803
 115.2326922  43.1108293  69.6320677 114.0871577  42.8269184  68.6838976
 114.8607510  29.2488464  75.7631552 113.9470590  29.4792691  75.9313759
 115.2900612  29.3326908  76.6145585 114.6313969  37.4378356  78.2631446
 113.9785419  37.6854264  77.6083899 115.0094349  36.6242495  77.9293923
 111.5921142  47.4738050  72.3659616 111.7743537  46.6559705  72.8287369
 112.4154129  47.6905742  71.9284506 111.9263308  46.4006235  69.6274665
 112.4551074  45.8898689  69.0144827 112.1891528  46.0848765  70.4920198
 110.6801542  38.1798167  84.7497483 110.0042179  38.0792297  85.4199858
 111.5029176  38.0237381  85.2133480 102.4280401  44.4170104  77.3709999
 103.0133838  43.6713792  77.5037903 102.2305239  44.7274061  78.2546662
 105.2819056  47.4521351  72.3872441 104.6129431  47.9367479  71.9036481
 105.1431926  47.6990572  73.3015819  97.0198055  36.9875704  76.0914442
  97.0582155  36.4539295  76.8851560  96.5138348  36.4610910  75.4725419
 109.4224325  49.4865095  78.9855099 109.9742633  49.6496716  79.7504184
 109.7630518  50.0769533  78.3135124 104.3988818  31.8340245  79.5876984
 104.4630144  32.6955076  79.1754382 104.3355938  31.2214246  78.8549342
 103.8741090  33.9063377  83.2350018 104.5013129  33.5240454  83.8487543
 103.0169009  33.6877579  83.6005711 114.2735199  44.3126352  84.8403754
 114.8175103  44.9256311  84.3458708 113.6922044  44.8705931  85.3570767
 100.6506633  35.7139806  69.1668373 100.9460074  34.8050485  69.1135427
  99.7494669  35.6927546  68.8449375 112.5592712  47.4347070  75.9718781
 112.4343851  46.6336810  75.4629727 113.2171803  47.9293264  75.4832751
 104.1800880  33.7895803  75.1495922 103.4587466  34.4031771  75.0103395
 104.9694136  34.3253568  75.0712568 114.6227620  45.2356090  77.5998332
 113.6757956  45.1161442  77.5276658 114.9710393  44.3478588  77.6824593
 106.9827194  31.1250229  81.4236573 107.5061595  31.3712526  82.1862883
 106.7639527  31.9570264  81.0039711 102.3794475  33.3953904  69.2907698
 102.0507181  32.5151283  69.1082804 102.7333845  33.3401573  70.1784087
 111.6274053  45.0308807  73.8002684 111.4799016  44.1025514  73.9810254
 112.4527547  45.0528897  73.3159759 105.4936298  33.6826874  69.6583176
 105.8332370  34.2112795  68.9361784 105.9408418  34.0207280  70.4341742
 115.2308175  45.8537365  74.8867556 116.1554723  45.6480227  74.7492008
 115.0623479  45.6053767  75.7956898 108.1879739  32.0663924  79.1086244
 107.8476559  31.2671738  79.5106924 107.4818745  32.3665635  78.5363077
 108.8396210  29.1513237  77.5613567 109.6622280  28.6773715  77.4392457
 109.0834274  29.9303721  78.0612253 107.4804445  32.1801495  67.8576469
 108.2012807  32.5582748  67.3540185 106.8569749  32.8990372  67.9611447
 111.6235568  32.8846644  68.7934801 111.8399182  33.7671282  68.4923629
 111.1429635  32.4932858  68.0640443 106.3634789  35.8432358  75.3705546
 106.2179370  36.1572661  76.2629827 105.8859993  36.4617258  74.8176444
 108.2231172  32.8334906  75.4186435 108.2092741  31.9375999  75.0818733
 108.9403600  32.8405569  76.0524721 110.0757303  33.2672246  77.4639563
 109.8175081  34.1889316  77.4623893 109.5442343  32.8702680  78.1540027
 115.0203492  46.3723033  70.2429648 115.1940369  45.8069455  69.4903500
 115.5132383  47.1723928  70.0609138 100.8380451  38.3837702  78.3093207
 100.2933919  39.1597510  78.4413481 101.7159801  38.7308506  78.1512328
 107.6268068  31.7149286  70.6874005 107.7483979  30.7865932  70.8864893
 107.3370110  31.7287972  69.7752321 110.4959258  29.4004196  73.8240725
 110.5180955  29.4643529  72.8692705 110.9127317  28.5608705  74.0181231
 120.8742883  39.1359456  71.8619948 121.3174029  38.3866781  71.4639071
 119.9969393  39.1269592  71.4793680 116.0078664  45.6889797  67.3426546
 116.7029569  46.3096490  67.5613861 116.3501814  44.8385148  67.6178924
 101.6246473  37.5107598  81.2023364 100.8828209  37.6590234  81.7887994
 101.3039217  37.7715864  80.3390113 117.9070087  43.1389503  68.8713877
 118.4321411  43.4776776  68.1463197 117.8192440  42.2036518  68.6877012
 109.5690136  47.0523576  81.0003754 109.8777262  46.8072723  81.8726453
 110.3665618  47.2570215  80.5122624 109.5910748  49.2061486  73.2309130
 109.1515738  48.7137865  73.9241987 110.3418865  48.6634454  72.9901205
 102.0703087  45.3973027  73.2333758 102.8961107  45.0976799  72.8532402
 101.7197139  44.6280649  73.6823547 107.0384620  44.7499495  75.3031432
 106.4164629  44.0870200  75.0033660 107.7089487  44.7760627  74.6205080
 100.2711692  43.3159353  74.1922692  99.4343600  42.8881528  74.0106693
 100.2435337  43.5091797  75.1293483 107.1109148  33.2281283  84.8963938
 107.1597303  34.1043406  84.5141707 107.6531662  32.6858676  84.3235581
 117.5963993  43.7722406  84.1765075 116.8059537  43.7546545  83.6369574
 117.3597348  44.3110700  84.9314112 117.7161868  40.6214873  81.4897803
 117.7659873  40.4564880  82.4313326 117.6075792  39.7542132  81.0995684
 106.5998127  43.3003418  68.7789892 106.7486247  43.9838883  68.1256565
 107.4064570  43.2808509  69.2939348 115.0065631  36.6045801  82.8057110
 115.9075493  36.4652266  82.5141108 115.0813605  36.7700256  83.7455288
 109.3408436  33.9812656  81.6510297 108.4711745  34.2746222  81.3792885
 109.5767916  34.5653101  82.3717560 119.2180065  43.0411814  81.7339825
 118.9264873  43.4041795  82.5703286 118.6052196  42.3278823  81.5553157
 120.4175747  40.6064694  74.2542395 121.2522639  41.0454498  74.4179956
 120.5534876  40.1303347  73.4350641 117.4667253  38.1644429  80.2019883
 117.9421375  38.3572075  79.3938734 116.5432819  38.2203615  79.9563267
 104.3550760  39.3268596  69.7850961 104.1096802  38.4230926  69.9831171
 104.5246674  39.3285747  68.8430439 112.0447470  30.1992272  79.1675717
 112.5629414  30.9353299  78.8422205 111.6902603  30.5056266  80.0022476
 103.6246407  35.0596954  67.2837123 102.9315652  35.1341309  66.6277159
 103.3798159  34.2957297  67.8058640 112.2960064  26.6192555  74.6876614
 112.5761818  25.9515744  75.3137040 113.0810671  26.8121651  74.1751277
 110.0993532  45.7951549  66.2501640 109.5267500  46.4141736  65.7972112
 110.6726326  46.3450911  66.7841562 116.1668922  35.0410189  78.4348189
 117.1186345  35.1408287  78.4560413 115.9972373  34.2488458  78.9446273
 114.1883302  32.1265772  78.6207590 113.5933234  32.4070785  77.9254078
 113.9032998  32.6159673  79.3924331 113.3190792  46.0788699  67.3810222
 114.2521465  46.0134261  67.5843098 113.2314005  46.9144966  66.9224755
 115.9478809  45.3954569  64.3414170 115.8692440  45.0614433  65.2349928
 116.7688476  45.8876337  64.3405642 118.6457000  38.2616309  77.5490488
 118.6133320  37.3232309  77.7350172 119.2557624  38.3400345  76.8156313
 110.4840331  37.1312362  63.5917692 111.4299436  37.0018570  63.6606110
 110.1054576  36.3927024  64.0687120 118.7951489  35.0527352  77.5948771
 118.2790537  34.2685809  77.4078700 119.6791437  34.7246069  77.7595291
 116.4562216  28.7968368  73.5544584 116.2587037  28.4883456  74.4387916
 117.0661921  29.5230007  73.6842514 110.3679023  41.1830108  85.0518349
 111.2882033  41.3608707  85.2458396 110.3328607  40.2386153  84.8998049
 108.6683248  35.0562338  63.5272578 107.7614704  34.7595451  63.6035291
 108.9459229  34.7592156  62.6606864  99.5861188  36.3768701  73.9771624
  99.2663973  35.5234010  73.6845998  99.0394617  36.5917280  74.7329591
 103.3641096  39.0931142  77.6941130 103.5827106  40.0248250  77.7129164
 103.7766870  38.7339117  78.4795934 110.2845314  29.5999228  69.6816819
 109.4746042  29.2546313  70.0572065 110.9729731  29.2906772  70.2704430
 112.2135862  28.6777275  71.3041115 112.7666901  29.0972728  71.9631139
 112.4505948  27.7513023  71.3464071 108.2368961  34.6664348  87.0843879
 108.1365688  35.6158705  87.0155970 108.0190503  34.3382587  86.2119949
 107.4382033  31.9149273  63.6684557 108.3001197  32.2404172  63.9280374
 107.6232377  31.1280769  63.1557623  99.4549448  39.9971613  75.9464746
  98.7612920  39.5825566  75.4334700 100.2022440  40.0392149  75.3498164
 115.5914669  30.7877800  70.8119780 115.0113338  31.4462604  70.4297832
 115.3250602  29.9655144  70.4007197 114.0418236  30.1882857  73.0141100
 114.5418014  30.2999392  72.2055419 114.6853844  29.8843910  73.6541909
 108.1000231  38.0961487  85.9008941 107.6167313  38.8961847  86.1072830
 108.1861170  38.1069432  84.9476385 101.3686191  39.9289867  73.8230760
 101.3456879  40.0277554  72.8712643 101.6786828  40.7755018  74.1447927
 104.0273569  41.9866022  77.9377375 104.9816822  41.9549964  77.8707306
 103.8286092  41.5256646  78.7527601 104.6172951  40.5567138  80.5048172
 105.4365840  41.0511216  80.5283010 104.8909759  39.6399106  80.4765740
 114.3739547  32.9477890  69.8676128 113.4865402  33.2327541  69.6496323
 114.7893536  32.7871654  69.0203405 117.7254083  32.9724411  73.5830467
 118.5014473  33.4620864  73.8555084 117.0002218  33.3982465  74.0402337
 120.1626642  33.6852030  74.6404408 120.7571133  33.4447766  73.9297716
 120.2353226  32.9659161  75.2677944 102.3823798  47.5285641  74.9547573
 102.2478266  46.7686042  74.3885571 101.9655860  48.2526541  74.4876362
 113.5182761  42.7122565  63.9624148 114.2218611  42.9172567  64.5781804
 112.7945409  43.2799327  64.2273231 114.3480571  38.4632426  70.0826418
 114.2915772  38.9200977  69.2434051 114.9008913  37.7023111  69.9049261
 118.1585377  34.2522158  70.9076538 117.9022311  33.8518794  71.7384745
 117.5338245  34.9665952  70.7826677 122.4697715  36.9918231  73.4147829
 121.9097273  37.0611420  74.1879391 121.8641218  36.8159216  72.6947325
 105.5392924  48.4254958  75.1666015 105.4225308  49.3700391  75.0644706
 104.7185370  48.1228520  75.5551815 115.4269458  43.1505094  66.0122608
 116.2615062  42.7186292  65.8300083 115.2653801  42.9787108  66.9399503
 115.0815350  39.6537207  67.3778947 115.0264154  39.4881479  66.4367391
 114.4561406  40.3613240  67.5341137  99.8707865  34.8905272  81.2040370
 100.5166729  34.3804226  81.6927595  99.6625016  35.6273953  81.7783795
 112.3961257  41.9586119  86.7032510 113.2652417  42.1326771  86.3419145
 111.9168009  42.7780536  86.5808239 108.3911476  29.1545316  66.9564266
 108.3790146  30.0987156  67.1132537 109.2834898  28.9715462  66.6623727
 106.5647438  49.0783220  78.3821944 107.4674684  49.1106830  78.6988439
 106.3384808  48.1483671  78.3968280 108.3201040  47.8314207  75.0432022
 107.3696671  47.8316068  74.9296395 108.6233526  47.0846941  74.5268057
 112.2063595  25.7488093  71.2110203 111.4395991  25.1946580  71.3566885
 112.6174300  25.8209962  72.0724354 104.2105356  32.0372889  85.3015384
 105.0736818  31.6809694  85.5118708 103.6370767  31.6986784  85.9890788
 120.8643439  53.6202173  76.0439309 120.5261951  53.5043238  75.1559844
 121.7333208  53.2193338  76.0240316 116.7230255  55.4737650  72.0336200
 116.1595120  55.3827587  71.2652488 116.6082650  54.6537554  72.5138693
 121.3463222  54.7737025  82.0025515 121.3351863  54.3789823  81.1306019
 121.5083862  54.0403098  82.5959286 114.2694687  56.9688841  74.8720421
 115.0615979  56.6279666  74.4566720 114.5091337  57.0783816  75.7922574
 116.2285441  56.2297754  67.7437800 117.0016317  55.6826742  67.6050675
 116.5810840  57.0942004  67.9552261 118.0670484  57.5574137  80.9504699
 117.7760350  58.4619768  80.8351365 118.7027468  57.5990664  81.6648769
 118.9926690  54.9350985  77.5406059 119.5890263  54.7107008  76.8263022
 119.0501662  54.1935731  78.1431506 118.5651719  52.3890421  65.3756250
 118.8177240  51.8671942  64.6139713 117.6276278  52.2256566  65.4782933
 118.2848008  54.2918527  67.5780625 118.1684266  53.6163430  68.2461709
 118.3950268  53.8050900  66.7612778 120.6279549  53.7528674  71.2827314
 120.2637756  53.2259295  71.9940235 121.4846664  53.3627143  71.1093799
 120.2685036  48.7818573  66.2788662 120.4359438  49.6498810  66.6459133
 120.0782205  48.9445855  65.3549952 116.4772850  53.6949349  73.9791197
 115.5523347  53.5625563  74.1868889 116.7257263  54.4743568  74.4761139
 120.2474256  51.2376231  67.2635329 120.1273882  51.6833282  68.1020809
 119.5526845  51.5861549  66.7048867 113.8381661  53.3382623  74.8134986
 113.9674042  53.5917102  75.7274398 113.1579113  53.9310331  74.4939641
 118.0081149  64.0079873  70.9125460 117.9305178  64.9587698  70.9913941
 117.4042792  63.6625745  71.5700387 120.4998378  51.1807738  83.5686827
 119.7231712  51.7401658  83.5589692 121.1388941  51.6664521  84.0901697
 118.7544751  53.9893191  83.1304794 119.4959435  54.5278235  82.8539618
 118.0481736  54.6159480  83.2876346 120.5831160  51.0694939  79.1010513
 121.4292355  51.4934352  79.2445162 120.5229798  50.4128563  79.7949076
 120.1056867  56.4297931  72.7479330 120.5695212  56.7085634  71.9583952
 119.8413665  55.5281375  72.5652420 116.9980948  55.9769412  75.6859093
 117.5682305  56.4056680  75.0476577 117.5889060  55.6951997  76.3843279
 119.0425753  52.5521083  69.5568895 119.7449796  53.0042127  70.0242821
 118.7106381  51.9104902  70.1848788 117.4906114  51.1432840  83.9320104
 116.8604775  51.8249120  84.1655501 117.3842202  51.0315921  82.9873243
 112.7851087  50.8104636  74.8586028 111.9950141  51.0662164  74.3826139
 113.2762334  51.6252973  74.9638069 114.7365832  51.1749215  71.8169505
 113.9396995  51.2867909  72.3353001 114.5091424  51.5135867  70.9510396
 120.5671500  57.6993918  79.7652020 120.6315932  58.1614325  80.6010192
 119.8582424  57.0691283  79.8934330 111.0688790  51.0635126  77.2901019
 111.3196828  51.9482136  77.5558595 111.6048338  50.8839728  76.5176111
 120.2819517  59.3662026  69.6331000 120.1465192  60.2113561  70.0615848
 120.8229330  59.5681303  68.8696934 116.7686857  45.4453605  86.2945355
 116.3753803  44.8919804  86.9693000 117.5852997  45.7564184  86.6851873
 113.7348915  56.8837464  70.2058925 114.2473435  57.6780714  70.3564490
 114.3871628  56.1863754  70.1392527 115.5443800  60.0003220  72.2881678
 115.7210428  60.9221185  72.1002662 116.3400633  59.6861639  72.7176058
 119.6854818  46.8611485  83.8865612 120.4264531  47.4618638  83.8070074
 119.9172741  46.1189122  83.3283654 114.8296156  52.0467852  82.1643842
 114.7149671  51.1453109  82.4650940 113.9740674  52.2931549  81.8128658
 116.6675115  61.5181394  78.2892021 117.2182540  61.3898457  77.5169015
 115.8286591  61.8176283  77.9386913 120.4642286  57.7832521  82.6336252
 120.9970623  57.0220810  82.4035560 119.9356367  57.4906173  83.3760406
 111.6997832  55.2126118  70.9818496 112.5373054  55.6223126  70.7652203
 111.8776099  54.2725560  70.9518690 121.1809375  47.7250899  71.7287567
 120.3250971  47.3357750  71.5493206 121.5936327  47.8042860  70.8687353
 118.9551407  45.3435972  75.1345309 119.8204404  45.1478781  74.7751198
 119.0228916  45.1146324  76.0614665 121.8294999  56.9118514  70.1455064
 121.3016360  56.1771274  69.8328301 121.3282501  57.6893190  69.8995032
 116.5613726  47.5738180  72.5061675 117.1357478  47.3513362  71.7734868
 117.1484709  47.6426875  73.2590277 116.8883313  49.6042641  66.5257561
 116.0520626  49.9417328  66.8466835 116.7488083  49.4691621  65.5884698
 118.8636394  44.4479429  71.2336745 118.2100806  44.1328446  70.6093360
 118.8216868  43.8255170  71.9596568 119.9747599  54.7298724  63.1490037
 119.0674661  54.4987978  63.3481186 120.4718631  53.9336343  63.3364018
 121.1535832  54.8311319  67.6714027 120.2447052  54.5470352  67.7686497
 121.1830916  55.2510398  66.8117334 111.7224003  52.5516833  71.6529229
 111.5248403  51.9586194  70.9280296 111.1670667  52.2469043  72.3705168
 119.7020726  52.4439940  73.7723822 119.7569336  51.4913776  73.6966299
 118.8911928  52.5999379  74.2565121 120.8511920  56.3720063  65.0102106
 120.4131350  55.6555922  64.5507743 121.5922361  56.5996178  64.4487197
 117.6413086  51.0616999  71.5314201 116.8280952  51.3611170  71.9379393
 118.1372080  50.6672688  72.2488683 119.7921664  61.0574756  73.4648466
 119.7497843  61.2835603  72.5356998 120.7084363  60.8238131  73.6134267
 117.1327161  48.6335355  77.1475436 117.7726540  48.4924114  76.4498399
 116.3004692  48.3469868  76.7714038 117.9087465  57.9337785  73.2610429
 118.7028063  57.4388106  73.0593004 117.1979157  57.4055649  72.8978134
 114.2170228  52.0780867  69.3370181 113.2867817  52.0165323  69.5540143
 114.3127700  51.5556820  68.5406823 114.1355777  48.6035680  71.9248423
 114.3962595  49.5181013  71.8157583 114.9572950  48.1360123  72.0745036
 115.6080703  50.0173437  79.0947247 116.2803756  49.8090799  78.4459896
 114.7810489  49.8195523  78.6552480 121.5106275  46.6435378  81.1112908
 120.8634190  47.3425328  81.0177385 122.2807290  47.0771522  81.4789157
 120.4858741  58.5066807  76.9408266 120.3469827  58.1385592  77.8134204
 119.6973337  59.0214447  76.7692223 121.0806893  63.6075904  68.2833802
 121.2558649  63.1363947  69.0979425 120.3939681  64.2341670  68.5115063
 122.0363956  57.8848410  74.3297103 121.7013789  57.8449180  75.2254753
 121.5367902  57.2193126  73.8567514 116.0108200  53.2916040  79.8549685
 115.8727998  52.5596279  80.4561224 116.9213124  53.2024940  79.5733872
 118.6390501  53.0035999  79.3433364 119.3490119  52.3629192  79.3019983
 118.5959809  53.2548894  80.2659545 117.3519435  49.9901217  81.1629004
 116.8156792  49.5391956  81.8150600 116.7636143  50.1247126  80.4199468
 115.6467978  66.7565267  75.0573662 115.8864576  67.3883791  75.7352681
 114.8037175  66.4053307  75.3439022 116.7621694  49.4489869  63.7255467
 115.8851160  49.3278670  63.3617714 117.2379447  48.6575947  63.4734356
 108.2823834  54.2367028  73.8196975 108.9694874  53.9228758  73.2317990
 108.1271962  55.1408393  73.5464226 113.0858556  49.1257225  78.2481998
 113.0016745  48.5182895  77.5132408 112.2641262  49.6166243  78.2491495
 120.1595840  62.5644389  77.4615166 120.0866012  63.3699361  77.9734471
 119.7173233  62.7636355  76.6363188 119.9485620  61.8016159  70.9717988
 119.1653142  62.3437839  71.0656212 120.6478365  62.3190139  71.3712229
 119.8417239  49.7528172  73.3423878 119.4715026  49.1999212  74.0304783
 120.3376331  49.1486305  72.7898878 117.6706437  60.2125667  80.4378896
 118.3715897  60.8462150  80.5908290 117.2001552  60.5540398  79.6774535
 121.5195296  53.5090085  84.7497483 120.8435933  53.4084214  85.4199858
 122.3422930  53.3529299  85.2133480 113.2674155  59.7462022  77.3709999
 113.8527592  59.0005710  77.5037903 113.0698994  60.0565978  78.2546662
 116.1212810  62.7813269  72.3872441 115.4523186  63.2659397  71.9036481
 115.9825680  63.0282489  73.3015819 107.8591810  52.3167622  76.0914442
 107.8975909  51.7831213  76.8851560 107.3532103  51.7902827  75.4725419
 120.2618079  64.8157013  78.9855099 120.8136387  64.9788634  79.7504184
 120.6024272  65.4061450  78.3135124 115.2382572  47.1632162  79.5876984
 115.3023899  48.0246993  79.1754382 115.1749692  46.5506164  78.8549342
 114.7134845  49.2355295  83.2350018 115.3406884  48.8532372  83.8487543
 113.8562764  49.0169497  83.6005711 111.4900388  51.0431724  69.1668373
 111.7853829  50.1342402  69.1135427 110.5888423  51.0219463  68.8449375
 115.0194635  49.1187721  75.1495922 114.2981220  49.7323688  75.0103395
 115.8087890  49.6545485  75.0712568 117.8220948  46.4542147  81.4236573
 118.3455350  46.7004444  82.1862883 117.6033281  47.2862182  81.0039711
 113.2188229  48.7245822  69.2907698 112.8900935  47.8443201  69.1082804
 113.5727600  48.6693490  70.1784087 116.3330052  49.0118791  69.6583176
 116.6726125  49.5404713  68.9361784 116.7802173  49.3499198  70.4341742
 119.0273493  47.3955842  79.1086244 118.6870313  46.5963655  79.5106924
 118.3212499  47.6957553  78.5363077 119.6789965  44.4805155  77.5613567
 120.5016034  44.0065633  77.4392457 119.9228028  45.2595638  78.0612253
 118.3198199  47.5093413  67.8576469 119.0406562  47.8874666  67.3540185
 117.6963504  48.2282290  67.9611447 117.2028544  51.1724275  75.3705546
 117.0573124  51.4864578  76.2629827 116.7253747  51.7909176  74.8176444
 119.0624927  48.1626823  75.4186435 119.0486495  47.2667917  75.0818733
 119.7797355  48.1697487  76.0524721 120.9151057  48.5964163  77.4639563
 120.6568835  49.5181234  77.4623893 120.3836098  48.1994598  78.1540027
 111.6774206  53.7129620  78.3093207 111.1327674  54.4889428  78.4413481
 112.5553556  54.0600424  78.1512328 118.4661822  47.0441203  70.6874005
 118.5877734  46.1157850  70.8864893 118.1763865  47.0579889  69.7752321
 121.3353013  44.7296114  73.8240725 121.3574710  44.7935447  72.8692705
 121.7521072  43.8900623  74.0181231 112.4640228  52.8399516  81.2023364
 111.7221964  52.9882151  81.7887994 112.1432972  53.1007781  80.3390113
 120.4083890  62.3815494  81.0003754 120.7171017  62.1364641  81.8726453
 121.2059372  62.5862133  80.5122624 120.4304502  64.5353404  73.2309130
 119.9909493  64.0429782  73.9241987 121.1812619  63.9926371  72.9901205
 112.9096841  60.7264945  73.2333758 113.7354861  60.4268716  72.8532402
 112.5590893  59.9572567  73.6823547 117.8778375  60.0791413  75.3031432
 117.2558384  59.4162118  75.0033660 118.5483241  60.1052545  74.6205080
 111.1105446  58.6451271  74.1922692 110.2737355  58.2173445  74.0106693
 111.0829092  58.8383714  75.1293483 117.9502902  48.5573201  84.8963938
 117.9991057  49.4335324  84.5141707 118.4925416  48.0150594  84.3235581
 117.4391881  58.6295336  68.7789892 117.5880002  59.3130801  68.1256565
 118.2458325  58.6100426  69.2939348 120.1802190  49.3104573  81.6510297
 119.3105500  49.6038139  81.3792885 120.4161671  49.8945018  82.3717560
 115.1944514  54.6560514  69.7850961 114.9490556  53.7522844  69.9831171
 115.3640429  54.6577664  68.8430439 114.4640162  50.3888871  67.2837123
 113.7709407  50.4633226  66.6277159 114.2191914  49.6249215  67.8058640
 120.9387287  61.1243467  66.2501640 120.3661254  61.7433654  65.7972112
 121.5120081  61.6742828  66.7841562 121.3234085  52.4604279  63.5917692
 122.2693190  52.3310487  63.6606110 120.9448330  51.7218941  64.0687120
 121.2072778  56.5122025  85.0518349 122.1275787  56.6900624  85.2458396
 121.1722361  55.5678071  84.8998049 119.5077003  50.3854256  63.5272578
 118.6008458  50.0887368  63.6035291 119.7852984  50.0884074  62.6606864
 110.4254943  51.7060619  73.9771624 110.1057727  50.8525927  73.6845998
 109.8788371  51.9209197  74.7329591 114.2034851  54.4223060  77.6941130
 114.4220860  55.3540168  77.7129164 114.6160624  54.0631035  78.4795934
 121.1239068  44.9291145  69.6816819 120.3139797  44.5838230  70.0572065
 121.8123485  44.6198689  70.2704430 119.0762716  49.9956266  87.0843879
 118.9759443  50.9450623  87.0155970 118.8584258  49.6674505  86.2119949
 118.2775787  47.2441191  63.6684557 119.1394951  47.5696089  63.9280374
 118.4626131  46.4572687  63.1557623 110.2943203  55.3263531  75.9464746
 109.6006674  54.9117483  75.4334700 111.0416194  55.3684067  75.3498164
 118.9393986  53.4253405  85.9008941 118.4561068  54.2253765  86.1072830
 119.0254925  53.4361350  84.9476385 112.2079946  55.2581784  73.8230760
 112.1850634  55.3569472  72.8712643 112.5180582  56.1046935  74.1447927
 114.8667323  57.3157939  77.9377375 115.8210577  57.2841882  77.8707306
 114.6679847  56.8548563  78.7527601 115.4566706  55.8859055  80.5048172
 116.2759595  56.3803134  80.5283010 115.7303513  54.9691024  80.4765740
 113.2217552  62.8577559  74.9547573 113.0872020  62.0977960  74.3885571
 112.8049614  63.5818459  74.4876362 116.3786678  63.7546876  75.1666015
 116.2619062  64.6992308  75.0644706 115.5579124  63.4520438  75.5551815
 110.7101620  50.2197189  81.2040370 111.3560483  49.7096143  81.6927595
 110.5018771  50.9565871  81.7783795 119.2305230  44.4837234  66.9564266
 119.2183900  45.4279074  67.1132537 120.1228652  44.3007379  66.6623727
 117.4041192  64.4075138  78.3821944 118.3068439  64.4398748  78.6988439
 117.1778562  63.4775589  78.3968280 119.1594794  63.1606124  75.0432022
 118.2090425  63.1607986  74.9296395 119.4627280  62.4138859  74.5268057
 115.0499111  47.3664806  85.3015384 115.9130572  47.0101611  85.5118708
 114.4764521  47.0278701  85.9890788 121.9082544  66.3927044  77.2901019
 122.1590583  67.2774054  77.5558595 122.4442093  66.2131645  76.5176111
 119.1217588  69.5658946  73.8196975 119.8088628  69.2520676  73.2317990
 118.9665717  70.4700311  73.5464226 118.6985564  67.6459539  76.0914442
 118.7369664  67.1123130  76.8851560 118.1925857  67.1194745  75.4725419
 121.9499201  73.9743189  74.1922692 121.1131109  73.5465363  74.0106693
 121.9222846  74.1675632  75.1293483 121.2648697  67.0352537  73.9771624
 120.9451482  66.1817845  73.6845998 120.7182126  67.2501115  74.7329591
 121.1336957  70.6555448  75.9464746 120.4400429  70.2409401  75.4334700
 121.8809948  70.6975985  75.3498164 121.5495374  65.5489107  81.2040370
 122.1954238  65.0388061  81.6927595 121.3412525  66.2857789  81.7783795
  96.3293641  10.3558160  57.6370767  96.2517670  11.3065985  57.7159248
  95.7255284  10.0104032  58.2945693  93.9680470  13.1043554  61.7818969
  94.2077069  13.7362078  62.4597988  93.1249667  12.7531594  62.0684328
  94.4425303   9.1291556  59.1117748  93.7735678   9.6137684  58.6281788
  94.3038172   9.3760777  60.0261126  98.5830571  11.1635300  65.7100406
  99.1348879  11.3266921  66.4749491  98.9236765  11.7539738  65.0380431
  98.7516995  10.8831691  59.9554437  98.3121985  10.3908070  60.6487294
  99.5025112  10.3404659  59.7146512  91.5430044   9.2055846  61.6792879
  91.4084512   8.4456247  61.1130877  91.1262107   9.9296746  61.2121668
  94.6999170  10.1025163  61.8911322  94.5831554  11.0470596  61.7890012
  93.8791617   9.7998725  62.2797121  95.7253684  10.7553425  65.1067250
  96.6280931  10.7877035  65.4233745  95.4991055   9.8253876  65.1213586
 110.0249686  15.2972378  62.7684616 109.6868198  15.1813443  61.8805151
 110.8939454  14.8963543  62.7485622 105.8836502  17.1507855  58.7581507
 105.3201367  17.0597791  57.9897795 105.7688897  16.3307759  59.2384000
 110.5069469  16.4507230  68.7270822 110.4958110  16.0560028  67.8551325
 110.6690109  15.7173302  69.3204593 103.4300934  18.6459046  61.5965728
 104.2222226  18.3049871  61.1812027 103.6697584  18.7554021  62.5167881
 111.4636061  20.8178822  54.0695972 110.8124040  21.4032903  53.6829986
 112.2580423  21.3485017  54.1291009 105.3891688  17.9067959  54.4683106
 106.1622564  17.3596946  54.3295982 105.7417087  18.7712209  54.6797568
 107.2276730  19.2344342  67.6750006 106.9366596  20.1389973  67.5596672
 107.8633715  19.2760869  68.3894075 108.1532937  16.6121190  64.2651365
 108.7496509  16.3877213  63.5508328 108.2107909  15.8705936  64.8676813
 107.7257966  14.0660626  52.1001556 107.9783486  13.5442147  51.3385019
 106.7882525  13.9026771  52.2028240 112.9411326  18.5069254  54.6064956
 112.3057159  18.5803881  55.3185861 112.6108732  19.0962853  53.9284036
 107.4454254  15.9688731  54.3025931 107.3290512  15.2933635  54.9707016
 107.5556514  15.4821105  53.4858084 109.7885795  15.4298879  58.0072620
 109.4244003  14.9029500  58.7185542 110.6452911  15.0397348  57.8339106
 112.1866615  18.9205757  64.6699799 111.8867339  19.8230796  64.5615607
 111.8417675  18.6537940  65.5220952 105.6379097  15.3719554  60.7036504
 104.7129593  15.2395768  60.9114195 105.8863510  16.1513773  61.2006446
 102.9987908  15.0152828  61.5380293 103.1280289  15.2687307  62.4519705
 102.3185359  15.6080536  61.2184948 107.1687395  25.6850078  57.6370767
 107.0911425  26.6357903  57.7159248 106.5649039  25.3395950  58.2945693
 107.9150997  15.6663396  69.8550101 108.6565682  16.2048440  69.5784925
 107.2087983  16.2929685  70.0121653 113.3906337  17.8092537  68.4522262
 113.7989693  17.3674947  67.7076895 112.6683598  17.2345164  68.7056455
 113.7135152  18.3693727  62.2074551 113.0844014  18.5339442  61.5050619
 113.3260814  18.7835337  62.9785515 117.5924384  19.3048165  59.5618915
 116.9075422  19.6847067  59.0115948 117.6768233  19.9143492  60.2950863
 114.8475315  16.9508124  66.1614259 115.0592210  17.5939884  65.4848640
 114.8005063  16.1170441  65.6936189 109.2663114  18.1068136  59.4724636
 109.7301459  18.3855838  58.6829259 109.0019912  17.2051580  59.2897727
 106.1587195  17.6539617  62.4104400 106.7288552  18.0826885  61.7721884
 106.7495306  17.3722202  63.1088585 108.2032000  14.2291288  56.2814202
 108.9056043  14.6812332  56.7488128 107.8712628  13.5875107  56.9094095
 106.6512361  12.8203044  70.6565411 106.0211022  13.5019325  70.8900808
 106.5448449  12.7086126  69.7118549 101.9457334  12.4874841  61.5831335
 101.1556388  12.7432369  61.1071446 102.4368581  13.3023178  61.6883376
 115.9621143  19.8280080  64.3336616 116.7838587  19.4260267  64.0519298
 115.9583546  19.7248314  65.2852732 103.8972079  12.8519420  58.5414812
 103.1003242  12.9638114  59.0598307 103.6697671  13.1906072  57.6755702
 109.7277747  19.3764123  66.4897326 109.7922179  19.8384530  67.3255498
 109.0188670  18.7461488  66.6179636 100.2295037  12.7405331  64.0146326
 100.4803075  13.6252341  64.2803902 100.7654585  12.5609933  63.2421418
 109.4425764  21.0432230  56.3576307 109.3071439  21.8883766  56.7861155
 109.9835577  21.2451508  55.5942241 102.8955162  18.5607669  56.9304232
 103.4079682  19.3550919  57.0809796 103.5477874  17.8633959  56.8637833
 104.7050046  21.6773425  59.0126985 104.8816675  22.5991390  58.8247969
 105.5006880  21.3631844  59.4421365 103.9902403  13.7238057  68.8889148
 103.8755918  12.8223314  69.1896247 103.1346921  13.9701753  68.5373965
 111.0694241  21.6655797  70.4876649 110.6258095  20.8792176  70.1697553
 111.7311454  21.8534948  69.8220540 105.8281362  23.1951599  65.0137327
 106.3788787  23.0668662  64.2414321 104.9892838  23.4946488  64.6632220
 113.1675479  21.9458597  68.5158050 113.1493954  22.7667478  68.0238319
 114.0895399  21.8212672  68.7408191 109.6248533  19.4602726  69.3581558
 110.1576870  18.6991015  69.1280866 109.0962614  19.1676378  70.1005713
 100.8604078  16.8896323  57.7063802 101.6979300  17.2993331  57.4897510
 101.0382346  15.9495765  57.6763996 117.7302785  17.3103758  55.3300809
 116.9532227  16.9714918  54.8855971 118.4094266  17.3156381  54.6555774
 110.9901245  18.5888719  56.8700370 110.4622607  17.8541478  56.5573608
 110.4888748  19.3663395  56.6240339 115.9694092  16.7837739  61.9867417
 115.3117766  17.4737001  62.0747545 116.7734491  17.1734171  62.3301403
 109.1353846  16.4068929  49.8735343 108.2280907  16.1758183  50.0726492
 109.6324878  15.6106548  50.0609325 112.0421925  25.1166436  52.7932030
 111.3683623  25.4198133  53.4016987 112.4287747  25.9195517  52.4437487
 110.3142079  16.5081524  54.3959334 109.4053298  16.2240557  54.4931803
 110.3437163  16.9280603  53.5362640 115.5461347  20.1188114  58.1650501
 115.0923674  19.2779023  58.2215692 114.9155313  20.7549512  58.5025281
 113.9894286  21.9564610  59.1000319 114.2817260  22.5169667  58.3812685
 114.4992906  22.2493171  59.8553478 100.8830249  14.2287038  58.3774536
 100.6854649  13.6356399  57.6525602 100.3276913  13.9239248  59.0950475
 110.0118167  18.0490268  51.7347412 109.5737597  17.3326127  51.2753050
 110.7528608  18.2766383  51.1732504 108.9527911  22.7344961  60.1893772
 108.9104090  22.9605808  59.2602305 109.8690610  22.5008336  60.3379574
 118.1560661  18.3923992  62.8035002 118.5897168  18.2999281  63.6518056
 118.8692242  18.3681492  62.1655018 107.0693712  19.6107990  59.9855735
 107.8634310  19.1158310  59.7838310 106.3585404  19.0825853  59.6223441
 111.8888556  21.9926086  64.3368103 111.9425578  22.5617022  65.1045819
 111.0203338  22.1627971  63.9722140 103.3776475  13.7551072  56.0615488
 102.4474063  13.6935528  56.2785450 103.4733947  13.2327025  55.2652129
 119.0176211  18.4347692  65.3367888 119.2112101  19.3393503  65.5827163
 118.9176829  17.9755111  66.1706473 114.0791320  18.5854435  70.9108768
 113.9276826  18.3564987  69.9938852 114.0695999  19.5425037  70.9240113
 110.8476656  16.1586348  65.8955035 111.7768716  16.3097507  65.7224002
 110.4267686  16.2470369  65.0403681 109.6464988  20.1837012  63.6653572
 109.5076073  19.8155797  64.5379510 108.8579584  20.6984652  63.4937530
 110.2413140  25.2846109  55.0079109 110.4164895  24.8134152  55.8224732
 109.5545928  25.9111875  55.2360370 111.1970203  19.5618615  61.0542410
 110.8620035  19.5219385  61.9500060 110.6974149  18.8963331  60.5812820
 105.1714447  14.9686245  66.5794991 105.0334245  14.2366484  67.1806530
 106.0819370  14.8795145  66.2979179 114.1329395  16.9074649  51.3279470
 113.5158565  16.1821478  51.2312522 113.6645883  17.6684010  50.9846544
 107.7996747  14.6806204  66.0678671 108.5096366  14.0399397  66.0265289
 107.7566056  14.9319099  66.9904852 115.7883526  21.6173558  68.9885250
 115.7296072  20.9332778  68.3215833 116.1903045  22.3592548  68.5365876
 104.8074225  28.4335472  61.7818969 105.0470823  29.0653996  62.4597988
 103.9643421  28.0823512  62.0684328 115.7900933  19.5813142  67.2199230
 114.9027712  19.2439063  67.3425629 116.3599485  18.8496173  67.4567995
  97.4430081  15.9137233  60.5442281  98.1301120  15.5998963  59.9563296
  97.2878209  16.8178598  60.2709533 109.3202087  24.2414594  64.1860473
 109.2472258  25.0469565  64.6979778 108.8779480  24.4406560  63.3608494
 109.1091866  23.4786364  57.6963295 108.3259388  24.0208044  57.7901519
 109.8084612  23.9960344  58.0957536 111.7800770  24.1401428  66.3418632
 112.4928743  24.7748893  66.2694533 111.2890799  24.2365294  65.5258633
 113.5018297  18.0452681  57.9135923 112.5674576  18.1654143  57.7440628
 113.6794966  17.1425147  57.6495933 106.8312684  21.8895871  67.1624202
 107.5322143  22.5232354  67.3153597 106.3607799  22.2310603  66.4019842
 114.9567080  20.2313821  55.4472109 115.2326924  20.1170416  56.3565984
 114.0871578  19.8331306  55.4084283 111.5921144  24.4800172  59.0904923
 111.7743538  23.6621828  59.5532675 112.4154130  24.6967864  58.6529813
 111.9263309  23.4068357  56.3519972 112.4551076  22.8960812  55.7390134
 112.1891529  23.0910887  57.2165505 110.6801543  15.1860290  71.4742790
 110.0042180  15.0854419  72.1445165 111.5029177  15.0299504  71.9378787
 102.4280402  21.4232227  64.0955305 103.0133839  20.6775914  64.2283209
 102.2305240  21.7336183  64.9791969 105.2819057  24.4583474  59.1117748
 104.6129432  24.9429602  58.6281788 105.1431927  24.7052694  60.0261126
  97.0198057  13.9937827  62.8159748  97.0582156  13.4601417  63.6096866
  96.5138350  13.4673032  62.1970725 109.4224326  26.4927217  65.7100406
 109.9742634  26.6558839  66.4749491 109.7630519  27.0831655  65.0380431
 114.2735200  21.3188475  71.5649060 114.8175104  21.9318433  71.0704015
 113.6922045  21.8768053  72.0816073 100.6506634  12.7201929  55.8913680
 100.9460075  11.8112607  55.8380733  99.7494670  12.6989668  55.5694682
 112.5592713  24.4409193  62.6964088 112.4343852  23.6398933  62.1875034
 113.2171804  24.9355386  62.2078058 114.6227621  22.2418213  64.3243638
 113.6757957  22.1223564  64.2521965 114.9710395  21.3540711  64.4069900
 111.6274055  22.0370929  60.5247990 111.4799017  21.1087637  60.7055560
 112.4527548  22.0591020  60.0405066 115.2308177  22.8599488  61.6112863
 116.1554724  22.6542349  61.4737314 115.0623480  22.6115889  62.5202205
 106.3634790  12.8494480  62.0950852 106.2179371  13.1634783  62.9875134
 105.8859994  13.4679380  61.5421751 115.0203493  23.3785155  56.9674955
 115.1940370  22.8131578  56.2148807 115.5132384  24.1786050  56.7854445
 100.8380453  15.3899825  65.0338513 100.2933921  16.1659632  65.1658788
 101.7159802  15.7370629  64.8757635 116.0078665  22.6951920  54.0671853
 116.7029570  23.3158613  54.2859168 116.3501815  21.8447271  54.3424231
 101.6246474  14.5169721  67.9268670 100.8828210  14.6652356  68.5133301
 101.3039219  14.7777986  67.0635420 117.9070088  20.1451625  55.5959184
 118.4321412  20.4838898  54.8708504 117.8192441  19.2098641  55.4122318
 109.5690137  24.0585699  67.7249060 109.8777264  23.8134846  68.5971760
 110.3665619  24.2632337  67.2367930 109.5910749  26.2123609  59.9554437
 109.1515739  25.7199987  60.6487294 110.3418866  25.6696576  59.7146512
 102.0703088  22.4035150  59.9579065 102.8961108  22.1038921  59.5777708
 101.7197140  21.6342772  60.4068854 107.0384621  21.7561618  62.0276738
 106.4164631  21.0932323  61.7278966 107.7089488  21.7822750  61.3450386
 100.2711693  20.3221476  60.9167998  99.4343601  19.8943650  60.7352000
 100.2435339  20.5153919  61.8538790 117.5963994  20.7784529  70.9010382
 116.8059538  20.7608668  70.3614881 117.3597349  21.3172823  71.6559418
 117.7161870  17.6276995  68.2143110 117.7659874  17.4627003  69.1558633
 117.6075793  16.7604254  67.8240991 106.5998128  20.3065541  55.5035199
 106.7486249  20.9901005  54.8501872 107.4064572  20.2870631  56.0184655
 119.2180066  20.0473937  68.4585132 118.9264875  20.4103917  69.2948593
 118.6052198  19.3340945  68.2798464 104.3550761  16.3330719  56.5096268
 104.1096803  15.4293049  56.7076478 104.5246676  16.3347869  55.5675746
 110.0993534  22.8013672  52.9746946 109.5267501  23.4203859  52.5217418
 110.6726327  23.3513033  53.5086868 113.3190794  23.0850822  54.1055529
 114.2521467  23.0196383  54.3088404 113.2314006  23.9207089  53.6470061
 115.9478810  22.4016692  51.0659476 115.8692442  22.0676556  51.9595234
 116.7688477  22.8938460  51.0650949 110.3679025  18.1892230  71.7763656
 111.2882034  18.3670829  71.9703702 110.3328608  17.2448276  71.6243355
  99.5861190  13.3830824  60.7016931  99.2663974  12.5296132  60.4091305
  99.0394618  13.5979402  61.4574898 103.3641097  16.0993265  64.4186437
 103.5827107  17.0310373  64.4374471 103.7766871  15.7401239  65.2041241
  99.4549450  17.0033736  62.6710052  98.7612921  16.5887688  62.1580007
 100.2022441  17.0454272  62.0743471 108.1000233  15.1023610  72.6254248
 107.6167314  15.9023970  72.8318137 108.1861172  15.1131555  71.6721692
 101.3686192  16.9351989  60.5476067 101.3456880  17.0339677  59.5957950
 101.6786829  17.7817140  60.8693233 104.0273570  18.9928144  64.6622681
 104.9816824  18.9612087  64.5952613 103.8286094  18.5318768  65.4772907
 104.6172952  17.5629260  67.2293479 105.4365841  18.0573339  67.2528316
 104.8909760  16.6461229  67.2011047 102.3823799  24.5347764  61.6792879
 102.2478267  23.7748165  61.1130877 101.9655861  25.2588664  61.2121668
 113.5182762  19.7184687  50.6869455 114.2218612  19.9234690  51.3027110
 112.7945411  20.2861449  50.9518538 105.5392925  25.4317081  61.8911322
 105.4225309  26.3762513  61.7890012 104.7185371  25.1290642  62.2797121
 115.4269459  20.1567217  52.7367915 116.2615063  19.7248415  52.5545389
 115.2653802  19.9849230  53.6644809 115.0815352  16.6599330  54.1024254
 115.0264155  16.4943601  53.1612698 114.4561407  17.3675363  54.2586444
  99.8707867  11.8967394  67.9285676 100.5166730  11.3866348  68.4172901
  99.6625018  12.6336076  68.5029101 112.3961259  18.9648242  73.4277817
 113.2652418  19.1388894  73.0664452 111.9168010  19.7842659  73.3053546
 106.5647439  26.0845343  65.1067250 107.4674686  26.1168953  65.4233745
 106.3384809  25.1545794  65.1213586 108.3201041  24.8376329  61.7677329
 107.3696672  24.8378191  61.6541701 108.6233527  24.0909064  61.2513364
 120.8643441  30.6264296  62.7684616 120.5261952  30.5105361  61.8805151
 121.7333209  30.2255461  62.7485622 116.7230256  32.4799772  58.7581507
 116.1595122  32.3889709  57.9897795 116.6082651  31.6599677  59.2384000
 121.3463224  31.7799148  68.7270822 121.3351864  31.3851946  67.8551325
 121.5083863  31.0465220  69.3204593 114.2694688  33.9750964  61.5965728
 115.0615980  33.6341788  61.1812027 114.5091339  34.0845939  62.5167881
 116.2285442  33.2359877  54.4683106 117.0016318  32.6888864  54.3295982
 116.5810841  34.1004126  54.6797568 118.0670485  34.5636259  67.6750006
 117.7760351  35.4681890  67.5596672 118.7027469  34.6052787  68.3894075
 118.9926692  31.9413108  64.2651365 119.5890264  31.7169130  63.5508328
 119.0501663  31.1997853  64.8676813 118.5651720  29.3952543  52.1001556
 118.8177241  28.8734064  51.3385019 117.6276279  29.2318689  52.2028240
 118.2848009  31.2980649  54.3025931 118.1684267  30.6225553  54.9707016
 118.3950269  30.8113023  53.4858084 120.6279550  30.7590796  58.0072620
 120.2637757  30.2321417  58.7185542 121.4846666  30.3689265  57.8339106
 120.2685037  25.7880696  53.0033969 120.4359439  26.6560932  53.3704440
 120.0782206  25.9507978  52.0795258 116.4772851  30.7011472  60.7036504
 115.5523348  30.5687686  60.9114195 116.7257265  31.4805691  61.2006446
 120.2474258  28.2438353  53.9880636 120.1273883  28.6895404  54.8266116
 119.5526846  28.5923671  53.4294174 113.8381662  30.3444745  61.5380293
 113.9674044  30.5979224  62.4519705 113.1579114  30.9372453  61.2184948
 118.0081150  41.0141995  57.6370767 117.9305179  41.9649820  57.7159248
 117.4042793  40.6687868  58.2945693 120.4998380  28.1869861  70.2932134
 119.7231714  28.7463781  70.2834999 121.1388943  28.6726644  70.8147004
 118.7544752  30.9955314  69.8550101 119.4959436  31.5340358  69.5784925
 118.0481737  31.6221603  70.0121653 120.5831162  28.0757061  65.8255819
 121.4292357  28.4996475  65.9690468 120.5229799  27.4190686  66.5194382
 120.1056868  33.4360053  59.4724636 120.5695214  33.7147756  58.6829259
 119.8413666  32.5343498  59.2897727 116.9980949  32.9831535  62.4104400
 117.5682306  33.4118803  61.7721884 117.5889061  32.7014119  63.1088585
 119.0425754  29.5583206  56.2814202 119.7449797  30.0104249  56.7488128
 118.7106383  28.9167024  56.9094095 117.4906116  28.1494962  70.6565411
 116.8604776  28.8311243  70.8900808 117.3842203  28.0378044  69.7118549
 112.7851088  27.8166758  61.5831335 111.9950142  28.0724287  61.1071446
 113.2762335  28.6315096  61.6883376 114.7365833  28.1811337  58.5414812
 113.9396997  28.2930032  59.0598307 114.5091426  28.5197990  57.6755702
 120.5671501  34.7056041  66.4897326 120.6315934  35.1676448  67.3255498
 119.8582425  34.0753406  66.6179636 111.0688791  28.0697249  64.0146326
 111.3196829  28.9544259  64.2803902 111.6048339  27.8901850  63.2421418
 120.2819519  36.3724148  56.3576307 120.1465193  37.2175684  56.7861155
 120.8229331  36.5743426  55.5942241 116.7686858  22.4515728  73.0190662
 116.3753804  21.8981927  73.6938306 117.5852999  22.7626306  73.4097179
 113.7348916  33.8899586  56.9304232 114.2473437  34.6842836  57.0809796
 114.3871629  33.1925877  56.8637833 115.5443801  37.0065342  59.0126985
 115.7210429  37.9283307  58.8247969 116.3400634  36.6923762  59.4421365
 119.6854819  23.8673607  70.6110919 120.4264533  24.4680760  70.5315381
 119.9172742  23.1251245  70.0528961 114.8296157  29.0529974  68.8889148
 114.7149672  28.1515232  69.1896247 113.9740675  29.2993671  68.5373965
 116.6675116  38.5243516  65.0137327 117.2182541  38.3960580  64.2414321
 115.8286592  38.8238405  64.6632220 120.4642287  34.7894644  69.3581558
 120.9970624  34.0282932  69.1280866 119.9356368  34.4968296  70.1005713
 111.6997833  32.2188241  57.7063802 112.5373055  32.6285249  57.4897510
 111.8776101  31.2787683  57.6763996 121.1809376  24.7313022  58.4532874
 120.3250972  24.3419872  58.2738512 121.5936328  24.8104983  57.5932659
 118.9551409  22.3498095  61.8590615 119.8204405  22.1540904  61.4996505
 119.0228917  22.1208447  62.7859972 121.8295000  33.9180637  56.8700370
 121.3016362  33.1833396  56.5573608 121.3282503  34.6955313  56.6240339
 116.5613728  24.5800303  59.2306982 117.1357479  24.3575484  58.4980175
 117.1484710  24.6488997  59.9835583 116.8883315  26.6104764  53.2502867
 116.0520627  26.9479450  53.5712142 116.7488084  26.4753744  52.3130004
 118.8636395  21.4541552  57.9582051 118.2100808  21.1390569  57.3338666
 118.8216869  20.8317292  58.6841874 119.9747600  31.7360847  49.8735343
 119.0674662  31.5050100  50.0726492 120.4718632  30.9398466  50.0609325
 121.1535834  31.8373442  54.3959334 120.2447053  31.5532475  54.4931803
 121.1830917  32.2572520  53.5362640 111.7224004  29.5578956  58.3774536
 111.5248404  28.9648317  57.6525602 111.1670668  29.2531166  59.0950475
 119.7020728  29.4502062  60.4969129 119.7569337  28.4975899  60.4211606
 118.8911930  29.6061501  60.9810427 120.8511921  33.3782185  51.7347412
 120.4131351  32.6618044  51.2753050 121.5922362  33.6058300  51.1732504
 117.6413088  28.0679122  58.2559508 116.8280953  28.3673293  58.6624700
 118.1372082  27.6734811  58.9733990 119.7921665  38.0636879  60.1893772
 119.7497844  38.2897725  59.2602305 120.7084364  37.8300254  60.3379574
 117.1327162  25.6397478  63.8720743 117.7726542  25.4986237  63.1743706
 116.3004693  25.3531991  63.4959345 117.9087466  34.9399908  59.9855735
 118.7028065  34.4450228  59.7838310 117.1979159  34.4117771  59.6223441
 114.2170230  29.0842990  56.0615488 113.2867818  29.0227445  56.2785450
 114.3127702  28.5618942  55.2652129 114.1355779  25.6097803  58.6493730
 114.3962596  26.5243136  58.5402890 114.9572951  25.1422245  58.7990342
 115.6080704  27.0235560  65.8192554 116.2803757  26.8152922  65.1705203
 114.7810491  26.8257646  65.3797786 121.5106276  23.6497501  67.8358215
 120.8634191  24.3487450  67.7422691 122.2807291  24.0833645  68.2034463
 120.4858742  35.5128930  63.6653572 120.3469828  35.1447714  64.5379510
 119.6973338  36.0276569  63.4937530 121.0806894  40.6138026  55.0079109
 121.2558650  40.1426070  55.8224732 120.3939682  41.2403793  55.2360370
 122.0363957  34.8910533  61.0542410 121.7013790  34.8511303  61.9500060
 121.5367903  34.2255249  60.5812820 116.0108201  30.2978163  66.5794991
 115.8727999  29.5658402  67.1806530 116.9213125  30.2087063  66.2979179
 118.6390502  30.0098122  66.0678671 119.3490121  29.3691314  66.0265289
 118.5959810  30.2611017  66.9904852 117.3519436  26.9963340  67.8874310
 116.8156793  26.5454078  68.5395907 116.7636144  27.1309249  67.1444775
 115.6467979  43.7627389  61.7818969 115.8864578  44.3945913  62.4597988
 114.8037176  43.4115429  62.0684328 116.7621695  26.4551991  50.4500774
 115.8851161  26.3340792  50.0863021 117.2379448  25.6638070  50.1979663
 108.2823835  31.2429151  60.5442281 108.9694875  30.9290881  59.9563296
 108.1271964  32.1470516  60.2709533 113.0858557  26.1319348  64.9727305
 113.0016746  25.5245017  64.2377715 112.2641264  26.6228366  64.9736801
 120.1595841  39.5706512  64.1860473 120.0866013  40.3761483  64.6979778
 119.7173234  39.7698477  63.3608494 119.9485621  38.8078282  57.6963295
 119.1653143  39.3499962  57.7901519 120.6478366  39.3252261  58.0957536
 119.8417240  26.7590294  60.0669185 119.4715027  26.2061335  60.7550090
 120.3376332  26.1548428  59.5144185 117.6706438  37.2187789  67.1624202
 118.3715898  37.8524272  67.3153597 117.2001553  37.5602521  66.4019842
 121.5195297  30.5152208  71.4742790 120.8435934  30.4146337  72.1445165
 122.3422931  30.3591421  71.9378787 113.2674156  36.7524144  64.0955305
 113.8527593  36.0067832  64.2283209 113.0698995  37.0628101  64.9791969
 116.1212812  39.7875392  59.1117748 115.4523187  40.2721519  58.6281788
 115.9825681  40.0344612  60.0261126 107.8591811  29.3229744  62.8159748
 107.8975911  28.7893335  63.6096866 107.3532104  28.7964950  62.1970725
 120.2618080  41.8219135  65.7100406 120.8136388  41.9850757  66.4749491
 120.6024274  42.4123573  65.0380431 115.2382573  24.1694285  66.3122291
 115.3023900  25.0309116  65.8999688 115.1749694  23.5568287  65.5794649
 114.7134846  26.2417417  69.9595325 115.3406885  25.8594495  70.5732849
 113.8562765  26.0231619  70.3251017 111.4900389  28.0493847  55.8913680
 111.7853830  27.1404525  55.8380733 110.5888425  28.0281586  55.5694682
 115.0194636  26.1249843  61.8741228 114.2981222  26.7385811  61.7348702
 115.8087892  26.6607608  61.7957874 117.8220949  23.4604270  68.1481880
 118.3455351  23.7066566  68.9108189 117.6033283  24.2924304  67.7285017
 113.2188230  25.7307944  56.0153005 112.8900937  24.8505323  55.8328111
 113.5727601  25.6755613  56.9029394 116.3330054  26.0180914  56.3828483
 116.6726126  26.5466835  55.6607091 116.7802174  26.3561320  57.1587049
 119.0273494  24.4017965  65.8331551 118.6870315  23.6025778  66.2352230
 118.3212501  24.7019676  65.2608384 119.6789966  21.4867277  64.2858874
 120.5016035  21.0127755  64.1637764 119.9228030  22.2657761  64.7857560
 118.3198201  24.5155536  54.5821775 119.0406563  24.8936788  54.0785492
 117.6963505  25.2344412  54.6856753 117.2028545  28.1786398  62.0950852
 117.0573126  28.4926701  62.9875134 116.7253749  28.7971298  61.5421751
 119.0624928  25.1688946  62.1431742 119.0486497  24.2730039  61.8064040
 119.7797356  25.1759610  62.7770028 120.9151059  25.6026286  64.1884869
 120.6568836  26.5243357  64.1869200 120.3836099  25.2056721  64.8785333
 111.6774207  30.7191742  65.0338513 111.1327675  31.4951550  65.1658788
 112.5553557  31.0662547  64.8757635 118.4661824  24.0503326  57.4119312
 118.5877735  23.1219972  57.6110199 118.1763866  24.0642012  56.4997627
 121.3353014  21.7358237  60.5486032 121.3574711  21.7997570  59.5938011
 121.7521073  20.8962745  60.7426538 112.4640229  29.8461638  67.9268670
 111.7221965  29.9944274  68.5133301 112.1432973  30.1069904  67.0635420
 120.4083892  39.3877617  67.7249060 120.7171018  39.1426763  68.5971760
 121.2059374  39.5924255  67.2367930 120.4304504  41.5415526  59.9554437
 119.9909494  41.0491905  60.6487294 121.1812621  40.9988494  59.7146512
 112.9096843  37.7327067  59.9579065 113.7354863  37.4330839  59.5777708
 112.5590895  36.9634690  60.4068854 117.8778376  37.0853535  62.0276738
 117.2558385  36.4224240  61.7278966 118.5483243  37.1114667  61.3450386
 111.1105448  35.6513394  60.9167998 110.2737356  35.2235568  60.7352000
 111.0829093  35.8445837  61.8538790 117.9502903  25.5635323  71.6209245
 117.9991059  26.4397446  71.2387014 118.4925417  25.0212716  71.0480888
 117.4391883  35.6357459  55.5035199 117.5880003  36.3192923  54.8501872
 118.2458326  35.6162549  56.0184655 120.1802192  26.3166696  68.3755603
 119.3105501  26.6100262  68.1038192 120.4161672  26.9007141  69.0962867
 115.1944516  31.6622636  56.5096268 114.9490558  30.7584966  56.7076478
 115.3640430  31.6639787  55.5675746 114.4640163  27.3950994  54.0082429
 113.7709408  27.4695349  53.3522465 114.2191915  26.6311338  54.5303946
 120.9387288  38.1305589  52.9746946 120.3661255  38.7495776  52.5217418
 121.5120082  38.6804951  53.5086868 121.3234087  29.4666402  50.3162999
 122.2693191  29.3372610  50.3851417 120.9448332  28.7281064  50.7932427
 121.2072779  33.5184148  71.7763656 122.1275789  33.6962747  71.9703702
 121.1722362  32.5740193  71.6243355 119.5077004  27.3916378  50.2517884
 118.6008459  27.0949491  50.3280598 119.7852985  27.0946196  49.3852170
 110.4254944  28.7122742  60.7016931 110.1057729  27.8588050  60.4091305
 109.8788372  28.9271320  61.4574898 114.2034852  31.4285183  64.4186437
 114.4220862  32.3602291  64.4374471 114.6160626  31.0693157  65.2041241
 121.1239070  21.9353268  56.4062125 120.3139798  21.5900353  56.7817372
 121.8123487  21.6260812  56.9949737 119.0762717  27.0018389  73.8089186
 118.9759444  27.9512745  73.7401277 118.8584259  26.6736627  72.9365256
 118.2775788  24.2503314  50.3929863 119.1394952  24.5758212  50.6525681
 118.4626133  23.4634809  49.8802929 110.2943204  32.3325653  62.6710052
 109.6006676  31.9179606  62.1580007 111.0416195  32.3746190  62.0743471
 118.9393987  30.4315527  72.6254248 118.4561069  31.2315887  72.8318137
 119.0254926  30.4423472  71.6721692 112.2079947  32.2643907  60.5476067
 112.1850635  32.3631594  59.5957950 112.5180583  33.1109058  60.8693233
 114.8667325  34.3220062  64.6622681 115.8210578  34.2904004  64.5952613
 114.6679848  33.8610686  65.4772907 115.4566707  32.8921178  67.2293479
 116.2759596  33.3865257  67.2528316 115.7303514  31.9753146  67.2011047
 113.2217553  39.8639682  61.6792879 113.0872021  39.1040082  61.1130877
 112.8049616  40.5880581  61.2121668 116.3786679  40.7608999  61.8911322
 116.2619063  41.7054431  61.7890012 115.5579126  40.4582560  62.2797121
 110.7101621  27.2259312  67.9285676 111.3560485  26.7158266  68.4172901
 110.5018772  27.9627994  68.5029101 119.2305232  21.4899357  53.6809572
 119.2183901  22.4341197  53.8377843 120.1228653  21.3069502  53.3869034
 117.4041193  41.4137260  65.1067250 118.3068440  41.4460871  65.4233745
 117.1778564  40.4837711  65.1213586 119.1594795  40.1668247  61.7677329
 118.2090426  40.1670109  61.6541701 119.4627282  39.4200982  61.2513364
 115.0499112  24.3726929  72.0260690 115.9130574  24.0163734  72.2364015
 114.4764523  24.0340824  72.7136095 121.9082545  43.3989166  64.0146326
 122.1590584  44.2836176  64.2803902 122.4442094  43.2193768  63.2421418
 119.1217590  46.5721069  60.5442281 119.8088629  46.2582799  59.9563296
 118.9665718  47.4762433  60.2709533 118.6985566  44.6521662  62.8159748
 118.7369665  44.1185253  63.6096866 118.1925858  44.1256868  62.1970725
 121.9499202  50.9805311  60.9167998 121.1131110  50.5527486  60.7352000
 121.9222848  51.1737755  61.8538790 121.2648699  44.0414659  60.7016931
 120.9451483  43.1879968  60.4091305 120.7182127  44.2563238  61.4574898
 121.1336959  47.6617571  62.6710052 120.4400430  47.2471524  62.1580007
 121.8809950  47.7038107  62.0743471 121.5495376  42.5551230  67.9285676
 122.1954239  42.0450184  68.4172901 121.3412527  43.2919911  68.5029101
 118.0081151  18.0204118  44.3616074 117.9305181  18.9711943  44.4404554
 117.4042795  17.6749990  45.0191000 115.6467981  20.7689512  48.5064276
 115.8864579  21.4008036  49.1843294 114.8037177  20.4177552  48.7929635
 116.1212813  16.7937514  45.8363054 115.4523188  17.2783642  45.3527094
 115.9825683  17.0406735  46.7506433 120.2618082  18.8281258  52.4345713
 120.8136390  18.9912879  53.1994798 120.6024275  19.4185696  51.7625737
 120.4304505  18.5477649  46.6799743 119.9909495  18.0554028  47.3732600
 121.1812622  18.0050617  46.4391819 113.2217555  16.8701804  48.4038186
 113.0872023  16.1102205  47.8376184 112.8049617  17.5942704  47.9366975
 116.3786681  17.7671121  48.6156629 116.2619065  18.7116554  48.5135319
 115.5579127  17.4644683  49.0042428 117.4041195  18.4199383  51.8312557
 118.3068441  18.4522993  52.1479052 117.1778565  17.4899834  51.8458893
 121.9082547  20.4051289  50.7391633 122.1590585  21.2898299  51.0049208
 122.4442095  20.2255890  49.9666724 119.1217591  23.5783191  47.2687588
 119.8088631  23.2644921  46.6808603 118.9665719  24.4824556  46.9954839
 118.6985567  21.6583785  49.5405055 118.7369666  21.1247375  50.3342173
 118.1925860  21.1318990  48.9216032 121.9499203  27.9867434  47.6413305
 121.1131112  27.5589608  47.4597306 121.9222849  28.1799877  48.5784096
 121.2648700  21.0476782  47.4262237 120.9451484  20.1942090  47.1336611
 120.7182128  21.2625360  48.1820205 121.1336960  24.6679694  49.3955359
 120.4400431  24.2533646  48.8825313 121.8809951  24.7100230  48.7988778
 121.5495377  19.5613352  54.6530983 122.1954240  19.0512306  55.1418208
 121.3412528  20.2982034  55.2274408  25.3271882  63.4396235 119.1705493
  24.6533581  63.7427932 119.7790451  25.7137704  64.2425315 118.8210950
  27.4179352  55.2304448 117.7052933  26.8008523  54.5051276 117.6085986
  26.9495841  55.9913808 117.3620008  29.2928623  61.0181718 120.4445317
  29.9879528  61.6388411 120.6632631  29.6351773  60.1677070 120.7197694
  23.3843492  61.1243470 119.3520410  22.8117459  61.7433657 118.8990882
  23.9576285  61.6742832 119.8860332  26.6040751  61.4080620 120.4828992
  27.5371424  61.3426182 120.6861868  26.5163964  62.2436887 120.0243525
  29.2328768  60.7246491 117.4432940  29.1542399  60.3906354 118.3368698
  30.0538435  61.2168259 117.4424412  26.8032720  58.0414486 117.0642918
  27.5068570  58.2464489 117.6800574  26.0795369  58.6091248 117.3292002
  28.7119417  58.4797015 119.1141378  29.5465021  58.0478214 118.9318853
  28.5503760  58.3079029 120.0418273  37.3403692  68.9966666 129.2096555
  37.9782102  68.8773414 128.5059895  37.2224535  69.9447510 129.2684507
  34.1493399  68.9494094 129.1458080  33.8111910  68.8335159 128.2578615
  35.0183167  68.5485260 129.1259086  30.0080214  70.8029571 125.1354971
  29.4445079  70.7119508 124.3671259  29.8932609  69.9829475 125.6157463
  35.5879773  74.4700539 120.4469436  34.9367753  75.0554619 120.0603449
  36.3824136  75.0006733 120.5064473  29.5135400  71.5589676 120.8456570
  30.2866276  71.0118663 120.7069446  29.8660799  72.4233925 121.0571031
  31.8501678  67.7182342 118.4775020  32.1027199  67.1963863 117.7158483
  30.9126237  67.5548487 118.5801704  36.8944961  66.7218120 126.2849763
  37.6808050  66.3037543 125.9340180  37.1583665  67.6264212 126.4531412
  37.0655038  72.1590971 120.9838420  36.4300871  72.2325597 121.6959325
  36.7352445  72.7484569 120.3057499  42.2953388  66.6593353 127.1882742
  43.0278560  66.0892570 127.4220571  41.5392744  66.2714954 127.6289247
  31.5697967  69.6210448 120.6799395  31.4534225  68.9455351 121.3480479
  31.6800227  69.1342822 119.8631548  33.9129508  69.0820595 124.3846084
  33.5487715  68.5551216 125.0959006  34.7696623  68.6919064 124.2112570
  33.5534995  64.1110495 119.3807433  33.7209397  64.9790731 119.7477904
  33.3632164  64.2737776 118.4568722  36.3110328  72.5727474 131.0473263
  36.0111051  73.4752512 130.9389070  35.9661387  72.3059657 131.8994416
  39.7107472  65.0910014 128.7270700  38.8024349  65.0225422 128.4329461
  39.6595067  65.5681959 129.5552526  33.5324215  66.5668152 120.3654099
  33.4123841  67.0125203 121.2039580  32.8376804  66.9153470 119.8067638
  31.2931108  79.3371794 124.0144231  31.2155137  80.2879619 124.0932711
  30.6892751  78.9917666 124.6719157  39.2309282  67.0389625 121.1934434
  40.1427138  67.2717012 121.0182131  38.7218929  67.6226669 120.6309512
  37.8378864  72.0215444 128.5848015  37.2087726  72.1861158 127.8824083
  37.4504526  72.4357053 129.3558979  41.7168096  72.9569882 125.9392379
  41.0319134  73.3368783 125.3889412  41.8011945  73.5665208 126.6724327
  33.3906826  71.7589852 125.8498100  33.8545171  72.0377555 125.0602723
  33.1263624  70.8573296 125.6671191  32.3275712  67.8813004 122.6587665
  33.0299755  68.3334048 123.1261592  31.9956340  67.2396823 123.2867558
  40.0864855  73.4801796 130.7110080  40.9082299  73.0781983 130.4292761
  40.0827258  73.3770030 131.6626195  48.1770848  69.8240544 127.0595051
  47.4234557  69.2547943 126.9039056  48.3118390  69.7903209 128.0065686
  33.5669476  74.6953947 122.7349770  33.4315151  75.5405483 123.1634618
  34.1079289  74.8973224 121.9715704  27.0198874  72.2129385 123.3077696
  27.5323394  73.0072635 123.4583260  27.6721587  71.5155675 123.2411297
  28.8293759  75.3295141 125.3900449  29.0060387  76.2513106 125.2021433
  29.6250592  75.0153560 125.8194829  24.9847791  70.5418039 124.0837266
  25.8223013  70.9515048 123.8670974  25.1626058  69.6017481 124.0537460
  36.8812223  68.2093120 119.7721099  36.3658846  68.9797724 120.0109486
  36.6089531  67.5358256 120.3954160  34.4659334  63.0542821 124.8306337
  33.6100930  62.6649671 124.6511976  34.8786286  63.1334781 123.9706123
  41.8546497  70.9625474 121.7074273  41.0775940  70.6236634 121.2629435
  42.5337978  70.9678098 121.0329238  36.6698526  66.0820212 121.5980880
  36.3648661  66.3966361 122.4491023  37.6228968  66.1601632 121.6408213
  35.1144958  72.2410435 123.2473834  34.5866319  71.5063195 122.9347072
  34.6132460  73.0185112 123.0013803  40.0937804  70.4359456 128.3640881
  39.4361478  71.1258717 128.4521009  40.8978203  70.8255888 128.7074867
  38.9043263  68.7903828 126.4144822  39.4175144  69.4233820 126.9166532
  39.5544486  68.1905024 126.0488182  30.1733272  64.9334563 119.6276331
  29.3370585  65.2709249 119.9485606  30.0338042  64.7983542 118.6903468
  33.2597558  70.0590645 116.2508807  32.3524620  69.8279899 116.4499956
  33.7568590  69.2628265 116.4382789  36.1665637  78.7688153 119.1705493
  35.4927336  79.0719849 119.7790451  36.5531459  79.5717233 118.8210950
  36.1659141  67.6644700 123.7905843  36.9130960  68.1766097 123.4812965
  36.4350731  67.3428752 124.6510237  34.4385791  70.1603240 120.7732797
  33.5297011  69.8762273 120.8705267  34.4680875  70.5802319 119.9136104
  39.6705059  73.7709830 124.5423965  39.2167386  72.9300740 124.5989155
  39.0399026  74.4071228 124.8798745  38.6137978  64.7001816 125.7724632
  37.8760735  64.1879202 126.1034875  38.8664752  64.2602197 124.9607909
  38.1137998  75.6086327 125.4773783  38.4060972  76.1691384 124.7586149
  38.6236619  75.9014888 126.2326942  32.9870685  67.7731861 126.8742593
  33.0419295  66.8205697 126.7985069  32.1761887  67.9291300 127.3583891
  34.1361879  71.7011984 118.1120876  33.6981309  70.9847843 117.6526513
  34.8772320  71.9288099 117.5505967  30.9263045  66.3908921 124.6332972
  30.1130911  66.6903091 125.0398164  31.4222040  65.9964609 125.3507454
  33.0771623  76.3866678 126.5667236  33.0347802  76.6127524 125.6375768
  33.9934322  76.1530052 126.7153037  42.2534994  69.9769181 124.1697194
  42.1152893  70.1670777 123.2418384  41.8971213  70.7388564 124.6265246
  42.2804374  72.0445708 129.1808466  42.7140880  71.9520997 130.0291520
  42.9935954  72.0203209 128.5428482  31.1937424  73.2629707 126.3629199
  31.9878023  72.7680027 126.1611774  30.4829116  72.7347570 125.9996905
  36.0132268  75.6447802 130.7141567  36.0669291  76.2138738 131.4819282
  35.1447050  75.8149687 130.3495604  27.5020187  67.4072788 122.4388952
  26.5717776  67.3457244 122.6558914  27.5977659  66.8848741 121.6425593
  43.1419923  72.0869409 131.7141351  43.3355813  72.9915219 131.9600626
  43.0420541  71.6276828 132.5479936  33.7708700  73.8358729 130.0427036
  33.6319786  73.4677513 130.9152974  32.9823296  74.3506368 129.8710994
  34.3656852  78.9367825 121.3852573  34.5408608  78.4655868 122.1998195
  33.6789640  79.5633591 121.6133833  35.3213915  73.2140331 127.4315874
  34.9863748  73.1741101 128.3273524  34.8217861  72.5485047 126.9586284
  38.2573107  70.5596366 117.7052933  37.6402277  69.8343194 117.6085986
  37.7889595  71.3205726 117.3620008  30.0471653  64.7781790 116.8274238
  29.1701119  64.6570591 116.4636484  30.5229406  63.9867868 116.5753126
  33.2335579  77.1308080 124.0736758  32.4503101  77.6729761 124.1674983
  33.9328324  77.6482060 124.4730999  36.5432229  62.9402710 126.7170964
  37.0400928  62.1872672 126.3972034  35.7719210  62.9767026 126.1514173
  44.3961986  68.6443075 128.3589255  44.3851863  69.5267791 127.9883188
  43.5279366  68.2914626 128.1643792  37.6262010  71.6974397 124.2909387
  36.6918288  71.8175859 124.1214091  37.8038678  70.7946864 124.0269397
  41.0134561  67.5391716 124.8259421  41.4795013  68.3719708 124.7519724
  41.4642061  67.0736698 125.5304680  39.0810792  73.8835538 121.8245573
  39.3570636  73.7692132 122.7339447  38.2115291  73.4853022 121.7857746
  35.7164856  78.1321888 125.4678387  35.8987251  77.3143544 125.9306139
  36.5397842  78.3489581 125.0303277  36.0507022  77.0590074 122.7293435
  36.5794788  76.5482528 122.1163597  36.3135241  76.7432604 123.5938968
  24.7750347  66.3723645 122.2687143  25.0703788  65.4634324 122.2154197
  23.8738382  66.3511385 121.9468146  36.6836425  78.0930909 129.0737552
  36.5587565  77.2920649 128.5648497  37.3415516  78.5877103 128.5851522
  38.7471334  75.8939929 130.7017102  37.8001669  75.7745281 130.6295429
  39.0954107  75.0062427 130.7843363  26.5038188  64.0537743 122.3926469
  26.1750894  63.1735122 122.2101574  26.8577559  63.9985412 123.2802858
  35.7517767  75.6892646 126.9021454  35.6042729  74.7609353 127.0829024
  36.5771261  75.7112736 126.4178529  29.6180011  64.3410713 122.7601946
  29.9576084  64.8696634 122.0380555  30.0652132  64.6791119 123.5360513
  39.3551889  76.5121204 127.9886327  40.2798436  76.3064066 127.8510778
  39.1867192  76.2637605 128.8975668  31.6048158  62.8385334 120.9595239
  32.3256521  63.2166587 120.4558956  30.9813463  63.5574211 121.0630217
  35.7479281  63.5430483 121.8953571  35.9642896  64.4255121 121.5942400
  35.2673348  63.1516697 121.1659213  39.1447205  77.0306872 123.3448418
  39.3184083  76.4653294 122.5922271  39.6376096  77.8307767 123.1627908
  31.7511782  62.3733125 123.7892776  31.8727693  61.4449771 123.9883663
  31.4613824  62.3871811 122.8771091  44.9986596  69.7943295 124.9638718
  45.4417742  69.0450620 124.5657841  44.1213107  69.7853431 124.5812450
  40.1322378  76.3473636 120.4445317  40.8273282  76.9680329 120.6632631
  40.4745528  75.4968987 120.7197694  42.0313801  73.7973342 121.9732647
  42.5565125  74.1360614 121.2481967  41.9436153  72.8620357 121.7895782
  33.7154461  79.8645325 126.3327901  33.2759452  79.3721704 127.0260757
  34.4662578  79.3218293 126.0919976  30.7241840  73.9587257 121.8808663
  30.8729961  74.6422722 121.2275335  31.5308284  73.9392347 122.3958118
  43.3423779  73.6995653 134.8358595  43.0508587  74.0625634 135.6722056
  42.7295910  72.9862662 134.6571927  44.5419461  71.2648533 127.3561166
  45.3766352  71.7038337 127.5198726  44.6778590  70.7887186 126.5369411
  28.4794473  69.9852435 122.8869732  28.2340515  69.0814765 123.0849942
  28.6490388  69.9869585 121.9449210  27.7490121  65.7180793 120.3855893
  27.0559366  65.7925148 119.7295929  27.5041873  64.9541136 120.9077410
  34.2237246  76.4535388 119.3520410  33.6511213  77.0725575 118.8990882
  34.7970040  77.0034750 119.8860332  37.4434506  76.7372538 120.4828992
  38.3765179  76.6718100 120.6861868  37.3557719  77.5728805 120.0243525
  40.0722522  76.0538408 117.4432940  39.9936154  75.7198272 118.3368698
  40.8932189  76.5460176 117.4424412  42.7700714  68.9200148 130.6509259
  42.7377034  67.9816148 130.8368942  43.3801337  68.9984184 129.9175084
  34.6084044  67.7896201 116.6936463  35.5543149  67.6602409 116.7624881
  34.2298289  67.0510863 117.1705891  48.5877263  69.9816154 129.7915295
  49.3180652  69.7201443 130.3522999  47.9784209  69.2444876 129.8317363
  46.6692561  68.1224017 130.3889747  45.9425724  67.9879982 129.7806238
  46.2539847  68.4300846 131.1946465  32.7926962  65.7146177 116.6291348
  31.8858417  65.4179290 116.7054062  33.0702943  65.4175995 115.7625634
  34.4089027  60.2583067 122.7835589  33.5989756  59.9130152 123.1590835
  35.0973444  59.9490610 123.3723201  31.5625746  62.5733112 116.7703327
  32.4244910  62.8988011 117.0299144  31.7476090  61.7864608 116.2576393
  39.7158383  61.4461639 123.9138550  39.1357052  62.1046443 123.5316603
  39.4494315  60.6238983 123.5025968  38.4983261  63.6061729 122.9694898
  37.6109116  63.8911380 122.7515093  38.9137250  63.4455492 122.1222175
  41.8497797  63.6308250 126.6849238  42.6258187  64.1204702 126.9573854
  41.1245931  64.0566304 127.1421107  44.2870356  64.3435869 127.7423178
  44.8814846  64.1031605 127.0316486  44.3596939  63.6243000 128.3696715
  37.6426474  73.3706404 117.0642918  38.3462324  73.5756406 117.6800574
  36.9189123  73.9383166 117.3292002  38.4724285  69.1216265 123.1845189
  38.4159486  69.5784816 122.3452821  39.0252627  68.3606950 123.0068031
  42.2829090  64.9105997 124.0095308  42.0266025  64.5102633 124.8403516
  41.6581958  65.6249791 123.8845447  46.5941428  67.6502070 126.5166599
  46.0340986  67.7195259 127.2898161  45.9884932  67.4743055 125.7966096
  39.5513172  73.8088933 119.1141378  40.3858776  73.3770131 118.9318853
  39.3897515  73.6370947 120.0418273  39.2059064  70.3121046 120.4797718
  39.1507868  70.1465318 119.5386162  38.5805119  71.0197079 120.6359907
  32.5155189  59.8129155 120.0583036  32.5033859  60.7570995 120.2151307
  33.4078611  59.6299301 119.7642497  44.9887153  84.2786012 129.1458080
  44.6505665  84.1627077 128.2578615  45.8576921  83.8777177 129.1259086
  40.8473969  86.1321489 125.1354971  40.2838834  86.0411425 124.3671259
  40.7326364  85.3121393 125.6157463  46.4273527  89.7992456 120.4469436
  45.7761507  90.3846537 120.0603449  47.2217890  90.3298651 120.5064473
  40.3529155  86.8881593 120.8456570  41.1260031  86.3410580 120.7069446
  40.7054553  87.7525843 121.0571031  42.6895432  83.0474260 118.4775020
  42.9420953  82.5255781 117.7158483  41.7519991  82.8840405 118.5801704
  47.7338715  82.0510038 126.2849763  48.5201804  81.6329461 125.9340180
  47.9977420  82.9556130 126.4531412  47.9048793  87.4882888 120.9838420
  47.2694626  87.5617515 121.6959325  47.5746199  88.0776487 120.3057499
  53.1347142  81.9885271 127.1882742  53.8672314  81.4184488 127.4220571
  52.3786498  81.6006872 127.6289247  42.4091721  84.9502365 120.6799395
  42.2927979  84.2747269 121.3480479  42.5193981  84.4634739 119.8631548
  44.7523262  84.4112513 124.3846084  44.3881469  83.8843134 125.0959006
  45.6090378  84.0210982 124.2112570  50.6572563  75.7006845 131.6477350
  50.3255887  76.5702256 131.4238565  50.0618176  75.3843129 132.3271381
  44.3928749  79.4402412 119.3807433  44.5603151  80.3082649 119.7477904
  44.2025918  79.6029694 118.4568722  40.6016564  84.3533188 127.0809967
  39.6767060  84.2209402 127.2887659  40.8500977  85.1327407 127.5779910
  44.3717970  81.8960070 120.3654099  44.2517595  82.3417121 121.2039580
  43.6770558  82.2445387 119.8067638  42.1324862  94.6663712 124.0144231
  42.0548892  95.6171537 124.0932711  41.5286506  94.3209584 124.6719157
  50.0703036  82.3681543 121.1934434  50.9820892  82.6008930 121.0182131
  49.5612683  82.9518587 120.6309512  47.4139011  78.5439579 129.4424294
  46.5523490  78.8420832 129.7341032  47.4401446  78.7609978 128.5105327
  44.2300580  87.0881769 125.8498100  44.6938926  87.3669472 125.0602723
  43.9657378  86.1865214 125.6671191  41.1224661  86.6353251 128.7877863
  41.6926018  87.0640519 128.1495348  41.7132773  86.3535836 129.4862049
  43.1669466  83.2104922 122.6587665  43.8693510  83.6625966 123.1261592
  42.8350095  82.5688741 123.2867558  36.9094800  81.4688475 127.9604799
  36.1193854  81.7246003 127.4844909  37.4006048  82.2836812 128.0656839
  38.8609546  81.8333054 124.9188276  38.0640709  81.9451748 125.4371771
  38.6335138  82.1719706 124.0529166  44.4063231  90.0245864 122.7349770
  44.2708906  90.8697400 123.1634618  44.9473043  90.2265142 121.9715704
  37.8592628  87.5421303 123.3077696  38.3717149  88.3364553 123.4583260
  38.5115341  86.8447593 123.2411297  39.6687513  90.6587059 125.3900449
  39.8454141  91.5805023 125.2021433  40.4644347  90.3445478 125.8194829
  47.7555695  73.5476426 131.2648664  47.4119964  74.4378068 131.1887775
  48.1234657  73.3578084 130.4018249  35.8241545  85.8709957 124.0837266
  36.6616767  86.2806965 123.8670974  36.0019813  84.9309399 124.0537460
  47.7205977  83.5385037 119.7721099  47.2052601  84.3089642 120.0109486
  47.4483286  82.8650174 120.3954160  45.3053088  78.3834738 124.8306337
  44.4494685  77.9941589 124.6511976  45.7180040  78.4626699 123.9706123
  46.8352235  75.9181082 129.2297897  46.3317030  75.8811217 128.4165702
  47.1282842  76.8273824 129.2894554  43.0795121  76.0019811 128.2364079
  43.9448118  75.8062620 127.8769968  43.1472630  75.7730163 129.1633436
  52.6940251  86.2917392 121.7074273  51.9169694  85.9528552 121.2629435
  53.3731732  86.2970015 121.0329238  47.5092280  81.4112130 121.5980880
  47.2042416  81.7258279 122.4491023  48.4622723  81.4893549 121.6408213
  45.9538712  87.5702353 123.2473834  45.4260074  86.8355112 122.9347072
  45.4526215  88.3477029 123.0013803  40.6857440  78.2322019 125.6080446
  41.2601192  78.0097201 124.8753639  41.2728422  78.3010714 126.3609047
  49.7437017  84.1195746 126.4144822  50.2568899  84.7525738 126.9166532
  50.3938241  83.5196942 126.0488182  41.0127027  80.2626480 119.6276331
  40.1764339  80.6001167 119.9485606  40.8731797  80.1275460 118.6903468
  42.9880108  75.1063268 124.3355515  42.3344520  74.7912285 123.7112130
  42.9460582  74.4839009 125.0615338  44.0991312  85.3882563 116.2508807
  43.1918374  85.1571817 116.4499956  44.5962344  84.5920182 116.4382789
  47.0059391  94.0980070 119.1705493  46.3321090  94.4011767 119.7790451
  47.3925213  94.9009151 118.8210950  46.2217848  81.5945202 128.6603163
  45.3040409  81.8160149 128.5024851  46.6377992  81.6691512 127.8014870
  47.0052896  82.9936617 123.7905843  47.7524715  83.5058015 123.4812965
  47.2744485  82.6720670 124.6510237  45.2779546  85.4895158 120.7732797
  44.3690765  85.2054191 120.8705267  45.3074630  85.9094237 119.9136104
  49.4531733  80.0293734 125.7724632  48.7154490  79.5171120 126.1034875
  49.7058506  79.5894115 124.9607909  49.5543360  72.8069986 126.3666402
  49.8602237  71.9467349 126.0792317  50.2795965  73.3987606 126.1665396
  35.8467716  83.2100672 124.7548000  35.6492116  82.6170033 124.0299066
  35.2914380  82.9052882 125.4723938  43.8264440  83.1023779 126.8742593
  43.8813050  82.1497615 126.7985069  43.0155642  83.2583218 127.3583891
  44.9755634  87.0303902 118.1120876  44.5375064  86.3139761 117.6526513
  45.7166075  87.2580017 117.5505967  41.7656800  81.7200838 124.6332972
  40.9524665  82.0195009 125.0398164  42.2615794  81.3256527 125.3507454
  53.0928748  85.3061099 124.1697194  52.9546647  85.4962695 123.2418384
  52.7364967  86.0680482 124.6265246  41.2570875  79.2919194 130.2494206
  41.8970254  79.1507953 129.5517170  40.4248405  79.0053707 129.8732808
  42.0331179  88.5921624 126.3629199  42.8271777  88.0971944 126.1611774
  41.3222871  88.0639487 125.9996905  38.3413942  82.7364706 122.4388952
  37.4111530  82.6749162 122.6558914  38.4371414  82.2140659 121.6425593
  38.2599491  79.2619519 125.0267193  38.5206308  80.1764852 124.9176354
  39.0816663  78.7943961 125.1763806  45.2050606  94.2659743 121.3852573
  45.3802362  93.7947786 122.1998195  44.5183394  94.8925509 121.6133833
  49.0966861  85.8888283 117.7052933  48.4796032  85.1635111 117.6085986
  48.6283350  86.6497644 117.3620008  40.8865407  80.1073708 116.8274238
  40.0094874  79.9862508 116.4636484  41.3623160  79.3159786 116.5753126
  44.0729333  92.4599998 124.0736758  43.2896855  93.0021678 124.1674983
  44.7722078  92.9773978 124.4730999  47.3825983  78.2694627 126.7170964
  47.8794683  77.5164590 126.3972034  46.6112965  78.3058944 126.1514173
  48.4655764  87.0266315 124.2909387  47.5312043  87.1467777 124.1214091
  48.6432433  86.1238781 124.0269397  43.9660952  80.4112010 126.4442648
  43.5958740  79.8583051 127.1323554  44.4620045  79.8070144 125.8917648
  51.8528315  82.8683634 124.8259421  52.3188768  83.7011626 124.7519724
  52.3035816  82.4028616 125.5304680  49.9204547  89.2127455 121.8245573
  50.1964390  89.0984050 122.7339447  49.0509045  88.8144940 121.7857746
  49.8244978  75.2364221 128.8650323  48.9108058  75.4668448 129.0332529
  50.2538080  75.3202665 129.7164355  46.8900776  92.3881991 122.7293435
  47.4188542  91.8774446 122.1163597  47.1528996  92.0724521 123.5938968
  39.3626286  77.8216001 132.6895754  39.4267612  78.6830832 132.2773152
  39.2993406  77.2090003 131.9568113  35.6144101  81.7015563 122.2687143
  35.9097542  80.7926241 122.2154197  34.7132137  81.6803302 121.9468146
  39.1438348  79.7771559 128.2514692  38.4224934  80.3907527 128.1122165
  39.9331604  80.3129324 128.1731338  37.3431943  79.3829661 122.3926469
  37.0144649  78.5027039 122.2101574  37.6971313  79.3277329 123.2802858
  40.4573766  79.6702630 122.7601946  40.7969838  80.1988552 122.0380555
  40.9045886  80.0083036 123.5360513  43.1517207  78.0539681 132.2105014
  42.8114027  77.2547494 132.6125694  42.4456213  78.3541392 131.6381847
  43.8033678  75.1388993 130.6632337  44.6259748  74.6649472 130.5411228
  44.0471742  75.9179477 131.1631024  42.4441913  78.1677252 120.9595239
  43.1650275  78.5458505 120.4558956  41.8207217  78.8866129 121.0630217
  46.5873036  78.8722401 121.8953571  46.8036650  79.7547039 121.5942400
  46.1067103  78.4808614 121.1659213  41.3272257  81.8308114 128.4724316
  41.1816838  82.1448417 129.3648597  40.8497461  82.4493014 127.9195215
  43.1868640  78.8210662 128.5205205  43.1730209  77.9251755 128.1837503
  43.9041068  78.8281326 129.1543492  45.0394771  79.2548002 130.5658333
  44.7812549  80.1765073 130.5642663  44.5079811  78.8578437 131.2558797
  42.5905536  77.7025042 123.7892776  42.7121447  76.7741689 123.9883663
  42.3007578  77.7163728 122.8771091  45.4596726  75.3879953 126.9259495
  45.4818423  75.4519286 125.9711475  45.8764785  74.5484461 127.1200002
  50.9716132  91.6765554 120.4445317  51.6667037  92.2972247 120.6632631
  51.3139282  90.8260905 120.7197694  52.8707555  89.1265259 121.9732647
  53.3958879  89.4652532 121.2481967  52.7829908  88.1912275 121.7895782
  41.5635595  89.2879175 121.8808663  41.7123715  89.9714639 121.2275335
  42.3702038  89.2684265 122.3958118  39.3188228  85.3144353 122.8869732
  39.0734270  84.4106683 123.0849942  39.4884142  85.3161503 121.9449210
  47.0084938  76.1868029 132.2694487  47.5266882  76.9229056 131.9440976
  46.6540071  76.4932022 133.1041246  38.5883875  81.0472710 120.3855893
  37.8953120  81.1217065 119.7295929  38.3435627  80.2833054 120.9077410
  47.2597532  72.6068312 127.7895384  47.5399286  71.9391501 128.4155810
  48.0448139  72.7997407 127.2770048  45.0631000  91.7827306 119.3520410
  44.4904968  92.4017493 118.8990882  45.6363794  92.3326667 119.8860332
  48.2828260  92.0664456 120.4828992  49.2158933  92.0010017 120.6861868
  48.1951473  92.9020722 120.0243525  50.9116277  91.3830326 117.4432940
  50.8329908  91.0490190 118.3368698  51.7325944  91.8752094 117.4424412
  45.4477799  83.1188118 116.6936463  46.3936904  82.9894326 116.7624881
  45.0692044  82.3802780 117.1705891  51.4199684  74.7844124 126.6563354
  51.2224505  74.4759212 127.5406686  52.0299389  75.5105763 126.7861284
  43.6320716  81.0438095 116.6291348  42.7252172  80.7471207 116.7054062
  43.9096697  80.7467913 115.7625634  45.2482782  75.5874984 122.7835589
  44.4383510  75.2422069 123.1590835  45.9367199  75.2782528 123.3723201
  47.1773330  74.6653031 124.4059886  47.7304369  75.0848485 125.0649909
  47.4143417  73.7388779 124.4482842  42.4019501  77.9025030 116.7703327
  43.2638665  78.2279928 117.0299144  42.5869845  77.1156526 116.2576393
  50.5552137  76.7753556 123.9138550  49.9750806  77.4338360 123.5316603
  50.2888070  75.9530901 123.5025968  49.0055704  76.1758614 126.1159870
  49.5055482  76.2875149 125.3074189  49.6491312  75.8719667 126.7560679
  49.3377015  78.9353647 122.9694898  48.4502870  79.2203297 122.7515093
  49.7531004  78.7747410 122.1222175  52.6891551  78.9600168 126.6849238
  53.4651942  79.4496620 126.9573854  51.9639686  79.3858222 127.1421107
  55.1264110  79.6727787 127.7423178  55.7208601  79.4323523 127.0316486
  55.1990694  78.9534917 128.3696715  48.4820229  88.6998321 117.0642918
  49.1856079  88.9048324 117.6800574  47.7582877  89.2675083 117.3292002
  49.3118039  84.4508183 123.1845189  49.2553240  84.9076734 122.3452821
  49.8646381  83.6898867 123.0068031  53.1222845  80.2397915 124.0095308
  52.8659779  79.8394550 124.8403516  52.4975713  80.9541708 123.8845447
  50.3906926  89.1380851 119.1141378  51.2252530  88.7062049 118.9318853
  50.2291269  88.9662864 120.0418273  50.0452818  85.6412964 120.4797718
  49.9901622  85.4757235 119.5386162  49.4198874  86.3488997 120.6359907
  43.3548944  75.1421073 120.0583036  43.3427614  76.0862913 120.2151307
  44.2472366  74.9591218 119.7642497  47.1701063  71.7363850 124.3128973
  46.4033459  71.1822336 124.4585655  47.5811768  71.8085718 125.1743125
  51.8520781  95.5918398 119.6276331  51.0158094  95.9293084 119.9485606
  51.7125551  95.4567378 118.6903468  51.7259162  95.4365625 116.8274238
  50.8488628  95.3154426 116.4636484  52.2016915  94.6451704 116.5753126
  49.4277630  96.3764628 120.3855893  48.7346875  96.4508983 119.7295929
  49.1829382  95.6124972 120.9077410  54.4714471  96.3730012 116.6291348
  53.5645926  96.0763125 116.7054062  54.7490452  96.0759830 115.7625634
  53.2413255  93.2316948 116.7703327  54.1032419  93.5571846 117.0299144
  53.4263599  92.4448443 116.2576393  54.1942698  90.4712991 120.0583036
  54.1821368  91.4154830 120.2151307  55.0866120  90.2883136 119.7642497
  25.3271884  40.4458358 105.8950800  24.6533582  40.7490054 106.5035758
  25.7137706  41.2487438 105.5456257  27.4179354  32.2366571 104.4298240
  26.8008524  31.5113399 104.3331293  26.9495842  32.9975931 104.0865314
  29.2928624  38.0243841 107.1690623  29.9879529  38.6450534 107.3877938
  29.6351774  37.1739192 107.4443001  23.3843493  38.1305593 106.0765717
  22.8117460  38.7495780 105.6236189  23.9576286  38.6804954 106.6105639
  26.6040753  38.4142743 107.2074299  27.5371426  38.3488305 107.4107175
  26.5163965  39.2499010 106.7488832  29.2328769  37.7308613 104.1678247
  29.1542401  37.3968477 105.0614005  30.0538436  38.2230381 104.1669719
  26.8032721  35.0476609 103.7888225  27.5068571  35.2526611 104.4045881
  26.0795370  35.6153371 104.0537309  28.7119418  35.4859138 105.8386685
  29.5465022  35.0540336 105.6564160  28.5503761  35.3141152 106.7663580
  37.3403694  46.0028789 115.9341862  37.9782103  45.8835536 115.2305202
  37.2224536  46.9509633 115.9929814  34.1493400  45.9556217 115.8703386
  33.8111911  45.8397282 114.9823921  35.0183168  45.5547382 115.8504393
  30.0080215  47.8091693 111.8600277  29.4445081  47.7181630 111.0916565
  29.8932611  46.9891598 112.3402770  35.5879774  51.4762661 107.1714742
  34.9367754  52.0616742 106.7848756  36.3824137  52.0068856 107.2309780
  29.5135401  48.5651798 107.5701877  30.2866277  48.0180785 107.4314752
  29.8660800  49.4296048 107.7816338  31.8501679  44.7244464 105.2020327
  32.1027200  44.2025986 104.4403790  30.9126238  44.5610610 105.3047010
  36.8944962  43.7280243 113.0095070  37.6808051  43.3099666 112.6585487
  37.1583666  44.6326335 113.1776718  37.0655039  49.1653093 107.7083727
  36.4300872  49.2387720 108.4204631  36.7352446  49.7546692 107.0302806
  42.2953389  43.6655476 113.9128048  43.0278561  43.0954693 114.1465878
  41.5392745  43.2777076 114.3534554  31.5697968  46.6272570 107.4044702
  31.4534226  45.9517474 108.0725786  31.6800228  46.1404944 106.5876855
  33.9129509  46.0882717 111.1091391  33.5487716  45.5613338 111.8204312
  34.7696625  45.6981187 110.9357876  33.5534996  41.1172617 106.1052739
  33.7209398  41.9852854 106.4723210  33.3632165  41.2799899 105.1814029
  36.3110329  49.5789596 117.7718570  36.0111052  50.4814635 117.6634377
  35.9661389  49.3121779 118.6239723  39.7107473  42.0972136 115.4516007
  38.8024350  42.0287545 115.1574768  39.6595069  42.5744081 116.2797832
  33.5324217  43.5730275 107.0899406  33.4123842  44.0187325 107.9284886
  32.8376805  43.9215592 106.5312944  31.2931109  56.3433916 110.7389537
  31.2155138  57.2941742 110.8178018  30.6892752  55.9979789 111.3964464
  39.2309283  44.0451748 107.9179740  40.1427139  44.2779135 107.7427438
  38.7218930  44.6288792 107.3554819  37.8378865  49.0277566 115.3093322
  37.2087728  49.1923280 114.6069389  37.4504527  49.4419176 116.0804286
  41.7168097  49.9632004 112.6637685  41.0319135  50.3430906 112.1134719
  41.8011946  50.5727331 113.3969633  33.3906827  48.7651974 112.5743407
  33.8545173  49.0439677 111.7848029  33.1263625  47.8635419 112.3916497
  32.3275713  44.8875127 109.3832972  33.0299756  45.3396170 109.8506898
  31.9956342  44.2458946 110.0112865  40.0864857  50.4863919 117.4355386
  40.9082300  50.0844106 117.1538068  40.0827259  50.3832153 118.3871502
  48.1770850  46.8302667 113.7840358  47.4234558  46.2610065 113.6284362
  48.3118391  46.7965332 114.7310992  33.5669478  51.7016069 109.4595077
  33.4315153  52.5467605 109.8879925  34.1079290  51.9035347 108.6961011
  27.0198875  49.2191507 110.0323002  27.5323396  50.0134758 110.1828567
  27.6721588  48.5217798 109.9656604  28.8293760  52.3357264 112.1145755
  29.0060388  53.2575228 111.9266739  29.6250593  52.0215683 112.5440135
  29.9525075  53.8535437 118.1156098  30.5032500  53.7252501 117.3433092
  29.1136551  54.1530327 117.7650990  24.9847792  47.5480162 110.8082573
  25.8223014  47.9577170 110.5916280  25.1626060  46.6079604 110.7782767
  36.8812224  45.2155242 106.4966406  36.3658847  45.9859847 106.7354793
  36.6089532  44.5420379 107.1199467  34.4659335  40.0604943 111.5551644
  33.6100931  39.6711794 111.3757283  34.8786287  40.1396904 110.6951430
  41.8546498  47.9687597 108.4319579  41.0775941  47.6298757 107.9874741
  42.5337979  47.9740220 107.7574544  36.6698527  43.0882334 108.3226187
  36.3648663  43.4028484 109.1736330  37.6228969  43.1663754 108.3653520
  35.1144959  49.2472558 109.9719141  34.5866321  48.5125317 109.6592378
  34.6132462  50.0247234 109.7259109  40.0937805  47.4421578 115.0886187
  39.4361479  48.1320840 115.1766316  40.8978204  47.8318010 115.4320173
  38.9043264  45.7965951 113.1390129  39.4175146  46.4295943 113.6411839
  39.5544488  45.1967146 112.7733489  30.1733274  41.9396685 106.3521638
  29.3370586  42.2771372 106.6730912  30.0338043  41.8045665 105.4148775
  33.2597559  47.0652768 102.9754114  32.3524621  46.8342022 103.1745263
  33.7568591  46.2690387 103.1628095  36.1665638  55.7750275 105.8950800
  35.4927337  56.0781972 106.5035758  36.5531460  56.5779356 105.5456257
  36.1659142  44.6706822 110.5151150  36.9130961  45.1828219 110.2058272
  36.4350732  44.3490875 111.3755543  34.4385793  47.1665363 107.4978104
  33.5297012  46.8824396 107.5950574  34.4680876  47.5864441 106.6381411
  39.6705060  50.7771952 111.2669272  39.2167387  49.9362862 111.3234462
  39.0399027  51.4133351 111.6044052  38.6137980  41.7063938 112.4969939
  37.8760736  41.1941325 112.8280182  38.8664753  41.2664320 111.6853216
  38.1137999  52.6148449 112.2019090  38.4060974  53.1753506 111.4831455
  38.6236620  52.9077010 112.9572249  32.9870687  44.7793984 113.5987899
  33.0419296  43.8267820 113.5230376  32.1761889  44.9353423 114.0829198
  34.1361880  48.7074107 104.8366183  33.6981310  47.9909966 104.3771820
  34.8772321  48.9350221 104.2751274  30.9263047  43.3971043 111.3578278
  30.1130912  43.6965214 111.7643470  31.4222041  43.0026732 112.0752760
  33.0771624  53.3928800 113.2912543  33.0347803  53.6189647 112.3621075
  33.9934323  53.1592175 113.4398344  42.2534995  46.9831304 110.8942501
  42.1152894  47.1732900 109.9663690  41.8971214  47.7450686 111.3510552
  42.2804375  49.0507831 115.9053773  42.7140881  48.9583120 116.7536827
  42.9935956  49.0265331 115.2673789  31.1937425  50.2691829 113.0874506
  31.9878024  49.7742149 112.8857081  30.4829118  49.7409692 112.7242211
  36.0132270  52.6509925 117.4386873  36.0669292  53.2200861 118.2064589
  35.1447051  52.8211810 117.0740910  27.5020189  44.4134911 109.1634258
  26.5717777  44.3519366 109.3804220  27.5977661  43.8910864 108.3670900
  43.1419924  49.0931531 118.4386658  43.3355814  49.9977342 118.6845933
  43.0420543  48.6338950 119.2725243  33.7708701  50.8420851 116.7672343
  33.6319787  50.4739636 117.6398281  32.9823297  51.3568491 116.5956300
  34.3656853  55.9429948 108.1097879  34.5408609  55.4717991 108.9243502
  33.6789641  56.5695714 108.3379140  35.3213916  50.2202454 114.1561180
  34.9863749  50.1803224 115.0518830  34.8217862  49.5547170 113.6831591
  38.2573108  47.5658488 104.4298240  37.6402279  46.8405316 104.3331293
  37.7889597  48.3267849 104.0865314  28.9317939  59.0919310 114.8837739
  29.1714537  59.7237835 115.5616758  28.0887135  58.7407350 115.1703099
  30.0471654  41.7843913 103.5519544  29.1701120  41.6632713 103.1881791
  30.5229407  40.9929991 103.2998433  33.4445800  54.8998433 117.2879243
  33.3715972  55.7053404 117.7998548  33.0023193  55.0990399 116.4627265
  33.2335580  54.1370203 110.7982065  32.4503102  54.6791883 110.8920289
  33.9328325  54.6544183 111.1976306  36.5432230  39.9464832 113.4416270
  37.0400930  39.1934795 113.1217341  35.7719212  39.9829149 112.8759480
  44.3961988  45.6505198 115.0834562  44.3851864  46.5329913 114.7128495
  43.5279367  45.2976749 114.8889099  35.9044484  54.7985267 119.4437402
  36.6172456  55.4332732 119.3713303  35.4134513  54.8949133 118.6277404
  37.6262011  48.7036520 111.0154694  36.6918290  48.8237982 110.8459398
  37.8038679  47.8008986 110.7514704  41.0134562  44.5453839 111.5504728
  41.4795014  45.3781830 111.4765030  41.4642063  44.0798820 112.2549986
  39.0810793  50.8897660 108.5490880  39.3570637  50.7754255 109.4584754
  38.2115292  50.4915145 108.5103053  35.7164857  55.1384011 112.1923693
  35.8987252  54.3205667 112.6551446  36.5397843  55.3551703 111.7548583
  36.0507023  54.0652196 109.4538742  36.5794789  53.5544651 108.8408904
  36.3135242  53.7494726 110.3184275  29.4062771  55.1167313 112.2136518
  28.7373146  55.6013440 111.7300558  29.2675640  55.3636533 113.1279896
  33.5468039  57.1511056 118.8119176  34.0986347  57.3142678 119.5768261
  33.8874233  57.7415494 118.1399201  24.7750348  43.3785768 108.9932450
  25.0703789  42.4696446 108.9399504  23.8738384  43.3573507 108.6713452
  36.6836427  55.0993032 115.7982858  36.5587566  54.2982772 115.2893804
  37.3415518  55.5939225 115.3096828  38.7471335  52.9002052 117.4262409
  37.8001670  52.7807403 117.3540735  39.0954108  52.0124550 117.5088670
  26.5038189  41.0599865 109.1171775  26.1750896  40.1797244 108.9346881
  26.8577560  41.0047534 110.0048164  35.7517768  52.6954768 113.6266761
  35.6042731  51.7671476 113.8074331  36.5771262  52.7174859 113.1423836
  29.6180013  41.3472835 109.4847253  29.9576085  41.8758756 108.7625861
  30.0652133  41.6853241 110.2605819  39.3551890  53.5183327 114.7131634
  40.2798438  53.3126188 114.5756085  39.1867193  53.2699728 115.6220975
  31.6048160  39.8447457 107.6840546  32.3256522  40.2228710 107.1804263
  30.9813464  40.5636334 107.7875524  35.7479283  40.5492606 108.6198878
  35.9642897  41.4317244 108.3187706  35.2673350  40.1578819 107.8904520
  39.1447206  54.0368994 110.0693725  39.3184084  53.4715417 109.3167577
  39.6376098  54.8369889 109.8873215  31.7511783  39.3795247 110.5138082
  31.8727694  38.4511893 110.7128970  31.4613825  39.3933933 109.6016398
  44.9986597  46.8005417 111.6884025  45.4417744  46.0512742 111.2903148
  44.1213108  46.7915554 111.3057757  40.1322379  53.3535759 107.1690623
  40.8273283  53.9742451 107.3877938  40.4745529  52.5031110 107.4443001
  42.0313802  50.8035464 108.6977954  42.5565126  51.1422737 107.9727274
  41.9436154  49.8682480 108.5141089  33.7154463  56.8707448 113.0573207
  33.2759453  56.3783826 113.7506064  34.4662580  56.3280415 112.8165282
  26.1946802  53.0618988 113.0597835  27.0204822  52.7622760 112.6796479
  25.8440854  52.2926611 113.5087624  31.1628335  52.4145457 115.1295509
  30.5408344  51.7516162 114.8297737  31.8333202  52.4406589 114.4469157
  24.3955407  50.9805315 114.0186769  23.5587315  50.5527489 113.8370770
  24.3679052  51.1737758 114.9557560  30.7241842  50.9649380 108.6053969
  30.8729962  51.6484844 107.9520642  31.5308285  50.9454470 109.1203425
  43.3423780  50.7057776 121.5603902  43.0508588  51.0687756 122.3967363
  42.7295911  49.9924784 121.3817234  44.5419462  48.2710656 114.0806472
  45.3766354  48.7100460 114.2444033  44.6778591  47.7949309 113.2614718
  28.4794475  46.9914558 109.6115038  28.2340517  46.0876888 109.8095248
  28.6490389  46.9931708 108.6694516  27.7490122  42.7242915 107.1101200
  27.0559367  42.7987270 106.4541236  27.5041874  41.9603259 107.6322717
  34.2237247  53.4597510 106.0765717  33.6511214  54.0787698 105.6236189
  34.7970041  54.0096872 106.6105639  37.4434507  53.7434661 107.2074299
  38.3765180  53.6780222 107.4107175  37.3557720  54.5790927 106.7488832
  42.7700715  45.9262270 117.3754565  42.7377035  44.9878271 117.5614249
  43.3801339  46.0046307 116.6420390  34.6084046  44.7958323 103.4181769
  35.5543150  44.6664531 103.4870187  34.2298291  44.0572985 103.8951197
  48.5877265  46.9878277 116.5160602  49.3180653  46.7263565 117.0768305
  47.9784210  46.2506999 116.5562670  46.6692562  45.1286140 117.1135053
  45.9425725  44.9942105 116.5051545  46.2539849  45.4362968 117.9191771
  32.7926963  42.7208300 103.3536655  31.8858418  42.4241412 103.4299368
  33.0702944  42.4238118 102.4870941  34.4089029  37.2645189 109.5080896
  33.5989757  36.9192274 109.8836142  35.0973446  36.9552733 110.0968507
  31.5625748  39.5795235 103.4948634  32.4244912  39.9050133 103.7544451
  31.7476092  38.7926731 102.9821700  39.7158384  38.4523761 110.6383857
  39.1357053  39.1108565 110.2561909  39.4494317  37.6301106 110.2271274
  38.4983262  40.6123852 109.6940205  37.6109117  40.8973502 109.4760400
  38.9137251  40.4517615 108.8467482  41.8497798  40.6370373 113.4094544
  42.6258188  41.1266825 113.6819161  41.1245932  41.0628427 113.8666414
  44.2870357  41.3497992 114.4668485  44.8814848  41.1093728 113.7561793
  44.3596940  40.6305122 115.0942021  26.5067512  55.1931603 114.7811650
  26.3721980  54.4332004 114.2149648  26.0899575  55.9172503 114.3140439
  38.4724286  46.1278388 109.9090495  38.4159487  46.5846939 109.0698128
  39.0252628  45.3669072 109.7313338  42.2829092  41.9168119 110.7340615
  42.0266026  41.5164755 111.5648822  41.6581960  42.6311913 110.6090754
  46.5941430  44.6564193 113.2411906  46.0340988  44.7257382 114.0143468
  45.9884933  44.4805177 112.5211402  29.6636638  56.0900920 114.9930092
  29.5469023  57.0346352 114.8908783  28.8429085  55.7874481 115.3815892
  39.5513173  50.8151056 105.8386685  40.3858777  50.3832254 105.6564160
  39.3897516  50.6433069 106.7663580  39.2059065  47.3183169 107.2043024
  39.1507869  47.1527440 106.2631468  38.5805120  48.0259202 107.3605214
  32.5155191  36.8191278 106.7828343  32.5033860  37.7633118 106.9396614
  33.4078612  36.6361423 106.4887804  30.6891152  56.7429182 118.2086021
  31.5918399  56.7752792 118.5252516  30.4628523  55.8129633 118.2232357
  32.4444755  55.4960168 114.8696099  31.4940386  55.4962030 114.7560472
  32.7477241  54.7492903 114.3532134  48.1797448  61.3320707 115.9341862
  48.8175858  61.2127454 115.2305202  48.0618291  62.2801551 115.9929814
  44.9887154  61.2848135 115.8703386  44.6505666  61.1689199 114.9823921
  45.8576922  60.8839300 115.8504393  40.8473970  63.1383611 111.8600277
  40.2838835  63.0473548 111.0916565  40.7326365  62.3183516 112.3402770
  45.4706937  62.4382986 121.8289592  45.4595578  62.0435785 120.9570096
  45.6327577  61.7049059 122.4223363  38.3938402  64.6334803 114.6984498
  39.1859694  64.2925627 114.2830797  38.6335052  64.7429778 115.6186651
  46.4273529  66.8054579 107.1714742  45.7761508  67.3908659 106.7848756
  47.2217891  67.3360774 107.2309780  40.3529156  63.8943716 107.5701877
  41.1260032  63.3472703 107.4314752  40.7054555  64.7587965 107.7816338
  42.1914198  65.2220098 120.7768776  41.9004064  66.1265729 120.6615442
  42.8271183  65.2636626 121.4912846  43.1170405  62.5996947 117.3670136
  43.7133978  62.3752969 116.6527099  43.1745377  61.8581692 117.9695583
  47.7338716  59.0572160 113.0095070  48.5201806  58.6391584 112.6585487
  47.9977421  59.9618253 113.1776718  47.9048794  64.4945011 107.7083727
  47.2694627  64.5679637 108.4204631  47.5746200  65.0838610 107.0302806
  53.1347144  58.9947394 113.9128048  53.8672316  58.4246610 114.1465878
  52.3786499  58.6068994 114.3534554  42.4091722  61.9564488 107.4044702
  42.2927981  61.2809391 108.0725786  42.5193982  61.4696862 106.5876855
  44.7523263  61.4174635 111.1091391  44.3881471  60.8905256 111.8204312
  45.6090379  61.0273104 110.9357876  50.6572564  52.7068968 118.3722657
  50.3255889  53.5764379 118.1483872  50.0618177  52.3905252 119.0516687
  44.3928750  56.4464535 106.1052739  44.5603153  57.3144771 106.4723210
  44.2025919  56.6091817 105.1814029  47.1504083  64.9081514 117.7718570
  46.8504807  65.8106553 117.6634377  46.8055143  64.6413697 118.6239723
  40.6016565  61.3595311 113.8055274  39.6767061  61.2271525 114.0132966
  40.8500978  62.1389530 114.3025217  50.5501227  57.4264054 115.4516007
  49.6418105  57.3579462 115.1574768  50.4988823  57.9035999 116.2797832
  44.3717971  58.9022192 107.0899406  44.2517596  59.3479243 107.9284886
  43.6770560  59.2507510 106.5312944  37.9625376  61.0028584 114.6399063
  38.0917757  61.2563063 115.5538475  37.2822827  61.5956292 114.3203718
  42.1324863  71.6725834 110.7389537  42.0548893  72.6233659 110.8178018
  41.5286507  71.3271707 111.3964464  44.6242093  58.8453700 123.3950904
  43.8475427  59.4047620 123.3853769  45.2632656  59.3310483 123.9165774
  52.4162874  55.6280492 117.2293881  51.7737254  55.9213026 116.5833675
  51.9117802  55.5133413 118.0347078  50.0703037  59.3743666 107.9179740
  50.9820893  59.6071052 107.7427438  49.5612684  59.9580710 107.3554819
  42.8788465  61.6539153 122.9568871  43.6203150  62.1924197 122.6803695
  42.1725451  62.2805442 123.1140423  48.3543805  63.7968293 121.5541033
  48.7627161  63.3550704 120.8095665  47.6321067  63.2220921 121.8075226
  44.7074875  58.7340900 118.9274590  45.5536070  59.1580314 119.0709239
  44.6473513  58.0774524 119.6213153  48.6772620  64.3569484 115.3093322
  48.0481482  64.5215198 114.6069389  48.2898282  64.7711094 116.0804286
  52.5561852  65.2923922 112.6637685  51.8712890  65.6722823 112.1134719
  52.6405701  65.9019249 113.3969633  47.8574320  56.3945269 120.5855763
  47.6135252  57.1487329 120.0490039  48.1334251  56.7730616 121.4203010
  49.8112783  62.9383881 119.2633029  50.0229678  63.5815641 118.5867410
  49.7642531  62.1046197 118.7954959  47.4139012  55.5501702 116.1669601
  46.5523491  55.8482955 116.4586339  47.4401447  55.7672100 115.2350634
  44.2300582  64.0943892 112.5743407  44.6938927  64.3731595 111.7848029
  43.9657380  63.1927337 112.3916497  41.1224663  63.6415374 115.5123170
  41.6926020  64.0702642 114.8740654  41.7132774  63.3597958 116.2107356
  43.1669468  60.2167044 109.3832972  43.8693511  60.6688088 109.8506898
  42.8350096  59.5750863 110.0112865  41.6149829  58.8078801 123.7584181
  40.9848490  59.4895082 123.9919578  41.5085917  58.6961883 122.8137320
  36.9094802  58.4750597 114.6850105  36.1193856  58.7308126 114.2090216
  37.4006049  59.2898935 114.7902146  50.9258611  65.8155836 117.4355386
  51.7476055  65.4136024 117.1538068  50.9221014  65.7124070 118.3871502
  38.8609547  58.8395176 111.6433582  38.0640710  58.9513871 112.1617078
  38.6335139  59.1781829 110.7774473  44.6915215  65.3639880 119.5916097
  44.7559647  65.8260287 120.4274269  43.9826138  64.7337245 119.7198407
  35.1932505  58.7281088 117.1165096  35.4440543  59.6128097 117.3822672
  35.7292053  58.5485689 116.3440188  59.0164604  62.1594585 113.7840358
  58.2628313  61.5901983 113.6284362  59.1512145  62.1257249 114.7310992
  44.4063232  67.0307987 109.4595077  44.2708907  67.8759523 109.8879925
  44.9473045  67.2327265 108.6961011  37.8592630  64.5483425 110.0323002
  38.3717150  65.3426675 110.1828567  38.5115342  63.8509716 109.9656604
  39.6687514  67.6649181 112.1145755  39.8454143  68.5867146 111.9266739
  40.4644348  67.3507601 112.5440135  43.8098533  54.5257446 123.7129689
  44.5508246  55.1264599 123.6334151  44.0416456  53.7835084 123.1547731
  38.9539871  59.7113813 121.9907919  38.8393386  58.8099071 122.2915017
  38.0984389  59.9577510 121.6392735  46.0331709  67.6531554 123.5895419
  45.5895563  66.8667932 123.2716324  46.6948922  67.8410704 122.9239310
  40.7918830  69.1827355 118.1156098  41.3426255  69.0544419 117.3433092
  39.9530306  69.4822244 117.7650990  48.1312947  67.9334354 121.6176820
  48.1131422  68.7543235 121.1257090  49.0532867  67.8088429 121.8426962
  44.5886001  65.4478483 122.4600329  45.1214338  64.6866771 122.2299637
  44.0600082  65.1552135 123.2024483  47.7555696  50.5538549 117.9893971
  47.4119965  51.4440191 117.9133081  48.1234658  50.3640207 117.1263556
  35.8241546  62.8772079 110.8082573  36.6616768  63.2869088 110.5916280
  36.0019814  61.9371522 110.7782767  47.7205978  60.5447160 106.4966406
  47.2052602  61.3151765 106.7354793  47.4483287  59.8712296 107.1199467
  45.3053090  55.3896861 111.5551644  44.4494686  55.0003711 111.3757283
  45.7180041  55.4688822 110.6951430  46.8352236  52.9243204 115.9543204
  46.3317032  52.8873339 115.1411009  47.1282843  53.8335947 116.0139860
  43.0795122  53.0081934 114.9609386  43.9448119  52.8124743 114.6015275
  43.1472631  52.7792286 115.8878742  52.6940253  63.2979515 108.4319579
  51.9169695  62.9590674 107.9874741  53.3731734  63.3032138 107.7574544
  47.5092282  58.4174252 108.3226187  47.2042417  58.7320401 109.1736330
  48.4622724  58.4955672 108.3653520  45.9538714  64.5764475 109.9719141
  45.4260075  63.8417235 109.6592378  45.4526216  65.3539152 109.7259109
  50.9331560  62.7713496 115.0886187  50.2755234  63.4612757 115.1766316
  51.7371959  63.1609928 115.4320173  40.6857441  55.2384142 112.3325752
  41.2601193  55.0159323 111.5998945  41.2728424  55.3072836 113.0854354
  49.7437018  61.1257869 113.1390129  50.2568900  61.7587860 113.6411839
  50.3938242  60.5259064 112.7733489  41.0127028  57.2688603 106.3521638
  40.1764340  57.6063289 106.6730912  40.8731798  57.1337583 105.4148775
  42.9880109  52.1125391 111.0600822  42.3344521  51.7974408 110.4357437
  42.9460583  51.4901131 111.7860645  47.0059393  71.1042193 105.8950800
  46.3321091  71.4073890 106.5035758  47.3925215  71.9071273 105.5456257
  46.2217849  58.6007324 115.3848469  45.3040411  58.8222271 115.2270157
  46.6377993  58.6753635 114.5260177  47.0052897  59.9998740 110.5151150
  47.7524716  60.5120137 110.2058272  47.2744487  59.6782793 111.3755543
  45.2779547  62.4957281 107.4978104  44.3690766  62.2116313 107.5950574
  45.3074631  62.9156359 106.6381411  50.5098815  66.1063870 111.2669272
  50.0561142  65.2654780 111.3234462  49.8792781  66.7425268 111.6044052
  49.4531734  57.0355856 112.4969939  48.7154491  56.5233242 112.8280182
  49.7058508  56.5956238 111.6853216  48.9531754  67.9440367 112.2019090
  49.2454728  68.5045424 111.4831455  49.4630374  68.2368928 112.9572249
  49.5543361  49.8132108 113.0911708  49.8602238  48.9529472 112.8037623
  50.2795966  50.4049728 112.8910702  35.8467718  60.2162795 111.4793306
  35.6492117  59.6232155 110.7544373  35.2914382  59.9115005 112.1969245
  43.8264441  60.1085901 113.5987899  43.8813051  59.1559738 113.5230376
  43.0155643  60.2645340 114.0829198  41.7656801  58.7262961 111.3578278
  40.9524667  59.0257132 111.7643470  42.2615795  58.3318650 112.0752760
  43.9165379  68.7220718 113.2912543  43.8741558  68.9481564 112.3621075
  44.8328078  68.4884092 113.4398344  47.3631013  59.1904785 120.1893172
  47.7180400  59.4176259 121.0487638  48.0103144  59.5223162 119.5670427
  53.0928750  62.3123221 110.8942501  52.9546648  62.5024817 109.9663690
  52.7364969  63.0742604 111.3510552  41.2570876  56.2981316 116.9739513
  41.8970255  56.1570076 116.2762476  40.4248406  56.0115830 116.5978115
  53.1198129  64.3799748 115.9053773  53.5534636  64.2875037 116.7536827
  53.8329710  64.3557249 115.2673789  42.0331180  65.5983747 113.0874506
  42.8271778  65.1034067 112.8857081  41.3222872  65.0701610 112.7242211
  46.8526024  67.9801842 117.4386873  46.9063047  68.5492779 118.2064589
  45.9840806  68.1503727 117.0740910  38.3413943  59.7426829 109.1634258
  37.4111531  59.6811284 109.3804220  38.4371415  59.2202781 108.3670900
  38.2599492  56.2681641 111.7512500  38.5206310  57.1826975 111.6421660
  39.0816665  55.8006084 111.9009113  39.7324418  57.6819399 118.9211324
  40.4047471  57.4736761 118.2723973  38.9054204  57.4841485 118.4816557
  53.9813679  64.4223449 118.4386658  54.1749569  65.3269259 118.6845933
  53.8814297  63.9630868 119.2725243  45.6349990  54.3081340 120.9376985
  44.9877905  55.0071289 120.8441462  46.4051005  54.7417483 121.3053234
  49.0428788  64.5730192 124.0127539  48.8914294  64.3440743 123.0957622
  49.0333467  65.5300793 124.0258884  45.8114124  62.1462104 118.9973805
  46.7406184  62.2973264 118.8242772  45.3905154  62.2346125 118.1422452
  44.6102456  66.1712769 116.7672343  44.4713541  65.8031553 117.6398281
  43.8217052  66.6860408 116.5956300  45.2050608  71.2721865 108.1097879
  45.3802363  70.8009909 108.9243502  44.5183396  71.8987632 108.3379140
  46.1607671  65.5494372 114.1561180  45.8257504  65.5095142 115.0518830
  45.6611617  64.8839088 113.6831591  40.1351915  60.9562002 119.6813762
  39.9971713  60.2242240 120.2825301  41.0456838  60.8670902 119.3997949
  42.7634216  60.6681961 119.1697441  43.4733834  60.0275153 119.1284060
  42.7203524  60.9194856 120.0923622  50.7520994  67.6049314 122.0904020
  50.6933540  66.9208534 121.4234604  51.1540513  68.3468304 121.6384646
  41.4763150  57.6547179 120.9893081  40.9400507  57.2037917 121.6414677
  40.8879858  57.7893088 120.2463545  39.7711693  74.4211228 114.8837739
  40.0108291  75.0529752 115.5616758  38.9280889  74.0699268 115.1703099
  50.7538401  65.5688898 120.3218000  49.8665180  65.2314820 120.4444399
  51.3236953  64.8371929 120.5586766  32.4067549  61.9012990 113.6461052
  33.0938588  61.5874720 113.0582067  32.2515677  62.8054355 113.3728303
  37.2102271  56.7903187 118.0746075  37.1260459  56.1828856 117.3396485
  36.3884977  57.2812205 118.0755572  44.2839555  70.2290351 117.2879243
  44.2109726  71.0345322 117.7998548  43.8416948  70.4282316 116.4627265
  44.0729334  69.4662121 110.7982065  43.2896856  70.0083801 110.8920289
  44.7722080  69.9836100 111.1976306  47.3825985  55.2756750 113.4416270
  47.8794684  54.5226712 113.1217341  46.6112966  55.3121067 112.8759480
  55.2355742  60.9797116 115.0834562  55.2245618  61.8621831 114.7128495
  54.3673121  60.6268666 114.8889099  46.7438238  70.1277185 119.4437402
  47.4566211  70.7624649 119.3713303  46.2528267  70.2241051 118.6277404
  48.4655765  64.0328437 111.0154694  47.5312044  64.1529900 110.8459398
  48.6432434  63.1300904 110.7514704  43.9660953  57.4174133 113.1687955
  43.5958741  56.8645173 113.8568860  44.4620046  56.8132267 112.6162955
  51.8528317  59.8745757 111.5504728  52.3188769  60.7073748 111.4765030
  52.3035817  59.4090738 112.2549986  41.7950152  67.8771628 120.2642973
  42.4959611  68.5108111 120.4172367  41.3245267  68.2186360 119.5038612
  49.9204548  66.2189578 108.5490880  50.1964392  66.1046172 109.4584754
  49.0509046  65.8207063 108.5103053  49.8244979  52.2426344 115.5895629
  48.9108059  52.4730570 115.7577836  50.2538081  52.3264788 116.4409662
  49.5951438  60.4316236 118.0895523  48.9422888  60.6792143 117.4347976
  49.9731818  59.6180374 117.7558000  46.5558612  70.4675929 112.1923693
  46.7381006  69.6497585 112.6551446  47.3791598  70.6843621 111.7548583
  46.8900777  69.3944114 109.4538742  47.4188544  68.8836568 108.8408904
  47.1528997  69.0786644 110.3184275  45.6439011  61.1736047 124.5761560
  44.9679648  61.0730176 125.2463935  46.4666645  61.0175260 125.0397557
  37.3917870  67.4107983 117.1974076  37.9771307  66.6651671 117.3301980
  37.1942708  67.7211940 118.0810739  40.2456525  70.4459230 112.2136518
  39.5766900  70.9305358 111.7300558  40.1069395  70.6928451 113.1279896
  31.9835525  59.9813583 115.9178519  32.0219624  59.4477174 116.7115637
  31.4775818  59.4548789 115.2989496  44.3861794  72.4802974 118.8119176
  44.9380102  72.6434596 119.5768261  44.7267987  73.0707412 118.1399201
  39.3626287  54.8278124 119.4141061  39.4267614  55.6892955 119.0018459
  39.2993407  54.2152125 118.6813419  38.8378560  56.9001256 123.0614095
  39.4650598  56.5178334 123.6751620  37.9806478  56.6815458 123.4269788
  49.2372668  67.3064232 124.6667831  49.7812572  67.9194190 124.1722785
  48.6559513  67.8643810 125.1834844  35.6144102  58.7077685 108.9932450
  35.9097543  57.7988364 108.9399504  34.7132138  58.6865425 108.6713452
  47.5230181  70.4284950 115.7982858  47.3981321  69.6274689 115.2893804
  48.1809272  70.9231143 115.3096828  39.1438349  56.7833682 114.9759999
  38.4224935  57.3969650 114.8367472  39.9331605  57.3191447 114.8976645
  49.5865089  68.2293970 117.4262409  48.6395425  68.1099321 117.3540735
  49.9347863  67.3416468 117.5088670  41.9464663  54.1188109 121.2500650
  42.4699065  54.3650405 122.0126960  41.7276996  54.9508143 120.8303788
  37.3431944  56.3891783 109.1171775  37.0144650  55.5089162 108.9346881
  37.6971315  56.3339452 110.0048164  46.5911523  68.0246686 113.6266761
  46.4436485  67.0963393 113.8074331  47.4165016  68.0466777 113.1423836
  40.4573767  56.6764753 109.4847253  40.7969840  57.2050674 108.7625861
  40.9045888  57.0145159 110.2605819  50.1945645  68.8475245 114.7131634
  51.1192192  68.6418106 114.5756085  50.0260948  68.5991646 115.6220975
  43.1517208  55.0601804 118.9350321  42.8114028  54.2609617 119.3371001
  42.4456214  55.3603514 118.3627154  43.8033680  52.1451116 117.3877644
  44.6259749  51.6711594 117.2656534  44.0471743  52.9241600 117.8876330
  42.4441914  55.1739375 107.6840546  43.1650277  55.5520627 107.1804263
  41.8207218  55.8928251 107.7875524  46.5873037  55.8784523 108.6198878
  46.8036651  56.7609161 108.3187706  46.1067104  55.4870737 107.8904520
  41.3272258  58.8370237 115.1969623  41.1816839  59.1510540 116.0893904
  40.8497462  59.4555137 114.6440521  43.1868641  55.8272785 115.2450512
  43.1730210  54.9313878 114.9082810  43.9041069  55.8343448 115.8788798
  45.0394772  56.2610125 117.2903640  44.7812550  57.1827196 117.2887970
  44.5079812  55.8640559 117.9804104  49.9840961  69.3660912 110.0693725
  50.1577838  68.8007335 109.3167577  50.4769852  70.1661807 109.8873215
  35.8017921  61.3775581 118.1357284  35.2571389  62.1535389 118.2677558
  36.6797270  61.7246386 117.9776405  42.5905537  54.7087165 110.5138082
  42.7121448  53.7803811 110.7128970  42.3007580  54.7225851 109.6016398
  45.4596728  52.3942075 113.6504802  45.4818424  52.4581409 112.6956782
  45.8764787  51.5546584 113.8445308  55.8380352  62.1297335 111.6884025
  56.2811498  61.3804660 111.2903148  54.9606862  62.1207471 111.3057757
  50.9716133  68.6827676 107.1690623  51.6667038  69.3034369 107.3877938
  51.3139283  67.8323028 107.4443001  36.5883942  60.5045477 121.0287441
  35.8465679  60.6528113 121.6152071  36.2676687  60.7653743 120.1654190
  52.8707556  66.1327382 108.6977954  53.3958881  66.4714655 107.9727274
  52.7829909  65.1974397 108.5141089  44.5327605  70.0461456 120.8267831
  44.8414732  69.8010602 121.6990530  45.3303087  70.2508094 120.3386701
  44.5548217  72.1999365 113.0573207  44.1153207  71.7075744 113.7506064
  45.3056334  71.6572333 112.8165282  37.0340556  68.3910906 113.0597835
  37.8598576  68.0914678 112.6796479  36.6834608  67.6218529 113.5087624
  42.0022089  67.7437374 115.1295509  41.3802099  67.0808079 114.8297737
  42.6726956  67.7698506 114.4469157  35.2349161  66.3097233 114.0186769
  34.3981070  65.8819407 113.8370770  35.2072807  66.5029676 114.9557560
  42.0746617  56.2219162 124.7228015  42.1234772  57.0981285 124.3405784
  42.6169131  55.6796555 124.1499658  52.5601462  66.7660286 124.0029152
  51.7697006  66.7484424 123.4633651  52.3234817  67.3048579 124.7578189
  52.6799338  63.6152752 121.3161880  52.7297342  63.4502759 122.2577403
  52.5713261  62.7480011 120.9259761  41.5635596  66.2941298 108.6053969
  41.7123717  66.9776762 107.9520642  42.3702040  66.2746388 109.1203425
  49.9703100  59.5983680 122.6321187  50.8712963  59.4590145 122.3405185
  50.0451074  59.7638135 123.5719365  44.3045905  56.9750535 121.4774374
  43.4349215  57.2684101 121.2056962  44.5405386  57.5590980 122.1981637
  54.1817534  66.0349693 121.5603902  53.8902343  66.3979674 122.3967363
  53.5689666  65.3216702 121.3817234  55.3813217  63.6002573 114.0806472
  56.2160108  64.0392377 114.2444033  55.5172345  63.1241226 113.2614718
  52.4304723  61.1582308 120.0283960  52.9058844  61.3509954 119.2202811
  51.5070288  61.2141494 119.7827344  39.3188229  62.3206475 109.6115038
  39.0734271  61.4168805 109.8095248  39.4884144  62.3223626 108.6694516
  47.0084939  53.1930152 118.9939794  47.5266883  53.9291179 118.6686282
  46.6540072  53.4994145 119.8286553  38.5883877  58.0534833 107.1101200
  37.8953122  58.1279188 106.4541236  38.3435629  57.2895177 107.6322717
  47.2597533  49.6130434 114.5140691  47.5399287  48.9453623 115.1401117
  48.0448140  49.8059530 114.0015354  45.0631002  68.7889428 106.0765717
  44.4904969  69.4079615 105.6236189  45.6363795  69.3388790 106.6105639
  51.1306392  58.0348068 118.2612266  52.0823814  58.1346166 118.2824490
  50.9609842  57.2426337 118.7710350  49.1520771  55.1203651 118.4471667
  48.5570703  55.4008664 117.7518155  48.8670468  55.6097552 119.2188408
  48.2828262  69.0726578 107.2074299  49.2158935  69.0072140 107.4107175
  48.1951474  69.9082845 106.7488832  53.6094469  61.2554188 117.3754565
  53.5770789  60.3170189 117.5614249  54.2195093  61.3338225 116.6420390
  53.7588958  58.0465231 117.4212848  53.2428007  57.2623688 117.2342777
  54.6428906  57.7183948 117.5859368  51.4199685  51.7906247 113.3808661
  51.2224506  51.4821335 114.2651993  52.0299390  52.5167886 113.5106591
  59.4271019  62.3170195 116.5160602  60.1574408  62.0555483 117.0768305
  58.8177965  61.5798917 116.5562670  57.5086316  60.4578057 117.1135053
  56.7819480  60.3234022 116.5051545  57.0933603  60.7654886 117.9191771
  45.3316493  64.1767987 124.8782426  46.2519502  64.3546586 125.0722473
  45.2966076  63.2324032 124.7262126  34.5498658  59.3706581 113.8035701
  34.2301442  58.5171889 113.5110075  34.0032086  59.5855159 114.5593668
  38.3278565  62.0869022 117.5205207  38.5464575  63.0186129 117.5393241
  38.7404339  61.7276996 118.3060011  45.2482783  52.5937107 109.5080896
  44.4383511  52.2484192 109.8836142  45.9367200  52.2844651 110.0968507
  47.1773331  51.6715154 111.1305192  47.7304370  52.0910607 111.7895216
  47.4143418  50.7450902 111.1728148  34.4186918  62.9909492 115.7728823
  33.7250389  62.5763445 115.2598777  35.1659909  63.0330029 115.1762241
  50.5552138  53.7815679 110.6383857  49.9750808  54.4400483 110.2561909
  50.2888071  52.9593024 110.2271274  49.0055705  53.1820737 112.8405177
  49.5055483  53.2937271 112.0319496  49.6491313  52.8781789 113.4805986
  43.0637701  61.0899366 125.7273018  42.5804782  61.8899726 125.9336907
  43.1498640  61.1007311 124.7740462  36.3323660  62.9227746 113.6494837
  36.3094348  63.0215433 112.6976721  36.6424297  63.7692897 113.9712004
  38.9911038  64.9803901 117.7641452  39.9454292  64.9487843 117.6971383
  38.7923562  64.5194525 118.5791678  39.5810420  63.5505017 120.3312249
  40.4003309  64.0449096 120.3547087  39.8547228  62.6336985 120.3029817
  49.3377017  55.9415769 109.6940205  48.4502872  56.2265420 109.4760400
  49.7531006  55.7809533 108.8467482  52.6891553  55.9662290 113.4094544
  53.4651943  56.4558743 113.6819161  51.9639687  56.3920344 113.8666414
  55.1264111  56.6789910 114.4668485  55.7208602  56.4385645 113.7561793
  55.1990695  55.9597040 115.0942021  37.3461267  70.5223520 114.7811650
  37.2115735  69.7623921 114.2149648  36.9293329  71.2464420 114.3140439
  49.3118040  61.4570305 109.9090495  49.2553242  61.9138857 109.0698128
  49.8646383  60.6960990 109.7313338  53.1222846  57.2460037 110.7340615
  52.8659780  56.8456673 111.5648822  52.4975714  57.9603831 110.6090754
  57.4335184  59.9856110 113.2411906  56.8734742  60.0549300 114.0143468
  56.8278687  59.8097095 112.5211402  40.5030393  71.4192837 114.9930092
  40.3862777  72.3638270 114.8908783  39.6822839  71.1166399 115.3815892
  50.3906927  66.1442973 105.8386685  51.2252531  65.7124172 105.6564160
  50.2291270  65.9724987 106.7663580  50.0452820  62.6475086 107.2043024
  49.9901623  62.4819358 106.2631468  49.4198875  63.3551119 107.3605214
  34.8345335  57.8843151 121.0304447  35.4804198  57.3742105 121.5191672
  34.6262486  58.6211833 121.6047872  47.3598727  64.9523998 126.5296587
  48.2289886  65.1264651 126.1683222  46.8805478  65.7718415 126.4072316
  43.3548945  52.1483196 106.7828343  43.3427615  53.0925035 106.9396614
  44.2472367  51.9653341 106.4887804  41.5284907  72.0721099 118.2086021
  42.4312154  72.1044710 118.5252516  41.3022277  71.1421550 118.2232357
  43.2838509  70.8252086 114.8696099  42.3334140  70.8253948 114.7560472
  43.5870995  70.0784820 114.3532134  47.1701064  48.7425972 111.0374280
  46.4033460  48.1884459 111.1830962  47.5811769  48.8147841 111.8988431
  59.0191202  76.6612624 115.9341862  59.6569612  76.5419372 115.2305202
  58.9012045  77.6093468 115.9929814  55.8280909  76.6140052 115.8703386
  55.4899420  76.4981117 114.9823921  56.6970677  76.2131217 115.8504393
  51.6867724  78.4675529 111.8600277  51.1232590  78.3765466 111.0916565
  51.5720120  77.6475433 112.3402770  56.3100692  77.7674904 121.8289592
  56.2989333  77.3727702 120.9570096  56.4721331  77.0340977 122.4223363
  49.2332156  79.9626720 114.6984498  50.0253448  79.6217545 114.2830797
  49.4728807  80.0721695 115.6186651  57.2667283  82.1346497 107.1714742
  56.6155263  82.7200577 106.7848756  58.0611646  82.6652691 107.2309780
  51.1922910  79.2235634 107.5701877  51.9653786  78.6764621 107.4314752
  51.5448309  80.0879883 107.7816338  53.0307953  80.5512016 120.7768776
  52.7397819  81.4557647 120.6615442  53.6664937  80.5928544 121.4912846
  53.9564160  77.9288864 117.3670136  54.5527732  77.7044887 116.6527099
  54.0139131  77.1873610 117.9695583  53.5289188  75.3828300 105.2020327
  53.7814709  74.8609821 104.4403790  52.5913747  75.2194445 105.3047010
  58.5732471  74.3864078 113.0095070  59.3595560  73.9683501 112.6585487
  58.8371175  75.2910170 113.1776718  58.7442548  79.8236928 107.7083727
  58.1088381  79.8971555 108.4204631  58.4139955  80.4130527 107.0302806
  63.9740898  74.3239311 113.9128048  64.7066070  73.7538528 114.1465878
  63.2180254  73.9360912 114.3534554  53.2485477  77.2856406 107.4044702
  53.1321735  76.6101309 108.0725786  53.3587737  76.7988780 106.5876855
  55.5917018  76.7466553 111.1091391  55.2275225  76.2197174 111.8204312
  56.4484134  76.3565022 110.9357876  61.4966318  68.0360885 118.3722657
  61.1649643  68.9056296 118.1483872  60.9011932  67.7197169 119.0516687
  55.2322505  71.7756453 106.1052739  55.3996907  72.6436689 106.4723210
  55.0419674  71.9383734 105.1814029  57.9897838  80.2373431 117.7718570
  57.6898561  81.1398470 117.6634377  57.6448898  79.9705615 118.6239723
  51.4410319  76.6887228 113.8055274  50.5160816  76.5563442 114.0132966
  51.6894733  77.4681448 114.3025217  61.3894982  72.7555972 115.4516007
  60.4811859  72.6871380 115.1574768  61.3382578  73.2327917 116.2797832
  55.2111726  74.2314110 107.0899406  55.0911351  74.6771161 107.9284886
  54.5164314  74.5799428 106.5312944  48.8019131  76.3320502 114.6399063
  48.9311512  76.5854981 115.5538475  48.1216582  76.9248210 114.3203718
  52.9718618  87.0017752 110.7389537  52.8942647  87.9525577 110.8178018
  52.3680261  86.6563624 111.3964464  55.4635848  74.1745617 123.3950904
  54.6869182  74.7339537 123.3853769  56.1026411  74.6602400 123.9165774
  63.2556628  70.9572410 117.2293881  62.6131008  71.2504943 116.5833675
  62.7511557  70.8425330 118.0347078  60.9096792  74.7035583 107.9179740
  61.8214648  74.9362970 107.7427438  60.4006439  75.2872627 107.3554819
  53.7182220  76.9831071 122.9568871  54.4596904  77.5216115 122.6803695
  53.0119205  77.6097359 123.1140423  59.1937559  79.1260211 121.5541033
  59.6020916  78.6842622 120.8095665  58.4714821  78.5512839 121.8075226
  55.5468630  74.0632818 118.9274590  56.3929825  74.4872231 119.0709239
  55.4867267  73.4066442 119.6213153  59.5166374  79.6861402 115.3093322
  58.8875237  79.8507116 114.6069389  59.1292036  80.1003011 116.0804286
  63.3955606  80.6215840 112.6637685  62.7106644  81.0014741 112.1134719
  63.4799455  81.2311166 113.3969633  58.6968075  71.7237186 120.5855763
  58.4529007  72.4779247 120.0490039  58.9728005  72.1022534 121.4203010
  60.6506538  78.2675799 119.2633029  60.8623433  78.9107558 118.5867410
  60.6036286  77.4338115 118.7954959  58.2532767  70.8793619 116.1669601
  57.3917246  71.1774873 116.4586339  58.2795201  71.0964018 115.2350634
  55.0694336  79.4235810 112.5743407  55.5332682  79.7023513 111.7848029
  54.8051134  78.5219254 112.3916497  51.9618417  78.9707291 115.5123170
  52.5319774  79.3994560 114.8740654  52.5526529  78.6889876 116.2107356
  54.0063222  75.5458962 109.3832972  54.7087265  75.9980006 109.8506898
  53.6743851  74.9042781 110.0112865  52.4543584  74.1370719 123.7584181
  51.8242244  74.8187000 123.9919578  52.3479671  74.0253800 122.8137320
  47.7488556  73.8042515 114.6850105  46.9587610  74.0600043 114.2090216
  48.2399803  74.6190853 114.7902146  61.7652366  81.1447754 117.4355386
  62.5869809  80.7427941 117.1538068  61.7614768  81.0415988 118.3871502
  49.7003301  74.1687094 111.6433582  48.9034465  74.2805788 112.1617078
  49.4728894  74.5073746 110.7774473  55.5308969  80.6931797 119.5916097
  55.5953402  81.1552205 120.4274269  54.8219893  80.0629162 119.7198407
  46.0326259  74.0573005 117.1165096  46.2834297  74.9420015 117.3822672
  46.5685807  73.8777607 116.3440188  69.8558359  77.4886502 113.7840358
  69.1022067  76.9193901 113.6284362  69.9905900  77.4549167 114.7310992
  55.2456987  82.3599905 109.4595077  55.1102661  83.2051440 109.8879925
  55.7866799  82.5619182 108.6961011  51.7324326  68.4391485 126.1209432
  51.3391272  67.8857683 126.7957077  52.5490467  68.7502063 126.5115950
  48.6986384  79.8775343 110.0323002  49.2110905  80.6718593 110.1828567
  49.3509097  79.1801633 109.9656604  50.5081269  82.9941099 112.1145755
  50.6847897  83.9159064 111.9266739  51.3038102  82.6799518 112.5440135
  54.6492287  69.8549364 123.7129689  55.3902001  70.4556517 123.6334151
  54.8810210  69.1127001 123.1547731  49.7933625  75.0405731 121.9907919
  49.6787140  74.1390988 122.2915017  48.9378143  75.2869428 121.6392735
  56.8725463  82.9823471 123.5895419  56.4289317  82.1959850 123.2716324
  57.5342677  83.1702622 122.9239310  51.6312584  84.5119273 118.1156098
  52.1820009  84.3836336 117.3433092  50.7924060  84.8114162 117.7650990
  58.9706701  83.2626271 121.6176820  58.9525176  84.0835152 121.1257090
  59.8926621  83.1380346 121.8426962  55.4279755  80.7770401 122.4600329
  55.9608092  80.0158689 122.2299637  54.8993836  80.4844052 123.2024483
  58.5949450  65.8830467 117.9893971  58.2513720  66.7732108 117.9133081
  58.9628413  65.6932124 117.1263556  46.6635301  78.2063997 110.8082573
  47.5010523  78.6161005 110.5916280  46.8413569  77.2663439 110.7782767
  58.5599733  75.8739078 106.4966406  58.0446356  76.6443682 106.7354793
  58.2877041  75.2004214 107.1199467  56.1446844  70.7188779 111.5551644
  55.2888440  70.3295629 111.3757283  56.5573796  70.7980739 110.6951430
  57.6745991  68.2535122 115.9543204  57.1710786  68.2165257 115.1411009
  57.9676598  69.1627865 116.0139860  53.9188877  68.3373852 114.9609386
  54.7841873  68.1416660 114.6015275  53.9866385  68.1084203 115.8878742
  63.5334007  78.6271432 108.4319579  62.7563450  78.2882592 107.9874741
  64.2125488  78.6324056 107.7574544  58.3486036  73.7466170 108.3226187
  58.0436172  74.0612319 109.1736330  59.3016478  73.8247590 108.3653520
  56.7932468  79.9056393 109.9719141  56.2653830  79.1709153 109.6592378
  56.2919971  80.6831070 109.7259109  61.7725314  78.1005414 115.0886187
  61.1148988  78.7904675 115.1766316  62.5765713  78.4901846 115.4320173
  51.5251196  70.5676059 112.3325752  52.0994948  70.3451241 111.5998945
  52.1122178  70.6364754 113.0854354  60.5830773  76.4549786 113.1390129
  61.0962655  77.0879778 113.6411839  61.2331997  75.8550982 112.7733489
  51.8520783  72.5980520 106.3521638  51.0158095  72.9355207 106.6730912
  51.7125552  72.4629500 105.4148775  53.8273863  67.4417308 111.0600822
  53.1738276  67.1266326 110.4357437  53.7854337  66.8193049 111.7860645
  54.9385068  77.7236603 102.9754114  54.0312130  77.4925857 103.1745263
  55.4356100  76.9274223 103.1628095  57.8453147  86.4334111 105.8950800
  57.1714846  86.7365807 106.5035758  58.2318969  87.2363191 105.5456257
  57.0611604  73.9299242 115.3848469  56.1434165  74.1514189 115.2270157
  57.4771747  74.0045552 114.5260177  57.8446651  75.3290658 110.5151150
  58.5918470  75.8412055 110.2058272  58.1138241  75.0074710 111.3755543
  56.1173302  77.8249198 107.4978104  55.2084521  77.5408231 107.5950574
  56.1468385  78.2448277 106.6381411  61.3492569  81.4355788 111.2669272
  60.8954896  80.5946698 111.3234462  60.7186536  82.0717186 111.6044052
  60.2925489  72.3647774 112.4969939  59.5548245  71.8525160 112.8280182
  60.5452262  71.9248155 111.6853216  59.7925508  83.2732284 112.2019090
  60.0848483  83.8337342 111.4831455  60.3024129  83.5660845 112.9572249
  60.3937116  65.1424026 113.0911708  60.6995993  64.2821389 112.8037623
  61.1189721  65.7341646 112.8910702  46.6861472  75.5454712 111.4793306
  46.4885872  74.9524073 110.7544373  46.1308136  75.2406923 112.1969245
  54.6658196  75.4377819 113.5987899  54.7206805  74.4851655 113.5230376
  53.8549398  75.5937258 114.0829198  55.8149389  79.3657942 104.8366183
  55.3768819  78.6493801 104.3771820  56.5559830  79.5934057 104.2751274
  52.6050556  74.0554879 111.3578278  51.7918421  74.3549049 111.7643470
  53.1009550  73.6610567 112.0752760  54.7559133  84.0512636 113.2912543
  54.7135312  84.2773482 112.3621075  55.6721832  83.8176010 113.4398344
  58.2024767  74.5196703 120.1893172  58.5574155  74.7468176 121.0487638
  58.8496898  74.8515080 119.5670427  63.9322504  77.6415139 110.8942501
  63.7940403  77.8316735 109.9663690  63.5758723  78.4034522 111.3510552
  52.0964630  71.6273234 116.9739513  52.7364010  71.4861993 116.2762476
  51.2642161  71.3407748 116.5978115  63.9591884  79.7091666 115.9053773
  64.3928390  79.6166955 116.7536827  64.6723465  79.6849166 115.2673789
  52.8724934  80.9275665 113.0874506  53.6665533  80.4325985 112.8857081
  52.1616627  80.3993528 112.7242211  57.6919779  83.3093760 117.4386873
  57.7456801  83.8784696 118.2064589  56.8234560  83.4795645 117.0740910
  49.1807698  75.0718746 109.1634258  48.2505286  75.0103202 109.3804220
  49.2765170  74.5494699 108.3670900  49.0993247  71.5973559 111.7512500
  49.3600064  72.5118892 111.6421660  49.9210419  71.1298002 111.9009113
  50.5718172  73.0111316 118.9211324  51.2441226  72.8028678 118.2723973
  49.7447959  72.8133402 118.4816557  64.8207433  79.7515367 118.4386658
  65.0143323  80.6561177 118.6845933  64.7208052  79.2922786 119.2725243
  56.4743744  69.6373257 120.9376985  55.8271659  70.3363207 120.8441462
  57.2444760  70.0709401 121.3053234  59.8822542  79.9022109 124.0127539
  59.7308048  79.6732661 123.0957622  59.8727222  80.8592711 124.0258884
  56.6507878  77.4754022 118.9973805  57.5799938  77.6265182 118.8242772
  56.2298908  77.5638043 118.1422452  55.4496210  81.5004687 116.7672343
  55.3107296  81.1323471 117.6398281  54.6610806  82.0152326 116.5956300
  56.0444362  86.6013783 108.1097879  56.2196118  86.1301826 108.9243502
  55.3577150  87.2279549 108.3379140  57.0001425  80.8786289 114.1561180
  56.6651258  80.8387059 115.0518830  56.5005371  80.2131005 113.6831591
  50.9745669  76.2853919 119.6813762  50.8365467  75.5534158 120.2825301
  51.8850593  76.1962819 119.3997949  59.9360617  78.2242324 104.4298240
  59.3189788  77.4989152 104.3331293  59.4677106  78.9851684 104.0865314
  53.6027970  75.9973879 119.1697441  54.3127589  75.3567071 119.1284060
  53.5597278  76.2486773 120.0923622  61.5914749  82.9341232 122.0904020
  61.5327295  82.2500452 121.4234604  61.9934267  83.6760222 121.6384646
  52.3156904  72.9839096 120.9893081  51.7794261  72.5329835 121.6414677
  51.7273612  73.1185005 120.2463545  50.6105447  89.7503146 114.8837739
  50.8502046  90.3821670 115.5616758  49.7674644  89.3991186 115.1703099
  61.5932156  80.8980816 120.3218000  60.7058935  80.5606738 120.4444399
  62.1630707  80.1663847 120.5586766  43.2461303  77.2304908 113.6461052
  43.9332343  76.9166638 113.0582067  43.0909432  78.1346272 113.3728303
  48.0496025  72.1195104 118.0746075  47.9654214  71.5120774 117.3396485
  47.2278732  72.6104123 118.0755572  55.1233309  85.5582268 117.2879243
  55.0503481  86.3637240 117.7998548  54.6810702  85.7574234 116.4627265
  54.9123089  84.7954038 110.7982065  54.1290611  85.3375718 110.8920289
  55.6115834  85.3128018 111.1976306  58.2219739  70.6048668 113.4416270
  58.7188439  69.8518630 113.1217341  57.4506721  70.6412984 112.8759480
  66.0749497  76.3089033 115.0834562  66.0639373  77.1913749 114.7128495
  65.2066876  75.9560584 114.8889099  57.5831993  85.4569102 119.4437402
  58.2959965  86.0916567 119.3713303  57.0922022  85.5532968 118.6277404
  59.3049520  79.3620355 111.0154694  58.3705799  79.4821817 110.8459398
  59.4826188  78.4592822 110.7514704  54.8054708  72.7466051 113.1687955
  54.4352495  72.1937091 113.8568860  55.3013800  72.1424184 112.6162955
  62.6922071  75.2037674 111.5504728  63.1582523  76.0365666 111.4765030
  63.1429572  74.7382656 112.2549986  52.6343906  83.2063546 120.2642973
  53.3353366  83.8400029 120.4172367  52.1639021  83.5478277 119.5038612
  60.7598302  81.5481496 108.5490880  61.0358146  81.4338090 109.4584754
  59.8902801  81.1498980 108.5103053  60.6638734  67.5718261 115.5895629
  59.7501814  67.8022488 115.7577836  61.0931835  67.6556705 116.4409662
  60.4345192  75.7608153 118.0895523  59.7816643  76.0084061 117.4347976
  60.8125572  74.9472291 117.7558000  57.3952366  85.7967846 112.1923693
  57.5774761  84.9789502 112.6551446  58.2185352  86.0135539 111.7548583
  57.7294532  84.7236031 109.4538742  58.2582298  84.2128486 108.8408904
  57.9922751  84.4078562 110.3184275  56.4832765  76.5027964 124.5761560
  55.8073402  76.4022094 125.2463935  57.3060399  76.3467178 125.0397557
  48.2311624  82.7399901 117.1974076  48.8165061  81.9943589 117.3301980
  48.0336463  83.0503857 118.0810739  51.0850280  85.7751148 112.2136518
  50.4160655  86.2597276 111.7300558  50.9463149  86.0220369 113.1279896
  42.8229279  75.3105501 115.9178519  42.8613379  74.7769092 116.7115637
  42.3169572  74.7840707 115.2989496  55.2255548  87.8094892 118.8119176
  55.7773856  87.9726513 119.5768261  55.5661742  88.3999330 118.1399201
  50.2020042  70.1570041 119.4141061  50.2661368  71.0184872 119.0018459
  50.1387162  69.5444043 118.6813419  49.6772314  72.2293174 123.0614095
  50.3044353  71.8470251 123.6751620  48.8200233  72.0107376 123.4269788
  46.4537857  74.0369603 108.9932450  46.7491298  73.1280282 108.9399504
  45.5525893  74.0157343 108.6713452  58.3623936  85.7576867 115.7982858
  58.2375075  84.9566607 115.2893804  59.0203027  86.2523061 115.3096828
  49.9832104  72.1125600 114.9759999  49.2618690  72.7261567 114.8367472
  50.7725360  72.6483365 114.8976645  60.4258844  83.5585887 117.4262409
  59.4789179  83.4391238 117.3540735  60.7741617  82.6708385 117.5088670
  52.7858417  69.4480026 121.2500650  53.3092819  69.6942323 122.0126960
  52.5670751  70.2800061 120.8303788  48.1825698  71.7183701 109.1171775
  47.8538405  70.8381080 108.9346881  48.5365069  71.6631369 110.0048164
  57.4305277  83.3538604 113.6266761  57.2830240  82.4255311 113.8074331
  58.2558771  83.3758694 113.1423836  51.2967522  72.0056671 109.4847253
  51.6363594  72.5342592 108.7625861  51.7439642  72.3437077 110.2605819
  61.0339399  84.1767162 114.7131634  61.9585947  83.9710024 114.5756085
  60.8654702  83.9283563 115.6220975  53.9910962  70.3893721 118.9350321
  53.6507783  69.5901534 119.3371001  53.2849969  70.6895432 118.3627154
  54.6427434  67.4743034 117.3877644  55.4653504  67.0003512 117.2656534
  54.8865498  68.2533518 117.8876330  53.2835669  70.5031292 107.6840546
  54.0044031  70.8812545 107.1804263  52.6600973  71.2220169 107.7875524
  57.4266792  71.2076441 108.6198878  57.6430406  72.0901079 108.3187706
  56.9460859  70.8162655 107.8904520  52.1666013  74.1662154 115.1969623
  52.0210594  74.4802457 116.0893904  51.6891217  74.7847055 114.6440521
  54.0262396  71.1564702 115.2450512  54.0123965  70.2605796 114.9082810
  54.7434824  71.1635366 115.8788798  55.8788527  71.5902043 117.2903640
  55.6206304  72.5119113 117.2887970  55.3473567  71.1932477 117.9804104
  60.8234715  84.6952830 110.0693725  60.9971593  84.1299252 109.3167577
  61.3163607  85.4953725 109.8873215  46.6411675  76.7067499 118.1357284
  46.0965143  77.4827307 118.2677558  47.5191025  77.0538303 117.9776405
  53.4299292  70.0379083 110.5138082  53.5515203  69.1095729 110.7128970
  53.1401334  70.0517769 109.6016398  56.2990482  67.7233993 113.6504802
  56.3212179  67.7873326 112.6956782  56.7158541  66.8838502 113.8445308
  66.6774106  77.4589253 111.6884025  67.1205253  76.7096578 111.2903148
  65.8000617  77.4499389 111.3057757  61.8109888  84.0119594 107.1690623
  62.5060792  84.6326287 107.3877938  62.1533038  83.1614945 107.4443001
  47.4277697  75.8337395 121.0287441  46.6859433  75.9820030 121.6152071
  47.1070441  76.0945661 120.1654190  63.7101311  81.4619300 108.6977954
  64.2352635  81.8006572 107.9727274  63.6223663  80.5266315 108.5141089
  55.3721360  85.3753373 120.8267831  55.6808486  85.1302520 121.6990530
  56.1696842  85.5800012 120.3386701  55.3941972  87.5291283 113.0573207
  54.9546962  87.0367662 113.7506064  56.1450089  86.9864251 112.8165282
  47.8734311  83.7202824 113.0597835  48.6992331  83.4206596 112.6796479
  47.5228363  82.9510446 113.5087624  52.8415844  83.0729292 115.1295509
  52.2195853  82.4099997 114.8297737  53.5120711  83.0990424 114.4469157
  46.0742916  81.6389150 114.0186769  45.2374824  81.2111325 113.8370770
  46.0466561  81.8321594 114.9557560  52.9140371  71.5511080 124.7228015
  52.9628527  72.4273203 124.3405784  53.4562886  71.0088473 124.1499658
  63.5193092  78.9444670 121.3161880  63.5691097  78.7794677 122.2577403
  63.4107015  78.0771929 120.9259761  60.8096854  74.9275598 122.6321187
  61.7106717  74.7882063 122.3405185  60.8844829  75.0930053 123.5719365
  55.1439660  72.3042452 121.4774374  54.2742969  72.5976018 121.2056962
  55.3799140  72.8882897 122.1981637  65.0211289  81.3641611 121.5603902
  64.7296097  81.7271592 122.3967363  64.4083420  80.6508619 121.3817234
  66.2206971  78.9294491 114.0806472  67.0553863  79.3684295 114.2444033
  66.3566100  78.4533144 113.2614718  63.2698477  76.4874226 120.0283960
  63.7452599  76.6801872 119.2202811  62.3464042  76.5433412 119.7827344
  50.1581984  77.6498393 109.6115038  49.9128026  76.7460723 109.8095248
  50.3277898  77.6515543 108.6694516  57.8478694  68.5222069 118.9939794
  58.3660637  69.2583096 118.6686282  57.4933826  68.8286063 119.8286553
  49.4277631  73.3826751 107.1101200  48.7346876  73.4571106 106.4541236
  49.1829383  72.6187094 107.6322717  58.0991288  64.9422352 114.5140691
  58.3793042  64.2745541 115.1401117  58.8841895  65.1351448 114.0015354
  55.9024756  84.1181346 106.0765717  55.3298723  84.7371533 105.6236189
  56.4757550  84.6680707 106.6105639  61.9700146  73.3639986 118.2612266
  62.9217569  73.4638084 118.2824490  61.8003597  72.5718254 118.7710350
  59.9914526  70.4495569 118.4471667  59.3964458  70.7300582 117.7518155
  59.7064222  70.9389470 119.2188408  59.1222016  84.4018496 107.2074299
  60.0552689  84.3364058 107.4107175  59.0345229  85.2374763 106.7488832
  61.7510033  83.7184366 104.1678247  61.6723664  83.3844230 105.0614005
  62.5719699  84.2106134 104.1669719  64.4488224  76.5846106 117.3754565
  64.4164544  75.6462106 117.5614249  65.0588848  76.6630142 116.6420390
  56.2871555  75.4542159 103.4181769  57.2330659  75.3248367 103.4870187
  55.9085800  74.7156820 103.8951197  64.5982712  73.3757149 117.4212848
  64.0821761  72.5915606 117.2342777  65.4822661  73.0475866 117.5859368
  62.2593439  67.1198165 113.3808661  62.0618260  66.8113253 114.2651993
  62.8693145  67.8459803 113.5106591  70.2664774  77.6462112 116.5160602
  70.9968162  77.3847401 117.0768305  69.6571719  76.9090834 116.5562670
  68.3480071  75.7869975 117.1135053  67.6213234  75.6525940 116.5051545
  67.9327358  76.0946804 117.9191771  56.1710247  79.5059905 124.8782426
  57.0913257  79.6838504 125.0722473  56.1359830  78.5615950 124.7262126
  54.4714472  73.3792135 103.3536655  53.5645927  73.0825248 103.4299368
  54.7490453  73.0821953 102.4870941  45.3892412  74.6998498 113.8035701
  45.0695197  73.8463807 113.5110075  44.8425840  74.9147076 114.5593668
  49.1672320  77.4160939 117.5205207  49.3858330  78.3478047 117.5393241
  49.5798094  77.0568914 118.3060011  56.0876538  67.9229025 109.5080896
  55.2777266  67.5776110 109.8836142  56.7760955  67.6136568 110.0968507
  58.0167086  67.0007071 111.1305192  58.5698125  67.4202525 111.7895216
  58.2537172  66.0742820 111.1728148  54.0400185  72.9894145 126.9107956
  53.9396912  73.9388502 126.8420047  53.8221727  72.6612384 126.0384026
  45.2580672  78.3201410 115.7728823  44.5644144  77.9055363 115.2598777
  46.0053663  78.3621946 115.1762241  61.3945893  69.1107597 110.6383857
  60.8144562  69.7692401 110.2561909  61.1281826  68.2884941 110.2271274
  59.8449459  68.5112654 112.8405177  60.3449238  68.6229189 112.0319496
  60.4885067  68.2073707 113.4805986  53.9031455  76.4191284 125.7273018
  53.4198537  77.2191644 125.9336907  53.9892394  76.4299229 124.7740462
  47.1717415  78.2519664 113.6494837  47.1488103  78.3507351 112.6976721
  47.4818051  79.0984814 113.9712004  49.8304793  80.3095819 117.7641452
  50.7848046  80.2779761 117.6971383  49.6317316  79.8486442 118.5791678
  50.4204175  78.8796935 120.3312249  51.2397064  79.3741013 120.3547087
  50.6940983  77.9628903 120.3029817  60.1770771  71.2707687 109.6940205
  59.2896626  71.5557338 109.4760400  60.5924760  71.1101450 108.8467482
  63.5285307  71.2954208 113.4094544  64.3045697  71.7850660 113.6819161
  62.8033441  71.7212262 113.8666414  65.9657866  72.0081827 114.4668485
  66.5602357  71.7677563 113.7561793  66.0384449  71.2888958 115.0942021
  48.1855021  85.8515438 114.7811650  48.0509489  85.0915839 114.2149648
  47.7687084  86.5756338 114.3140439  59.3213984  81.0352362 103.7888225
  60.0249835  81.2402364 104.4045881  58.5976633  81.6029124 104.0537309
  60.1511795  76.7862223 109.9090495  60.0946996  77.2430774 109.0698128
  60.7040137  76.0252908 109.7313338  63.9616601  72.5751955 110.7340615
  63.7053535  72.1748590 111.5648822  63.3369469  73.2895749 110.6090754
  68.2728939  75.3148028 113.2411906  67.7128497  75.3841217 114.0143468
  67.6672442  75.1389013 112.5211402  51.3424147  86.7484755 114.9930092
  51.2256531  87.6930188 114.8908783  50.5216594  86.4458317 115.3815892
  61.2300682  81.4734891 105.8386685  62.0646286  81.0416089 105.6564160
  61.0685025  81.3016905 106.7663580  60.8846574  77.9767004 107.2043024
  60.8295378  77.8111276 106.2631468  60.2592629  78.6843037 107.3605214
  45.6739089  73.2135069 121.0304447  46.3197953  72.7034023 121.5191672
  45.4656240  73.9503750 121.6047872  54.1942700  67.4775113 106.7828343
  54.1821369  68.4216953 106.9396614  55.0866121  67.2945259 106.4887804
  52.3678661  87.4013017 118.2086021  53.2705908  87.4336627 118.5252516
  52.1416032  86.4713468 118.2232357  54.1232263  86.1544004 114.8696099
  53.1727894  86.1545865 114.7560472  54.4264750  85.4076738 114.3532134
  58.0094819  64.0717890 111.0374280  57.2427215  63.5176377 111.1830962
  58.4205524  64.1439759 111.8988431  50.0136580  70.3602686 125.1279461
  50.8768042  70.0039490 125.3382785  49.4401991  70.0216580 125.8154865
  66.6674663  91.9431970 115.8703386  66.3293175  91.8273035 114.9823921
  67.5364431  91.5423135 115.8504393  62.5261479  93.7967446 111.8600277
  61.9626344  93.7057383 111.0916565  62.4113874  92.9767351 112.3402770
  60.0725911  95.2918638 114.6984498  60.8647203  94.9509463 114.2830797
  60.3122561  95.4013613 115.6186651  68.1061038  97.4638414 107.1714742
  67.4549017  98.0492495 106.7848756  68.9005400  97.9944609 107.2309780
  62.0316665  94.5527551 107.5701877  62.8047541  94.0056538 107.4314752
  62.3842064  95.4171801 107.7816338  64.3682943  90.7120217 105.2020327
  64.6208463  90.1901739 104.4403790  63.4307502  90.5486363 105.3047010
  69.4126225  89.7155996 113.0095070  70.1989315  89.2975419 112.6585487
  69.6764930  90.6202088 113.1776718  69.5836303  95.1528846 107.7083727
  68.9482136  95.2263473 108.4204631  69.2533709  95.7422445 107.0302806
  74.8134653  89.6531229 113.9128048  75.5459825  89.0830446 114.1465878
  74.0574008  89.2652829 114.3534554  64.0879231  92.6148323 107.4044702
  63.9715489  91.9393227 108.0725786  64.1981491  92.1280697 106.5876855
  66.4310772  92.0758471 111.1091391  66.0668980  91.5489091 111.8204312
  67.2877888  91.6856940 110.9357876  72.3360073  83.3652803 118.3722657
  72.0043398  84.2348214 118.1483872  71.7405686  83.0489087 119.0516687
  66.0716259  87.1048370 106.1052739  66.2390662  87.9728607 106.4723210
  65.8813428  87.2675652 105.1814029  62.2804074  92.0179146 113.8055274
  61.3554570  91.8855360 114.0132966  62.5288487  92.7973365 114.3025217
  66.0505480  89.5606028 107.0899406  65.9305105  90.0063078 107.9284886
  65.3558069  89.9091345 106.5312944  59.6412885  91.6612420 114.6399063
  59.7705266  91.9146898 115.5538475  58.9610336  92.2540128 114.3203718
  63.8112372 102.3309669 110.7389537  63.7336402 103.2817495 110.8178018
  63.2074016 101.9855542 111.3964464  71.7490546  90.0327501 107.9179740
  72.6608402  90.2654888 107.7427438  71.2400193  90.6164545 107.3554819
  69.0926521  86.2085537 116.1669601  68.2311000  86.5066790 116.4586339
  69.1188956  86.4255936 115.2350634  65.9088091  94.7527727 112.5743407
  66.3726436  95.0315430 111.7848029  65.6444889  93.8511172 112.3916497
  62.8012172  94.2999209 115.5123170  63.3713529  94.7286477 114.8740654
  63.3920283  94.0181794 116.2107356  64.8456977  90.8750880 109.3832972
  65.5481020  91.3271923 109.8506898  64.5137605  90.2334699 110.0112865
  58.5882311  89.1334432 114.6850105  57.7981365  89.3891961 114.2090216
  59.0793558  89.9482770 114.7902146  60.5397056  89.4979012 111.6433582
  59.7428219  89.6097706 112.1617078  60.3122648  89.8365664 110.7774473
  56.8720014  89.3864923 117.1165096  57.1228052  90.2711933 117.3822672
  57.4079562  89.2069524 116.3440188  66.0850741  97.6891822 109.4595077
  65.9496416  98.5343358 109.8879925  66.6260554  97.8911100 108.6961011
  59.5380139  95.2067260 110.0323002  60.0504659  96.0010511 110.1828567
  60.1902851  94.5093551 109.9656604  61.3475023  98.3233017 112.1145755
  61.5241652  99.2450981 111.9266739  62.1431857  98.0091436 112.5440135
  69.4343205  81.2122384 117.9893971  69.0907474  82.1024026 117.9133081
  69.8022167  81.0224042 117.1263556  57.5029055  93.5355915 110.8082573
  58.3404277  93.9452923 110.5916280  57.6807323  92.5955357 110.7782767
  69.3993487  91.2030995 106.4966406  68.8840111  91.9735600 106.7354793
  69.1270796  90.5296132 107.1199467  66.9840599  86.0480696 111.5551644
  66.1282195  85.6587547 111.3757283  67.3967550  86.1272657 110.6951430
  68.5139745  83.5827039 115.9543204  68.0104541  83.5457175 115.1411009
  68.8070352  84.4919782 116.0139860  64.7582631  83.6665769 114.9609386
  65.6235628  83.4708578 114.6015275  64.8260140  83.4376121 115.8878742
  74.3727762  93.9563350 108.4319579  73.5957204  93.6174510 107.9874741
  75.0519243  93.9615973 107.7574544  69.1879791  89.0758088 108.3226187
  68.8829926  89.3904237 109.1736330  70.1410233  89.1539507 108.3653520
  67.6326222  95.2348311 109.9719141  67.1047584  94.5001070 109.6592378
  67.1313725  96.0122987 109.7259109  62.3644950  85.8967977 112.3325752
  62.9388702  85.6743159 111.5998945  62.9515933  85.9656672 113.0854354
  71.4224527  91.7841704 113.1390129  71.9356409  92.4171696 113.6411839
  72.0725751  91.1842900 112.7733489  62.6914537  87.9272438 106.3521638
  61.8551849  88.2647125 106.6730912  62.5519307  87.7921418 105.4148775
  64.6667618  82.7709226 111.0600822  64.0132030  82.4558243 110.4357437
  64.6248092  82.1484966 111.7860645  65.7778823  93.0528521 102.9754114
  64.8705884  92.8217775 103.1745263  66.2749855  92.2566140 103.1628095
  68.6846902 101.7626028 105.8950800  68.0108600 102.0657725 106.5035758
  69.0712724 102.5655109 105.5456257  67.9005358  89.2591160 115.3848469
  66.9827920  89.4806107 115.2270157  68.3165502  89.3337470 114.5260177
  68.6840406  90.6582575 110.5151150  69.4312225  91.1703972 110.2058272
  68.9531995  90.3366628 111.3755543  66.9567056  93.1541116 107.4978104
  66.0478275  92.8700149 107.5950574  66.9862140  93.5740195 106.6381411
  71.1319243  87.6939691 112.4969939  70.3942000  87.1817078 112.8280182
  71.3846017  87.2540073 111.6853216  71.2330870  80.4715943 113.0911708
  71.5389747  79.6113307 112.8037623  71.9583475  81.0633564 112.8910702
  57.5255226  90.8746630 111.4793306  57.3279626  90.2815991 110.7544373
  56.9701890  90.5698840 112.1969245  65.5051950  90.7669737 113.5987899
  65.5600560  89.8143573 113.5230376  64.6943152  90.9229176 114.0829198
  66.6543144  94.6949860 104.8366183  66.2162574  93.9785719 104.3771820
  67.3953585  94.9225974 104.2751274  63.4444310  89.3846796 111.3578278
  62.6312176  89.6840967 111.7643470  63.9403304  88.9902485 112.0752760
  74.7716259  92.9707057 110.8942501  74.6334157  93.1608653 109.9663690
  74.4152478  93.7326439 111.3510552  62.9358385  86.9565152 116.9739513
  63.5757764  86.8153911 116.2762476  62.1035915  86.6699665 116.5978115
  63.7118689  96.2567582 113.0874506  64.5059287  95.7617902 112.8857081
  63.0010381  95.7285445 112.7242211  60.0201452  90.4010664 109.1634258
  59.0899040  90.3395119 109.3804220  60.1158924  89.8786617 108.3670900
  59.9387001  86.9265477 111.7512500  60.1993819  87.8410810 111.6421660
  60.7604174  86.4589919 111.9009113  61.4111927  88.3403234 118.9211324
  62.0834980  88.1320596 118.2723973  60.5841713  88.1425320 118.4816557
  66.8838117 101.9305701 108.1097879  67.0589872 101.4593744 108.9243502
  66.1970905 102.5571467 108.3379140  70.7754372  93.5534241 104.4298240
  70.1583542  92.8281069 104.3331293  70.3070860  94.3143602 104.0865314
  62.5652917  87.7719666 103.5519544  61.6882384  87.6508466 103.1881791
  63.0410671  86.9805744 103.2998433  54.0855058  92.5596825 113.6461052
  54.7726097  92.2458555 113.0582067  53.9303186  93.4638190 113.3728303
  58.8889780  87.4487022 118.0746075  58.8047968  86.8412691 117.3396485
  58.0672486  87.9396040 118.0755572  65.7516843 100.1245956 110.7982065
  64.9684365 100.6667636 110.8920289  66.4509589 100.6419936 111.1976306
  69.0613494  85.9340585 113.4416270  69.5582193  85.1810548 113.1217341
  68.2900475  85.9704902 112.8759480  70.1443274  94.6912273 111.0154694
  69.2099553  94.8113735 110.8459398  70.3219943  93.7884739 110.7514704
  65.6448462  88.0757968 113.1687955  65.2746250  87.5229009 113.8568860
  66.1407555  87.4716102 112.6162955  73.5315826  90.5329592 111.5504728
  73.9976278  91.3657583 111.4765030  73.9823326  90.0674573 112.2549986
  71.5992057  96.8773413 108.5490880  71.8751901  96.7630008 109.4584754
  70.7296555  96.4790898 108.5103053  71.5032488  82.9010179 115.5895629
  70.5895568  83.1314406 115.7577836  71.9325590  82.9848623 116.4409662
  68.5688286 100.0527949 109.4538742  69.0976053  99.5420404 108.8408904
  68.8316506  99.7370479 110.3184275  53.6623034  90.6397419 115.9178519
  53.7007133  90.1061009 116.7115637  53.1563327  90.1132624 115.2989496
  61.0413796  85.4861959 119.4141061  61.1055122  86.3476790 119.0018459
  60.9780916  84.8735961 118.6813419  57.2931611  89.3661521 108.9932450
  57.5885052  88.4572199 108.9399504  56.3919647  89.3449260 108.6713452
  60.8225858  87.4417517 114.9759999  60.1012444  88.0553485 114.8367472
  61.6119114  87.9775282 114.8976645  59.0219453  87.0475618 109.1171775
  58.6932159  86.1672997 108.9346881  59.3758824  86.9923287 110.0048164
  62.1361276  87.3348588 109.4847253  62.4757349  87.8634510 108.7625861
  62.5833396  87.6728994 110.2605819  64.8304717  85.7185639 118.9350321
  64.4901537  84.9193452 119.3371001  64.1243723  86.0187350 118.3627154
  65.4821189  82.8034951 117.3877644  66.3047258  82.3295430 117.2656534
  65.7259252  83.5825435 117.8876330  64.1229423  85.8323210 107.6840546
  64.8437786  86.2104463 107.1804263  63.4994727  86.5512087 107.7875524
  68.2660546  86.5368359 108.6198878  68.4824160  87.4192997 108.3187706
  67.7854613  86.1454572 107.8904520  63.0059767  89.4954072 115.1969623
  62.8604348  89.8094375 116.0893904  62.5284971  90.1138972 114.6440521
  64.8656150  86.4856620 115.2450512  64.8517719  85.5897713 114.9082810
  65.5828578  86.4927284 115.8788798  66.7182281  86.9193960 117.2903640
  66.4600059  87.8411031 117.2887970  66.1867321  86.5224395 117.9804104
  57.4805430  92.0359416 118.1357284  56.9358898  92.8119224 118.2677558
  58.3584779  92.3830221 117.9776405  64.2693046  85.3671000 110.5138082
  64.3908957  84.4387647 110.7128970  63.9795089  85.3809686 109.6016398
  67.1384237  83.0525911 113.6504802  67.1605933  83.1165244 112.6956782
  67.5552296  82.2130419 113.8445308  72.6503642  99.3411512 107.1690623
  73.3454547  99.9618204 107.3877938  72.9926792  98.4906863 107.4443001
  74.5495065  96.7911217 108.6977954  75.0746389  97.1298490 107.9727274
  74.4617418  95.8558233 108.5141089  58.7128065  99.0494741 113.0597835
  59.5386085  98.7498513 112.6796479  58.3622117  98.2802364 113.5087624
  56.9136670  96.9681068 114.0186769  56.0768578  96.5403242 113.8370770
  56.8860316  97.1613511 114.9557560  63.2423105  96.9525133 108.6053969
  63.3911226  97.6360597 107.9520642  64.0489549  96.9330223 109.1203425
  60.9975738  92.9790311 109.6115038  60.7521780  92.0752641 109.8095248
  61.1671653  92.9807461 108.6694516  68.6872448  83.8513987 118.9939794
  69.2054392  84.5875014 118.6686282  68.3327581  84.1577980 119.8286553
  60.2671386  88.7118668 107.1101200  59.5740631  88.7863023 106.4541236
  60.0223138  87.9479012 107.6322717  68.9385042  80.2714270 114.5140691
  69.2186796  79.6037459 115.1401117  69.7235649  80.4643365 114.0015354
  66.7418511  99.4473263 106.0765717  66.1692478 100.0663451 105.6236189
  67.3151304  99.9972625 106.6105639  69.9615771  99.7310414 107.2074299
  70.8946444  99.6655975 107.4107175  69.8738983 100.5666680 106.7488832
  72.5903787  99.0476284 104.1678247  72.5117419  98.7136148 105.0614005
  73.4113454  99.5398052 104.1669719  67.1265309  90.7834076 103.4181769
  68.0724414  90.6540284 103.4870187  66.7479554  90.0448738 103.8951197
  73.0987194  82.4490082 113.3808661  72.9012015  82.1405170 114.2651993
  73.7086899  83.1751721 113.5106591  65.3108226  88.7084053 103.3536655
  64.4039682  88.4117165 103.4299368  65.5884207  88.4113871 102.4870941
  56.2286167  90.0290416 113.8035701  55.9088951  89.1755724 113.5110075
  55.6819595  90.2438994 114.5593668  60.0066074  92.7452857 117.5205207
  60.2252084  93.6769965 117.5393241  60.4191848  92.3860831 118.3060011
  66.9270292  83.2520942 109.5080896  66.1171020  82.9068027 109.8836142
  67.6154709  82.9428486 110.0968507  68.8560840  82.3298989 111.1305192
  69.4091879  82.7494443 111.7895216  69.0930927  81.4034737 111.1728148
  64.0807011  85.5670988 103.4948634  64.9426175  85.8925886 103.7544451
  64.2657355  84.7802484 102.9821700  56.0974427  93.6493327 115.7728823
  55.4037898  93.2347280 115.2598777  56.8447418  93.6913864 115.1762241
  72.2339647  84.4399514 110.6383857  71.6538317  85.0984318 110.2561909
  71.9675580  83.6176859 110.2271274  70.6843214  83.8404572 112.8405177
  71.1842992  83.9521107 112.0319496  71.3278822  83.5365625 113.4805986
  58.0111169  93.5811581 113.6494837  57.9881857  93.6799269 112.6976721
  58.3211806  94.4276732 113.9712004  71.0164526  86.5999605 109.6940205
  70.1290381  86.8849255 109.4760400  71.4318515  86.4393368 108.8467482
  74.3679062  86.6246126 113.4094544  75.1439452  87.1142578 113.6819161
  73.6427196  87.0504180 113.8666414  76.8051620  87.3373745 114.4668485
  77.3996111  87.0969481 113.7561793  76.8778204  86.6180875 115.0942021
  70.1607739  96.3644279 103.7888225  70.8643589  96.5694282 104.4045881
  69.4370388  96.9321041 104.0537309  70.9905549  92.1154141 109.9090495
  70.9340751  92.5722692 109.0698128  71.5433892  91.3544825 109.7313338
  74.8010355  87.9043872 110.7340615  74.5447289  87.5040508 111.5648822
  74.1763223  88.6187666 110.6090754  72.0694436  96.8026809 105.8386685
  72.9040040  96.3708007 105.6564160  71.9078779  96.6308822 106.7663580
  71.7240329  93.3058922 107.2043024  71.6689132  93.1403193 106.2631468
  71.0986384  94.0134955 107.3605214  56.5132844  88.5426986 121.0304447
  57.1591707  88.0325940 121.5191672  56.3049995  89.2795668 121.6047872
  65.0336454  82.8067031 106.7828343  65.0215124  83.7508871 106.9396614
  65.9259876  82.6237176 106.4887804  68.8488573  79.4009807 111.0374280
  68.0820969  78.8468294 111.1830962  69.2599278  79.4731676 111.8988431
  73.5308292 103.2564356 106.3521638  72.6945604 103.5939042 106.6730912
  73.3913061 103.1213336 105.4148775  73.4046672 103.1011583 103.5519544
  72.5276138 102.9800384 103.1881791  73.8804425 102.3097662 103.2998433
  71.1065140 104.0410586 107.1101200  70.4134385 104.1154941 106.4541236
  70.8616892 103.2770930 107.6322717  76.1501981 104.0375970 103.3536655
  75.2433436 103.7409083 103.4299368  76.4277962 103.7405788 102.4870941
  74.9200766 100.8962906 103.4948634  75.7819929 101.2217804 103.7544451
  75.1051110 100.1094401 102.9821700  75.8730209  98.1358949 106.7828343
  75.8608878  99.0800788 106.9396614  76.7653630  97.9529094 106.4887804
  25.3271885  17.4520480  92.6196107  24.6533584  17.7552177  93.2281064
  25.7137707  18.2549561  92.2701564  27.4179355   9.2428693  91.1543547
  26.8008525   8.5175521  91.0576599  26.9495843  10.0038053  90.8110621
  29.2928626  15.0305964  93.8935930  29.9879530  15.6512656  94.1123245
  29.6351776  14.1801315  94.1688308  23.3843494  15.1367715  92.8011023
  22.8117461  15.7557902  92.3481495  23.9576288  15.6867077  93.3350945
  26.6040754  15.4204865  93.9319606  27.5371427  15.3550427  94.1352481
  26.5163967  16.2561132  93.4734138  29.2328770  14.7370736  90.8923553
  29.1542402  14.4030599  91.7859311  30.0538437  15.2292504  90.8915026
  26.8032722  12.0538731  90.5133532  27.5068572  12.2588734  91.1291187
  26.0795371  12.6215493  90.7782615  28.7119420  12.4921260  92.5631992
  29.5465024  12.0602459  92.3809466  28.5503763  12.3203274  93.4908886
  37.3403695  23.0090912 102.6587168  37.9782105  22.8897659 101.9550508
  37.2224538  23.9571755 102.7175121  34.1493401  22.9618340 102.5948693
  33.8111913  22.8459404 101.7069228  35.0183169  22.5609505 102.5749699
  30.0080217  24.8153816  98.5845584  29.4445082  24.7243753  97.8161872
  29.8932612  23.9953721  99.0648077  35.5879775  28.4824784  93.8960049
  34.9367755  29.0678864  93.5094063  36.3824138  29.0130979  93.9555086
  29.5135403  25.5713921  94.2947183  30.2866279  25.0242908  94.1560059
  29.8660801  26.4358170  94.5061645  31.8501680  21.7306587  91.9265633
  32.1027201  21.2088108  91.1649096  30.9126240  21.5672732  92.0292317
  36.8944963  20.7342365  99.7340376  37.6808052  20.3161789  99.3830793
  37.1583668  21.6388458  99.9022025  37.0655041  26.1715216  94.4329033
  36.4300874  26.2449842  95.1449938  36.7352447  26.7608815  93.7548113
  42.2953390  20.6717599 100.6373355  43.0278562  20.1016815 100.8711184
  41.5392746  20.2839199 101.0779861  31.5697969  23.6334693  94.1290008
  31.4534227  22.9579596  94.7971093  31.6800229  23.1467067  93.3122161
  33.9129510  23.0944840  97.8336697  33.5487717  22.5675461  98.5449619
  34.7696626  22.7043309  97.6603183  33.5534997  18.1234740  92.8298046
  33.7209399  18.9914976  93.1968517  33.3632166  18.2862021  91.9059335
  36.3110330  26.5851719 104.4963876  36.0111053  27.4876757 104.3879684
  35.9661390  26.3183902 105.3485029  39.7107474  19.1034259 102.1761314
  38.8024351  19.0349667 101.8820075  39.6595070  19.5806204 103.0043139
  33.5324218  20.5792397  93.8144713  33.4123843  21.0249448  94.6530193
  32.8376806  20.9277715  93.2558251  31.2931110  33.3496039  97.4634844
  31.2155140  34.3003864  97.5423325  30.6892754  33.0041912  98.1209770
  39.2309284  21.0513870  94.6425047  40.1427140  21.2841257  94.4672744
  38.7218931  21.6350915  94.0800125  37.8378866  26.0339689 102.0338628
  37.2087729  26.1985403 101.3314696  37.4504529  26.4481298 102.8049592
  41.7168098  26.9694127  99.3882992  41.0319136  27.3493028  98.8380025
  41.8011948  27.5789453 100.1214940  33.3906828  25.7714097  99.2988713
  33.8545174  26.0501800  98.5093336  33.1263626  24.8697542  99.1161804
  32.3275714  21.8937249  96.1078279  33.0299758  22.3458293  96.5752205
  31.9956343  21.2521068  96.7358172  40.0864858  27.4926041 104.1600693
  40.9082302  27.0906228 103.8783375  40.0827261  27.3894275 105.1116809
  48.1770851  23.8364790 100.5085664  47.4234559  23.2672188 100.3529669
  48.3118392  23.8027454 101.4556299  33.5669479  28.7078192  96.1840384
  33.4315154  29.5529728  96.6125232  34.1079291  28.9097470  95.4206318
  27.0198876  26.2253630  96.7568309  27.5323397  27.0196880  96.9073874
  27.6721589  25.5279920  96.6901910  28.8293761  29.3419386  98.8391062
  29.0060389  30.2637351  98.6512046  29.6250595  29.0277806  99.2685442
  29.9525077  30.8597560 104.8401404  30.5032502  30.7314623 104.0678398
  29.1136552  31.1592449 104.4896297  24.9847793  24.5542284  97.5327879
  25.8223015  24.9639293  97.3161587  25.1626061  23.6141726  97.5028073
  36.8812225  22.2217365  93.2211712  36.3658849  22.9921970  93.4600100
  36.6089534  21.5482501  93.8444774  34.4659336  17.0667066  98.2796951
  33.6100933  16.6773916  98.1002589  34.8786288  17.1459027  97.4196736
  41.8546499  24.9749720  95.1564886  41.0775942  24.6360879  94.7120048
  42.5337980  24.9802343  94.4819851  36.6698528  20.0944457  95.0471493
  36.3648664  20.4090606  95.8981637  37.6228971  20.1725877  95.0898826
  35.1144960  26.2534680  96.6964447  34.5866322  25.5187440  96.3837685
  34.6132463  27.0309357  96.4504416  40.0937806  24.4483701 101.8131494
  39.4361481  25.1382962 101.9011622  40.8978206  24.8380133 102.1565480
  38.9043265  22.8028074  99.8635436  39.4175147  23.4358065 100.3657145
  39.5544489  22.2029269  99.4978796  30.1733275  18.9458808  93.0766944
  29.3370587  19.2833494  93.3976219  30.0338045  18.8107787  92.1394081
  33.2597560  24.0714891  89.6999420  32.3524622  23.8404144  89.8990569
  33.7568592  23.2752510  89.8873402  36.1665639  32.7812398  92.6196107
  35.4927338  33.0844095  93.2281064  36.5531461  33.5841478  92.2701564
  36.1659144  21.6768945  97.2396456  36.9130963  22.1890342  96.9303578
  36.4350733  21.3552998  98.1000850  34.4385794  24.1727486  94.2223411
  33.5297013  23.8886518  94.3195880  34.4680878  24.5926564  93.3626717
  39.6705061  27.7834075  97.9914578  39.2167388  26.9424985  98.0479769
  39.0399028  28.4195473  98.3289358  38.6137981  18.7126061  99.2215246
  37.8760738  18.2003447  99.5525488  38.8664754  18.2726443  98.4098522
  38.1138001  29.6210572  98.9264396  38.4060975  30.1815629  98.2076762
  38.6236621  29.9139133  99.6817555  32.9870688  21.7856106 100.3233206
  33.0419298  20.8329943 100.2475683  32.1761890  21.9415545 100.8074504
  34.1361882  25.7136229  91.5611489  33.6981312  24.9972088  91.1017127
  34.8772323  25.9412344  90.9996581  30.9263048  20.4033166  98.0823585
  30.1130913  20.7027336  98.4888777  31.4222042  20.0088855  98.7998067
  33.0771626  30.3990923 100.0157849  33.0347805  30.6251769  99.0866382
  33.9934325  30.1654297 100.1643651  42.2534996  23.9893426  97.6187808
  42.1152895  24.1795022  96.6908997  41.8971215  24.7512809  98.0755859
  42.2804376  26.0569953 102.6299079  42.7140883  25.9645242 103.4782133
  42.9935957  26.0327454 101.9919095  31.1937427  27.2753952  99.8119812
  31.9878025  26.7804272  99.6102387  30.4829119  26.7471815  99.4487518
  36.0132271  29.6572047 104.1632180  36.0669293  30.2262984 104.9309896
  35.1447052  29.8273932 103.7986217  27.5020190  21.4197034  95.8879565
  26.5717778  21.3581489  96.1049527  27.5977662  20.8972986  95.0916206
  43.1419926  26.0993654 105.1631965  43.3355816  27.0039464 105.4091240
  43.0420544  25.6401073 105.9970550  33.7708703  27.8482974 103.4917649
  33.6319788  27.4801758 104.3643587  32.9823299  28.3630613 103.3201607
  34.3656854  32.9492070  94.8343186  34.5408610  32.4780113  95.6488809
  33.6789643  33.5757836  95.0624447  35.3213918  27.2264576 100.8806487
  34.9863750  27.1865346 101.7764137  34.8217863  26.5609292 100.4076897
  38.2573109  24.5720611  91.1543547  37.6402280  23.8467439  91.0576599
  37.7889598  25.3329971  90.8110621  28.9317940  36.0981433 101.6083046
  29.1714538  36.7299957 102.2862065  28.0887136  35.7469473 101.8948405
  30.0471655  18.7906035  90.2764851  29.1701122  18.6694836  89.9127098
  30.5229408  17.9992113  90.0243740  33.4445802  31.9060555 104.0124550
  33.3715973  32.7115527 104.5243855  33.0023195  32.1052521 103.1872571
  33.2335581  31.1432326  97.5227372  32.4503103  31.6854006  97.6165596
  33.9328326  31.6606305  97.9221613  36.5432231  16.9526955 100.1661577
  37.0400931  16.1996917  99.8462647  35.7719213  16.9891272  99.6004786
  44.3961989  22.6567320 101.8079868  44.3851865  23.5392036 101.4373802
  43.5279368  22.3038871 101.6134405  35.9044485  31.8047390 106.1682709
  36.6172457  32.4394854 106.0958610  35.4134514  31.9011256 105.3522710
  37.6262012  25.7098642  97.7400000  36.6918291  25.8300105  97.5704705
  37.8038681  24.8071109  97.4760010  41.0134563  21.5515961  98.2750034
  41.4795016  22.3843953  98.2010337  41.4642064  21.0860943  98.9795293
  39.0810795  27.8959783  95.2736187  39.3570638  27.7816377  96.1830061
  38.2115293  27.4977268  95.2348360  35.7164859  32.1446134  98.9169000
  35.8987253  31.3267790  99.3796752  36.5397845  32.3613826  98.4793890
  36.0507024  31.0714319  96.1784049  36.5794790  30.5606773  95.5654211
  36.3135244  30.7556849  97.0429582  29.4062772  32.1229435  98.9381825
  28.7373147  32.6075563  98.4545865  29.2675642  32.3698656  99.8525203
  33.5468041  34.1573179 105.5364483  34.0986349  34.3204800 106.3013568
  33.8874234  34.7477617 104.8644508  24.7750349  20.3847890  95.7177757
  25.0703790  19.4758569  95.6644810  23.8738385  20.3635630  95.3958759
  36.6836428  32.1055154 102.5228165  36.5587567  31.3044894 102.0139111
  37.3415519  32.6001348 102.0342135  38.7471336  29.9064175 104.1507715
  37.8001672  29.7869526 104.0786042  39.0954109  29.0186673 104.2333977
  26.5038191  18.0661988  95.8417082  26.1750897  17.1859367  95.6592188
  26.8577561  18.0109657  96.7293471  35.7517770  29.7016891 100.3512067
  35.6042732  28.7733598 100.5319637  36.5771263  29.7236981  99.8669143
  29.6180014  18.3534958  96.2092560  29.9576086  18.8820879  95.4871168
  30.0652134  18.6915364  96.9851126  39.3551891  30.5245449 101.4376940
  40.2798439  30.3188311 101.3001391  39.1867195  30.2761851 102.3466282
  31.6048161  16.8509579  94.4085852  32.3256523  17.2290832  93.9049569
  30.9813465  17.5698456  94.5120830  35.7479284  17.5554728  95.3444185
  35.9642898  18.4379366  95.0433013  35.2673351  17.1640942  94.6149827
  39.1447208  31.0431117  96.7939032  39.3184085  30.4777539  96.0412884
  39.6376099  31.8432012  96.6118522  31.7511784  16.3857370  97.2383389
  31.8727695  15.4574016  97.4374276  31.4613826  16.3996056  96.3261704
  44.9986599  23.8067540  98.4129331  45.4417745  23.0574865  98.0148455
  44.1213109  23.7977676  98.0303063  40.1322380  30.3597881  93.8935930
  40.8273285  30.9804574  94.1123245  40.4745530  29.5093233  94.1688308
  42.0313803  27.8097587  95.4223261  42.5565127  28.1484860  94.6972581
  41.9436156  26.8744602  95.2386395  33.7154464  33.8769570  99.7818514
  33.2759454  33.3845949 100.4751371  34.4662581  33.3342538  99.5410589
  26.1946803  30.0681111  99.7843142  27.0204823  29.7684883  99.4041785
  25.8440855  29.2988733 100.2332931  31.1628336  29.4207579 101.8540816
  30.5408345  28.7578284 101.5543043  31.8333203  29.4468711 101.1714463
  24.3955408  27.9867437 100.7432075  23.5587316  27.5589612 100.5616077
  24.3679053  28.1799881 101.6802867  30.7241843  27.9711503  95.3299276
  30.8729963  28.6546967  94.6765949  31.5308286  27.9516593  95.8448732
  43.3423781  27.7119898 108.2849209  43.0508589  28.0749879 109.1212670
  42.7295912  26.9986907 108.1062541  44.5419463  25.2772778 100.8051779
  45.3766355  25.7162582 100.9689339  44.6778592  24.8011431  99.9860025
  28.4794476  23.9976680  96.3360345  28.2340518  23.0939010  96.5340555
  28.6490391  23.9993831  95.3939823  27.7490124  19.7305038  93.8346506
  27.0559368  19.8049393  93.1786542  27.5041875  18.9665381  94.3568023
  34.2237249  30.4659633  92.8011023  33.6511216  31.0849820  92.3481495
  34.7970042  31.0158995  93.3350945  37.4434508  30.7496783  93.9319606
  38.3765181  30.6842345  94.1352481  37.3557721  31.5853050  93.4734138
  40.0722525  30.0662654  90.8923553  39.9936157  29.7322517  91.7859311
  40.8932192  30.5584421  90.8915026  42.7700716  22.9324393 104.0999872
  42.7377036  21.9940394 104.2859556  43.3801340  23.0108430 103.3665697
  34.6084047  21.8020446  90.1427076  35.5543152  21.6726654  90.2115494
  34.2298292  21.0635108  90.6196504  48.5877266  23.9940400 103.2405909
  49.3180654  23.7325688 103.8013612  47.9784211  23.2569122 103.2807977
  46.6692563  22.1348262 103.8380360  45.9425727  22.0004227 103.2296852
  46.2539850  22.4425091 104.6437078  32.7926964  19.7270422  90.0781961
  31.8858420  19.4303535  90.1544675  33.0702945  19.4300240  89.2116247
  34.4089030  14.2707312  96.2326202  33.5989758  13.9254397  96.6081449
  35.0973447  13.9614856  96.8213814  31.5625749  16.5857357  90.2193940
  32.4244913  16.9112256  90.4789758  31.7476093  15.7988853  89.7067006
  39.7158385  15.4585884  97.3629163  39.1357054  16.1170688  96.9807216
  39.4494318  14.6363228  96.9516581  38.4983263  17.6185974  96.4185512
  37.6109118  17.9035625  96.2005706  38.9137252  17.4579738  95.5712789
  41.8497799  17.6432495 100.1339851  42.6258190  18.1328948 100.4064468
  41.1245934  18.0690549 100.5911720  44.2870358  18.3560114 101.1913792
  44.8814849  18.1155850 100.4807100  44.3596942  17.6367245 101.8187328
  26.5067514  32.1993725 101.5056956  26.3721982  31.4394126 100.9394954
  26.0899576  32.9234625 101.0385745  37.6426477  27.3830649  90.5133532
  38.3462327  27.5880651  91.1291187  36.9189126  27.9507411  90.7782615
  38.4724287  23.1340510  96.6335802  38.4159488  23.5909062  95.7943434
  39.0252629  22.3731195  96.4558645  42.2829093  18.9230242  97.4585921
  42.0266027  18.5226878  98.2894129  41.6581961  19.6374036  97.3336060
  46.5941431  21.6626315  99.9657213  46.0340989  21.7319505 100.7388775
  45.9884934  21.4867300  99.2456709  29.6636640  33.0963042 101.7175399
  29.5469024  34.0408475 101.6154089  28.8429086  32.7936604 102.1061198
  39.5513174  27.8213178  92.5631992  40.3858778  27.3894377  92.3809466
  39.3897517  27.6495192  93.4908886  39.2059066  24.3245291  93.9288331
  39.1507870  24.1589563  92.9876775  38.5805122  25.0321324  94.0850521
  32.5155192  13.8253400  93.5073649  32.5033862  14.7695240  93.6641920
  33.4078614  13.6423546  93.2133111  30.6891154  33.7491304 104.9331327
  31.5918400  33.7814915 105.2497822  30.4628524  32.8191755 104.9477663
  32.4444756  32.5022291 101.5941406  31.4940387  32.5024152 101.4805778
  32.7477242  31.7555025 101.0777441  48.1797449  38.3382829 102.6587168
  48.8175859  38.2189577 101.9550508  48.0618292  39.2863673 102.7175121
  44.9887156  38.2910257 102.5948693  44.6505667  38.1751322 101.7069228
  45.8576924  37.8901422 102.5749699  40.8473971  40.1445734  98.5845584
  40.2838836  40.0535671  97.8161872  40.7326366  39.3245638  99.0648077
  45.4706939  39.4445109 108.5534899  45.4595579  39.0497907 107.6815402
  45.6327578  38.7111182 109.1468670  38.3938403  41.6396925 101.4229805
  39.1859695  41.2987750 101.0076104  38.6335053  41.7491900 102.3431958
  46.4273530  43.8116701  93.8960049  45.7761510  44.3970782  93.5094063
  47.2217893  44.3422896  93.9555086  40.3529157  40.9005839  94.2947183
  41.1260033  40.3534826  94.1560059  40.7054556  41.7650088  94.5061645
  42.1914200  42.2282221 107.5014083  41.9004066  43.1327852 107.3860749
  42.8271184  42.2698748 108.2158152  43.1170407  39.6059069 104.0915442
  43.7133979  39.3815092 103.3772405  43.1745378  38.8643815 104.6940890
  42.6895435  37.0598505  91.9265633  42.9420956  36.5380026  91.1649096
  41.7519994  36.8964650  92.0292317  47.7338718  36.0634283  99.7340376
  48.5201807  35.6453706  99.3830793  47.9977422  36.9680375  99.9022025
  47.9048795  41.5007133  94.4329033  47.2694628  41.5741760  95.1449938
  47.5746202  42.0900732  93.7548113  53.1347145  36.0009516 100.6373355
  53.8672317  35.4308733 100.8711184  52.3786501  35.6131117 101.0779861
  42.4091724  38.9626611  94.1290008  42.2927982  38.2871514  94.7971093
  42.5193984  38.4758985  93.3122161  44.7523265  38.4236758  97.8336697
  44.3881472  37.8967379  98.5449619  45.6090381  38.0335227  97.6603183
  50.6572565  29.7131090 105.0967964  50.3255890  30.5826501 104.8729179
  50.0618179  29.3967374 105.7761994  44.3928752  33.4526657  92.8298046
  44.5603154  34.3206894  93.1968517  44.2025921  33.6153939  91.9059335
  47.1504085  41.9143636 104.4963876  46.8504808  42.8168675 104.3879684
  46.8055144  41.6475820 105.3485029  40.6016566  38.3657433 100.5300581
  39.6767063  38.2333647 100.7378273  40.8500979  39.1451652 101.0270523
  50.5501229  34.4326177 102.1761314  49.6418106  34.3641585 101.8820075
  50.4988824  34.9098121 103.0043139  44.3717972  35.9084315  93.8144713
  44.2517598  36.3541366  94.6530193  43.6770561  36.2569633  93.2558251
  37.9625377  38.0090707 101.3644370  38.0917758  38.2625186 102.2783782
  37.2822829  38.6018415 101.0449025  42.1324865  48.6787957  97.4634844
  42.0548894  49.6295782  97.5423325  41.5286508  48.3333829  98.1209770
  44.6242094  35.8515822 110.1196211  43.8475428  36.4109742 110.1099076
  45.2632657  36.3372605 110.6411081  52.4162875  32.6342615 103.9539188
  51.7737255  32.9275148 103.3078982  51.9117803  32.5195535 104.7592384
  50.0703039  36.3805788  94.6425047  50.9820895  36.6133175  94.4672744
  49.5612686  36.9642832  94.0800125  42.8788467  38.6601276 109.6814178
  43.6203151  39.1986319 109.4049002  42.1725452  39.2867564 109.8385730
  48.3543806  40.8030416 108.2786339  48.7627162  40.3612826 107.5340972
  47.6321068  40.2283043 108.5320532  44.7074876  35.7403023 105.6519896
  45.5536072  36.1642436 105.7954545  44.6473514  35.0836647 106.3458459
  48.6772621  41.3631607 102.0338628  48.0481483  41.5277321 101.3314696
  48.2898283  41.7773216 102.8049592  52.5561853  42.2986044  99.3882992
  51.8712891  42.6784946  98.8380025  52.6405702  42.9081371 100.1214940
  47.8574322  33.4007391 107.3101070  47.6135254  34.1549452 106.7735346
  48.1334252  33.7792739 108.1448317  49.8112784  39.9446003 105.9878336
  50.0229680  40.5877763 105.3112717  49.7642533  39.1108320 105.5200266
  47.4139013  32.5563824 102.8914908  46.5523492  32.8545078 103.1831645
  47.4401448  32.7734223 101.9595940  44.2300583  41.1006015  99.2988713
  44.6938928  41.3793718  98.5093336  43.9657381  40.1989459  99.1161804
  41.1224664  40.6477496 102.2368477  41.6926021  41.0764765 101.5985961
  41.7132776  40.3660081 102.9352662  43.1669469  37.2229167  96.1078279
  43.8693512  37.6750211  96.5752205  42.8350097  36.5812986  96.7358172
  41.6149830  35.8140924 110.4829488  40.9848491  36.4957205 110.7164885
  41.5085918  35.7024005 109.5382626  36.9094803  35.4812720 101.4095412
  36.1193857  35.7370248 100.9335523  37.4006050  36.2961058 101.5147453
  50.9258612  42.8217959 104.1600693  51.7476056  42.4198146 103.8783375
  50.9221015  42.7186193 105.1116809  38.8609548  35.8457299  98.3678889
  38.0640711  35.9575993  98.8862384  38.6335140  36.1843951  97.5019779
  44.6915216  42.3702002 106.3161403  44.7559648  42.8322409 107.1519575
  43.9826140  41.7399367 106.4443713  35.1932506  35.7343210 103.8410403
  35.4440544  36.6190220 104.1067979  35.7292054  35.5547812 103.0685495
  59.0164605  39.1656707 100.5085664  58.2628314  38.5964105 100.3529669
  59.1512147  39.1319372 101.4556299  44.4063233  44.0370110  96.1840384
  44.2708908  44.8821645  96.6125232  44.9473046  44.2389387  95.4206318
  37.8592631  41.5545548  96.7568309  38.3717151  42.3488798  96.9073874
  38.5115344  40.8571838  96.6901910  39.6687516  44.6711304  98.8391062
  39.8454144  45.5929269  98.6512046  40.4644349  44.3569723  99.2685442
  43.8098534  31.5319569 110.4374996  44.5508247  32.1326722 110.3579458
  44.0416457  30.7897206 109.8793038  38.9539872  36.7175936 108.7153225
  38.8393387  35.8161193 109.0160324  38.0984390  36.9639633 108.3638042
  46.0331710  44.6593676 110.3140726  45.5895564  43.8730055 109.9961630
  46.6948923  44.8472827 109.6484617  40.7918831  46.1889478 104.8401404
  41.3426256  46.0606541 104.0678398  39.9530307  46.4884367 104.4896297
  48.1312948  44.9396476 108.3422127  48.1131423  45.7605357 107.8502396
  49.0532868  44.8150551 108.5672268  44.5886002  42.4540606 109.1845635
  45.1214339  41.6928894 108.9544943  44.0600083  42.1614257 109.9269790
  47.7555697  27.5600672 104.7139277  47.4119966  28.4502313 104.6378388
  48.1234660  27.3702329 103.8508862  35.8241548  39.8834202  97.5327879
  36.6616770  40.2931210  97.3161587  36.0019815  38.9433644  97.5028073
  47.7205980  37.5509283  93.2211712  47.2052603  38.3213887  93.4600100
  47.4483288  36.8774419  93.8444774  45.3053091  32.3958983  98.2796951
  44.4494687  32.0065834  98.1002589  45.7180043  32.4750944  97.4196736
  46.8352237  29.9305327 102.6788510  46.3317033  29.8935462 101.8656316
  47.1282844  30.8398069 102.7385167  43.0795123  30.0144056 101.6854692
  43.9448120  29.8186865 101.3260582  43.1472632  29.7854408 102.6124049
  52.6940254  40.3041637  95.1564886  51.9169697  39.9652797  94.7120048
  53.3731735  40.3094260  94.4819851  47.5092283  35.4236375  95.0471493
  47.2042418  35.7382524  95.8981637  48.4622725  35.5017795  95.0898826
  45.9538715  41.5826598  96.6964447  45.4260076  40.8479358  96.3837685
  45.4526217  42.3601274  96.4504416  50.9331561  39.7775619 101.8131494
  50.2755235  40.4674880 101.9011622  51.7371960  40.1672050 102.1565480
  40.6857442  32.2446264  99.0571059  41.2601194  32.0221446  98.3244252
  41.2728425  32.3134959  99.8099660  49.7437020  38.1319991  99.8635436
  50.2568901  38.7649983 100.3657145  50.3938243  37.5321187  99.4978796
  41.0127029  34.2750725  93.0766944  40.1764342  34.6125412  93.3976219
  40.8731799  34.1399705  92.1394081  42.9880110  29.1187513  97.7846128
  42.3344522  28.8036530  97.1602743  42.9460584  28.4963254  98.5105951
  44.0991315  39.4006808  89.6999420  43.1918377  39.1696062  89.8990569
  44.5962347  38.6044428  89.8873402  47.0059394  48.1104316  92.6196107
  46.3321093  48.4136012  93.2281064  47.3925216  48.9133396  92.2701564
  46.2217850  35.6069447 102.1093776  45.3040412  35.8284394 101.9515464
  46.6377994  35.6815757 101.2505483  47.0052898  37.0060862  97.2396456
  47.7524717  37.5182260  96.9303578  47.2744488  36.6844915  98.1000850
  45.2779548  39.5019403  94.2223411  44.3690768  39.2178436  94.3195880
  45.3074632  39.9218482  93.3626717  50.5098816  43.1125993  97.9914578
  50.0561143  42.2716903  98.0479769  49.8792783  43.7487391  98.3289358
  49.4531735  34.0417979  99.2215246  48.7154492  33.5295365  99.5525488
  49.7058509  33.6018360  98.4098522  48.9531755  44.9502489  98.9264396
  49.2454729  45.5107546  98.2076762  49.4630376  45.2431050  99.6817555
  49.5543363  26.8194231  99.8157015  49.8602239  25.9591594  99.5282930
  50.2795968  27.4111851  99.6156009  35.8467719  37.2224917  98.2038613
  35.6492119  36.6294278  97.4789679  35.2914383  36.9177128  98.9214552
  43.8264442  37.1148024 100.3233206  43.8813052  36.1621860 100.2475683
  43.0155644  37.2707463 100.8074504  44.9755636  41.0428147  91.5611489
  44.5375066  40.3264006  91.1017127  45.7166077  41.2704262  90.9996581
  41.7656802  35.7325084  98.0823585  40.9524668  36.0319254  98.4888777
  42.2615797  35.3380772  98.7998067  43.9165380  45.7282840 100.0157849
  43.8741559  45.9543687  99.0866382  44.8328079  45.4946215 100.1643651
  47.3631014  36.1966908 106.9138479  47.7180402  36.4238381 107.7732944
  48.0103145  36.5285285 106.2915734  53.0928751  39.3185344  97.6187808
  52.9546650  39.5086940  96.6908997  52.7364970  40.0804727  98.0755859
  41.2570877  33.3043439 103.6984820  41.8970256  33.1632198 103.0007783
  40.4248408  33.0177952 103.3223422  53.1198131  41.3861871 102.6299079
  53.5534637  41.2937160 103.4782133  53.8329711  41.3619371 101.9919095
  42.0331181  42.6045869  99.8119812  42.8271780  42.1096190  99.6102387
  41.3222873  42.0763733  99.4487518  46.8526025  44.9863965 104.1632180
  46.9063048  45.5554901 104.9309896  45.9840807  45.1565850 103.7986217
  38.3413944  36.7488951  95.8879565  37.4111533  36.6873407  96.1049527
  38.4371416  36.2264904  95.0916206  38.2599494  33.2743764  98.4757807
  38.5206311  34.1889097  98.3666967  39.0816666  32.8068207  98.6254419
  39.7324419  34.6881521 105.6456631  40.4047472  34.4798883 104.9969280
  38.9054205  34.4903607 105.2061863  53.9813680  41.4285572 105.1631965
  54.1749570  42.3331382 105.4091240  53.8814298  40.9692991 105.9970550
  45.6349991  31.3143462 107.6622292  44.9877906  32.0133412 107.5686768
  46.4051006  31.7479606 108.0298540  49.0428789  41.5792314 110.7372845
  48.8914295  41.3502866 109.8202929  49.0333468  42.5362916 110.7504190
  45.8114125  39.1524227 105.7219112  46.7406185  39.3035387 105.5488079
  45.3905155  39.2408248 104.8667758  44.6102457  43.1774891 103.4917649
  44.4713543  42.8093676 104.3643587  43.8217053  43.6922531 103.3201607
  45.2050609  48.2783988  94.8343186  45.3802365  47.8072031  95.6488809
  44.5183397  48.9049754  95.0624447  46.1607672  42.5556494 100.8806487
  45.8257505  42.5157264 101.7764137  45.6611618  41.8901210 100.4076897
  40.1351916  37.9624124 106.4059068  39.9971714  37.2304363 107.0070607
  41.0456840  37.8733024 106.1243256  49.0966864  39.9012529  91.1543547
  48.4796034  39.1759357  91.0576599  48.6283352  40.6621889  90.8110621
  42.7634217  37.6744084 105.8942748  43.4733835  37.0337276 105.8529366
  42.7203525  37.9256978 106.8168929  50.7520995  44.6111437 108.8149327
  50.6933542  43.9270657 108.1479910  51.1540514  45.3530427 108.3629953
  41.4763151  34.6609301 107.7138387  40.9400508  34.2100040 108.3659984
  40.8879859  34.7955210 106.9708852  40.8865410  34.1197953  90.2764851
  40.0094876  33.9986754  89.9127098  41.3623163  33.3284031  90.0243740
  50.7538403  42.5751021 107.0463307  49.8665181  42.2376943 107.1689706
  51.3236954  41.8434052 107.2832072  32.4067550  38.9075113 100.3706358
  33.0938590  38.5936843  99.7827373  32.2515679  39.8116477 100.0973610
  37.2102272  33.7965309 104.7991382  37.1260461  33.1890979 104.0641792
  36.3884978  34.2874327 104.8000878  44.2839556  47.2352473 104.0124550
  44.2109728  48.0407445 104.5243855  43.8416949  47.4344439 103.1872571
  44.0729336  46.4724243  97.5227372  43.2896858  47.0145923  97.6165596
  44.7722081  46.9898223  97.9221613  47.3825986  32.2818873 100.1661577
  47.8794685  31.5288835  99.8462647  46.6112967  32.3183189  99.6004786
  55.2355743  37.9859238 101.8079868  55.2245620  38.8683954 101.4373802
  54.3673123  37.6330789 101.6134405  46.7438240  47.1339307 106.1682709
  47.4566212  47.7686772 106.0958610  46.2528268  47.2303173 105.3522710
  48.4655767  41.0390560  97.7400000  47.5312045  41.1592022  97.5704705
  48.6432435  40.1363027  97.4760010  43.9660955  34.4236256  99.8933262
  43.5958742  33.8707296 100.5814167  44.4620047  33.8194389  99.3408262
  51.8528318  36.8807879  98.2750034  52.3188770  37.7135871  98.2010337
  52.3035818  36.4152861  98.9795293  41.7950153  44.8833751 106.9888279
  42.4959613  45.5170234 107.1417674  41.3245268  45.2248482 106.2283919
  49.9204549  43.2251700  95.2736187  50.1964393  43.1108295  96.1830061
  49.0509048  42.8269185  95.2348360  49.8244981  29.2488466 102.3140936
  48.9108060  29.4792693 102.4823143  50.2538082  29.3326910 103.1654968
  49.5951439  37.4378358 104.8140830  48.9422889  37.6854266 104.1593283
  49.9731819  36.6242496 104.4803307  46.5558613  47.4738051  98.9169000
  46.7381008  46.6559707  99.3796752  47.3791599  47.6905744  98.4793890
  46.8900779  46.4006236  96.1784049  47.4188545  45.8898691  95.5654211
  47.1528998  46.0848767  97.0429582  45.6439012  38.1798169 111.3006867
  44.9679649  38.0792298 111.9709242  46.4666646  38.0237383 111.7642864
  37.3917871  44.4170106 103.9219382  37.9771308  43.6713794 104.0547286
  37.1942710  44.7274062 104.8056046  40.2456526  47.4521353  98.9381825
  39.5766902  47.9367481  98.4545865  40.1069396  47.6990574  99.8525203
  31.9835526  36.9875706 102.6423825  32.0219625  36.4539297 103.4360943
  31.4775819  36.4610911 102.0234802  44.3861795  49.4865097 105.5364483
  44.9380103  49.6496718 106.3013568  44.7267989  50.0769534 104.8644508
  39.3626288  31.8340246 106.1386368  39.4267615  32.6955077 105.7263765
  39.2993409  31.2214248 105.4058726  38.8378561  33.9063379 109.7859402
  39.4650600  33.5240456 110.3996926  37.9806480  33.6877581 110.1515094
  49.2372669  44.3126354 111.3913137  49.7812573  44.9256312 110.8968092
  48.6559514  44.8705933 111.9080150  35.6144104  35.7139808  95.7177757
  35.9097545  34.8050486  95.6644810  34.7132139  35.6927548  95.3958759
  47.5230182  47.4347072 102.5228165  47.3981322  46.6336812 102.0139111
  48.1809273  47.9293266 102.0342135  39.1438351  33.7895805 101.7005305
  38.4224936  34.4031772 101.5612779  39.9331606  34.3253569 101.6221951
  49.5865091  45.2356092 104.1507715  48.6395426  45.1161443 104.0786042
  49.9347864  44.3478590 104.2333977  41.9464664  31.1250231 107.9745957
  42.4699066  31.3712528 108.7372266  41.7276997  31.9570266 107.5549094
  37.3431945  33.3953906  95.8417082  37.0144651  32.5151285  95.6592188
  37.6971316  33.3401574  96.7293471  46.5911524  45.0308808 100.3512067
  46.4436486  44.1025516 100.5319637  47.4165018  45.0528899  99.8669143
  40.4573768  33.6826876  96.2092560  40.7969841  34.2112797  95.4871168
  40.9045889  34.0207282  96.9851126  50.1945646  45.8537367 101.4376940
  51.1192193  45.6480229 101.3001391  50.0260949  45.6053768 102.3466282
  43.1517209  32.0663926 105.6595628  42.8114029  31.2671739 106.0616307
  42.4456215  32.3665637 105.0872461  43.8033681  29.1513239 104.1122951
  44.6259750  28.6773717 103.9901841  44.0471744  29.9303722 104.6121637
  42.4441915  32.1801497  94.4085852  43.1650278  32.5582750  93.9049569
  41.8207220  32.8990374  94.5120830  46.5873038  32.8846646  95.3444185
  46.8036653  33.7671284  95.0433013  46.1067105  32.4932859  94.6149827
  41.3272260  35.8432359 101.9214929  41.1816840  36.1572662 102.8139211
  40.8497463  36.4617260 101.3685828  43.1868643  32.8334907 101.9695819
  43.1730211  31.9376001 101.6328117  43.9041071  32.8405571 102.6034105
  45.0394773  33.2672248 104.0148946  44.7812551  34.1889318 104.0133277
  44.5079814  32.8702682 104.7049410  49.9840962  46.3723035  96.7939032
  50.1577840  45.8069457  96.0412884  50.4769853  47.1723930  96.6118522
  35.8017922  38.3837704 104.8602590  35.2571390  39.1597512 104.9922865
  36.6797272  38.7308508 104.7021712  42.5905539  31.7149288  97.2383389
  42.7121450  30.7865934  97.4374276  42.3007581  31.7287974  96.3261704
  45.4596729  29.4004198 100.3750109  45.4818426  29.4643531  99.4202088
  45.8764788  28.5608707 100.5690615  55.8380353  39.1359458  98.4129331
  56.2811499  38.3866783  98.0148455  54.9606864  39.1269594  98.0303063
  50.9716135  45.6889799  93.8935930  51.6667039  46.3096492  94.1123245
  51.3139285  44.8385150  94.1688308  36.5883944  37.5107600 107.7532747
  35.8465680  37.6590235 108.3397378  36.2676688  37.7715866 106.8899497
  52.8707558  43.1389505  95.4223261  53.3958882  43.4776777  94.6972581
  52.7829910  42.2036520  95.2386395  44.5327606  47.0523578 107.5513137
  44.8414733  46.8072725 108.4235837  45.3303088  47.2570217 107.0632008
  44.5548218  49.2061488  99.7818514  44.1153209  48.7137867 100.4751371
  45.3056335  48.6634455  99.5410589  37.0340557  45.3973029  99.7843142
  37.8598577  45.0976801  99.4041785  36.6834609  44.6280651 100.2332931
  42.0022091  44.7499497 101.8540816  41.3802100  44.0870202 101.5543043
  42.6726957  44.7760629 101.1714463  35.2349162  43.3159355 100.7432075
  34.3981071  42.8881530 100.5616077  35.2072808  43.5091798 101.6802867
  42.0746618  33.2281285 111.4473322  42.1234774  34.1043408 111.0651091
  42.6169132  32.6858678 110.8744965  52.5601464  43.7722408 110.7274459
  51.7697007  43.7546547 110.1878958  52.3234818  44.3110702 111.4823495
  52.6799339  40.6214875 108.0407187  52.7297344  40.4564882 108.9822710
  52.5713262  39.7542134 107.6505068  41.5635597  43.3003420  95.3299276
  41.7123718  43.9838885  94.6765949  42.3702041  43.2808510  95.8448732
  49.9703101  36.6045803 109.3566494  50.8712964  36.4652267 109.0650492
  50.0451076  36.7700257 110.2964671  44.3045907  33.9812657 108.2019680
  43.4349216  34.2746223 107.9302269  44.5405387  34.5653102 108.9226944
  54.1817536  43.0411816 108.2849209  53.8902344  43.4041797 109.1212670
  53.5689667  42.3278824 108.1062541  55.3813218  40.6064696 100.8051779
  56.2160109  41.0454500 100.9689339  55.5172347  40.1303349  99.9860025
  52.4304724  38.1644431 106.7529267  52.9058845  38.3572077 105.9448118
  51.5070289  38.2203617 106.5072650  39.3188230  39.3268598  96.3360345
  39.0734272  38.4230928  96.5340555  39.4884145  39.3285748  95.3939823
  47.0084940  30.1992274 105.7185101  47.5266884  30.9353301 105.3931589
  46.6540073  30.5056268 106.5531860  38.5883878  35.0596955  93.8346506
  37.8953123  35.1341310  93.1786542  38.3435630  34.2957299  94.3568023
  47.2597535  26.6192557 101.2385997  47.5399288  25.9515746 101.8646424
  48.0448141  26.8121652 100.7260661  45.0631003  45.7951551  92.8011023
  44.4904970  46.4141738  92.3481495  45.6363797  46.3450912  93.3350945
  51.1306393  35.0410191 104.9857572  52.0823816  35.1408288 105.0069796
  50.9609843  34.2488459 105.4955657  49.1520772  32.1265774 105.1716973
  48.5570704  32.4070787 104.4763462  48.8670469  32.6159675 105.9433714
  48.2828263  46.0788701  93.9319606  49.2158936  46.0134263  94.1352481
  48.1951476  46.9144968  93.4734138  50.9116279  45.3954571  90.8923553
  50.8329911  45.0614435  91.7859311  51.7325946  45.8876339  90.8915026
  53.6094471  38.2616310 104.0999872  53.5770791  37.3232311 104.2859556
  54.2195094  38.3400347 103.3665697  45.4477802  37.1312363  90.1427076
  46.3936906  37.0018572  90.2115494  45.0692046  36.3927025  90.6196504
  53.7588959  35.0527354 104.1458155  53.2428008  34.2685811 103.9588084
  54.6428908  34.7246071 104.3104675  51.4199686  28.7968369 100.1053968
  51.2224507  28.4883458 100.9897300  52.0299392  29.5230008 100.2351898
  59.4271020  39.3232317 103.2405909  60.1574409  39.0617605 103.8013612
  58.8177966  38.5861039 103.2807977  57.5086318  37.4640180 103.8380360
  56.7819481  37.3296145 103.2296852  57.0933604  37.7717009 104.6437078
  45.3316494  41.1830110 111.6027733  46.2519504  41.3608709 111.7967779
  45.2966077  40.2386155 111.4507432  43.6320719  35.0562340  90.0781961
  42.7252174  34.7595453  90.1544675  43.9096700  34.7592158  89.2116247
  34.5498659  36.3768703 100.5281008  34.2301443  35.5234011 100.2355382
  34.0032087  36.5917281 101.2838975  38.3278567  39.0931144 104.2450514
  38.5464576  40.0248252 104.2638548  38.7404340  38.7339119 105.0305318
  45.2482784  29.5999230  96.2326202  44.4383513  29.2546315  96.6081449
  45.9367201  29.2906773  96.8213814  47.1773333  28.6777276  97.8550499
  47.7304371  29.0972730  98.5140522  47.4143419  27.7513024  97.8973455
  42.4019503  31.9149275  90.2193940  43.2638667  32.2404173  90.4789758
  42.5869847  31.1280771  89.7067006  34.4186919  39.9971615 102.4974129
  33.7250390  39.5825568 101.9844084  35.1659910  40.0392151 101.9007548
  50.5552140  30.7877802  97.3629163  49.9750809  31.4462606  96.9807216
  50.2888072  29.9655146  96.9516581  49.0055706  30.1882859  99.5650484
  49.5055484  30.2999394  98.7564803  49.6491314  29.8843912 100.2051292
  43.0637702  38.0961489 112.4518325  42.5804784  38.8961849 112.6582214
  43.1498641  38.1069434 111.4985769  36.3323662  39.9289869 100.3740144
  36.3094350  40.0277556  99.4222027  36.6424298  40.7755019 100.6957310
  38.9911039  41.9866024 104.4886758  39.9454293  41.9549966 104.4216690
  38.7923563  41.5256647 105.3036984  39.5810422  40.5567140 107.0557556
  40.4003311  41.0511218 107.0792393  39.8547229  39.6399108 107.0275124
  49.3377018  32.9477892  96.4185512  48.4502873  33.2327543  96.2005706
  49.7531007  32.7871655  95.5712789  52.6891554  32.9724413 100.1339851
  53.4651944  33.4620865 100.4064468  51.9639688  33.3982467 100.5911720
  55.1264113  33.6852032 101.1913792  55.7208603  33.4447768 100.4807100
  55.1990696  32.9659163 101.8187328  37.3461268  47.5285643 101.5056956
  37.2115736  46.7686044 100.9394954  36.9293331  48.2526543 101.0385745
  48.4820231  42.7122567  90.5133532  49.1856081  42.9172569  91.1291187
  47.7582880  43.2799328  90.7782615  49.3118042  38.4632428  96.6335802
  49.2553243  38.9200979  95.7943434  49.8646384  37.7023112  96.4558645
  53.1222847  34.2522160  97.4585921  52.8659782  33.8518795  98.2894129
  52.4975715  34.9665954  97.3336060  57.4335185  36.9918233  99.9657213
  56.8734743  37.0611422 100.7388775  56.8278689  36.8159218  99.2456709
  40.5030394  48.4254960 101.7175399  40.3862778  49.3700393 101.6154089
  39.6822840  48.1228522 102.1061198  50.3906929  43.1505096  92.5631992
  51.2252533  42.7186294  92.3809466  50.2291272  42.9787109  93.4908886
  50.0452821  39.6537209  93.9288331  49.9901625  39.4881481  92.9876775
  49.4198876  40.3613242  94.0850521  34.8345336  34.8905273 107.7549753
  35.4804199  34.3804227 108.2436978  34.6262487  35.6273955 108.3293178
  47.3598728  41.9586121 113.2541894  48.2289888  42.1326773 112.8928529
  46.8805479  42.7780538 113.1317623  43.3548946  29.1545318  93.5073649
  43.3427616  30.0987158  93.6641920  44.2472368  28.9715464  93.2133111
  41.5284908  49.0783222 104.9331327  42.4312155  49.1106832 105.2497822
  41.3022278  48.1483673 104.9477663  43.2838510  47.8314209 101.5941406
  42.3334141  47.8316070 101.4805778  43.5870996  47.0846943 101.0777441
  47.1701066  25.7488095  97.7619586  46.4033462  25.1946581  97.9076269
  47.5811771  25.8209964  98.6233738  59.0191204  53.6674747 102.6587168
  59.6569614  53.5481494 101.9550508  58.9012047  54.6155591 102.7175121
  55.8280910  53.6202175 102.5948693  55.4899422  53.5043240 101.7069228
  56.6970678  53.2193340 102.5749699  51.6867726  55.4737651  98.5845584
  51.1232591  55.3827588  97.8161872  51.5720121  54.6537556  99.0648077
  56.3100693  54.7737027 108.5534899  56.2989334  54.3789825 107.6815402
  56.4721332  54.0403099 109.1468670  51.1922912  56.2297756  94.2947183
  51.9653788  55.6826743  94.1560059  51.5448310  57.0942006  94.5061645
  53.0307954  57.5574139 107.5014083  52.7397820  58.4619769 107.3860749
  53.6664939  57.5990666 108.2158152  53.9564161  54.9350987 104.0915442
  54.5527733  54.7107009 103.3772405  54.0139133  54.1935733 104.6940890
  53.5289189  52.3890422  91.9265633  53.7814710  51.8671944  91.1649096
  52.5913749  52.2256568  92.0292317  58.5732472  51.3926201  99.7340376
  59.3595561  50.9745624  99.3830793  58.8371177  52.2972293  99.9022025
  58.7442550  56.8299051  94.4329033  58.1088383  56.9033678  95.1449938
  58.4139956  57.4192650  93.7548113  63.9740899  51.3301434 100.6373355
  64.7066071  50.7600651 100.8711184  63.2180255  50.9423034 101.0779861
  53.2485478  54.2918528  94.1290008  53.1321736  53.6163432  94.7971093
  53.3587738  53.8050902  93.3122161  55.5917019  53.7528675  97.8336697
  55.2275226  53.2259296  98.5449619  56.4484135  53.3627144  97.6603183
  61.4966320  45.0423008 105.0967964  61.1649644  45.9118419 104.8729179
  60.9011933  44.7259292 105.7761994  55.2322506  48.7818575  92.8298046
  55.3996908  49.6498812  93.1968517  55.0419675  48.9445857  91.9059335
  57.9897839  57.2435554 104.4963876  57.6898562  58.1460593 104.3879684
  57.6448899  56.9767737 105.3485029  51.4410321  53.6949351 100.5300581
  50.5160817  53.5625565 100.7378273  51.6894734  54.4743570 101.0270523
  61.3894983  49.7618094 102.1761314  60.4811860  49.6933503 101.8820075
  61.3382579  50.2390039 103.0043139  55.2111727  51.2376233  93.8144713
  55.0911352  51.6833283  94.6530193  54.5164315  51.5861550  93.2558251
  48.8019132  53.3382624 101.3644370  48.9311513  53.5917103 102.2783782
  48.1216583  53.9310332 101.0449025  55.4635849  51.1807740 110.1196211
  54.6869183  51.7401660 110.1099076  56.1026412  51.6664523 110.6411081
  63.2556629  47.9634533 103.9539188  62.6131010  48.2567066 103.3078982
  62.7511558  47.8487453 104.7592384  60.9096793  51.7097706  94.6425047
  61.8214649  51.9425093  94.4672744  60.4006440  52.2934750  94.0800125
  53.7182221  53.9893193 109.6814178  54.4596905  54.5278237 109.4049002
  53.0119207  54.6159482 109.8385730  59.1937561  56.1322334 108.2786339
  59.6020917  55.6904744 107.5340972  58.4714822  55.5574961 108.5320532
  55.5468631  51.0694940 105.6519896  56.3929826  51.4934354 105.7954545
  55.4867268  50.4128565 106.3458459  59.5166375  56.6923524 102.0338628
  58.8875238  56.8569238 101.3314696  59.1292037  57.1065134 102.8049592
  63.3955607  57.6277962  99.3882992  62.7106645  58.0076863  98.8380025
  63.4799457  58.2373289 100.1214940  58.6968076  48.7299309 107.3101070
  58.4529008  49.4841369 106.7735346  58.9728007  49.1084656 108.1448317
  60.6506539  55.2737921 105.9878336  60.8623434  55.9169681 105.3112717
  60.6036287  54.4400238 105.5200266  58.2532768  47.8855742 102.8914908
  57.3917247  48.1836995 103.1831645  58.2795203  48.1026141 101.9595940
  55.0694337  56.4297932  99.2988713  55.5332683  56.7085635  98.5093336
  54.8051135  55.5281377  99.1161804  51.9618418  55.9769414 102.2368477
  52.5319775  56.4056682 101.5985961  52.5526530  55.6951999 102.9352662
  54.0063223  52.5521085  96.1078279  54.7087267  53.0042128  96.5752205
  53.6743852  51.9104904  96.7358172  52.4543585  51.1432841 110.4829488
  51.8242245  51.8249122 110.7164885  52.3479673  51.0315923 109.5382626
  47.7488557  50.8104637 101.4095412  46.9587611  51.0662166 100.9335523
  48.2399805  51.6252975 101.5147453  61.7652367  58.1509877 104.1600693
  62.5869811  57.7490064 103.8783375  61.7614770  58.0478111 105.1116809
  49.7003303  51.1749217  98.3678889  48.9034466  51.2867911  98.8862384
  49.4728895  51.5135869  97.5019779  55.5308970  57.6993920 106.3161403
  55.5953403  58.1614327 107.1519575  54.8219894  57.0691285 106.4443713
  46.0326260  51.0635128 103.8410403  46.2834299  51.9482138 104.1067979
  46.5685809  50.8839729 103.0685495  69.8558360  54.4948625 100.5085664
  69.1022068  53.9256023 100.3529669  69.9905901  54.4611290 101.4556299
  55.2456988  59.3662027  96.1840384  55.1102663  60.2113563  96.6125232
  55.7866800  59.5681305  95.4206318  51.7324328  45.4453607 112.8454739
  51.3391273  44.8919806 113.5202383  52.5490468  45.7564186 113.2361256
  48.6986385  56.8837465  96.7568309  49.2110906  57.6780716  96.9073874
  49.3509098  56.1863756  96.6901910  50.5081270  60.0003222  98.8391062
  50.6847898  60.9221186  98.6512046  51.3038104  59.6861641  99.2685442
  54.6492289  46.8611486 110.4374996  55.3902002  47.4618639 110.3579458
  54.8810211  46.1189124 109.8793038  49.7933627  52.0467854 108.7153225
  49.6787142  51.1453111 109.0160324  48.9378144  52.2931550 108.3638042
  56.8725464  59.9885594 110.3140726  56.4289319  59.2021972 109.9961630
  57.5342678  60.1764744 109.6484617  51.6312586  61.5181395 104.8401404
  52.1820011  61.3898459 104.0678398  50.7924061  61.8176284 104.4896297
  58.9706702  60.2688394 108.3422127  58.9525178  61.0897275 107.8502396
  59.8926622  60.1442469 108.5672268  55.4279757  57.7832523 109.1845635
  55.9608093  57.0220811 108.9544943  54.8993838  57.4906175 109.9269790
  58.5949452  42.8892589 104.7139277  58.2513721  43.7794231 104.6378388
  58.9628414  42.6994247 103.8508862  58.5599734  52.8801200  93.2211712
  58.0446358  53.6505805  93.4600100  58.2877043  52.2066336  93.8444774
  56.1446845  47.7250901  98.2796951  55.2888442  47.3357752  98.1002589
  56.5573797  47.8042862  97.4196736  57.6745992  45.2597244 102.6788510
  57.1710788  45.2227380 101.8656316  57.9676599  46.1689987 102.7385167
  53.9188878  45.3435974 101.6854692  54.7841875  45.1478783 101.3260582
  53.9866387  45.1146326 102.6124049  63.5334008  55.6333555  95.1564886
  62.7563451  55.2944714  94.7120048  64.2125489  55.6386178  94.4819851
  58.3486037  50.7528292  95.0471493  58.0436173  51.0674442  95.8981637
  59.3016480  50.8309712  95.0898826  56.7932469  56.9118516  96.6964447
  56.2653831  56.1771275  96.3837685  56.2919972  57.6893192  96.4504416
  61.7725315  55.1067536 101.8131494  61.1148990  55.7966798 101.9011622
  62.5765714  55.4963968 102.1565480  51.5251197  47.5738182  99.0571059
  52.0994949  47.3513364  98.3244252  52.1122179  47.6426877  99.8099660
  60.5830774  53.4611909  99.8635436  61.0962656  54.0941901 100.3657145
  61.2331998  52.8613104  99.4978796  51.8520784  49.6042643  93.0766944
  51.0158096  49.9417330  93.3976219  51.7125554  49.4691623  92.1394081
  53.8273865  44.4479431  97.7846128  53.1738277  44.1328448  97.1602743
  53.7854339  43.8255171  98.5105951  54.9385069  54.7298726  89.6999420
  54.0312131  54.4987979  89.8990569  55.4356101  53.9336345  89.8873402
  57.0611605  50.9361364 102.1093776  56.1434166  51.1576311 101.9515464
  57.4771749  51.0107675 101.2505483  57.8446653  52.3352780  97.2396456
  58.5918472  52.8474177  96.9303578  58.1138242  52.0136833  98.1000850
  56.1173303  54.8311321  94.2223411  55.2084522  54.5470354  94.3195880
  56.1468387  55.2510399  93.3626717  61.3492570  58.4417910  97.9914578
  60.8954897  57.6008820  98.0479769  60.7186537  59.0779309  98.3289358
  60.2925490  49.3709896  99.2215246  59.5548247  48.8587283  99.5525488
  60.5452263  48.9310278  98.4098522  59.7925510  60.2794407  98.9264396
  60.0848484  60.8399464  98.2076762  60.3024130  60.5722968  99.6817555
  60.3937117  42.1486148  99.8157015  60.6995994  41.2883512  99.5282930
  61.1189722  42.7403769  99.6156009  54.6658197  52.4439941 100.3233206
  54.7206807  51.4913778 100.2475683  53.8549399  52.5999381 100.8074504
  55.8149391  56.3720065  91.5611489  55.3768821  55.6555923  91.1017127
  56.5559832  56.5996179  90.9996581  52.6050557  51.0617001  98.0823585
  51.7918422  51.3611172  98.4888777  53.1009551  50.6672690  98.7998067
  54.7559135  61.0574758 100.0157849  54.7135314  61.2835604  99.0866382
  55.6721834  60.8238133 100.1643651  58.2024769  51.5258826 106.9138479
  58.5574156  51.7530299 107.7732944  58.8496900  51.8577202 106.2915734
  63.9322505  54.6477262  97.6187808  63.7940404  54.8378858  96.6908997
  63.5758724  55.4096644  98.0755859  52.0964632  48.6335357 103.6984820
  52.7364011  48.4924116 103.0007783  51.2642162  48.3469870 103.3223422
  63.9591885  56.7153789 102.6299079  64.3928392  56.6229078 103.4782133
  64.6723466  56.6911289 101.9919095  52.8724936  57.9337787  99.8119812
  53.6665534  57.4388107  99.6102387  52.1616628  57.4055650  99.4487518
  57.6919780  60.3155883 104.1632180  57.7456802  60.8846819 104.9309896
  56.8234561  60.4857768 103.7986217  49.1807699  52.0780869  95.8879565
  48.2505287  52.0165324  96.1049527  49.2765171  51.5556822  95.0916206
  49.0993248  48.6035682  98.4757807  49.3600065  49.5181015  98.3666967
  49.9210420  48.1360124  98.6254419  50.5718173  50.0173439 105.6456631
  51.2441227  49.8090801 104.9969280  49.7447960  49.8195525 105.2061863
  64.8207435  56.7577489 105.1631965  65.0143325  57.6623300 105.4091240
  64.7208053  56.2984908 105.9970550  56.4743745  46.6435380 107.6622292
  55.8271660  47.3425329 107.5686768  57.2444761  47.0771524 108.0298540
  59.8822543  56.9084232 110.7372845  59.7308050  56.6794784 109.8202929
  59.8727223  57.8654833 110.7504190  56.6507880  54.4816145 105.7219112
  57.5799940  54.6327304 105.5488079  56.2298910  54.5700166 104.8667758
  55.4496211  58.5066809 103.4917649  55.3107297  58.1385594 104.3643587
  54.6610808  59.0214449 103.3201607  57.0001427  57.8848412 100.8806487
  56.6651259  57.8449182 101.7764137  56.5005372  57.2193128 100.4076897
  50.9745671  53.2916042 106.4059068  50.8365469  52.5596281 107.0070607
  51.8850594  53.2024942 106.1243256  59.9360618  55.2304446  91.1543547
  59.3189789  54.5051274  91.0576599  59.4677107  55.9913806  90.8110621
  53.6027971  53.0036001 105.8942748  54.3127590  52.3629193 105.8529366
  53.5597279  53.2548896 106.8168929  61.5914750  59.9403355 108.8149327
  61.5327296  59.2562575 108.1479910  61.9934268  60.6822345 108.3629953
  52.3156905  49.9901219 107.7138387  51.7794262  49.5391958 108.3659984
  51.7273614  50.1247128 106.9708852  51.7259164  49.4489871  90.2764851
  50.8488631  49.3278671  89.9127098  52.2016917  48.6575949  90.0243740
  61.5932157  57.9042938 107.0463307  60.7058936  57.5668860 107.1689706
  62.1630708  57.1725970 107.2832072  48.0496026  49.1257227 104.7991382
  47.9654215  48.5182896 104.0641792  47.2278733  49.6166245 104.8000878
  55.1233311  62.5644391 104.0124550  55.0503482  63.3699362 104.5243855
  54.6810704  62.7636357 103.1872571  54.9123090  61.8016161  97.5227372
  54.1290612  62.3437841  97.6165596  55.6115835  62.3190141  97.9221613
  58.2219740  47.6110790 100.1661577  58.7188440  46.8580753  99.8462647
  57.4506722  47.6475107  99.6004786  66.0749498  53.3151156 101.8079868
  66.0639374  54.1975871 101.4373802  65.2066877  52.9622707 101.6134405
  57.5831994  62.4631225 106.1682709  58.2959966  63.0978690 106.0958610
  57.0922023  62.5595091 105.3522710  59.3049521  56.3682478  97.7400000
  58.3705800  56.4883940  97.5704705  59.4826190  55.4654944  97.4760010
  54.8054709  49.7528173  99.8933262  54.4352497  49.1999214 100.5814167
  55.3013802  49.1486307  99.3408262  62.6922072  52.2099797  98.2750034
  63.1582525  53.0427788  98.2010337  63.1429573  51.7444778  98.9795293
  52.6343908  60.2125668 106.9888279  53.3353367  60.8462151 107.1417674
  52.1639023  60.5540400 106.2283919  60.7598304  58.5543618  95.2736187
  61.0358147  58.4400213  96.1830061  59.8902802  58.1561103  95.2348360
  60.6638735  44.5780384 102.3140936  59.7501815  44.8084611 102.4823143
  61.0931837  44.6618828 103.1654968  60.4345194  52.7670276 104.8140830
  59.7816644  53.0146183 104.1593283  60.8125574  51.9534414 104.4803307
  56.4832767  53.5090087 111.3006867  55.8073404  53.4084216 111.9709242
  57.3060401  53.3529301 111.7642864  48.2311626  59.7462023 103.9219382
  48.8165063  59.0005711 104.0547286  48.0336464  60.0565980 104.8056046
  42.8229280  52.3167624 102.6423825  42.8613380  51.7831214 103.4360943
  42.3169573  51.7902829 102.0234802  55.2255550  64.8157014 105.5364483
  55.7773858  64.9788636 106.3013568  55.5661743  65.4061452 104.8644508
  50.2020043  47.1632164 106.1386368  50.2661369  48.0246995 105.7263765
  50.1387163  46.5506166 105.4058726  49.6772315  49.2355297 109.7859402
  50.3044354  48.8532374 110.3996926  48.8200234  49.0169499 110.1515094
  60.0766424  59.6418272 111.3913137  60.6206328  60.2548230 110.8968092
  59.4953269  60.1997850 111.9080150  46.4537858  51.0431726  95.7177757
  46.7491299  50.1342404  95.6644810  45.5525894  51.0219465  95.3958759
  58.3623937  62.7638990 102.5228165  58.2375076  61.9628730 102.0139111
  59.0203028  63.2585183 102.0342135  49.9832105  49.1187722 101.7005305
  49.2618691  49.7323690 101.5612779  50.7725361  49.6545487 101.6221951
  60.4258845  60.5648010 104.1507715  59.4789181  60.4453361 104.0786042
  60.7741618  59.6770508 104.2333977  52.7858419  46.4542149 107.9745957
  53.3092820  46.7004445 108.7372266  52.5670752  47.2862184 107.5549094
  48.1825700  48.7245823  95.8417082  47.8538406  47.8443202  95.6592188
  48.5365070  48.6693492  96.7293471  57.4305279  60.3600726 100.3512067
  57.2830241  59.4317434 100.5319637  58.2558772  60.3820817  99.8669143
  51.2967523  49.0118793  96.2092560  51.6363595  49.5404714  95.4871168
  51.7439643  49.3499199  96.9851126  61.0339400  61.1829285 101.4376940
  61.9585948  60.9772146 101.3001391  60.8654704  60.9345686 102.3466282
  53.9910964  47.3955844 105.6595628  53.6507784  46.5963657 106.0616307
  53.2849970  47.6957555 105.0872461  54.6427435  44.4805156 104.1122951
  55.4653505  44.0065635 103.9901841  54.8865499  45.2595640 104.6121637
  53.2835670  47.5093415  94.4085852  54.0044032  47.8874668  93.9049569
  52.6600974  48.2282292  94.5120830  57.4266793  48.2138564  95.3444185
  57.6430407  49.0963202  95.0433013  56.9460860  47.8224777  94.6149827
  52.1666014  51.1724277 101.9214929  52.0210595  51.4864580 102.8139211
  51.6891218  51.7909177 101.3685828  54.0262397  48.1626825 101.9695819
  54.0123966  47.2667918 101.6328117  54.7434825  48.1697489 102.6034105
  55.8788528  48.5964165 104.0148946  55.6206306  49.5181236 104.0133277
  55.3473568  48.1994600 104.7049410  46.6411676  53.7129621 104.8602590
  46.0965144  54.4889429 104.9922865  47.5191026  54.0600426 104.7021712
  53.4299293  47.0441205  97.2383389  53.5515204  46.1157851  97.4374276
  53.1401335  47.0579891  96.3261704  56.2990483  44.7296116 100.3750109
  56.3212180  44.7935449  99.4202088  56.7158542  43.8900624 100.5690615
  66.6774108  54.4651375  98.4129331  67.1205254  53.7158700  98.0148455
  65.8000618  54.4561512  98.0303063  47.4277698  52.8399518 107.7532747
  46.6859434  52.9882153 108.3397378  47.1070443  53.1007783 106.8899497
  63.7101312  58.4681422  95.4223261  64.2352636  58.8068695  94.6972581
  63.6223665  57.5328438  95.2386395  55.3721361  62.3815496 107.5513137
  55.6808487  62.1364643 108.4235837  56.1696843  62.5862134 107.0632008
  52.8415845  60.0791415 101.8540816  52.2195854  59.4162120 101.5543043
  53.5120712  60.1052546 101.1714463  52.9140373  48.5573203 111.4473322
  52.9628528  49.4335325 111.0651091  53.4562887  48.0150596 110.8744965
  63.3995218  59.1014326 110.7274459  62.6090762  59.0838465 110.1878958
  63.1628573  59.6402620 111.4823495  63.5193093  55.9506792 108.0407187
  63.5691098  55.7856800 108.9822710  63.4107017  55.0834051 107.6505068
  52.4029352  58.6295338  95.3299276  52.5517472  59.3130802  94.6765949
  53.2095795  58.6100428  95.8448732  60.8096856  51.9337720 109.3566494
  61.7106718  51.7944185 109.0650492  60.8844830  52.0992175 110.2964671
  55.1439661  49.3104575 108.2019680  54.2742970  49.6038141 107.9302269
  55.3799141  49.8945020 108.9226944  65.0211290  58.3703734 108.2849209
  64.7296098  58.7333714 109.1212670  64.4083421  57.6570742 108.1062541
  66.2206972  55.9356614 100.8051779  67.0553864  56.3746418 100.9689339
  66.3566101  55.4595267  99.9860025  63.2698478  53.4936348 106.7529267
  63.7452600  53.6863995 105.9448118  62.3464044  53.5495534 106.5072650
  50.1581985  54.6560516  96.3360345  49.9128027  53.7522846  96.5340555
  50.3277899  54.6577666  95.3939823  57.8478695  45.5284192 105.7185101
  58.3660639  46.2645219 105.3931589  57.4933828  45.8348185 106.5531860
  49.4277632  50.3888873  93.8346506  48.7346877  50.4633228  93.1786542
  49.1829384  49.6249217  94.3568023  58.0991289  41.9484474 101.2385997
  58.3793043  41.2807664 101.8646424  58.8841896  42.1413570 100.7260661
  61.9700147  50.3702108 104.9857572  62.9217570  50.4700206 105.0069796
  61.8003598  49.5780377 105.4955657  59.9914527  47.4557692 105.1716973
  59.3964459  47.7362704 104.4763462  59.7064224  47.9451593 105.9433714
  64.4488225  53.5908228 104.0999872  64.4164545  52.6524229 104.2859556
  65.0588849  53.6692265 103.3665697  56.2871556  52.4604281  90.1427076
  57.2330661  52.3310489  90.2115494  55.9085801  51.7218943  90.6196504
  64.5982714  50.3819272 104.1458155  64.0821762  49.5977728 103.9588084
  65.4822662  50.0537988 104.3104675  62.2593441  44.1260287 100.1053968
  62.0618262  43.8175375 100.9897300  62.8693146  44.8521926 100.2351898
  70.2664775  54.6524235 103.2405909  70.9968163  54.3909523 103.8013612
  69.6571720  53.9152957 103.2807977  68.3480072  52.7932098 103.8380360
  67.6213236  52.6588063 103.2296852  67.9327359  53.1008926 104.6437078
  56.1710249  56.5122027 111.6027733  57.0913258  56.6900626 111.7967779
  56.1359832  55.5678073 111.4507432  54.4714473  50.3854258  90.0781961
  53.5645929  50.0887370  90.1544675  54.7490454  50.0884076  89.2116247
  45.3892414  51.7060621 100.5281008  45.0695198  50.8525929 100.2355382
  44.8425842  51.9209199 101.2838975  49.1672321  54.4223062 104.2450514
  49.3858331  55.3540170 104.2638548  49.5798095  54.0631036 105.0305318
  56.0876539  44.9291147  96.2326202  55.2777267  44.5838232  96.6081449
  56.7760956  44.6198691  96.8213814  58.0167087  44.0069194  97.8550499
  58.5698126  44.4264647  98.5140522  58.2537174  43.0804942  97.8973455
  54.0400186  49.9956268 113.6353263  53.9396913  50.9450625 113.5665354
  53.8221728  49.6674507 112.7629333  53.2413258  47.2441193  90.2193940
  54.1032422  47.5696091  90.4789758  53.4263602  46.4572689  89.7067006
  61.3945894  46.1169719  97.3629163  60.8144563  46.7754523  96.9807216
  61.1281827  45.2947064  96.9516581  59.8449461  45.5174777  99.5650484
  60.3449239  45.6291311  98.7564803  60.4885069  45.2135830 100.2051292
  53.9031456  53.4253407 112.4518325  53.4198538  54.2253767 112.6582214
  53.9892395  53.4361351 111.4985769  49.8304794  57.3157941 104.4886758
  50.7848047  57.2841884 104.4216690  49.6317318  56.8548565 105.3036984
  50.4204176  55.8859057 107.0557556  51.2397065  56.3803136 107.0792393
  50.6940984  54.9691025 107.0275124  60.1770772  48.2769810  96.4185512
  59.2896627  48.5619460  96.2005706  60.5924761  48.1163573  95.5712789
  63.5285308  48.3016331 100.1339851  64.3045699  48.7912783 100.4064468
  62.8033443  48.7274385 100.5911720  65.9657867  49.0143950 101.1913792
  66.5602358  48.7739686 100.4807100  66.0384451  48.2951080 101.8187328
  60.1511796  53.7924346  96.6335802  60.0946997  54.2492897  95.7943434
  60.7040138  53.0315030  96.4558645  63.9616602  49.5814077  97.4585921
  63.7053536  49.1810713  98.2894129  63.3369470  50.2957871  97.3336060
  68.2728940  52.3210151  99.9657213  67.7128498  52.3903340 100.7388775
  67.6672443  52.1451135  99.2456709  51.3424149  63.7546878 101.7175399
  51.2256533  64.6992310 101.6154089  50.5216595  63.4520439 102.1061198
  61.2300683  58.4797013  92.5631992  62.0646287  58.0478212  92.3809466
  61.0685026  58.3079027  93.4908886  60.8846575  54.9829127  93.9288331
  60.8295379  54.8173398  92.9876775  60.2592631  55.6905160  94.0850521
  45.6739090  50.2197191 107.7549753  46.3197954  49.7096145 108.2436978
  45.4656241  50.9565873 108.3293178  58.1992483  57.2878039 113.2541894
  59.0683642  57.4618691 112.8928529  57.7199234  58.1072455 113.1317623
  54.1942701  44.4837236  93.5073649  54.1821371  45.4279076  93.6641920
  55.0866123  44.3007381  93.2133111  52.3678663  64.4075140 104.9331327
  53.2705909  64.4398750 105.2497822  52.1416033  63.4775591 104.9477663
  54.1232265  63.1606126 101.5941406  53.1727896  63.1607988 101.4805778
  54.4264751  62.4138861 101.0777441  58.0094820  41.0780012  97.7619586
  57.2427216  40.5238499  97.9076269  58.4205525  41.1501881  98.6233738
  50.0136581  47.3664808 111.8524767  50.8768043  47.0101613 112.0628092
  49.4401992  47.0278703 112.5400172  69.8584958  68.9966665 102.6587168
  70.4963368  68.8773412 101.9550508  69.7405801  69.9447509 102.7175121
  66.6674665  68.9494093 102.5948693  66.3293176  68.8335157 101.7069228
  67.5364433  68.5485258 102.5749699  67.1494448  70.1028944 108.5534899
  67.1383088  69.7081743 107.6815402  67.3115087  69.3695017 109.1468670
  63.8701709  72.8866056 107.5014083  63.5791575  73.7911687 107.3860749
  64.5058693  72.9282584 108.2158152  64.7957916  70.2642905 104.0915442
  65.3921488  70.0398927 103.3772405  64.8532887  69.5227650 104.6940890
  69.4126227  66.7218118  99.7340376  70.1989316  66.3037542  99.3830793
  69.6764931  67.6264211  99.9022025  74.8134654  66.6593352 100.6373355
  75.5459826  66.0892568 100.8711184  74.0574010  66.2714952 101.0779861
  72.3360074  60.3714926 105.0967964  72.0043399  61.2410337 104.8729179
  71.7405688  60.0551210 105.7761994  68.8291594  72.5727472 104.4963876
  68.5292317  73.4752511 104.3879684  68.4842653  72.3059655 105.3485029
  62.2804075  69.0241269 100.5300581  61.3554572  68.8917483 100.7378273
  62.5288488  69.8035488 101.0270523  72.2288738  65.0910012 102.1761314
  71.3205615  65.0225420 101.8820075  72.1776333  65.5681957 103.0043139
  66.3029603  66.5099657 110.1196211  65.5262937  67.0693578 110.1099076
  66.9420166  66.9956440 110.6411081  74.0950384  63.2926450 103.9539188
  73.4524764  63.5858983 103.3078982  73.5905312  63.1779371 104.7592384
  64.5575976  69.3185111 109.6814178  65.2990660  69.8570155 109.4049002
  63.8512961  69.9451400 109.8385730  70.0331315  71.4614251 108.2786339
  70.4414671  71.0196662 107.5340972  69.3108577  70.8866879 108.5320532
  66.3862385  66.3986858 105.6519896  67.2323580  66.8226272 105.7954545
  66.3261023  65.7420482 106.3458459  70.3560130  72.0215442 102.0338628
  69.7268992  72.1861156 101.3314696  69.9685792  72.4357052 102.8049592
  74.2349362  72.9569880  99.3882992  73.5500400  73.3368781  98.8380025
  74.3193211  73.5665206 100.1214940  69.5361831  64.0591226 107.3101070
  69.2922763  64.8133287 106.7735346  69.8121761  64.4376574 108.1448317
  71.4900293  70.6029839 105.9878336  71.7017189  71.2461599 105.3112717
  71.4430042  69.7692155 105.5200266  69.0926522  63.2147659 102.8914908
  68.2311001  63.5128913 103.1831645  69.1188957  63.4318058 101.9595940
  62.8012173  71.3061332 102.2368477  63.3713530  71.7348600 101.5985961
  63.3920285  71.0243916 102.9352662  63.2937339  66.4724759 110.4829488
  62.6636000  67.1541040 110.7164885  63.1873427  66.3607841 109.5382626
  58.5882312  66.1396555 101.4095412  57.7981366  66.3954084 100.9335523
  59.0793559  66.9544893 101.5147453  72.6046121  73.4801794 104.1600693
  73.4263565  73.0781982 103.8783375  72.6008524  73.3770028 105.1116809
  66.3702725  73.0285838 106.3161403  66.4347157  73.4906245 107.1519575
  65.6613649  72.3983202 106.4443713  56.8720015  66.3927046 103.8410403
  57.1228053  67.2774055 104.1067979  57.4079563  66.2131647 103.0685495
  80.6952114  69.8240543 100.5085664  79.9415823  69.2547941 100.3529669
  80.8299656  69.7903207 101.4556299  62.5718082  60.7745525 112.8454739
  62.1785028  60.2211723 113.5202383  63.3884222  61.0856103 113.2361256
  65.4886043  62.1903404 110.4374996  66.2295756  62.7910557 110.3579458
  65.7203966  61.4481042 109.8793038  60.6327381  67.3759771 108.7153225
  60.5180896  66.4745028 109.0160324  59.7771899  67.6223468 108.3638042
  67.7119219  75.3177512 110.3140726  67.2683073  74.5313890 109.9961630
  68.3736432  75.5056662 109.6484617  62.4706340  76.8473313 104.8401404
  63.0213765  76.7190376 104.0678398  61.6317816  77.1468202 104.4896297
  69.8100457  75.5980311 108.3422127  69.7918932  76.4189193 107.8502396
  70.7320377  75.4734387 108.5672268  66.2673511  73.1124441 109.1845635
  66.8001848  72.3512729 108.9544943  65.7387592  72.8198093 109.9269790
  69.4343206  58.2184507 104.7139277  69.0907475  59.1086149 104.6378388
  69.8022169  58.0286165 103.8508862  68.5139746  60.5889162 102.6788510
  68.0104542  60.5519297 101.8656316  68.8070353  61.4981905 102.7385167
  64.7582632  60.6727892 101.6854692  65.6235629  60.4770700 101.3260582
  64.8260141  60.4438244 102.6124049  74.3727763  70.9625473  95.1564886
  73.5957206  70.6236632  94.7120048  75.0519244  70.9678096  94.4819851
  72.6119070  70.4359454 101.8131494  71.9542744  71.1258715 101.9011622
  73.4159469  70.8255886 102.1565480  62.3644951  62.9030100  99.0571059
  62.9388703  62.6805281  98.3244252  62.9515934  62.9718794  99.8099660
  71.4224529  68.7903827  99.8635436  71.9356410  69.4233818 100.3657145
  72.0725752  68.1905022  99.4978796  64.6667619  59.7771349  97.7846128
  64.0132031  59.4620366  97.1602743  64.6248093  59.1547089  98.5105951
  67.9005359  66.2653282 102.1093776  66.9827921  66.4868229 101.9515464
  68.3165503  66.3399593 101.2505483  72.1886325  73.7709828  97.9914578
  71.7348652  72.9300738  98.0479769  71.5580291  74.4071226  98.3289358
  71.1319244  64.7001814  99.2215246  70.3942001  64.1879200  99.5525488
  71.3846018  64.2602196  98.4098522  70.6319264  75.6086325  98.9264396
  70.9242238  76.1691382  98.2076762  71.1417885  75.9014886  99.6817555
  71.2330872  57.4778066  99.8157015  71.5389748  56.6175430  99.5282930
  71.9583476  58.0695686  99.6156009  69.0418523  66.8550743 106.9138479
  69.3967911  67.0822217 107.7732944  69.6890654  67.1869120 106.2915734
  74.7716260  69.9769179  97.6187808  74.6334159  70.1670775  96.6908997
  74.4152479  70.7388562  98.0755859  62.9358386  63.9627274 103.6984820
  63.5757765  63.8216034 103.0007783  62.1035917  63.6761788 103.3223422
  74.7985640  72.0445706 102.6299079  75.2322146  71.9520995 103.4782133
  75.5117220  72.0203207 101.9919095  68.5313534  75.6447800 104.1632180
  68.5850557  76.2138737 104.9309896  67.6628316  75.8149685 103.7986217
  61.4111928  65.3465357 105.6456631  62.0834981  65.1382719 104.9969280
  60.5841714  65.1487443 105.2061863  75.6601189  72.0869407 105.1631965
  75.8537079  72.9915217 105.4091240  75.5601807  71.6276826 105.9970550
  67.3137500  61.9727298 107.6622292  66.6665415  62.6717247 107.5686768
  68.0838515  62.4063441 108.0298540  70.7216298  72.2376150 110.7372845
  70.5701804  72.0086701 109.8202929  70.7120977  73.1946751 110.7504190
  67.4901634  69.8108062 105.7219112  68.4193694  69.9619222 105.5488079
  67.0692664  69.8992083 104.8667758  66.2889966  73.8358727 103.4917649
  66.1501052  73.4677511 104.3643587  65.5004562  74.3506366 103.3201607
  67.8395181  73.2140330 100.8806487  67.5045014  73.1741099 101.7764137
  67.3399127  72.5485045 100.4076897  61.8139425  68.6207960 106.4059068
  61.6759223  67.8888198 107.0070607  62.7244349  68.5316860 106.1243256
  64.4421726  68.3327919 105.8942748  65.1521344  67.6921111 105.8529366
  64.3991034  68.5840814 106.8168929  72.4308504  75.2695272 108.8149327
  72.3721051  74.5854492 108.1479910  72.8328023  76.0114262 108.3629953
  63.1550660  65.3193137 107.7138387  62.6188017  64.8683875 108.3659984
  62.5667368  65.4539046 106.9708852  61.4499203  82.0857186 101.6083046
  61.6895801  82.7175710 102.2862065  60.6068400  81.7345226 101.8948405
  72.4325912  73.2334856 107.0463307  71.5452690  72.8960778 107.1689706
  73.0024463  72.5017887 107.2832072  58.8889781  64.4549144 104.7991382
  58.8047970  63.8474814 104.0641792  58.0672487  64.9458163 104.8000878
  65.9627065  77.8936309 104.0124550  65.8897237  78.6991280 104.5243855
  65.5204458  78.0928274 103.1872571  69.0613495  62.9402708 100.1661577
  69.5582194  62.1872670  99.8462647  68.2900476  62.9767025  99.6004786
  76.9143252  68.6443074 101.8079868  76.9033128  69.5267789 101.4373802
  76.0460632  68.2914624 101.6134405  68.4225749  77.7923143 106.1682709
  69.1353721  78.4270607 106.0958610  67.9315777  77.8887009 105.3522710
  70.1443276  71.6974395  97.7400000  69.2099554  71.8175858  97.5704705
  70.3219944  70.7946862  97.4760010  73.5315827  67.5391714  98.2750034
  73.9976279  68.3719706  98.2010337  73.9823327  67.0736696  98.9795293
  63.4737662  75.5417586 106.9888279  64.1747122  76.1754069 107.1417674
  63.0032777  75.8832318 106.2283919  71.5992058  73.8835536  95.2736187
  71.8751902  73.7692130  96.1830061  70.7296557  73.4853021  95.2348360
  71.5032490  59.9072301 102.3140936  70.5895569  60.1376528 102.4823143
  71.9325591  59.9910746 103.1654968  71.2738948  68.0962193 104.8140830
  70.6210398  68.3438101 104.1593283  71.6519328  67.2826332 104.4803307
  68.2346122  78.1321887  98.9169000  68.4168517  77.3143543  99.3796752
  69.0579108  78.3489579  98.4793890  68.5688288  77.0590072  96.1784049
  69.0976054  76.5482526  95.5654211  68.8316507  76.7432602  97.0429582
  67.3226521  68.8382005 111.3006867  66.6467158  68.7376134 111.9709242
  68.1454155  68.6821218 111.7642864  59.0705380  75.0753941 103.9219382
  59.6558817  74.3297629 104.0547286  58.8730219  75.3857898 104.8056046
  66.0649304  80.1448932 105.5364483  66.6167612  80.3080553 106.3013568
  66.4055497  80.7353370 104.8644508  61.0413797  62.4924082 106.1386368
  61.1055124  63.3538913 105.7263765  60.9780918  61.8798083 105.4058726
  60.5166070  64.5647214 109.7859402  61.1438109  64.1824292 110.3996926
  59.6593989  64.3461416 110.1515094  70.9160178  74.9710189 111.3913137
  71.4600082  75.5840148 110.8968092  70.3347023  75.5289768 111.9080150
  69.2017691  78.0930907 102.5228165  69.0768831  77.2920647 102.0139111
  69.8596782  78.5877101 102.0342135  60.8225860  64.4479640 101.7005305
  60.1012445  65.0615608 101.5612779  61.6119115  64.9837405 101.6221951
  71.2652600  75.8939928 104.1507715  70.3182935  75.7745279 104.0786042
  71.6135373  75.0062426 104.2333977  63.6252173  61.7834066 107.9745957
  64.1486575  62.0296363 108.7372266  63.4064506  62.6154101 107.5549094
  68.2699033  75.6892644 100.3512067  68.1223995  74.7609351 100.5319637
  69.0952527  75.7112734  99.8669143  71.8733155  76.5121203 101.4376940
  72.7979702  76.3064064 101.3001391  71.7048458  76.2637604 102.3466282
  64.8304718  62.7247762 105.6595628  64.4901538  61.9255575 106.0616307
  64.1243724  63.0249472 105.0872461  65.4821190  59.8097074 104.1122951
  66.3047259  59.3357552 103.9901841  65.7259253  60.5887558 104.6121637
  63.0059769  66.5016195 101.9214929  62.8604349  66.8156498 102.8139211
  62.5284972  67.1201095 101.3685828  64.8656152  63.4918743 101.9695819
  64.8517720  62.5959836 101.6328117  65.5828580  63.4989406 102.6034105
  66.7182282  63.9256083 104.0148946  66.4600060  64.8473153 104.0133277
  66.1867323  63.5286517 104.7049410  71.6628471  77.0306870  96.7939032
  71.8365349  76.4653292  96.0412884  72.1557362  77.8307765  96.6118522
  57.4805431  69.0421539 104.8602590  56.9358899  69.8181347 104.9922865
  58.3584781  69.3892344 104.7021712  67.1384238  60.0588033 100.3750109
  67.1605935  60.1227366  99.4202088  67.5552297  59.2192542 100.5690615
  77.5167862  69.7943293  98.4129331  77.9599008  69.0450618  98.0148455
  76.6394373  69.7853429  98.0303063  58.2671453  68.1691435 107.7532747
  57.5253189  68.3174071 108.3397378  57.9464197  68.4299701 106.8899497
  74.5495067  73.7973340  95.4223261  75.0746391  74.1360613  94.6972581
  74.4617419  72.8620355  95.2386395  66.2115115  77.7107414 107.5513137
  66.5202242  77.4656560 108.4235837  67.0090597  77.9154052 107.0632008
  66.2335727  79.8645323  99.7818514  65.7940718  79.3721702 100.4751371
  66.9843844  79.3218291  99.5410589  63.6809600  75.4083332 101.8540816
  63.0589609  74.7454037 101.5543043  64.3514466  75.4344464 101.1714463
  63.7534127  63.8865120 111.4473322  63.8022283  64.7627243 111.0651091
  64.2956641  63.3442513 110.8744965  74.2388973  74.4306244 110.7274459
  73.4484516  74.4130382 110.1878958  74.0022327  74.9694537 111.4823495
  74.3586848  71.2798710 108.0407187  74.4084853  71.1148717 108.9822710
  74.2500771  70.4125969 107.6505068  71.6490610  67.2629638 109.3566494
  72.5500473  67.1236103 109.0650492  71.7238585  67.4284093 110.2964671
  65.9833415  64.6396493 108.2019680  65.1136725  64.9330059 107.9302269
  66.2192896  65.2236938 108.9226944  75.8605045  73.6995651 108.2849209
  75.5689853  74.0625632 109.1212670  75.2477176  72.9862660 108.1062541
  77.0600727  71.2648531 100.8051779  77.8947618  71.7038335 100.9689339
  77.1959856  70.7887184  99.9860025  74.1092233  68.8228266 106.7529267
  74.5846354  69.0155912 105.9448118  73.1857798  68.8787452 106.5072650
  68.6872449  60.8576110 105.7185101  69.2054393  61.5937137 105.3931589
  68.3327582  61.1640103 106.5531860  68.9385043  57.2776392 101.2385997
  69.2186797  56.6099581 101.8646424  69.7235650  57.4705488 100.7260661
  72.8093902  65.6994026 104.9857572  73.7611325  65.7992124 105.0069796
  72.6397352  64.9072295 105.4955657  70.8308281  62.7849609 105.1716973
  70.2358213  63.0654622 104.4763462  70.5457978  63.2743510 105.9433714
  69.9615772  76.7372536  93.9319606  70.8946445  76.6718098  94.1352481
  69.8738985  77.5728803  93.4734138  75.2881980  68.9200146 104.0999872
  75.2558300  67.9816147 104.2859556  75.8982603  68.9984183 103.3665697
  75.4376468  65.7111189 104.1458155  74.9215517  64.9269646 103.9588084
  76.3216417  65.3829906 104.3104675  73.0987195  59.4552205 100.1053968
  72.9012016  59.1467293 100.9897300  73.7086901  60.1813844 100.2351898
  81.1058529  69.9816153 103.2405909  81.8361918  69.7201441 103.8013612
  80.4965475  69.2444875 103.2807977  79.1873827  68.1224015 103.8380360
  78.4606990  67.9879980 103.2296852  78.7721113  68.4300844 104.6437078
  67.0104003  71.8413945 111.6027733  67.9307012  72.0192544 111.7967779
  66.9753586  70.8969990 111.4507432  60.0066076  69.7514980 104.2450514
  60.2252085  70.6832087 104.2638548  60.4191849  69.3922954 105.0305318
  66.9270293  60.2583065  96.2326202  66.1171022  59.9130150  96.6081449
  67.6154710  59.9490609  96.8213814  68.8560842  59.3361112  97.8550499
  69.4091880  59.7556565  98.5140522  69.0930928  58.4096860  97.8973455
  64.8793941  65.3248185 113.6353263  64.7790668  66.2742542 113.5665354
  64.6615483  64.9966424 112.7629333  72.2339649  61.4461637  97.3629163
  71.6538318  62.1046441  96.9807216  71.9675581  60.6238981  96.9516581
  70.6843215  60.8466695  99.5650484  71.1842993  60.9583229  98.7564803
  71.3278823  60.5427747 100.2051292  64.7425211  68.7545324 112.4518325
  64.2592293  69.5545684 112.6582214  64.8286150  68.7653269 111.4985769
  60.6698548  72.6449859 104.4886758  61.6241802  72.6133801 104.4216690
  60.4711072  72.1840483 105.3036984  61.2597931  71.2150975 107.0557556
  62.0790820  71.7095054 107.0792393  61.5334738  70.2982943 107.0275124
  71.0164527  63.6061727  96.4185512  70.1290382  63.8911378  96.2005706
  71.4318516  63.4455491  95.5712789  74.3679063  63.6308248 100.1339851
  75.1439453  64.1204701 100.4064468  73.6427197  64.0566302 100.5911720
  76.8051622  64.3435867 101.1913792  77.3996112  64.1031603 100.4807100
  76.8778205  63.6242998 101.8187328  59.0248777  78.1869478 101.5056956
  58.8903245  77.4269879 100.9394954  58.6080839  78.9110378 101.0385745
  74.8010356  64.9105995  97.4585921  74.5447291  64.5102631  98.2894129
  74.1763224  65.6249789  97.3336060  79.1122694  67.6502068  99.9657213
  78.5522252  67.7195258 100.7388775  78.5066198  67.4743053  99.2456709
  62.1817903  79.0838795 101.7175399  62.0650287  80.0284228 101.6154089
  61.3610349  78.7812357 102.1061198  56.5132845  65.5489109 107.7549753
  57.1591708  65.0388063 108.2436978  56.3049996  66.2857790 108.3293178
  69.0386237  72.6169956 113.2541894  69.9077397  72.7910609 112.8928529
  68.5592988  73.4364373 113.1317623  65.0336455  59.8129153  93.5073649
  65.0215125  60.7570993  93.6641920  65.9259877  59.6299299  93.2133111
  63.2072417  79.7367057 104.9331327  64.1099664  79.7690668 105.2497822
  62.9809787  78.8067508 104.9477663  64.9626019  78.4898044 101.5941406
  64.0121650  78.4899905 101.4805778  65.2658505  77.7430778 101.0777441
  68.8488575  56.4071930  97.7619586  68.0820971  55.8530417  97.9076269
  69.2599280  56.4793799  98.6233738  60.8530336  62.6956726 111.8524767
  61.7161797  62.3393531 112.0628092  60.2795746  62.3570621 112.5400172
  80.6978713  84.3258582 102.6587168  81.3357123  84.2065330 101.9550508
  80.5799556  85.2739426 102.7175121  77.5068419  84.2786010 102.5948693
  77.1686931  84.1627075 101.7069228  78.3758187  83.8777175 102.5749699
  73.3655235  86.1321487  98.5845584  72.8020100  86.0411424  97.8161872
  73.2507630  85.3121391  99.0648077  77.9888202  85.4320862 108.5534899
  77.9776843  85.0373660 107.6815402  78.1508841  84.6986935 109.1468670
  70.9119667  87.6272678 101.4229805  71.7040959  87.2863503 101.0076104
  71.1516317  87.7367653 102.3431958  78.9454793  89.7992454  93.8960049
  78.2942773  90.3846535  93.5094063  79.7399156  90.3298649  93.9555086
  72.8710421  86.8881592  94.2947183  73.6441297  86.3410579  94.1560059
  73.2235819  87.7525841  94.5061645  74.7095463  88.2157974 107.5014083
  74.4185329  89.1203605 107.3860749  75.3452447  88.2574501 108.2158152
  75.6351670  85.5934822 104.0915442  76.2315242  85.3690845 103.3772405
  75.6926642  84.8519568 104.6940890  75.2076698  83.0474258  91.9265633
  75.4602219  82.5255779  91.1649096  74.2701257  82.8840403  92.0292317
  80.2519981  82.0510036  99.7340376  81.0383070  81.6329459  99.3830793
  80.5158686  82.9556128  99.9022025  80.4230059  87.4882886  94.4329033
  79.7875892  87.5617513  95.1449938  80.0927465  88.0776485  93.7548113
  85.6528408  81.9885269 100.6373355  86.3853580  81.4184486 100.8711184
  84.8967764  81.6006870 101.0779861  74.9272987  84.9502364  94.1290008
  74.8109245  84.2747267  94.7971093  75.0375247  84.4634738  93.3122161
  77.2704528  84.4112511  97.8336697  76.9062735  83.8843132  98.5449619
  78.1271644  84.0210980  97.6603183  83.1753829  75.7006843 105.0967964
  82.8437153  76.5702254 104.8729179  82.5799442  75.3843127 105.7761994
  76.9110015  79.4402410  92.8298046  77.0784417  80.3082647  93.1968517
  76.7207184  79.6029692  91.9059335  79.6685348  87.9019389 104.4963876
  79.3686071  88.8044428 104.3879684  79.3236408  87.6351573 105.3485029
  73.1197830  84.3533186 100.5300581  72.1948326  84.2209400 100.7378273
  73.3682243  85.1327405 101.0270523  83.0682492  80.4201930 102.1761314
  82.1599369  80.3517338 101.8820075  83.0170088  80.8973875 103.0043139
  76.8899236  81.8960068  93.8144713  76.7698861  82.3417119  94.6530193
  76.1951824  82.2445386  93.2558251  70.4806641  83.9966460 101.3644370
  70.6099022  84.2500939 102.2783782  69.8004092  84.5894168 101.0449025
  74.6506128  94.6663710  97.4634844  74.5730158  95.6171535  97.5423325
  74.0467772  94.3209582  98.1209770  77.1423358  81.8391575 110.1196211
  76.3656692  82.3985495 110.1099076  77.7813921  82.3248358 110.6411081
  84.9344138  78.6218368 103.9539188  84.2918519  78.9150901 103.3078982
  84.4299067  78.5071288 104.7592384  82.5884302  82.3681541  94.6425047
  83.5002158  82.6008928  94.4672744  82.0793949  82.9518585  94.0800125
  75.3969730  84.6477029 109.6814178  76.1384414  85.1862072 109.4049002
  74.6906716  85.2743317 109.8385730  80.8725070  86.7906169 108.2786339
  81.2808426  86.3488580 107.5340972  80.1502331  86.2158797 108.5320532
  77.2256140  81.7278776 105.6519896  78.0717335  82.1518189 105.7954545
  77.1654777  81.0712400 106.3458459  81.1953884  87.3507360 102.0338628
  80.5662747  87.5153074 101.3314696  80.8079546  87.7648969 102.8049592
  85.0743116  88.2861797  99.3882992  84.3894154  88.6660699  98.8380025
  85.1586966  88.8957124 100.1214940  80.3755585  79.3883144 107.3101070
  80.1316517  80.1425205 106.7735346  80.6515516  79.7668492 108.1448317
  82.3294048  85.9321756 105.9878336  82.5410943  86.5753516 105.3112717
  82.2823796  85.0984073 105.5200266  79.9320277  78.5439577 102.8914908
  79.0704756  78.8420831 103.1831645  79.9582712  78.7609976 101.9595940
  76.7481846  87.0881768  99.2988713  77.2120192  87.3669471  98.5093336
  76.4838644  86.1865212  99.1161804  73.6405927  86.6353249 102.2368477
  74.2107284  87.0640518 101.5985961  74.2314039  86.3535834 102.9352662
  75.6850732  83.2104920  96.1078279  76.3874776  83.6625964  96.5752205
  75.3531361  82.5688739  96.7358172  74.1331094  81.8016677 110.4829488
  73.5029754  82.4832958 110.7164885  74.0267182  81.6899758 109.5382626
  69.4276066  81.4688473 101.4095412  68.6375120  81.7246001 100.9335523
  69.9187314  82.2836811 101.5147453  83.4439876  88.8093712 104.1600693
  84.2657320  88.4073899 103.8783375  83.4402279  88.7061946 105.1116809
  71.3790812  81.8333052  98.3678889  70.5821975  81.9451746  98.8862384
  71.1516404  82.1719704  97.5019779  77.2096479  88.3577755 106.3161403
  77.2740912  88.8198162 107.1519575  76.5007403  87.7275120 106.4443713
  67.7113769  81.7218963 103.8410403  67.9621808  82.6065973 104.1067979
  68.2473318  81.5423565 103.0685495  91.5345869  85.1532460 100.5085664
  90.7809577  84.5839858 100.3529669  91.6693410  85.1195125 101.4556299
  76.9244497  90.0245863  96.1840384  76.7890172  90.8697398  96.6125232
  77.4654309  90.2265140  95.4206318  73.4111837  76.1037443 112.8454739
  73.0178782  75.5503641 113.5202383  74.2277977  76.4148021 113.2361256
  70.3773894  87.5421301  96.7568309  70.8898415  88.3364551  96.9073874
  71.0296607  86.8447591  96.6901910  72.1868779  90.6587057  98.8391062
  72.3635407  91.5805022  98.6512046  72.9825613  90.3445476  99.2685442
  76.3279798  77.5195322 110.4374996  77.0689511  78.1202475 110.3579458
  76.5597720  76.7772959 109.8793038  71.4721136  82.7051689 108.7153225
  71.3574651  81.8036946 109.0160324  70.6165653  82.9515386 108.3638042
  78.5512973  90.6469429 110.3140726  78.1076828  89.8605808 109.9961630
  79.2130187  90.8348580 109.6484617  73.3100094  92.1765231 104.8401404
  73.8607520  92.0482294 104.0678398  72.4711570  92.4760120 104.4896297
  80.6494211  90.9272229 108.3422127  80.6312687  91.7481110 107.8502396
  81.5714131  90.8026304 108.5672268  77.1067266  88.4416359 109.1845635
  77.6395602  87.6804647 108.9544943  76.5781347  88.1490010 109.9269790
  80.2736961  73.5476425 104.7139277  79.9301230  74.4378066 104.6378388
  80.6415923  73.3578082 103.8508862  68.3422811  85.8709955  97.5327879
  69.1798033  86.2806963  97.3161587  68.5201079  84.9309397  97.5028073
  80.2387243  83.5385036  93.2211712  79.7233867  84.3089640  93.4600100
  79.9664552  82.8650172  93.8444774  77.8234354  78.3834736  98.2796951
  76.9675951  77.9941587  98.1002589  78.2361306  78.4626697  97.4196736
  79.3533501  75.9181080 102.6788510  78.8498296  75.8811215 101.8656316
  79.6464108  76.8273822 102.7385167  75.5976387  76.0019809 101.6854692
  76.4629384  75.8062618 101.3260582  75.6653896  75.7730161 102.6124049
  85.2121517  86.2917390  95.1564886  84.4350960  85.9528550  94.7120048
  85.8912998  86.2970014  94.4819851  80.0273546  81.4112128  95.0471493
  79.7223682  81.7258277  95.8981637  80.9803989  81.4893548  95.0898826
  78.4719978  87.5702351  96.6964447  77.9441340  86.8355111  96.3837685
  77.9707481  88.3477027  96.4504416  83.4512824  85.7651372 101.8131494
  82.7936499  86.4550633 101.9011622  84.2553223  86.1547804 102.1565480
  73.2038706  78.2322017  99.0571059  73.7782458  78.0097199  98.3244252
  73.7909688  78.3010712  99.8099660  82.2618283  84.1195744  99.8635436
  82.7750165  84.7525736 100.3657145  82.9119507  83.5196940  99.4978796
  73.5308293  80.2626478  93.0766944  72.6945605  80.6001165  93.3976219
  73.3913063  80.1275458  92.1394081  75.5061374  75.1063266  97.7846128
  74.8525786  74.7912283  97.1602743  75.4641848  74.4839007  98.5105951
  76.6172578  85.3882561  89.6999420  75.7099640  85.1571815  89.8990569
  77.1143610  84.5920181  89.8873402  79.5240657  94.0980069  92.6196107
  78.8502356  94.4011765  93.2281064  79.9106479  94.9009149  92.2701564
  78.7399114  81.5945200 102.1093776  77.8221675  81.8160147 101.9515464
  79.1559258  81.6691510 101.2505483  79.5234162  82.9936616  97.2396456
  80.2705981  83.5058013  96.9303578  79.7925751  82.6720668  98.1000850
  77.7960812  85.4895156  94.2223411  76.8872031  85.2054189  94.3195880
  77.8255896  85.9094235  93.3626717  83.0280079  89.1001746  97.9914578
  82.5742406  88.2592656  98.0479769  82.3974046  89.7363144  98.3289358
  81.9712999  80.0293732  99.2215246  81.2335756  79.5171118  99.5525488
  82.2239772  79.5894113  98.4098522  81.4713019  90.9378242  98.9264396
  81.7635993  91.4983300  98.2076762  81.9811639  91.2306803  99.6817555
  82.0724626  72.8069984  99.8157015  82.3783503  71.9467347  99.5282930
  82.7977231  73.3987604  99.6156009  68.3648982  83.2100670  98.2038613
  68.1673382  82.6170031  97.4789679  67.8095646  82.9052881  98.9214552
  76.3445706  83.1023777 100.3233206  76.3994316  82.1497613 100.2475683
  75.5336908  83.2583216 100.8074504  77.4936900  87.0303900  91.5611489
  77.0556330  86.3139759  91.1017127  78.2347341  87.2580015  90.9996581
  74.2838066  81.7200837  98.0823585  73.4705931  82.0195007  98.4888777
  74.7797060  81.3256525  98.7998067  76.4346644  91.7158594 100.0157849
  76.3922823  91.9419440  99.0866382  77.3509343  91.4821968 100.1643651
  79.8812278  82.1842661 106.9138479  80.2361665  82.4114134 107.7732944
  80.5284409  82.5161038 106.2915734  85.6110014  85.3061097  97.6187808
  85.4727913  85.4962693  96.6908997  85.2546233  86.0680480  98.0755859
  73.7752141  79.2919192 103.6984820  74.4151520  79.1507951 103.0007783
  72.9429671  79.0053705 103.3223422  85.6379394  87.3737624 102.6299079
  86.0715901  87.2812913 103.4782133  86.3510975  87.3495124 101.9919095
  74.5512444  88.5921623  99.8119812  75.3453043  88.0971943  99.6102387
  73.8404137  88.0639486  99.4487518  79.3707289  90.9739718 104.1632180
  79.4244311  91.5430654 104.9309896  78.5022070  91.1441603 103.7986217
  70.8595208  82.7364704  95.8879565  69.9292796  82.6749160  96.1049527
  70.9552680  82.2140657  95.0916206  70.7780757  79.2619517  98.4757807
  71.0387574  80.1764850  98.3666967  71.5997929  78.7943960  98.6254419
  72.2505682  80.6757274 105.6456631  72.9228736  80.4674636 104.9969280
  71.4235469  80.4779360 105.2061863  86.4994944  87.4161325 105.1631965
  86.6930834  88.3207135 105.4091240  86.3995562  86.9568744 105.9970550
  78.1531254  77.3019215 107.6622292  77.5059169  78.0009165 107.5686768
  78.9232270  77.7355359 108.0298540  81.5610052  87.5668067 110.7372845
  81.4095559  87.3378619 109.8202929  81.5514732  88.5238669 110.7504190
  78.3295389  85.1399980 105.7219112  79.2587449  85.2911140 105.5488079
  77.9086419  85.2284001 104.8667758  77.1283720  89.1650645 103.4917649
  76.9894806  88.7969429 104.3643587  76.3398317  89.6798284 103.3201607
  77.7231872  94.2659741  94.8343186  77.8983628  93.7947784  95.6488809
  77.0364660  94.8925507  95.0624447  78.6788936  88.5432247 100.8806487
  78.3438768  88.5033017 101.7764137  78.1792881  87.8776963 100.4076897
  72.6533180  83.9499877 106.4059068  72.5152978  83.2180116 107.0070607
  73.5638103  83.8608777 106.1243256  81.6148127  85.8888282  91.1543547
  80.9977298  85.1635110  91.0576599  81.1464616  86.6497642  90.8110621
  75.2815480  83.6619837 105.8942748  75.9915099  83.0213029 105.8529366
  75.2384788  83.9132731 106.8168929  83.2702259  90.5987190 108.8149327
  83.2114805  89.9146410 108.1479910  83.6721777  91.3406180 108.3629953
  73.9944414  80.6485054 107.7138387  73.4581771  80.1975793 108.3659984
  73.4061123  80.7830963 106.9708852  72.2892958  97.4149104 101.6083046
  72.5289556  98.0467628 102.2862065  71.4462154  97.0637144 101.8948405
  73.4046673  80.1073706  90.2764851  72.5276140  79.9862507  89.9127098
  73.8804426  79.3159784  90.0243740  83.2719666  88.5626774 107.0463307
  82.3846445  88.2252696 107.1689706  83.8418217  87.8309805 107.2832072
  64.9248813  84.8950866 100.3706358  65.6119853  84.5812596  99.7827373
  64.7696942  85.7992230 100.0973610  69.7283535  79.7841062 104.7991382
  69.6441724  79.1766732 104.0641792  68.9066242  80.2750080 104.8000878
  76.8020820  93.2228226 104.0124550  76.7290991  94.0283198 104.5243855
  76.3598213  93.4220192 103.1872571  76.5910599  92.4599996  97.5227372
  75.8078121  93.0021676  97.6165596  77.2903344  92.9773976  97.9221613
  79.9007249  78.2694626 100.1661577  80.3975949  77.5164588  99.8462647
  79.1294231  78.3058942  99.6004786  87.7537007  83.9734991 101.8079868
  87.7426883  84.8559707 101.4373802  86.8854386  83.6206542 101.6134405
  79.2619503  93.1215060 106.1682709  79.9747475  93.7562525 106.0958610
  78.7709532  93.2178926 105.3522710  80.9837030  87.0266313  97.7400000
  80.0493309  87.1467775  97.5704705  81.1613698  86.1238780  97.4760010
  76.4842218  80.4112009  99.8933262  76.1140006  79.8583049 100.5814167
  76.9801311  79.8070142  99.3408262  84.3709581  82.8683632  98.2750034
  84.8370034  83.7011624  98.2010337  84.8217082  82.4028614  98.9795293
  74.3131417  90.8709504 106.9888279  75.0140876  91.5045987 107.1417674
  73.8426532  91.2124235 106.2283919  82.4385812  89.2127453  95.2736187
  82.7145656  89.0984048  96.1830061  81.5690311  88.8144938  95.2348360
  82.3426244  75.2364219 102.3140936  81.4289324  75.4668446 102.4823143
  82.7719346  75.3202663 103.1654968  82.1132703  83.4254111 104.8140830
  81.4604153  83.6730019 104.1593283  82.4913083  82.6118249 104.4803307
  79.0739877  93.4613804  98.9169000  79.2562271  92.6435460  99.3796752
  79.8972863  93.6781497  98.4793890  79.4082042  92.3881989  96.1784049
  79.9369808  91.8774444  95.5654211  79.6710262  92.0724520  97.0429582
  78.1620276  84.1673922 111.3006867  77.4860913  84.0668052 111.9709242
  78.9847910  84.0113136 111.7642864  69.9099135  90.4045859 103.9219382
  70.4952572  89.6589547 104.0547286  69.7123973  90.7149815 104.8056046
  72.7637790  93.4397106  98.9381825  72.0948165  93.9243234  98.4545865
  72.6250660  93.6866327  99.8525203  64.5016789  82.9751459 102.6423825
  64.5400889  82.4415050 103.4360943  63.9957082  82.4486664 102.0234802
  76.9043059  95.4740850 105.5364483  77.4561367  95.6372471 106.3013568
  77.2449252  96.0645287 104.8644508  71.8807552  77.8215999 106.1386368
  71.9448878  78.6830830 105.7263765  71.8174672  77.2090001 105.4058726
  71.3559824  79.8939132 109.7859402  71.9831863  79.5116209 110.3996926
  70.4987743  79.6753334 110.1515094  68.1325367  81.7015561  95.7177757
  68.4278808  80.7926240  95.6644810  67.2313403  81.6803301  95.3958759
  80.0411446  93.4222825 102.5228165  79.9162585  92.6212565 102.0139111
  80.6990537  93.9169019 102.0342135  71.6619614  79.7771558 101.7005305
  70.9406200  80.3907525 101.5612779  72.4512870  80.3129322 101.6221951
  82.1046354  91.2231845 104.1507715  81.1576690  91.1037196 104.0786042
  82.4529127  90.3354343 104.2333977  74.4645928  77.1125984 107.9745957
  74.9880329  77.3588281 108.7372266  74.2458261  77.9446019 107.5549094
  69.8613209  79.3829659  95.8417082  69.5325915  78.5027038  95.6592188
  70.2152579  79.3277327  96.7293471  79.1092787  91.0184561 100.3512067
  78.9617750  90.0901269 100.5319637  79.9346281  91.0404652  99.8669143
  72.9755032  79.6702629  96.2092560  73.3151104  80.1988550  95.4871168
  73.4227152  80.0083035  96.9851126  82.7126909  91.8413120 101.4376940
  83.6373457  91.6355982 101.3001391  82.5442213  91.5929521 102.3466282
  75.6698473  78.0539679 105.6595628  75.3295293  77.2547492 106.0616307
  74.9637479  78.3541390 105.0872461  76.3214944  75.1388992 104.1122951
  77.1441014  74.6649470 103.9901841  76.5653008  75.9179475 104.6121637
  74.9623179  78.1677250  94.4085852  75.6831541  78.5458503  93.9049569
  74.3388483  78.8866127  94.5120830  79.1054302  78.8722399  95.3444185
  79.3217916  79.7547037  95.0433013  78.6248369  78.4808613  94.6149827
  73.8453523  81.8308112 101.9214929  73.6998104  82.1448415 102.8139211
  73.3678727  82.4493013 101.3685828  75.7049906  78.8210660 101.9695819
  75.6911475  77.9251754 101.6328117  76.4222334  78.8281324 102.6034105
  77.5576037  79.2548001 104.0148946  77.2993815  80.1765071 104.0133277
  77.0261077  78.8578435 104.7049410  82.5022226  92.3598788  96.7939032
  82.6759103  91.7945210  96.0412884  82.9951117  93.1599683  96.6118522
  68.3199185  84.3713457 104.8602590  67.7752653  85.1473265 104.9922865
  69.1978535  84.7184261 104.7021712  75.1086802  77.7025041  97.2383389
  75.2302713  76.7741687  97.4374276  74.8188844  77.7163727  96.3261704
  77.9777992  75.3879951 100.3750109  77.9999689  75.4519284  99.4202088
  78.3946051  74.5484460 100.5690615  88.3561617  85.1235211  98.4129331
  88.7992763  84.3742536  98.0148455  87.4788127  85.1145347  98.0303063
  83.4897398  91.6765552  93.8935930  84.1848303  92.2972245  94.1123245
  83.8320548  90.8260903  94.1688308  69.1065207  83.4983353 107.7532747
  68.3646943  83.6465988 108.3397378  68.7857951  83.7591619 106.8899497
  85.3888821  89.1265258  95.4223261  85.9140145  89.4652530  94.6972581
  85.3011174  88.1912273  95.2386395  77.0508870  93.0399331 107.5513137
  77.3595996  92.7948478 108.4235837  77.8484352  93.2445970 107.0632008
  77.0729482  95.1937241  99.7818514  76.6334472  94.7013620 100.4751371
  77.8237599  94.6510209  99.5410589  69.5521821  91.3848782  99.7843142
  70.3779841  91.0852554  99.4041785  69.2015873  90.6156404 100.2332931
  74.5203354  90.7375250 101.8540816  73.8983363  90.0745955 101.5543043
  75.1908221  90.7636382 101.1714463  67.7530426  89.3035108 100.7432075
  66.9162334  88.8757283 100.5616077  67.7254071  89.4967552 101.6802867
  74.5927882  79.2157038 111.4473322  74.6416037  80.0919161 111.0651091
  75.1350396  78.6734431 110.8744965  85.1980602  86.6090628 108.0407187
  85.2478607  86.4440635 108.9822710  85.0894526  85.7417887 107.6505068
  74.0816861  89.2879173  95.3299276  74.2304981  89.9714638  94.6765949
  74.8883304  89.2684263  95.8448732  82.4884365  82.5921556 109.3566494
  83.3894227  82.4528020 109.0650492  82.5632339  82.7576010 110.2964671
  76.8227170  79.9688410 108.2019680  75.9530479  80.2621976 107.9302269
  77.0586650  80.5528855 108.9226944  86.6998799  89.0287569 108.2849209
  86.4083607  89.3917550 109.1212670  86.0870930  88.3154577 108.1062541
  87.8994481  86.5940449 100.8051779  88.7341373  87.0330253 100.9689339
  88.0353610  86.1179102  99.9860025  84.9485987  84.1520184 106.7529267
  85.4240109  84.3447830 105.9448118  84.0251553  84.2079370 106.5072650
  71.8369494  85.3144351  96.3360345  71.5915536  84.4106681  96.5340555
  72.0065408  85.3161501  95.3939823  79.5266204  76.1868027 105.7185101
  80.0448148  76.9229054 105.3931589  79.1721337  76.4932021 106.5531860
  71.1065141  81.0472709  93.8346506  70.4134386  81.1217063  93.1786542
  70.8616893  80.2833052  94.3568023  79.7778798  72.6068310 101.2385997
  80.0580552  71.9391499 101.8646424  80.5629405  72.7997405 100.7260661
  77.5812266  91.7827304  92.8011023  77.0086234  92.4017491  92.3481495
  78.1545060  92.3326665  93.3350945  83.6487656  81.0285944 104.9857572
  84.6005079  81.1284041 105.0069796  83.4791107  80.2364212 105.4955657
  81.6702036  78.1141527 105.1716973  81.0751968  78.3946540 104.4763462
  81.3851733  78.6035428 105.9433714  80.8009526  92.0664454  93.9319606
  81.7340199  92.0010016  94.1352481  80.7132739  92.9020721  93.4734138
  83.4297543  91.3830324  90.8923553  83.3511174  91.0490188  91.7859311
  84.2507210  91.8752092  90.8915026  86.1275734  84.2492064 104.0999872
  86.0952054  83.3108064 104.2859556  86.7376358  84.3276100 103.3665697
  77.9659065  83.1188116  90.1427076  78.9118170  82.9894325  90.2115494
  77.5873310  82.3802778  90.6196504  86.2770223  81.0403107 104.1458155
  85.7609271  80.2561564 103.9588084  87.1610171  80.7121824 104.3104675
  83.9380950  74.7844123 100.1053968  83.7405771  74.4759211 100.9897300
  84.5480655  75.5105761 100.2351898  91.9452284  85.3108070 103.2405909
  92.6755672  85.0493358 103.8013612  91.3359229  84.5736792 103.2807977
  90.0267581  83.4515933 103.8380360  89.3000745  83.3171898 103.2296852
  89.6114868  83.7592762 104.6437078  77.8497758  87.1705863 111.6027733
  78.7700767  87.3484462 111.7967779  77.8147341  86.2261908 111.4507432
  76.1501982  81.0438093  90.0781961  75.2433438  80.7471206  90.1544675
  76.4277963  80.7467911  89.2116247  67.0679923  82.3644456 100.5281008
  66.7482707  81.5109764 100.2355382  66.5213351  82.5793034 101.2838975
  70.8459830  85.0806897 104.2450514  71.0645840  86.0124005 104.2638548
  71.2585604  84.7214872 105.0305318  77.7664048  75.5874983  96.2326202
  76.9564776  75.2422068  96.6081449  78.4548465  75.2782526  96.8213814
  79.6954596  74.6653029  97.8550499  80.2485635  75.0848483  98.5140522
  79.9324683  73.7388778  97.8973455  75.7187695  80.6540103 113.6353263
  75.6184422  81.6034460 113.5665354  75.5009237  80.3258342 112.7629333
  66.9368183  85.9847368 102.4974129  66.2431654  85.5701321 101.9844084
  67.6841174  86.0267904 101.9007548  83.0733403  76.7753555  97.3629163
  82.4932072  77.4338359  96.9807216  82.8069336  75.9530899  96.9516581
  81.5236970  76.1758612  99.5650484  82.0236748  76.2875147  98.7564803
  82.1672578  75.8719665 100.2051292  75.5818965  84.0837242 112.4518325
  75.0986047  84.8837602 112.6582214  75.6679904  84.0945187 111.4985769
  68.8504925  85.9165622 100.3740144  68.8275613  86.0153309  99.4222027
  69.1605562  86.7630772 100.6957310  71.5092303  87.9741777 104.4886758
  72.4635556  87.9425719 104.4216690  71.3104827  87.5132400 105.3036984
  72.0991685  86.5442893 107.0557556  72.9184574  87.0386971 107.0792393
  72.3728493  85.6274861 107.0275124  81.8558281  78.9353645  96.4185512
  80.9684136  79.2203296  96.2005706  82.2712270  78.7747408  95.5712789
  85.2072817  78.9600166 100.1339851  85.9833208  79.4496618 100.4064468
  84.4820952  79.3858220 100.5911720  87.6445376  79.6727785 101.1913792
  88.2389867  79.4323521 100.4807100  87.7171960  78.9534916 101.8187328
  69.8642532  93.5161396 101.5056956  69.7297000  92.7561797 100.9394954
  69.4474594  94.2402296 101.0385745  81.0001495  88.6998320  90.5133532
  81.7037345  88.9048322  91.1291187  80.2764143  89.2675082  90.7782615
  81.8299305  84.4508181  96.6335802  81.7734506  84.9076732  95.7943434
  82.3827647  83.6898865  96.4558645  85.6404111  80.2397913  97.4585921
  85.3841045  79.8394548  98.2894129  85.0156979  80.9541707  97.3336060
  89.9516449  82.9793986  99.9657213  89.3916007  83.0487175 100.7388775
  89.3459952  82.8034971  99.2456709  73.0211658  94.4130713 101.7175399
  72.9044042  95.3576146 101.6154089  72.2004104  94.1104275 102.1061198
  82.9088192  89.1380849  92.5631992  83.7433796  88.7062047  92.3809466
  82.7472535  88.9662863  93.4908886  82.5634084  85.6412962  93.9288331
  82.5082888  85.4757234  92.9876775  81.9380140  86.3488995  94.0850521
  67.3526599  80.8781027 107.7549753  67.9985463  80.3679980 108.2436978
  67.1443750  81.6149708 108.3293178  75.8730210  75.1421071  93.5073649
  75.8608880  76.0862911  93.6641920  76.7653632  74.9591217  93.2133111
  74.0466172  95.0658975 104.9331327  74.9493418  95.0982585 105.2497822
  73.8203542  94.1359426 104.9477663  75.8019774  93.8189962 101.5941406
  74.8515405  93.8191823 101.4805778  76.1052260  93.0722696 101.0777441
  79.6882329  71.7363848  97.7619586  78.9214725  71.1822334  97.9076269
  80.0993034  71.8085717  98.6233738  71.6924090  78.0248644 111.8524767
  72.5555552  77.6685448 112.0628092  71.1189501  77.6862538 112.5400172
  88.3462174  99.6077928 102.5948693  88.0080685  99.4918993 101.7069228
  89.2151942  99.2069093 102.5749699  84.2048989 101.4613404  98.5845584
  83.6413854 101.3703341  97.8161872  84.0901384 100.6413309  99.0648077
  81.7513421 102.9564596 101.4229805  82.5434713 102.6155421 101.0076104
  81.9910071 103.0659571 102.3431958  89.7848548 105.1284372  93.8960049
  89.1336528 105.7138453  93.5094063  90.5792911 105.6590567  93.9555086
  83.7104175 102.2173509  94.2947183  84.4835051 101.6702496  94.1560059
  84.0629574 103.0817759  94.5061645  86.0470453  98.3766175  91.9265633
  86.2995974  97.8547697  91.1649096  85.1095012  98.2132321  92.0292317
  91.0913736  97.3801954  99.7340376  91.8776825  96.9621377  99.3830793
  91.3552440  98.2848046  99.9022025  91.2623813 102.8174804  94.4329033
  90.6269646 102.8909431  95.1449938  90.9321219 103.4068403  93.7548113
  96.4922163  97.3177187 100.6373355  97.2247335  96.7476404 100.8711184
  95.7361519  96.9298787 101.0779861  85.7666742 100.2794281  94.1290008
  85.6503000  99.6039185  94.7971093  85.8769002  99.7926655  93.3122161
  88.1098283  99.7404428  97.8336697  87.7456490  99.2135049  98.5449619
  88.9665398  99.3502898  97.6603183  94.0147583  91.0298761 105.0967964
  93.6830908  91.8994172 104.8729179  93.4193197  90.7135045 105.7761994
  87.7503770  94.7694328  92.8298046  87.9178172  95.6374565  93.1968517
  87.5600939  94.9321610  91.9059335  83.9591584  99.6825104 100.5300581
  83.0342081  99.5501318 100.7378273  84.2075997 100.4619323 101.0270523
  87.7292990  97.2251986  93.8144713  87.6092616  97.6709036  94.6530193
  87.0345579  97.5737303  93.2558251  81.3200395  99.3258377 101.3644370
  81.4492776  99.5792856 102.2783782  80.6397847  99.9186085 101.0449025
  85.4899883 109.9955627  97.4634844  85.4123912 110.9463453  97.5423325
  84.8861526 109.6501500  98.1209770  93.4278057  97.6973459  94.6425047
  94.3395913  97.9300846  94.4672744  92.9187704  98.2810503  94.0800125
  90.7714031  93.8731495 102.8914908  89.9098510  94.1712748 103.1831645
  90.7976466  94.0901894 101.9595940  87.5875601 102.4173685  99.2988713
  88.0513946 102.6961388  98.5093336  87.3232399 101.5157130  99.1161804
  84.4799682 101.9645167 102.2368477  85.0501039 102.3932435 101.5985961
  85.0707794 101.6827752 102.9352662  86.5244487  98.5396838  96.1078279
  87.2268530  98.9917881  96.5752205  86.1925115  97.8980657  96.7358172
  80.2669821  96.7980390 101.4095412  79.4768875  97.0537919 100.9335523
  80.7581068  97.6128728 101.5147453  82.2184566  97.1624970  98.3678889
  81.4215729  97.2743664  98.8862384  81.9910158  97.5011622  97.5019779
  78.5507524  97.0510881 103.8410403  78.8015562  97.9357891 104.1067979
  79.0867072  96.8715482 103.0685495  87.7638251 105.3537780  96.1840384
  87.6283926 106.1989316  96.6125232  88.3048064 105.5557058  95.4206318
  81.2167649 102.8713218  96.7568309  81.7292169 103.6656469  96.9073874
  81.8690362 102.1739509  96.6901910  83.0262534 105.9878975  98.8391062
  83.2029162 106.9096939  98.6512046  83.8219367 105.6737394  99.2685442
  91.1130715  88.8768342 104.7139277  90.7694984  89.7669984 104.6378388
  91.4809678  88.6870000 103.8508862  79.1816566 101.2001873  97.5327879
  80.0191788 101.6098881  97.3161587  79.3594833 100.2601315  97.5028073
  91.0780998  98.8676953  93.2211712  90.5627621  99.6381558  93.4600100
  90.8058306  98.1942090  93.8444774  88.6628109  93.7126654  98.2796951
  87.8069705  93.3233505  98.1002589  89.0755061  93.7918615  97.4196736
  90.1927255  91.2472997 102.6788510  89.6892051  91.2103133 101.8656316
  90.4857862  92.1565740 102.7385167  86.4370141  91.3311727 101.6854692
  87.3023138  91.1354536 101.3260582  86.5047650  91.1022079 102.6124049
  96.0515272 101.6209308  95.1564886  95.2744715 101.2820468  94.7120048
  96.7306753 101.6261931  94.4819851  90.8667301  96.7404045  95.0471493
  90.5617436  97.0550195  95.8981637  91.8197743  96.8185465  95.0898826
  89.3113733 102.8994269  96.6964447  88.7835094 102.1647028  96.3837685
  88.8101235 103.6768945  96.4504416  84.0432460  93.5613935  99.0571059
  84.6176212  93.3389117  98.3244252  84.6303443  93.6302630  99.8099660
  93.1012038  99.4487662  99.8635436  93.6143919 100.0817654 100.3657145
  93.7513261  98.8488857  99.4978796  84.3702047  95.5918396  93.0766944
  83.5339360  95.9293083  93.3976219  84.2306817  95.4567376  92.1394081
  86.3455128  90.4355184  97.7846128  85.6919540  90.1204201  97.1602743
  86.3035602  89.8130924  98.5105951  87.4566333 100.7174479  89.6999420
  86.5493395 100.4863732  89.8990569  87.9537365  99.9212098  89.8873402
  90.3634412 109.4271986  92.6196107  89.6896111 109.7303683  93.2281064
  90.7500234 110.2301067  92.2701564  89.5792868  96.9237118 102.1093776
  88.6615430  97.1452065 101.9515464  89.9953012  96.9983428 101.2505483
  90.3627916  98.3228533  97.2396456  91.1099735  98.8349930  96.9303578
  90.6319506  98.0012586  98.1000850  88.6354566 100.8187074  94.2223411
  87.7265786 100.5346107  94.3195880  88.6649650 101.2386152  93.3626717
  92.8106753  95.3585649  99.2215246  92.0729510  94.8463036  99.5525488
  93.0633527  94.9186031  98.4098522  92.9118381  88.1361901  99.8157015
  93.2177257  87.2759265  99.5282930  93.6370985  88.7279522  99.6156009
  79.2042737  98.5392588  98.2038613  79.0067137  97.9461949  97.4789679
  78.6489401  98.2344798  98.9214552  87.1839460  98.4315695 100.3233206
  87.2388070  97.4789531 100.2475683  86.3730662  98.5875134 100.8074504
  88.3330654 102.3595818  91.5611489  87.8950084 101.6431677  91.1017127
  89.0741095 102.5871932  90.9996581  85.1231820  97.0492754  98.0823585
  84.3099686  97.3486925  98.4888777  85.6190815  96.6548443  98.7998067
  96.4503769 100.6353015  97.6187808  96.3121668 100.8254611  96.6908997
  96.0939988 101.3972397  98.0755859  84.6145895  94.6211110 103.6984820
  85.2545274  94.4799869 103.0007783  83.7823426  94.3345623 103.3223422
  85.3906199 103.9213540  99.8119812  86.1846797 103.4263860  99.6102387
  84.6797891 103.3931403  99.4487518  81.6988962  98.0656622  95.8879565
  80.7686551  98.0041077  96.1049527  81.7946434  97.5432575  95.0916206
  81.6174511  94.5911435  98.4757807  81.8781329  95.5056768  98.3666967
  82.4391684  94.1235877  98.6254419  83.0899437  96.0049192 105.6456631
  83.7622490  95.7966554 104.9969280  82.2629223  95.8071278 105.2061863
  88.5625627 109.5951659  94.8343186  88.7377383 109.1239702  95.6488809
  87.8758415 110.2217425  95.0624447  92.4541882 101.2180199  91.1543547
  91.8371052 100.4927027  91.0576599  91.9858370 101.9789560  90.8110621
  84.2440428  95.4365624  90.2764851  83.3669894  95.3154424  89.9127098
  84.7198181  94.6451702  90.0243740  75.7642568 100.2242783 100.3706358
  76.4513608  99.9104513  99.7827373  75.6090697 101.1284148 100.0973610
  80.5677290  95.1132980 104.7991382  80.4835479  94.5058649 104.0641792
  79.7459996  95.6041998 104.8000878  87.4304354 107.7891914  97.5227372
  86.6471876 108.3313594  97.6165596  88.1297099 108.3065894  97.9221613
  90.7401004  93.5986543 100.1661577  91.2369703  92.8456506  99.8462647
  89.9687985  93.6350860  99.6004786  91.8230785 102.3558231  97.7400000
  90.8887063 102.4759693  97.5704705  92.0007453 101.4530697  97.4760010
  87.3235973  95.7403926  99.8933262  86.9533760  95.1874967 100.5814167
  87.8195065  95.1362060  99.3408262  95.2103336  98.1975550  98.2750034
  95.6763788  99.0303541  98.2010337  95.6610836  97.7320531  98.9795293
  93.2779567 104.5419371  95.2736187  93.5539411 104.4275966  96.1830061
  92.4084066 104.1436856  95.2348360  93.1819999  90.5656137 102.3140936
  92.2683078  90.7960364 102.4823143  93.6113100  90.6494581 103.1654968
  90.2475796 107.7173907  96.1784049  90.7763563 107.2066362  95.5654211
  90.5104016 107.4016437  97.0429582  75.3410544  98.3043377 102.6423825
  75.3794643  97.7706967 103.4360943  74.8350837  97.7778582 102.0234802
  82.7201306  93.1507917 106.1386368  82.7842633  94.0122748 105.7263765
  82.6568426  92.5381919 105.4058726  78.9719122  97.0307479  95.7177757
  79.2672563  96.1218157  95.6644810  78.0707157  97.0095218  95.3958759
  82.5013369  95.1063475 101.7005305  81.7799954  95.7199443 101.5612779
  83.2906624  95.6421240 101.6221951  80.7006963  94.7121576  95.8417082
  80.3719669  93.8318955  95.6592188  81.0546334  94.6569245  96.7293471
  83.8148786  94.9994546  96.2092560  84.1544859  95.5280467  95.4871168
  84.2620907  95.3374952  96.9851126  86.5092227  93.3831597 105.6595628
  86.1689047  92.5839410 106.0616307  85.8031233  93.6833308 105.0872461
  87.1608699  90.4680909 104.1122951  87.9834768  89.9941388 103.9901841
  87.4046762  91.2471393 104.6121637  85.8016933  93.4969168  94.4085852
  86.5225296  93.8750421  93.9049569  85.1782238  94.2158045  94.5120830
  89.9448056  94.2014317  95.3444185  90.1611671  95.0838955  95.0433013
  89.4642123  93.8100530  94.6149827  84.6847278  97.1600030 101.9214929
  84.5391858  97.4740333 102.8139211  84.2072481  97.7784930 101.3685828
  86.5443661  94.1502578 101.9695819  86.5305229  93.2543671 101.6328117
  87.2616089  94.1573242 102.6034105  88.3969791  94.5839918 104.0148946
  88.1387569  95.5056989 104.0133277  87.8654832  94.1870353 104.7049410
  79.1592940  99.7005374 104.8602590  78.6146408 100.4765182 104.9922865
  80.0372290 100.0476179 104.7021712  85.9480556  93.0316958  97.2383389
  86.0696468  92.1033604  97.4374276  85.6582599  93.0455644  96.3261704
  88.8171747  90.7171869 100.3750109  88.8393444  90.7811202  99.4202088
  89.2339806  89.8776377 100.5690615  94.3291153 107.0057470  93.8935930
  95.0242057 107.6264162  94.1123245  94.6714303 106.1552821  94.1688308
  96.2282576 104.4557175  95.4223261  96.7533900 104.7944448  94.6972581
  96.1404928 103.5204191  95.2386395  80.3915575 106.7140699  99.7843142
  81.2173595 106.4144471  99.4041785  80.0409627 105.9448322 100.2332931
  78.5924180 104.6327026 100.7432075  77.7556089 104.2049200 100.5616077
  78.5647826 104.8259469 101.6802867  84.9210615 104.6171091  95.3299276
  85.0698736 105.3006555  94.6765949  85.7277059 104.5976181  95.8448732
  82.6763248 100.6436269  96.3360345  82.4309290  99.7398599  96.5340555
  82.8459163 100.6453419  95.3939823  90.3659958  91.5159945 105.7185101
  90.8841902  92.2520972 105.3931589  90.0115091  91.8223938 106.5531860
  81.9458896  96.3764626  93.8346506  81.2528141  96.4508981  93.1786542
  81.7010648  95.6124970  94.3568023  90.6172552  87.9360228 101.2385997
  90.8974306  87.2683417 101.8646424  91.4023159  88.1289323 100.7260661
  88.4206021 107.1119221  92.8011023  87.8479988 107.7309409  92.3481495
  88.9938815 107.6618583  93.3350945  91.6403281 107.3956372  93.9319606
  92.5733954 107.3301933  94.1352481  91.5526494 108.2312638  93.4734138
  94.2691297 106.7122242  90.8923553  94.1904929 106.3782105  91.7859311
  95.0900964 107.2044010  90.8915026  88.8052819  98.4480034  90.1427076
  89.7511924  98.3186242  90.2115494  88.4267064  97.7094696  90.6196504
  94.7774704  90.1136040 100.1053968  94.5799525  89.8051128 100.9897300
  95.3874410  90.8397679 100.2351898  86.9895737  96.3730011  90.0781961
  86.0827192  96.0763123  90.1544675  87.2671718  96.0759829  89.2116247
  77.9073677  97.6936374 100.5281008  77.5876461  96.8401682 100.2355382
  77.3607105  97.9084952 101.2838975  81.6853585 100.4098815 104.2450514
  81.9039594 101.3415923 104.2638548  82.0979358 100.0506789 105.0305318
  88.6057802  90.9166900  96.2326202  87.7958531  90.5713985  96.6081449
  89.2942219  90.6074444  96.8213814  90.5348351  89.9944947  97.8550499
  91.0879389  90.4140401  98.5140522  90.7718437  89.0680695  97.8973455
  85.7594521  93.2316946  90.2193940  86.6213685  93.5571844  90.4789758
  85.9444865  92.4448442  89.7067006  77.7761937 101.3139285 102.4974129
  77.0825408 100.8993238 101.9844084  78.5234928 101.3559822 101.9007548
  93.9127158  92.1045472  97.3629163  93.3325827  92.7630276  96.9807216
  93.6463090  91.2822817  96.9516581  92.3630724  91.5050530  99.5650484
  92.8630502  91.6167064  98.7564803  93.0066332  91.2011583 100.2051292
  79.6898680 101.2457539 100.3740144  79.6669368 101.3445227  99.4222027
  79.9999316 102.0922690 100.6957310  92.6952036  94.2645563  96.4185512
  91.8077891  94.5495213  96.2005706  93.1106025  94.1039326  95.5712789
  96.0466572  94.2892084 100.1339851  96.8226962  94.7788536 100.4064468
  95.3214706  94.7150138 100.5911720  98.4839130  95.0019703 101.1913792
  99.0783621  94.7615439 100.4807100  98.5565714  94.2826833 101.8187328
  91.8395249 104.0290237  90.5133532  92.5431099 104.2340240  91.1291187
  91.1157898 104.5966999  90.7782615  92.6693059  99.7800099  96.6335802
  92.6128261 100.2368650  95.7943434  93.2221402  99.0190783  96.4558645
  96.4797865  95.5689830  97.4585921  96.2234800  95.1686466  98.2894129
  95.8550733  96.2833624  97.3336060  93.7481947 104.4672766  92.5631992
  94.5827551 104.0353965  92.3809466  93.5866290 104.2954780  93.4908886
  93.4027839 100.9704880  93.9288331  93.3476643 100.8049151  92.9876775
  92.7773894 101.6780913  94.0850521  78.1920354  96.2072944 107.7549753
  78.8379217  95.6971898 108.2436978  77.9837505  96.9441626 108.3293178
  86.7123964  90.4712989  93.5073649  86.7002634  91.4154829  93.6641920
  87.6047386  90.2883134  93.2133111  90.5276084  87.0655765  97.7619586
  89.7608480  86.5114252  97.9076269  90.9386789  87.1377634  98.6233738
  95.2095802 110.9210314  93.0766944  94.3733114 111.2585000  93.3976219
  95.0700572 110.7859294  92.1394081  95.0834182 110.7657541  90.2764851
  94.2063648 110.6446342  89.9127098  95.5591935 109.9743620  90.0243740
  92.7852650 111.7056544  93.8346506  92.0921895 111.7800899  93.1786542
  92.5404402 110.9416887  94.3568023  97.8289491 111.7021928  90.0781961
  96.9220947 111.4055041  90.1544675  98.1065472 111.4051746  89.2116247
  96.5988276 108.5608863  90.2193940  97.4607440 108.8863762  90.4789758
  96.7838620 107.7740359  89.7067006  97.5517719 105.8004906  93.5073649
  97.5396389 106.7446746  93.6641920  98.4441141 105.6175052  93.2133111
  37.3403696   0.0153034  89.3832475  37.9782106  -0.1040219  88.6795815
  37.2224539   0.9633878  89.4420427  34.1493402  -0.0319538  89.3194000
  33.8111914  -0.1478473  88.4314535  35.0183170  -0.4328373  89.2995006
  30.0080218   1.8215939  85.3090891  29.4445083   1.7305876  84.5407178
  29.8932613   1.0015843  85.7893383  35.5879777   5.4886906  80.6205356
  34.9367756   6.0740987  80.2339369  36.3824140   6.0193101  80.6800393
  29.5135404   2.5776044  81.0192490  30.2866280   2.0305031  80.8805366
  29.8660803   3.4420293  81.2306951  31.8501682  -1.2631290  78.6510940
  32.1027202  -1.7849769  77.8894403  30.9126241  -1.4265145  78.7537623
  36.8944965  -2.2595512  86.4585683  37.6808054  -2.6776089  86.1076100
  37.1583669  -1.3549420  86.6267331  37.0655042   3.1777338  81.1574340
  36.4300875   3.2511965  81.8695245  36.7352448   3.7670937  80.4793419
  42.2953392  -2.3220279  87.3618662  43.0278564  -2.8921062  87.5956491
  41.5392747  -2.7098678  87.8025167  31.5697970   0.6396816  80.8535315
  31.4534229  -0.0358281  81.5216399  31.6800230   0.1529190  80.0367468
  33.9129511   0.1006963  84.5582004  33.5487719  -0.4262416  85.2694926
  34.7696627  -0.2894568  84.3848489  33.5534998  -4.8703138  79.5543353
  33.7209401  -4.0022901  79.9213824  33.3632167  -4.7075856  78.6304642
  36.3110332   3.5913841  91.2209183  36.0111055   4.4938880  91.1124990
  35.9661391   3.3246025  92.0730336  39.7107475  -3.8903619  88.9006620
  38.8024353  -3.9588210  88.6065381  39.6595071  -3.4131674  89.7288446
  33.5324219  -2.4145480  80.5390019  33.4123844  -1.9688429  81.3775500
  32.8376808  -2.0660162  79.9803558  31.2931111  10.3558162  84.1880151
  31.2155141  11.3065987  84.2668631  30.6892755  10.0104034  84.8455077
  39.2309285  -1.9424007  81.3670353  40.1427141  -1.7096620  81.1918051
  38.7218932  -1.3586963  80.8045432  37.8378868   3.0401812  88.7583935
  37.2087730   3.2047526  88.0560003  37.4504530   3.4543421  89.5294899
  41.7168100   3.9756249  86.1128299  41.0319138   4.3555151  85.5625332
  41.8011949   4.5851576  86.8460246  33.3906830   2.7776220  86.0234020
  33.8545175   3.0563923  85.2338643  33.1263628   1.8759664  85.8407111
  32.3275716  -1.1000628  82.8323585  33.0299759  -0.6479584  83.2997512
  31.9956344  -1.7416809  83.4603478  40.0864859   4.4988164  90.8846000
  40.9082303   4.0968351  90.6028681  40.0827262   4.3956398  91.8362115
  48.1770852   0.8426912  87.2330971  47.4234561   0.2734310  87.0774975
  48.3118393   0.8089577  88.1801606  33.5669480   5.7140315  82.9085690
  33.4315155   6.5591850  83.3370538  34.1079293   5.9159592  82.1451624
  27.0198878   3.2315753  83.4813615  27.5323398   4.0259003  83.6319180
  27.6721590   2.5342043  83.4147217  28.8293762   6.3481509  85.5636369
  29.0060391   7.2699474  85.3757353  29.6250596   6.0339928  85.9930748
  29.9525078   7.8659683  91.5646711  30.5032503   7.7376746  90.7923705
  29.1136554   8.1654572  91.2141604  36.8812227  -0.7720512  79.9457019
  36.3658850  -0.0015908  80.1845406  36.6089535  -1.4455376  80.5690080
  41.8546501   1.9811842  81.8810192  41.0775943   1.6423002  81.4365355
  42.5337982   1.9864465  81.2065157  36.6698530  -2.8993420  81.7716800
  36.3648665  -2.5847271  82.6226943  37.6228972  -2.8212000  81.8144133
  35.1144962   3.2596803  83.4209754  34.5866323   2.5249563  83.1082992
  34.6132464   4.0371479  83.1749722  40.0937808   1.4545823  88.5376800
  39.4361482   2.1445085  88.6256929  40.8978207   1.8442255  88.8810787
  38.9043266  -0.1909804  86.5880742  39.4175148   0.4420188  87.0902452
  39.5544490  -0.7908608  86.2224102  33.2597562   1.0777013  76.4244727
  32.3524623   0.8466267  76.6235876  33.7568594   0.2814633  76.6118709
  36.1665641   9.7874520  79.3441413  35.4927339  10.0906217  79.9526371
  36.5531463  10.5903601  78.9946870  36.1659145  -1.3168933  83.9641763
  36.9130964  -0.8047535  83.6548885  36.4350735  -1.6384880  84.8246157
  34.4385795   1.1789608  80.9468717  33.5297014   0.8948641  81.0441187
  34.4680879   1.5988687  80.0872024  39.6705063   4.7896198  84.7159885
  39.2167390   3.9487108  84.7725075  39.0399029   5.4257596  85.0534665
  38.6137982  -4.2811816  85.9460552  37.8760739  -4.7934430  86.2770795
  38.8664756  -4.7211435  85.1343829  38.1138002   6.6272694  85.6509703
  38.4060976   7.1877751  84.9322069  38.6236622   6.9201255  86.4062862
  32.9870689  -1.2081771  87.0478513  33.0419299  -2.1607935  86.9720989
  32.1761891  -1.0522332  87.5319811  34.1361883   2.7198352  78.2856796
  33.6981313   2.0034211  77.8262433  34.8772324   2.9474467  77.7241887
  30.9263049  -2.5904712  84.8068891  30.1130915  -2.2910541  85.2134084
  31.4222043  -2.9849023  85.5243374  33.0771627   7.4053045  86.7403156
  33.0347806   7.6313892  85.8111688  33.9934326   7.1716420  86.8888957
  42.2534998   0.9955549  84.3433114  42.1152896   1.1857145  83.4154304
  41.8971217   1.7574932  84.8001166  42.2804377   3.0632076  89.3544386
  42.7140884   2.9707365  90.2027440  42.9935958   3.0389576  88.7164402
  31.1937428   4.2816074  86.5365119  31.9878026   3.7866395  86.3347694
  30.4829120   3.7533938  86.1732824  36.0132272   6.6634170  90.8877486
  36.0669295   7.2325106  91.6555202  35.1447054   6.8336055  90.5231524
  43.1419927   3.1055776  91.8877271  43.3355817   4.0101587  92.1336546
  43.0420545   2.6463196  92.7215856  33.7708704   4.8545096  90.2162956
  33.6319789   4.4863881  91.0888894  32.9823300   5.3692736  90.0446914
  34.3656856   9.9554193  81.5588492  34.5408611   9.4842236  82.3734115
  33.6789644  10.5819959  81.7869753  35.3213919   4.2326699  87.6051794
  34.9863752   4.1927469  88.5009444  34.8217865   3.5671415  87.1322204
  38.2573111   1.5782733  77.8788853  37.6402281   0.8529562  77.7821906
  37.7889599   2.3392094  77.5355928  28.9317941  13.1043556  88.3328353
  29.1714539  13.7362080  89.0107371  28.0887138  12.7531596  88.6193712
  33.4445803   8.9122678  90.7369857  33.3715974   9.7177650  91.2489161
  33.0023196   9.1114644  89.9117878  33.2335583   8.1494448  84.2472678
  32.4503104   8.6916128  84.3410903  33.9328328   8.6668428  84.6466919
  36.5432233  -6.0410922  86.8906884  37.0400932  -6.7940960  86.5707954
  35.7719214  -6.0046606  86.3250093  44.3961990  -0.3370557  88.5325175
  44.3851866   0.5454159  88.1619108  43.5279369  -0.6899006  88.3379712
  35.9044486   8.8109512  92.8928015  36.6172459   9.4456977  92.8203917
  35.4134515   8.9073378  92.0768017  37.6262013   2.7160765  84.4645307
  36.6918292   2.8362227  84.2950011  37.8038682   1.8133232  84.2005317
  41.0134565  -1.4421916  84.9995341  41.4795017  -0.6093924  84.9255644
  41.4642065  -1.9076934  85.7040600  39.0810796   4.9021905  81.9981493
  39.3570640   4.7878500  82.9075367  38.2115295   4.5039390  81.9593666
  35.7164860   9.1508256  85.6414307  35.8987254   8.3329912  86.1042059
  36.5397846   9.3675948  85.2039197  36.0507025   8.0776441  82.9029355
  36.5794792   7.5668896  82.2899517  36.3135245   7.7618972  83.7674888
  29.4062773   9.1291558  85.6627131  28.7373148   9.6137686  85.1791171
  29.2675643   9.3760778  86.5770510  33.5468042  11.1635302  92.2609790
  34.0986350  11.3266923  93.0258875  33.8874235  11.7539739  91.5889814
  36.6836429   9.1117277  89.2473472  36.5587569   8.3107017  88.7384417
  37.3415520   9.6063470  88.7587442  38.7471337   6.9126297  90.8753022
  37.8001673   6.7931648  90.8031349  39.0954111   6.0248795  90.9579283
  35.7517771   6.7079013  87.0757374  35.6042733   5.7795721  87.2564944
  36.5771264   6.7299104  86.5914449  39.3551893   7.5307572  88.1622247
  40.2798440   7.3250433  88.0246698  39.1867196   7.2823973  89.0711588
  35.7479285  -5.4383149  82.0689491  35.9642899  -4.5558511  81.7678319
  35.2673352  -5.8296936  81.3395133  39.1447209   8.0493240  83.5184338
  39.3184086   7.4839662  82.7658191  39.6376100   8.8494134  83.3363828
  44.9986600   0.8129662  85.1374638  45.4417746   0.0636988  84.7393761
  44.1213110   0.8039799  84.7548370  40.1322381   7.3660004  80.6181237
  40.8273286   7.9866697  80.8368551  40.4745531   6.5155355  80.8933614
  42.0313804   4.8159709  82.1468567  42.5565129   5.1546982  81.4217887
  41.9436157   3.8806725  81.9631702  33.7154465  10.8831693  86.5063820
  33.2759455  10.3908071  87.1996677  34.4662582  10.3404660  86.2655896
  26.1946804   7.0743234  86.5088449  27.0204824   6.7747005  86.1287092
  25.8440856   6.3050856  86.9578237  31.1628337   6.4269702  88.5786122
  30.5408347   5.7640407  88.2788350  31.8333204   6.4530834  87.8959770
  24.3955409   4.9929560  87.4677382  23.5587318   4.5651734  87.2861383
  24.3679055   5.1862003  88.4048173  30.7241844   4.9773625  82.0544583
  30.8729965   5.6609090  81.4011255  31.5308288   4.9578715  82.5694038
  43.3423782   4.7182021  95.0094515  43.0508591   5.0812002  95.8457976
  42.7295914   4.0049029  94.8307847  44.5419465   2.2834901  87.5297086
  45.3766356   2.7224705  87.6934646  44.6778593   1.8073554  86.7105331
  28.4794477   1.0038803  83.0605652  28.2340519   0.1001133  83.2585862
  28.6490392   1.0055953  82.1185130  34.2237250   7.4721756  79.5256330
  33.6511217   8.0911943  79.0726802  34.7970043   8.0221117  80.0596252
  37.4434510   7.7558906  80.6564912  38.3765183   7.6904467  80.8597788
  37.3557722   8.5915173  80.1979445  40.0722526   7.0724776  77.6168860
  39.9936158   6.7384640  78.5104618  40.8932193   7.5646544  77.6160332
  42.7700717  -0.0613485  90.8245179  42.7377038  -0.9997484  91.0104862
  43.3801341   0.0170552  90.0911003  34.6084048  -1.1917432  76.8672383
  35.5543153  -1.3211224  76.9360801  34.2298293  -1.9302770  77.3441811
  48.5877267   1.0002522  89.9651215  49.3180656   0.7387810  90.5258919
  47.9784213   0.2631244  90.0053283  46.6692564  -0.8589615  90.5625667
  45.9425728  -0.9933650  89.9542158  46.2539851  -0.5512787  91.3682385
  32.7926965  -3.2667455  76.8027268  31.8858421  -3.5634343  76.8789981
  33.0702946  -3.5637637  75.9361554  39.7158387  -7.5351994  84.0874470
  39.1357056  -6.8767190  83.7052522  39.4494319  -8.3574649  83.6761888
  38.4983265  -5.3751903  83.1430818  37.6109120  -5.0902253  82.9251013
  38.9137254  -5.5358140  82.2958095  41.8497801  -5.3505382  86.8585158
  42.6258191  -4.8608930  87.1309774  41.1245935  -4.9247328  87.3157027
  44.2870359  -4.6377763  87.9159098  44.8814850  -4.8782027  87.2052406
  44.3596943  -5.3570632  88.5432634  26.5067515   9.2055848  88.2302263
  26.3721983   8.4456249  87.6640261  26.0899577   9.9296748  87.7631052
  37.6426478   4.3892771  77.2378838  38.3462328   4.5942774  77.8536494
  36.9189127   4.9569533  77.5027922  38.4724288   0.1402633  83.3581108
  38.4159490   0.5971184  82.5188741  39.0252631  -0.6206683  83.1803951
  42.2829094  -4.0707635  84.1831228  42.0266028  -4.4711000  85.0139436
  41.6581962  -3.3563841  84.0581367  46.5941432  -1.3311562  86.6902519
  46.0340990  -1.2618373  87.4634081  45.9884935  -1.5070577  85.9702016
  29.6636641  10.1025165  88.4420706  29.5469025  11.0470597  88.3399396
  28.8429087   9.7998727  88.8306505  39.5513175   4.8275301  79.2877298
  40.3858779   4.3956499  79.1054773  39.3897518   4.6557314  80.2154193
  39.2059068   1.3307414  80.6533638  39.1507871   1.1651685  79.7122082
  38.5805123   2.0383447  80.8095827  30.6891155  10.7553427  91.6576634
  31.5918402  10.7877037  91.9743129  30.4628525   9.8253878  91.6722970
  32.4444757   9.5084413  88.3186713  31.4940388   9.5086275  88.2051085
  32.7477243   8.7617148  87.8022747  48.1797451  15.3444952  89.3832475
  48.8175860  15.2251699  88.6795815  48.0618293  16.2925796  89.4420427
  44.9887157  15.2972380  89.3194000  44.6505668  15.1813445  88.4314535
  45.8576925  14.8963545  89.2995006  40.8473972  17.1507856  85.3090891
  40.2838838  17.0597793  84.5407178  40.7326368  16.3307761  85.7893383
  45.4706940  16.4507232  95.2780205  45.4595581  16.0560030  94.4060709
  45.6327579  15.7173304  95.8713977  38.3938404  18.6459048  88.1475111
  39.1859696  18.3049873  87.7321410  38.6335055  18.7554023  89.0677264
  46.4273531  20.8178824  80.6205356  45.7761511  21.4032904  80.2339369
  47.2217894  21.3485019  80.6800393  40.3529158  17.9067961  81.0192490
  41.1260034  17.3596948  80.8805366  40.7054557  18.7712211  81.2306951
  42.1914201  19.2344343  94.2259389  41.9004067  20.1389974  94.1106056
  42.8271185  19.2760871  94.9403459  43.1170408  16.6121192  90.8160749
  43.7133980  16.3877214  90.1017712  43.1745379  15.8705937  91.4186197
  42.6895436  14.0660627  78.6510940  42.9420957  13.5442149  77.8894403
  41.7519995  13.9026773  78.7537623  47.7338719  13.0696406  86.4585683
  48.5201808  12.6515829  86.1076100  47.9977423  13.9742498  86.6267331
  47.9048796  18.5069256  81.1574340  47.2694629  18.5803882  81.8695245
  47.5746203  19.0962855  80.4793419  53.1347146  13.0071639  87.3618662
  53.8672318  12.4370856  87.5956491  52.3786502  12.6193239  87.8025167
  42.4091725  15.9688733  80.8535315  42.2927983  15.2933637  81.5216399
  42.5193985  15.4821107  80.0367468  44.7523266  15.4298880  84.5582004
  44.3881473  14.9029501  85.2694926  45.6090382  15.0397349  84.3848489
  50.6572566   6.7193213  91.8213270  50.3255891   7.5888624  91.5974485
  50.0618180   6.4029497  92.5007301  44.3928753  10.4588780  79.5543353
  44.5603155  11.3269016  79.9213824  44.2025922  10.6216062  78.6304642
  47.1504086  18.9205759  91.2209183  46.8504809  19.8230798  91.1124990
  46.8055146  18.6537942  92.0730336  40.6016567  15.3719556  87.2545887
  39.6767064  15.2395770  87.4623579  40.8500981  16.1513775  87.7515830
  50.5501230  11.4388299  88.9006620  49.6418107  11.3703708  88.6065381
  50.4988826  11.9160244  89.7288446  44.3717974  12.9146438  80.5390019
  44.2517599  13.3603488  81.3775500  43.6770562  13.2631755  79.9803558
  37.9625379  15.0152829  88.0889676  38.0917760  15.2687308  89.0029088
  37.2822830  15.6080537  87.7694332  42.1324866  25.6850079  84.1880151
  42.0548896  26.6357904  84.2668631  41.5286509  25.3395952  84.8455077
  44.6242096  12.8577945  96.8441518  43.8475430  13.4171865  96.8344382
  45.2632659  13.3434728  97.3656388  52.4162876   9.6404738  90.6784494
  51.7737256   9.9337271  90.0324289  51.9117805   9.5257658  91.4837691
  50.0703040  13.3867911  81.3670353  50.9820896  13.6195297  81.1918051
  49.5612687  13.9704955  80.8045432  42.8788468  15.6663398  96.4059485
  43.6203152  16.2048442  96.1294308  42.1725453  16.2929687  96.5631036
  48.3543808  17.8092539  95.0031646  48.7627164  17.3674949  94.2586278
  47.6321069  17.2345166  95.2565839  44.7074878  12.7465145  92.3765203
  45.5536073  13.1704559  92.5199852  44.6473515  12.0898770  93.0703766
  48.6772622  18.3693729  88.7583935  48.0481485  18.5339443  88.0560003
  48.2898284  18.7835339  89.5294899  52.5561854  19.3048167  86.1128299
  51.8712892  19.6847068  85.5625332  52.6405703  19.9143494  86.8460246
  47.8574323  10.4069514  94.0346377  47.6135255  11.1611574  93.4980652
  48.1334253  10.7854861  94.8693624  49.8112786  16.9508126  92.7123642
  50.0229681  17.5939886  92.0358023  49.7642534  16.1170443  92.2445572
  47.4139015   9.5625947  89.6160214  46.5523494   9.8607200  89.9076952
  47.4401449   9.7796346  88.6841247  44.2300584  18.1068137  86.0234020
  44.6938930  18.3855840  85.2338643  43.9657382  17.2051582  85.8407111
  41.1224665  17.6539619  88.9613783  41.6926022  18.0826887  88.3231268
  41.7132777  17.3722204  89.6597969  43.1669470  14.2291290  82.8323585
  43.8693513  14.6812333  83.2997512  42.8350099  13.5875109  83.4603478
  41.6149832  12.8203046  97.2074795  40.9848492  13.5019327  97.4410191
  41.5085920  12.7086128  96.2627933  36.9094804  12.4874842  88.1340719
  36.1193858  12.7432371  87.6580829  37.4006051  13.3023180  88.2392759
  50.9258614  19.8280081  90.8846000  51.7476057  19.4260269  90.6028681
  50.9221016  19.7248316  91.8362115  38.8609549  12.8519422  85.0924195
  38.0640713  12.9638116  85.6107691  38.6335142  13.1906074  84.2265086
  44.6915217  19.3764125  93.0406710  44.7559650  19.8384532  93.8764882
  43.9826141  18.7461490  93.1689020  35.1932507  12.7405333  90.5655710
  35.4440545  13.6252343  90.8313285  35.7292055  12.5609934  89.7930801
  59.0164607  16.1718830  87.2330971  58.2628315  15.6026228  87.0774975
  59.1512148  16.1381494  88.1801606  44.4063235  21.0432232  82.9085690
  44.2708910  21.8883768  83.3370538  44.9473047  21.2451510  82.1451624
  37.8592632  18.5607670  83.4813615  38.3717153  19.3550921  83.6319180
  38.5115345  17.8633961  83.4147217  39.6687517  21.6773427  85.5636369
  39.8454145  22.5991391  85.3757353  40.4644350  21.3631846  85.9930748
  43.8098535   8.5381691  97.1620302  44.5508249   9.1388844  97.0824765
  44.0416458   7.7959329  96.6038345  38.9539873  13.7238058  95.4398532
  38.8393388  12.8223316  95.7405631  38.0984391  13.9701755  95.0883348
  46.0331711  21.6655799  97.0386032  45.5895565  20.8792177  96.7206937
  46.6948925  21.8534949  96.3729923  40.7918832  23.1951600  91.5646711
  41.3426257  23.0668664  90.7923705  39.9530308  23.4946489  91.2141604
  48.1312949  21.9458599  95.0667434  48.1131425  22.7667480  94.5747703
  49.0532869  21.8212674  95.2917575  44.5886003  19.4602728  95.9090942
  45.1214340  18.6991016  95.6790250  44.0600084  19.1676380  96.6515097
  47.7555698   4.5662794  91.4384584  47.4119968   5.4564436  91.3623694
  48.1234661   4.3764452  90.5754169  35.8241549  16.8896325  84.2573186
  36.6616771  17.2993333  84.0406894  36.0019817  15.9495767  84.2273380
  47.7205981  14.5571405  79.9457019  47.2052604  15.3276010  80.1845406
  47.4483289  13.8836541  80.5690080  45.3053092   9.4021106  85.0042257
  44.4494688   9.0127956  84.8247896  45.7180044   9.4813067  84.1442043
  46.8352239   6.9367449  89.4033817  46.3317034   6.8997584  88.5901622
  47.1282846   7.8460192  89.4630474  43.0795125   7.0206179  88.4099999
  43.9448121   6.8248988  88.0505888  43.1472633   6.7916531  89.3369356
  52.6940255  17.3103760  81.8810192  51.9169698  16.9714919  81.4365355
  53.3731736  17.3156383  81.2065157  47.5092284  12.4298497  81.7716800
  47.2042420  12.7444647  82.6226943  48.4622726  12.5079917  81.8144133
  45.9538716  18.5888721  83.4209754  45.4260078  17.8541480  83.1082992
  45.4526219  19.3663397  83.1749722  50.9331562  16.7837741  88.5376800
  50.2755236  17.4737003  88.6256929  51.7371961  17.1734173  88.8810787
  40.6857444   9.2508387  85.7816366  41.2601196   9.0283568  85.0489559
  41.2728426   9.3197081  86.5344967  49.7437021  15.1382114  86.5880742
  50.2568903  15.7712106  87.0902452  50.3938245  14.5383309  86.2224102
  41.0127031  11.2812848  79.8012251  40.1764343  11.6187535  80.1221526
  40.8731800  11.1461828  78.8639388  42.9880111   6.1249636  84.5091435
  42.3344524   5.8098653  83.8848050  42.9460585   5.5025376  85.2351258
  44.0991316  16.4068931  76.4244727  43.1918378  16.1758184  76.6235876
  44.5962348  15.6106550  76.6118709  47.0059395  25.1166438  79.3441413
  46.3321094  25.4198135  79.9526371  47.3925217  25.9195518  78.9946870
  46.2217852  12.6131569  88.8339083  45.3040413  12.8346516  88.6760771
  46.6377995  12.6877880  87.9750790  47.0052899  14.0122985  83.9641763
  47.7524718  14.5244382  83.6548885  47.2744489  13.6907038  84.8246157
  45.2779550  16.5081526  80.9468717  44.3690769  16.2240559  81.0441187
  45.3074633  16.9280604  80.0872024  50.5098817  20.1188115  84.7159885
  50.0561144  19.2779025  84.7725075  49.8792784  20.7549514  85.0534665
  49.4531737  11.0480101  85.9460552  48.7154493  10.5357488  86.2770795
  49.7058510  10.6080483  85.1343829  48.9531756  21.9564612  85.6509703
  49.2454731  22.5169669  84.9322069  49.4630377  22.2493173  86.4062862
  49.5543364   3.8256353  86.5402322  49.8602241   2.9653717  86.2528237
  50.2795969   4.4173974  86.3401315  35.8467720  14.2287040  84.9283919
  35.6492120  13.6356401  84.2034986  35.2914384  13.9239250  85.6459858
  43.8264444  14.1210146  87.0478513  43.8813053  13.1683983  86.9720989
  43.0155646  14.2769585  87.5319811  44.9755637  18.0490269  78.2856796
  44.5375067  17.3326128  77.8262433  45.7166078  18.2766384  77.7241887
  41.7656804  12.7387206  84.8068891  40.9524669  13.0381377  85.2134084
  42.2615798  12.3442895  85.5243374  43.9165381  22.7344963  86.7403156
  43.8741560  22.9605809  85.8111688  44.8328080  22.5008338  86.8888957
  47.3631015  13.2029031  93.6383785  47.7180403  13.4300504  94.4978251
  48.0103147  13.5347407  93.0161041  53.0928752  16.3247467  84.3433114
  52.9546651  16.5149062  83.4154304  52.7364971  17.0866849  84.8001166
  41.2570878  10.3105562  90.4230126  41.8970258  10.1694321  89.7253090
  40.4248409  10.0240075  90.0468728  53.1198132  18.3923994  89.3544386
  53.5534639  18.2999283  90.2027440  53.8329713  18.3681494  88.7164402
  42.0331182  19.6107992  86.5365119  42.8271781  19.1158312  86.3347694
  41.3222875  19.0825855  86.1732824  46.8526027  21.9926088  90.8877486
  46.9063049  22.5617024  91.6555202  45.9840808  22.1627973  90.5231524
  38.3413946  13.7551074  82.6124872  37.4111534  13.6935529  82.8294834
  38.4371418  13.2327027  81.8161513  38.2599495  10.2805887  85.2003113
  38.5206312  11.1951220  85.0912274  39.0816667   9.8130329  85.3499726
  39.7324420  11.6943644  92.3701938  40.4047474  11.4861006  91.7214587
  38.9054207  11.4965730  91.9307170  53.9813681  18.4347694  91.8877271
  54.1749571  19.3393505  92.1336546  53.8814300  17.9755113  92.7215856
  45.6349992   8.3205585  94.3867599  44.9877907   9.0195534  94.2932075
  46.4051008   8.7541729  94.7543847  49.0428790  18.5854437  97.4618152
  48.8914296  18.3564989  96.5448236  49.0333470  19.5425038  97.4749497
  45.8114126  16.1586350  92.4464418  46.7406186  16.3097509  92.2733386
  45.3905156  16.2470370  91.5913065  44.6102458  20.1837014  90.2162956
  44.4713544  19.8155798  91.0888894  43.8217054  20.6984654  90.0446914
  45.2050610  25.2846111  81.5588492  45.3802366  24.8134154  82.3734115
  44.5183398  25.9111877  81.7869753  46.1607673  19.5618617  87.6051794
  45.8257506  19.5219387  88.5009444  45.6611619  18.8963333  87.1322204
  40.1351917  14.9686247  93.1304375  39.9971715  14.2366486  93.7315914
  41.0456841  14.8795147  92.8488563  49.0966865  16.9074651  77.8788853
  48.4796036  16.1821479  77.7821906  48.6283354  17.6684011  77.5355928
  42.7634218  14.6806206  92.6188055  43.4733837  14.0399398  92.5774673
  42.7203526  14.9319101  93.5414235  50.7520997  21.6173559  95.5394634
  50.6933543  20.9332780  94.8725217  51.1540515  22.3592549  95.0875260
  41.4763152  11.6671424  94.4383694  40.9400509  11.2162162  95.0905290
  40.8879860  11.8017333  93.6954158  39.7711696  28.4335473  88.3328353
  40.0108294  29.0653997  89.0107371  38.9280892  28.0823513  88.6193712
  40.8865411  11.1260075  77.0010158  40.0094877  11.0048876  76.6372404
  41.3623164  10.3346154  76.7489046  50.7538404  19.5813143  93.7708613
  49.8665183  19.2439065  93.8935012  51.3236955  18.8496175  94.0077379
  32.4067551  15.9137235  87.0951665  33.0938591  15.5998965  86.5072680
  32.2515680  16.8178600  86.8218916  37.2102273  10.8027432  91.5236689
  37.1260462  10.1953101  90.7887098  36.3884980  11.2936450  91.5246185
  44.2839557  24.2414596  90.7369857  44.2109729  25.0469567  91.2489161
  43.8416950  24.4406562  89.9117878  44.0729337  23.4786366  84.2472678
  43.2896859  24.0208046  84.3410903  44.7722082  23.9960345  84.6466919
  47.3825987   9.2880995  86.8906884  47.8794687   8.5350958  86.5707954
  46.6112969   9.3245312  86.3250093  55.2355745  14.9921361  88.5325175
  55.2245621  15.8746076  88.1619108  54.3673124  14.6392912  88.3379712
  46.7438241  24.1401430  92.8928015  47.4566213  24.7748895  92.8203917
  46.2528270  24.2365296  92.0768017  48.4655768  18.0452682  84.4645307
  47.5312047  18.1654145  84.2950011  48.6432436  17.1425149  84.2005317
  43.9660956  11.4298378  86.6178568  43.5958743  10.8769419  87.3059474
  44.4620048  10.8256512  86.0653568  51.8528319  13.8870002  84.9995341
  52.3188771  14.7197993  84.9255644  52.3035820  13.4214983  85.7040600
  41.7950154  21.8895873  93.7133586  42.4959614  22.5232356  93.8662980
  41.3245269  22.2310605  92.9529225  49.9204550  20.2313823  81.9981493
  50.1964394  20.1170418  82.9075367  49.0509049  19.8331308  81.9593666
  49.8244982   6.2550589  89.0386242  48.9108062   6.4854816  89.2068449
  50.2538083   6.3389033  89.8900275  49.5951440  14.4440481  91.5386136
  48.9422891  14.6916388  90.8838589  49.9731820  13.6304619  91.2048614
  46.5558614  24.4800174  85.6414307  46.7381009  23.6621830  86.1042059
  47.3791600  24.6967866  85.2039197  46.8900780  23.4068359  82.9029355
  47.4188546  22.8960814  82.2899517  47.1528999  23.0910889  83.7674888
  45.6439013  15.1860292  98.0252174  44.9679650  15.0854421  98.6954549
  46.4666647  15.0299505  98.4888171  37.3917873  21.4232228  90.6464689
  37.9771309  20.6775916  90.7792593  37.1942711  21.7336185  91.5301353
  40.2456528  24.4583476  85.6627131  39.5766903  24.9429603  85.1791171
  40.1069397  24.7052696  86.5770510  31.9835527  13.9937829  89.3669132
  32.0219627  13.4601419  90.1606250  31.4775820  13.4673034  88.7480109
  44.3861796  26.4927219  92.2609790  44.9380104  26.6558841  93.0258875
  44.7267990  27.0831657  91.5889814  39.3626290   8.8402369  92.8631674
  39.4267616   9.7017200  92.4509072  39.2993410   8.2276371  92.1304033
  38.8378562  10.9125502  96.5104709  39.4650601  10.5302579  97.1242233
  37.9806481  10.6939703  96.8760401  49.2372671  21.3188477  98.1158444
  49.7812575  21.9318435  97.6213399  48.6559515  21.8768055  98.6325457
  35.6144105  12.7201931  82.4423063  35.9097546  11.8112609  82.3890117
  34.7132141  12.6989670  82.1204066  47.5230184  24.4409195  89.2473472
  47.3981323  23.6398935  88.7384417  48.1809275  24.9355388  88.7587442
  39.1438352  10.7957927  88.4250612  38.4224938  11.4093895  88.2858085
  39.9331608  11.3315692  88.3467258  49.5865092  22.2418215  90.8753022
  48.6395428  22.1223566  90.8031349  49.9347865  21.3540713  90.9579283
  41.9464665   8.1312354  94.6991264  42.4699067   8.3774650  95.4617573
  41.7276999   8.9632389  94.2794401  37.3431946  10.4016028  82.5662388
  37.0144653   9.5213407  82.3837494  37.6971317  10.3463697  83.4538778
  46.5911525  22.0370931  87.0757374  46.4436488  21.1087638  87.2564944
  47.4165019  22.0591022  86.5914449  40.4573770  10.6888998  82.9337866
  40.7969842  11.2174919  82.2116475  40.9045890  11.0269404  83.7096433
  50.1945647  22.8599490  88.1622247  51.1192195  22.6542351  88.0246698
  50.0260950  22.6115891  89.0711588  43.1517210   9.0726049  92.3840934
  42.8114031   8.2733862  92.7861614  42.4456217   9.3727760  91.8117767
  43.8033682   6.1575361  90.8368257  44.6259752   5.6835839  90.7147148
  44.0471746   6.9365845  91.3366944  42.4441917   9.1863620  81.1331159
  43.1650279   9.5644872  80.6294876  41.8207221   9.9052497  81.2366137
  46.5873040   9.8908769  82.0689491  46.8036654  10.7733407  81.7678319
  46.1067107   9.4994982  81.3395133  41.3272261  12.8494482  88.6460236
  41.1816842  13.1634785  89.5384517  40.8497465  13.4679382  88.0931134
  43.1868644   9.8397030  88.6941125  43.1730213   8.9438123  88.3573423
  43.9041072   9.8467694  89.3279411  45.0394775  10.2734370  90.7394253
  44.7812552  11.1951441  90.7378583  44.5079815   9.8764805  91.4294717
  49.9840963  23.3785157  83.5184338  50.1577841  22.8131580  82.7658191
  50.4769855  24.1786052  83.3363828  35.8017923  15.3899826  91.5847897
  35.2571391  16.1659634  91.7168171  36.6797273  15.7370631  91.4267018
  42.5905540   8.7211410  83.9628696  42.7121451   7.7928056  84.1619583
  42.3007582   8.7350096  83.0507011  45.4596730   6.4066321  87.0995415
  45.4818427   6.4705654  86.1447395  45.8764789   5.5670829  87.2935922
  55.8380354  16.1421580  85.1374638  56.2811501  15.3928905  84.7393761
  54.9606865  16.1331717  84.7548370  50.9716136  22.6951922  80.6181237
  51.6667040  23.3158614  80.8368551  51.3139286  21.8447273  80.8933614
  36.5883945  14.5169723  94.4778054  35.8465681  14.6652358  95.0642684
  36.2676689  14.7777988  93.6144803  52.8707559  20.1451627  82.1468567
  53.3958883  20.4838900  81.4217887  52.7829911  19.2098642  81.9631702
  44.5327608  24.0585701  94.2758444  44.8414734  23.8134848  95.1481143
  45.3303090  24.2632339  93.7877314  44.5548220  26.2123610  86.5063820
  44.1153210  25.7199989  87.1996677  45.3056337  25.6696578  86.2655896
  37.0340559  22.4035151  86.5088449  37.8598579  22.1038923  86.1287092
  36.6834611  21.6342774  86.9578237  42.0022092  21.7561620  88.5786122
  41.3802101  21.0932325  88.2788350  42.6726959  21.7822751  87.8959770
  35.2349164  20.3221478  87.4677382  34.3981072  19.8943652  87.2861383
  35.2072809  20.5153921  88.4048173  42.0746619  10.2343408  98.1718628
  42.1234775  11.1105530  97.7896398  42.6169134   9.6920801  97.5990271
  52.5601465  20.7784531  97.4519765  51.7697009  20.7608670  96.9124265
  52.3234820  21.3172824  98.2068802  52.6799340  17.6276997  94.7652494
  52.7297345  17.4627005  95.7068017  52.5713263  16.7604256  94.3750375
  41.5635599  20.3065543  82.0544583  41.7123719  20.9901007  81.4011255
  42.3702042  20.2870633  82.5694038  49.9703102  13.6107925  96.0811800
  50.8712965  13.4714390  95.7895798  50.0451077  13.7762380  97.0209978
  44.3045908  10.9874780  94.9264987  43.4349217  11.2808346  94.6547575
  44.5405388  11.5715225  95.6472250  54.1817537  20.0473939  95.0094515
  53.8902345  20.4103919  95.8457976  53.5689668  19.3340947  94.8307847
  55.3813219  17.6126818  87.5297086  56.2160111  18.0516623  87.6934646
  55.5172348  17.1365472  86.7105331  52.4304725  15.1706553  93.4774573
  52.9058847  15.3634200  92.6693425  51.5070290  15.2265739  93.2317957
  39.3188232  16.3330720  83.0605652  39.0734274  15.4293050  83.2585862
  39.4884146  16.3347871  82.1185130  47.0084942   7.2054397  92.4430407
  47.5266885   7.9415424  92.1176896  46.6540074   7.5118390  93.2777166
  38.5883879  12.0659078  80.5591813  37.8953124  12.1403433  79.9031849
  38.3435631  11.3019422  81.0813330  47.2597536   3.6254679  87.9631304
  47.5399290   2.9577868  88.5891730  48.0448143   3.8183775  87.4505968
  45.0631004  22.8013673  79.5256330  44.4904971  23.4203860  79.0726802
  45.6363798  23.3513035  80.0596252  51.1306394  12.0472313  91.7102879
  52.0823817  12.1470411  91.7315103  50.9609845  11.2550582  92.2200963
  49.1520774   9.1327897  91.8962280  48.5570706   9.4132909  91.2008768
  48.8670470   9.6221798  92.6679021  48.2828264  23.0850823  80.6564912
  49.2158937  23.0196385  80.8597788  48.1951477  23.9207090  80.1979445
  50.9116281  22.4016694  77.6168860  50.8329912  22.0676557  78.5104618
  51.7325948  22.8938462  77.6160332  53.6094472  15.2678433  90.8245179
  53.5770792  14.3294434  91.0104862  54.2195096  15.3462470  90.0911003
  45.4477803  14.1374486  76.8672383  46.3936907  14.0080694  76.9360801
  45.0692048  13.3989148  77.3441811  53.7588960  12.0589477  90.8703462
  53.2428009  11.2747933  90.6833391  54.6428909  11.7308193  91.0349981
  51.4199687   5.8030492  86.8299274  51.2224508   5.4945580  87.7142606
  52.0299393   6.5292131  86.9597204  59.4271022  16.3294440  89.9651215
  60.1574410  16.0679728  90.5258919  58.8177967  15.5923162  90.0053283
  57.5086319  14.4702303  90.5625667  56.7819482  14.3358267  89.9542158
  57.0933606  14.7779131  91.3682385  45.3316495  18.1892232  98.3273040
  46.2519505  18.3670831  98.5213086  45.2966078  17.2448278  98.1752739
  43.6320720  12.0624462  76.8027268  42.7252175  11.7657575  76.8789981
  43.9096701  11.7654281  75.9361554  34.5498660  13.3830826  87.2526314
  34.2301445  12.5296134  86.9600688  34.0032088  13.5979404  88.0084282
  38.3278568  16.0993267  90.9695821  38.5464578  17.0310375  90.9883855
  38.7404342  15.7401241  91.7550625  45.2482786   6.6061352  82.9571509
  44.4383514   6.2608437  83.3326755  45.9367203   6.2968896  83.5459121
  47.1773334   5.6839399  84.5795806  47.7304373   6.1034852  85.2385829
  47.4143420   4.7575147  84.6218762  42.4019505   8.9211398  76.9439247
  43.2638669   9.2466296  77.2035064  42.5869849   8.1342894  76.4312313
  34.4186920  17.0033737  89.2219436  33.7250392  16.5887690  88.7089390
  35.1659911  17.0454274  88.6252855  50.5552141   7.7939924  84.0874470
  49.9750810   8.4524728  83.7052522  50.2888074   6.9717269  83.6761888
  49.0055707   7.1944982  86.2895790  49.5055486   7.3061516  85.4810109
  49.6491315   6.8906035  86.9296599  43.0637703  15.1023611  99.1763631
  42.5804785  15.9023972  99.3827520  43.1498642  15.1131556  98.2231075
  36.3323663  16.9351991  87.0985451  36.3094351  17.0339678  86.1467334
  36.6424299  17.7817142  87.4202617  38.9911041  18.9928146  91.2132065
  39.9454294  18.9612088  91.1461997  38.7923564  18.5318770  92.0282291
  39.5810423  17.5629262  93.7802863  40.4003312  18.0573341  93.8037700
  39.8547231  16.6461230  93.7520430  49.3377019   9.9540015  83.1430818
  48.4502874  10.2389665  82.9251013  49.7531008   9.7933778  82.2958095
  52.6891555   9.9786535  86.8585158  53.4651945  10.4682988  87.1309774
  51.9639689  10.4044590  87.3157027  55.1264114  10.6914155  87.9159098
  55.7208605  10.4509891  87.2052406  55.1990697   9.9721285  88.5432634
  37.3461269  24.5347766  88.2302263  37.2115737  23.7748167  87.6640261
  36.9293332  25.2588666  87.7631052  48.4820233  19.7184689  77.2378838
  49.1856083  19.9234692  77.8536494  47.7582881  20.2861451  77.5027922
  49.3118043  15.4694550  83.3581108  49.2553244  15.9263102  82.5188741
  49.8646385  14.7085235  83.1803951  53.1222849  11.2584282  84.1831228
  52.8659783  10.8580918  85.0139436  52.4975717  11.9728076  84.0581367
  57.4335187  13.9980356  86.6902519  56.8734745  14.0673545  87.4634081
  56.8278690  13.8221340  85.9702016  40.5030395  25.4317083  88.4420706
  40.3862780  26.3762515  88.3399396  39.6822842  25.1290644  88.8306505
  50.3906930  20.1567218  79.2877298  51.2252534  19.7248417  79.1054773
  50.2291273  19.9849232  80.2154193  50.0452822  16.6599332  80.6533638
  49.9901626  16.4943603  79.7122082  49.4198877  17.3675365  80.8095827
  34.8345337  11.8967396  94.4795060  35.4804201  11.3866350  94.9682285
  34.6262488  12.6336078  95.0538485  47.3598729  18.9648244  99.9787200
  48.2289889  19.1388896  99.6173835  46.8805481  19.7842660  99.8562930
  43.3548948   6.1607441  80.2318956  43.3427617   7.1049281  80.3887227
  44.2472369   5.9777586  79.9378417  41.5284909  26.0845345  91.6576634
  42.4312156  26.1168955  91.9743129  41.3022280  25.1545796  91.6722970
  43.2838512  24.8376331  88.3186713  42.3334143  24.8378193  88.2051085
  43.5870998  24.0909066  87.8022747  47.1701067   2.7550217  84.4864893
  46.4033463   2.2008704  84.6321575  47.5811772   2.8272086  85.3479044
  59.0191205  30.6736869  89.3832475  59.6569615  30.5543617  88.6795815
  58.9012048  31.6217713  89.4420427  55.8280911  30.6264298  89.3194000
  55.4899423  30.5105362  88.4314535  56.6970679  30.2255463  89.2995006
  51.6867727  32.4799774  85.3090891  51.1232592  32.3889711  84.5407178
  51.5720122  31.6599678  85.7893383  56.3100694  31.7799149  95.2780205
  56.2989335  31.3851948  94.4060709  56.4721334  31.0465222  95.8713977
  49.2332159  33.9750966  88.1475111  50.0253451  33.6341790  87.7321410
  49.4728809  34.0845941  89.0677264  57.2667286  36.1470742  80.6205356
  56.6155265  36.7324822  80.2339369  58.0611648  36.6776937  80.6800393
  51.1922913  33.2359879  81.0192490  51.9653789  32.6888866  80.8805366
  51.5448312  34.1004128  81.2306951  53.0307955  34.5636261  94.2259389
  52.7397821  35.4681892  94.1106056  53.6664940  34.6052789  94.9403459
  53.9564162  31.9413110  90.8160749  54.5527735  31.7169132  90.1017712
  54.0139134  31.1997855  91.4186197  53.5289191  29.3952545  78.6510940
  53.7814711  28.8734066  77.8894403  52.5913750  29.2318690  78.7537623
  58.5732473  28.3988323  86.4585683  59.3595563  27.9807747  86.1076100
  58.8371178  29.3034416  86.6267331  58.7442551  33.8361174  81.1574340
  58.1088384  33.9095800  81.8695245  58.4139957  34.4254772  80.4793419
  63.9740901  28.3363557  87.3618662  64.7066073  27.7662773  87.5956491
  63.2180256  27.9485157  87.8025167  53.2485479  31.2980651  80.8535315
  53.1321738  30.6225554  81.5216399  53.3587739  30.8113025  80.0367468
  55.5917020  30.7590798  84.5582004  55.2275228  30.2321419  85.2694926
  56.4484136  30.3689267  84.3848489  61.4966321  22.0485131  91.8213270
  61.1649646  22.9180542  91.5974485  60.9011934  21.7321415  92.5007301
  55.2322507  25.7880698  79.5543353  55.3996910  26.6560934  79.9213824
  55.0419676  25.9507979  78.6304642  57.9897840  34.2497677  91.2209183
  57.6898564  35.1522715  91.1124990  57.6448900  33.9829860  92.0730336
  51.4410322  30.7011473  87.2545887  50.5160818  30.5687688  87.4623579
  51.6894735  31.4805693  87.7515830  61.3894984  26.7680217  88.9006620
  60.4811862  26.6995625  88.6065381  61.3382580  27.2452162  89.7288446
  55.2111728  28.2438355  80.5390019  55.0911353  28.6895406  81.3775500
  54.5164317  28.5923673  79.9803558  48.8019133  30.3444747  88.0889676
  48.9311514  30.5979226  89.0029088  48.1216584  30.9372455  87.7694332
  52.9718620  41.0141997  84.1880151  52.8942650  41.9649822  84.2668631
  52.3680264  40.6687869  84.8455077  55.4635850  28.1869862  96.8441518
  54.6869184  28.7463783  96.8344382  56.1026413  28.6726645  97.3656388
  63.2556631  24.9696655  90.6784494  62.6131011  25.2629188  90.0324289
  62.7511559  24.8549576  91.4837691  60.9096794  28.7159828  81.3670353
  61.8214650  28.9487215  81.1918051  60.4006441  29.2996873  80.8045432
  53.7182222  30.9955316  96.4059485  54.4596907  31.5340360  96.1294308
  53.0119208  31.6221605  96.5631036  59.1937562  33.1384456  95.0031646
  59.6020918  32.6966867  94.2586278  58.4714824  32.5637084  95.2565839
  55.5468632  28.0757063  92.3765203  56.3929827  28.4996477  92.5199852
  55.4867270  27.4190687  93.0703766  59.5166377  33.6985647  88.7583935
  58.8875239  33.8631361  88.0560003  59.1292039  34.1127256  89.5294899
  63.3955609  34.6340085  86.1128299  62.7106647  35.0138986  85.5625332
  63.4799458  35.2435411  86.8460246  58.6968077  25.7361431  94.0346377
  58.4529009  26.4903492  93.4980652  58.9728008  26.1146779  94.8693624
  60.6506540  32.2800044  92.7123642  60.8623435  32.9231804  92.0358023
  60.6036288  31.4462360  92.2445572  58.2532769  24.8917864  89.6160214
  57.3917248  25.1899118  89.9076952  58.2795204  25.1088263  88.6841247
  55.0694339  33.4360055  86.0234020  55.5332684  33.7147758  85.2338643
  54.8051137  32.5343500  85.8407111  51.9618420  32.9831536  88.9613783
  52.5319777  33.4118805  88.3231268  52.5526531  32.7014121  89.6597969
  54.0063225  29.5583207  82.8323585  54.7087268  30.0104251  83.2997512
  53.6743853  28.9167026  83.4603478  52.4543586  28.1494964  97.2074795
  51.8242247  28.8311245  97.4410191  52.3479674  28.0378046  96.2627933
  47.7488559  27.8166760  88.1340719  46.9587613  28.0724289  87.6580829
  48.2399806  28.6315098  88.2392759  61.7652368  35.1571999  90.8846000
  62.5869812  34.7552186  90.6028681  61.7614771  35.0540233  91.8362115
  49.7003304  28.1811339  85.0924195  48.9034467  28.2930033  85.6107691
  49.4728896  28.5197991  84.2265086  55.5308972  34.7056042  93.0406710
  55.5953404  35.1676450  93.8764882  54.8219895  34.0753407  93.1689020
  46.0326262  28.0697250  90.5655710  46.2834300  28.9544260  90.8313285
  46.5685810  27.8901852  89.7930801  69.8558361  31.5010748  87.2330971
  69.1022070  30.9318146  87.0774975  69.9905902  31.4673412  88.1801606
  55.2456989  36.3724150  82.9085690  55.1102664  37.2175686  83.3370538
  55.7866802  36.5743428  82.1451624  51.7324329  22.4515730  99.5700046
  51.3391274  21.8981928 100.2447690  52.5490469  22.7626308  99.9606563
  48.6986387  33.8899588  83.4813615  49.2110907  34.6842838  83.6319180
  49.3509099  33.1925878  83.4147217  50.5081271  37.0065344  85.5636369
  50.6847900  37.9283309  85.3757353  51.3038105  36.6923763  85.9930748
  54.6492290  23.8673609  97.1620302  55.3902003  24.4680762  97.0824765
  54.8810213  23.1251247  96.6038345  49.7933628  29.0529976  95.4398532
  49.6787143  28.1515233  95.7405631  48.9378146  29.2993673  95.0883348
  56.8725466  36.9947716  97.0386032  56.4289320  36.2084095  96.7206937
  57.5342679  37.1826867  96.3729923  51.6312587  38.5243518  91.5646711
  52.1820012  38.3960581  90.7923705  50.7924063  38.8238407  91.2141604
  58.9706704  37.2750516  95.0667434  58.9525179  38.0959397  94.5747703
  59.8926624  37.1504592  95.2917575  55.4279758  34.7894646  95.9090942
  55.9608095  34.0282934  95.6790250  54.8993839  34.4968298  96.6515097
  58.5949453  19.8954712  91.4384584  58.2513722  20.7856354  91.3623694
  58.9628415  19.7056369  90.5754169  46.6635303  32.2188242  84.2573186
  47.5010525  32.6285251  84.0406894  46.8413571  31.2787684  84.2273380
  58.5599736  29.8863323  79.9457019  58.0446359  30.6567928  80.1845406
  58.2877044  29.2128459  80.5690080  56.1446847  24.7313024  85.0042257
  55.2888443  24.3419874  84.8247896  56.5573798  24.8104985  84.1442043
  57.6745993  22.2659367  89.4033817  57.1710789  22.2289502  88.5901622
  57.9676600  23.1752110  89.4630474  53.9188879  22.3498097  88.4099999
  54.7841876  22.1540905  88.0505888  53.9866388  22.1208448  89.3369356
  63.5334010  32.6395678  81.8810192  62.7563452  32.3006837  81.4365355
  64.2125491  32.6448301  81.2065157  58.3486039  27.7590415  81.7716800
  58.0436174  28.0736564  82.6226943  59.3016481  27.8371835  81.8144133
  56.7932471  33.9180638  83.4209754  56.2653832  33.1833398  83.1082992
  56.2919973  34.6955315  83.1749722  61.7725317  32.1129659  88.5376800
  61.1148991  32.8028920  88.6256929  62.5765716  32.5026091  88.8810787
  51.5251198  24.5800305  85.7816366  52.0994950  24.3575486  85.0489559
  52.1122181  24.6488999  86.5344967  60.5830775  30.4674032  86.5880742
  61.0962657  31.1004023  87.0902452  61.2331999  29.8675227  86.2224102
  51.8520785  26.6104766  79.8012251  51.0158097  26.9479452  80.1221526
  51.7125555  26.4753745  78.8639388  53.8273866  21.4541554  84.5091435
  53.1738278  21.1390571  83.8848050  53.7854340  20.8317294  85.2351258
  54.9385071  31.7360849  76.4244727  54.0312132  31.5050102  76.6235876
  55.4356103  30.9398468  76.6118709  57.8453150  40.4458356  79.3441413
  57.1714848  40.7490053  79.9526371  58.2318972  41.2487436  78.9946870
  57.0611606  27.9423487  88.8339083  56.1434168  28.1638434  88.6760771
  57.4771750  28.0169798  87.9750790  57.8446654  29.3414903  83.9641763
  58.5918473  29.8536300  83.6548885  58.1138244  29.0198955  84.8246157
  56.1173304  31.8373443  80.9468717  55.2084523  31.5532476  81.0441187
  56.1468388  32.2572522  80.0872024  61.3492572  35.4480033  84.7159885
  60.8954899  34.6070943  84.7725075  60.7186538  36.0841431  85.0534665
  60.2925491  26.3772019  85.9460552  59.5548248  25.8649405  86.2770795
  60.5452265  25.9372401  85.1343829  59.7925511  37.2856530  85.6509703
  60.0848485  37.8461587  84.9322069  60.3024131  37.5785091  86.4062862
  60.3937118  19.1548271  86.5402322  60.6995995  18.2945634  86.2528237
  61.1189723  19.7465891  86.3401315  46.6861475  29.5578958  84.9283919
  46.4885874  28.9648318  84.2034986  46.1308139  29.2531168  85.6459858
  54.6658198  29.4502064  87.0478513  54.7206808  28.4975900  86.9720989
  53.8549400  29.6061503  87.5319811  55.8149392  33.3782187  78.2856796
  55.3768822  32.6618046  77.8262433  56.5559833  33.6058302  77.7241887
  52.6050558  28.0679124  84.8068891  51.7918424  28.3673294  85.2134084
  53.1009552  27.6734813  85.5243374  54.7559136  38.0636881  86.7403156
  54.7135315  38.2897727  85.8111688  55.6721835  37.8300255  86.8888957
  58.2024770  28.5320948  93.6383785  58.5574158  28.7592421  94.4978251
  58.8496901  28.8639325  93.0161041  63.9322507  31.6539384  84.3433114
  63.7940405  31.8440980  83.4154304  63.5758726  32.4158767  84.8001166
  52.0964633  25.6397479  90.4230126  52.7364012  25.4986238  89.7253090
  51.2642163  25.3531993  90.0468728  63.9591886  33.7215911  89.3544386
  64.3928393  33.6291200  90.2027440  64.6723467  33.6973412  88.7164402
  52.8724937  34.9399910  86.5365119  53.6665535  34.4450230  86.3347694
  52.1616629  34.4117773  86.1732824  57.6919781  37.3218005  90.8877486
  57.7456804  37.8908942  91.6555202  56.8234563  37.4919890  90.5231524
  49.1807700  29.0842992  82.6124872  48.2505288  29.0227447  82.8294834
  49.2765172  28.5618944  81.8161513  49.0993249  25.6097804  85.2003113
  49.3600067  26.5243138  85.0912274  49.9210422  25.1422247  85.3499726
  50.5718175  27.0235562  92.3701938  51.2441228  26.8152924  91.7214587
  49.7447961  26.8257648  91.9307170  64.8207436  33.7639612  91.8877271
  65.0143326  34.6685422  92.1336546  64.7208054  33.3047031  92.7215856
  56.4743747  23.6497502  94.3867599  55.8271662  24.3487452  94.2932075
  57.2444762  24.0833646  94.7543847  59.8822545  33.9146355  97.4618152
  59.7308051  33.6856906  96.5448236  59.8727224  34.8716956  97.4749497
  56.6507881  31.4878267  92.4464418  57.5799941  31.6389427  92.2733386
  56.2298911  31.5762288  91.5913065  55.4496213  35.5128932  90.2162956
  55.3107298  35.1447716  91.0888894  54.6610809  36.0276571  90.0446914
  56.0444365  40.6138028  81.5588492  56.2196120  40.1426071  82.3734115
  55.3577153  41.2403794  81.7869753  57.0001428  34.8910534  87.6051794
  56.6651261  34.8511304  88.5009444  56.5005374  34.2255250  87.1322204
  50.9745672  30.2978164  93.1304375  50.8365470  29.5658403  93.7315914
  51.8850595  30.2087065  92.8488563  59.9360620  32.2366569  77.8788853
  59.3189790  31.5113397  77.7821906  59.4677108  32.9975929  77.5355928
  53.6027973  30.0098124  92.6188055  54.3127591  29.3691316  92.5774673
  53.5597281  30.2611019  93.5414235  61.5914751  36.9465477  95.5394634
  61.5327297  36.2624697  94.8725217  61.9934270  37.6884467  95.0875260
  52.3156907  26.9963342  94.4383694  51.7794264  26.5454080  95.0905290
  51.7273615  27.1309251  93.6954158  50.6105450  43.7627391  88.3328353
  50.8502048  44.3945915  89.0107371  49.7674646  43.4115431  88.6193712
  51.7259165  26.4551993  77.0010158  50.8488632  26.3340794  76.6372404
  52.2016919  25.6638071  76.7489046  61.5932158  34.9105061  93.7708613
  60.7058937  34.5730983  93.8935012  62.1630710  34.1788092  94.0077379
  43.2461306  31.2429153  87.0951665  43.9332345  30.9290883  86.5072680
  43.0909434  32.1470517  86.8218916  48.0496028  26.1319349  91.5236689
  47.9654216  25.5245019  90.7887098  47.2278734  26.6228368  91.5246185
  55.1233312  39.5706513  90.7369857  55.0503483  40.3761485  91.2489161
  54.6810705  39.7698479  89.9117878  54.9123091  38.8078283  84.2472678
  54.1290613  39.3499964  84.3410903  55.6115837  39.3252263  84.6466919
  58.2219742  24.6172913  86.8906884  58.7188441  23.8642875  86.5707954
  57.4506723  24.6537230  86.3250093  66.0749499  30.3213278  88.5325175
  66.0639375  31.2037994  88.1619108  65.2066878  29.9684829  88.3379712
  57.5831995  39.4693347  92.8928015  58.2959968  40.1040812  92.8203917
  57.0922024  39.5657213  92.0768017  59.3049522  33.3744600  84.4645307
  58.3705801  33.4946063  84.2950011  59.4826191  32.4717067  84.2005317
  54.8054710  26.7590296  86.6178568  54.4352498  26.2061336  87.3059474
  55.3013803  26.1548429  86.0653568  62.6922074  29.2161919  84.9995341
  63.1582526  30.0489911  84.9255644  63.1429574  28.7506901  85.7040600
  52.6343909  37.2187791  93.7133586  53.3353368  37.8524274  93.8662980
  52.1639024  37.5602522  92.9529225  60.7598305  35.5605741  81.9981493
  61.0358149  35.4462335  82.9075367  59.8902803  35.1623226  81.9593666
  60.6638736  21.5842506  89.0386242  59.7501816  21.8146733  89.2068449
  61.0931838  21.6680950  89.8900275  60.4345195  29.7732398  91.5386136
  59.7816645  30.0208306  90.8838589  60.8125575  28.9596537  91.2048614
  57.3952369  39.8092092  85.6414307  57.5774763  38.9913747  86.1042059
  58.2185355  40.0259784  85.2039197  57.7294534  38.7360277  82.9029355
  58.2582301  38.2252731  82.2899517  57.9922754  38.4202807  83.7674888
  56.4832768  30.5152209  98.0252174  55.8073405  30.4146339  98.6954549
  57.3060402  30.3591423  98.4888171  48.2311627  36.7524146  90.6464689
  48.8165064  36.0067834  90.7792593  48.0336465  37.0628103  91.5301353
  51.0850282  39.7875393  85.6627131  50.4160657  40.2721521  85.1791171
  50.9463152  40.0344614  86.5770510  42.8229282  29.3229746  89.3669132
  42.8613381  28.7893337  90.1606250  42.3169575  28.7964952  88.7480109
  55.2255551  41.8219137  92.2609790  55.7773859  41.9850758  93.0258875
  55.5661744  42.4123575  91.5889814  50.2020044  24.1694287  92.8631674
  50.2661371  25.0309118  92.4509072  50.1387164  23.5568288  92.1304033
  49.6772317  26.2417419  96.5104709  50.3044355  25.8594497  97.1242233
  48.8200235  26.0231621  96.8760401  60.0766425  36.6480394  98.1158444
  60.6206329  37.2610353  97.6213399  59.4953270  37.2059973  98.6325457
  46.4537859  28.0493848  82.4423063  46.7491300  27.1404527  82.3890117
  45.5525895  28.0281588  82.1204066  58.3623938  39.7701112  89.2473472
  58.2375078  38.9690852  88.7384417  59.0203029  40.2647306  88.7587442
  49.9832106  26.1249845  88.4250612  49.2618692  26.7385813  88.2858085
  50.7725362  26.6607610  88.3467258  60.4258846  37.5710132  90.8753022
  59.4789182  37.4515484  90.8031349  60.7741620  36.6832631  90.9579283
  52.7858420  23.4604271  94.6991264  53.3092822  23.7066568  95.4617573
  52.5670753  24.2924306  94.2794401  48.1825701  25.7307946  82.5662388
  47.8538407  24.8505325  82.3837494  48.5365072  25.6755615  83.4538778
  57.4305280  37.3662849  87.0757374  57.2830242  36.4379556  87.2564944
  58.2558773  37.3882939  86.5914449  51.2967524  26.0180916  82.9337866
  51.6363597  26.5466837  82.2116475  51.7439645  26.3561322  83.7096433
  61.0339402  38.1891407  88.1622247  61.9585949  37.9834269  88.0246698
  60.8654705  37.9407809  89.0711588  53.9910965  24.4017967  92.3840934
  53.6507785  23.6025780  92.7861614  53.2849971  24.7019677  91.8117767
  54.6427437  21.4867279  90.8368257  55.4653506  21.0127757  90.7147148
  54.8865500  22.2657763  91.3366944  53.2835671  24.5155537  81.1331159
  54.0044034  24.8936790  80.6294876  52.6600975  25.2344414  81.2366137
  57.4266794  25.2200686  82.0689491  57.6430408  26.1025324  81.7678319
  56.9460861  24.8286900  81.3395133  52.1666015  28.1786400  88.6460236
  52.0210596  28.4926703  89.5384517  51.6891219  28.7971300  88.0931134
  54.0262398  25.1688948  88.6941125  54.0123967  24.2730041  88.3573423
  54.7434826  25.1759611  89.3279411  55.8788529  25.6026288  90.7394253
  55.6206307  26.5243358  90.7378583  55.3473569  25.2056722  91.4294717
  60.8234718  38.7077075  83.5184338  60.9971595  38.1423497  82.7658191
  61.3163609  39.5077970  83.3363828  46.6411678  30.7191744  91.5847897
  46.0965146  31.4951552  91.7168171  47.5191027  31.0662548  91.4267018
  53.4299294  24.0503328  83.9628696  53.5515205  23.1219974  84.1619583
  53.1401337  24.0642014  83.0507011  56.2990485  21.7358238  87.0995415
  56.3212181  21.7997571  86.1447395  56.7158544  20.8962747  87.2935922
  66.6774109  31.4713498  85.1374638  67.1205255  30.7220823  84.7393761
  65.8000619  31.4623634  84.7548370  61.8109890  38.0243839  80.6181237
  62.5060795  38.6450532  80.8368551  62.1533040  37.1739191  80.8933614
  47.4277699  29.8461640  94.4778054  46.6859436  29.9944276  95.0642684
  47.1070444  30.1069906  93.6144803  63.7101313  35.4743545  82.1468567
  64.2352638  35.8130818  81.4217887  63.6223666  34.5390560  81.9631702
  55.3721362  39.3877618  94.2758444  55.6808489  39.1426765  95.1481143
  56.1696844  39.5924257  93.7877314  55.3941974  41.5415528  86.5063820
  54.9546964  41.0491907  87.1996677  56.1450091  40.9988496  86.2655896
  47.8734313  37.7327069  86.5088449  48.6992333  37.4330841  86.1287092
  47.5228365  36.9634691  86.9578237  52.8415846  37.0853537  88.5786122
  52.2195856  36.4224242  88.2788350  53.5120713  37.1114669  87.8959770
  46.0742918  35.6513395  87.4677382  45.2374827  35.2235570  87.2861383
  46.0466564  35.8445839  88.4048173  52.9140374  25.5635325  98.1718628
  52.9628529  26.4397448  97.7896398  53.4562888  25.0212718  97.5990271
  63.3995219  36.1076448  97.4519765  62.6090763  36.0900587  96.9124265
  63.1628574  36.6464742  98.2068802  63.5193095  32.9568915  94.7652494
  63.5691099  32.7918922  95.7068017  63.4107018  32.0896174  94.3750375
  52.4029353  35.6357461  82.0544583  52.5517474  36.3192925  81.4011255
  53.2095797  35.6162551  82.5694038  60.8096857  28.9399843  96.0811800
  61.7106720  28.8006308  95.7895798  60.8844831  29.1054298  97.0209978
  55.1439662  26.3166698  94.9264987  54.2742972  26.6100264  94.6547575
  55.3799143  26.9007143  95.6472250  65.0211291  35.3765856  95.0094515
  64.7296100  35.7395837  95.8457976  64.4083423  34.6632865  94.8307847
  66.2206974  32.9418736  87.5297086  67.0553865  33.3808540  87.6934646
  66.3566102  32.4657389  86.7105331  63.2698480  30.4998471  93.4774573
  63.7452601  30.6926117  92.6693425  62.3464045  30.5557657  93.2317957
  50.1581986  31.6622638  83.0605652  49.9128028  30.7584968  83.2585862
  50.3277901  31.6639789  82.1185130  57.8478696  22.5346315  92.4430407
  58.3660640  23.2707341  92.1176896  57.4933829  22.8410308  93.2777166
  49.4277634  27.3950996  80.5591813  48.7346879  27.4695351  79.9031849
  49.1829386  26.6311339  81.0813330  58.0991290  18.9546597  87.9631304
  58.3793044  18.2869786  88.5891730  58.8841897  19.1475693  87.4505968
  55.9024759  38.1305591  79.5256330  55.3298726  38.7495778  79.0726802
  56.4757552  38.6804953  80.0596252  61.9700149  27.3764231  91.7102879
  62.9217571  27.4762329  91.7315103  61.8003599  26.5842500  92.2200963
  59.9914528  24.4619814  91.8962280  59.3964460  24.7424827  91.2008768
  59.7064225  24.9513715  92.6679021  59.1222019  38.4142741  80.6564912
  60.0552692  38.3488303  80.8597788  59.0345231  39.2499008  80.1979445
  61.7510035  37.7308611  77.6168860  61.6723667  37.3968475  78.5104618
  62.5719702  38.2230379  77.6160332  64.4488226  30.5970351  90.8245179
  64.4164546  29.6586351  91.0104862  65.0588850  30.6754387  90.0911003
  56.2871557  29.4666404  76.8672383  57.2330662  29.3372612  76.9360801
  55.9085802  28.7281066  77.3441811  64.5982715  27.3881394  90.8703462
  64.0821764  26.6039851  90.6833391  65.4822663  27.0600111  91.0349981
  62.2593442  21.1322410  86.8299274  62.0618263  20.8237498  87.7142606
  62.8693147  21.8584049  86.9597204  70.2664776  31.6586358  89.9651215
  70.9968165  31.3971646  90.5258919  69.6571722  30.9215080  90.0053283
  68.3480073  29.7994220  90.5625667  67.6213237  29.6650185  89.9542158
  67.9327360  30.1071049  91.3682385  56.1710250  33.5184150  98.3273040
  57.0913259  33.6962749  98.5213086  56.1359833  32.5740195  98.1752739
  54.4714474  27.3916380  76.8027268  53.5645930  27.0949493  76.8789981
  54.7490455  27.0946198  75.9361554  45.3892415  28.7122744  87.2526314
  45.0695199  27.8588052  86.9600688  44.8425843  28.9271322  88.0084282
  49.1672322  31.4285185  90.9695821  49.3858332  32.3602292  90.9883855
  49.5798096  31.0693159  91.7550625  56.0876540  21.9353270  82.9571509
  55.2777268  21.5900355  83.3326755  56.7760957  21.6260814  83.5459121
  58.0167088  21.0131317  84.5795806  58.5698127  21.4326770  85.2385829
  58.2537175  20.0867065  84.6218762  54.0400188  27.0018390 100.3598570
  53.9396915  27.9512747 100.2910661  53.8221730  26.6736629  99.4874640
  53.2413259  24.2503315  76.9439247  54.1032423  24.5758214  77.2035064
  53.4263603  23.4634811  76.4312313  45.2580675  32.3325655  89.2219436
  44.5644146  31.9179608  88.7089390  46.0053666  32.3746192  88.6252855
  61.3945896  23.1231842  84.0874470  60.8144565  23.7816646  83.7052522
  61.1281828  22.3009186  83.6761888  59.8449462  22.5236900  86.2895790
  60.3449240  22.6353434  85.4810109  60.4885070  22.2197952  86.9296599
  53.9031458  30.4315529  99.1763631  53.4198539  31.2315889  99.3827520
  53.9892397  30.4423474  98.2231075  47.1717417  32.2643909  87.0985451
  47.1488105  32.3631596  86.1467334  47.4818054  33.1109060  87.4202617
  49.8304795  34.3220064  91.2132065  50.7848049  34.2904006  91.1461997
  49.6317319  33.8610688  92.0282291  50.4204177  32.8921180  93.7802863
  51.2397066  33.3865259  93.8037700  50.6940985  31.9753148  93.7520430
  60.1770774  25.2831932  83.1430818  59.2896629  25.5681583  82.9251013
  60.5924763  25.1225696  82.2958095  63.5285310  25.3078453  86.8585158
  64.3045700  25.7974906  87.1309774  62.8033444  25.7336507  87.3157027
  65.9657868  26.0206072  87.9159098  66.5602359  25.7801808  87.2052406
  66.0384452  25.3013203  88.5432634  48.1855024  39.8639683  88.2302263
  48.0509492  39.1040084  87.6640261  47.7687086  40.5880583  87.7631052
  59.3213987  35.0476607  77.2378838  60.0249837  35.2526609  77.8536494
  58.5976636  35.6153369  77.5027922  60.1511797  30.7986468  83.3581108
  60.0946999  31.2555020  82.5188741  60.7040140  30.0377153  83.1803951
  63.9616603  26.5876200  84.1831228  63.7053537  26.1872836  85.0139436
  63.3369471  27.3019994  84.0581367  68.2728941  29.3272273  86.6902519
  67.7128499  29.3965463  87.4634081  67.6672444  29.1513258  85.9702016
  51.3424150  40.7609000  88.4420706  51.2256534  41.7054433  88.3399396
  50.5216596  40.4582562  88.8306505  61.2300684  35.4859136  79.2877298
  62.0646288  35.0540335  79.1054773  61.0685027  35.3141150  80.2154193
  60.8846577  31.9891249  80.6533638  60.8295380  31.8235521  79.7122082
  60.2592632  32.6967282  80.8095827  45.6739092  27.2259314  94.4795060
  46.3197955  26.7158268  94.9682285  45.4656243  27.9627995  95.0538485
  58.1992484  34.2940161  99.9787200  59.0683643  34.4680814  99.6173835
  57.7199235  35.1134578  99.8562930  54.1942702  21.4899358  80.2318956
  54.1821372  22.4341198  80.3887227  55.0866124  21.3069504  79.9378417
  52.3678664  41.4137262  91.6576634  53.2705911  41.4460873  91.9743129
  52.1416034  40.4837713  91.6722970  54.1232266  40.1668249  88.3186713
  53.1727897  40.1670110  88.2051085  54.4264752  39.4200983  87.8022747
  58.0094821  18.0842135  84.4864893  57.2427217  17.5300622  84.6321575
  58.4205526  18.1564004  85.3479044  50.0136583  24.3726931  98.5770074
  50.8768044  24.0163736  98.7873399  49.4401993  24.0340826  99.2645478
  69.8584959  46.0028787  89.3832475  70.4963369  45.8835535  88.6795815
  69.7405802  46.9509631  89.4420427  66.6674666  45.9556215  89.3194000
  66.3293177  45.8397280  88.4314535  67.5364434  45.5547380  89.2995006
  62.5261481  47.8091692  85.3090891  61.9626347  47.7181629  84.5407178
  62.4113877  46.9891596  85.7893383  67.1494449  47.1091067  95.2780205
  67.1383090  46.7143865  94.4060709  67.3115088  46.3757140  95.8713977
  60.0725913  49.3042883  88.1475111  60.8647205  48.9633708  87.7321410
  60.3122564  49.4137858  89.0677264  63.8701710  49.8928179  94.2259389
  63.5791576  50.7973810  94.1106056  64.5058694  49.9344706  94.9403459
  64.7957917  47.2705027  90.8160749  65.3921489  47.0461050  90.1017712
  64.8532888  46.5289773  91.4186197  64.3682945  44.7244463  78.6510940
  64.6208466  44.2025984  77.8894403  63.4307504  44.5610608  78.7537623
  69.4126228  43.7280241  86.4585683  70.1989317  43.3099664  86.1076100
  69.6764932  44.6326333  86.6267331  69.5836305  49.1653091  81.1574340
  68.9482138  49.2387718  81.8695245  69.2533712  49.7546690  80.4793419
  74.8134655  43.6655474  87.3618662  75.5459827  43.0954691  87.5956491
  74.0574011  43.2777075  87.8025167  66.4310775  46.0882716  84.5582004
  66.0668982  45.5613337  85.2694926  67.2877891  45.6981185  84.3848489
  72.3360075  37.3777048  91.8213270  72.0043400  38.2472459  91.5974485
  71.7405689  37.0613332  92.5007301  66.0716262  41.1172615  79.5543353
  66.2390664  41.9852852  79.9213824  65.8813431  41.2799897  78.6304642
  68.8291595  49.5789594  91.2209183  68.5292318  50.4814633  91.1124990
  68.4842655  49.3121778  92.0730336  62.2804076  46.0303391  87.2545887
  61.3554573  45.8979605  87.4623579  62.5288490  46.8097610  87.7515830
  72.2288739  42.0972135  88.9006620  71.3205616  42.0287543  88.6065381
  72.1776335  42.5744079  89.7288446  66.0505483  43.5730273  80.5390019
  65.9305108  44.0187324  81.3775500  65.3558071  43.9215591  79.9803558
  59.6412888  45.6736665  88.0889676  59.7705269  45.9271144  89.0029088
  58.9610339  46.2664373  87.7694332  63.8112375  56.3433915  84.1880151
  63.7336404  57.2941740  84.2668631  63.2074018  55.9979787  84.8455077
  66.3029605  43.5161780  96.8441518  65.5262939  44.0755700  96.8344382
  66.9420168  44.0018563  97.3656388  74.0950385  40.2988573  90.6784494
  73.4524765  40.5921106  90.0324289  73.5905314  40.1841493  91.4837691
  71.7490549  44.0451746  81.3670353  72.6608405  44.2779133  81.1918051
  71.2400196  44.6288790  80.8045432  64.5575977  46.3247233  96.4059485
  65.2990661  46.8632277  96.1294308  63.8512962  46.9513522  96.5631036
  70.0331317  48.4676374  95.0031646  70.4414673  48.0258784  94.2586278
  69.3108578  47.8929001  95.2565839  66.3862387  43.4048981  92.3765203
  67.2323582  43.8288394  92.5199852  66.3261024  42.7482605  93.0703766
  70.3560131  49.0277565  88.7583935  69.7268994  49.1923279  88.0560003
  69.9685793  49.4419174  89.5294899  74.2349363  49.9632002  86.1128299
  73.5500401  50.3430904  85.5625332  74.3193212  50.5727329  86.8460246
  69.5361832  41.0653349  94.0346377  69.2922764  41.8195410  93.4980652
  69.8121762  41.4438697  94.8693624  71.4900295  47.6091961  92.7123642
  71.7017190  48.2523721  92.0358023  71.4430043  46.7754278  92.2445572
  69.0926524  40.2209782  89.6160214  68.2311003  40.5191036  89.9076952
  69.1188958  40.4380181  88.6841247  65.9088093  48.7651973  86.0234020
  66.3726439  49.0439676  85.2338643  65.6444891  47.8635417  85.8407111
  62.8012174  48.3123454  88.9613783  63.3713531  48.7410723  88.3231268
  63.3920286  48.0306039  89.6597969  64.8456979  44.8875125  82.8323585
  65.5481022  45.3396169  83.2997512  64.5137608  44.2458944  83.4603478
  63.2937341  43.4786882  97.2074795  62.6636001  44.1603162  97.4410191
  63.1873428  43.3669963  96.2627933  58.5882313  43.1458678  88.1340719
  57.7981367  43.4016206  87.6580829  59.0793560  43.9607016  88.2392759
  72.6046123  50.4863917  90.8846000  73.4263566  50.0844104  90.6028681
  72.6008525  50.3832151  91.8362115  60.5397058  43.5103257  85.0924195
  59.7428222  43.6221951  85.6107691  60.3122651  43.8489909  84.2265086
  66.3702726  50.0347960  93.0406710  66.4347159  50.4968367  93.8764882
  65.6613650  49.4045325  93.1689020  56.8720016  43.3989168  90.5655710
  57.1228054  44.2836178  90.8313285  57.4079564  43.2193770  89.7930801
  80.6952116  46.8302665  87.2330971  79.9415824  46.2610063  87.0774975
  80.8299657  46.7965330  88.1801606  66.0850744  51.7016068  82.9085690
  65.9496418  52.5467603  83.3370538  66.6260556  51.9035345  82.1451624
  62.5718083  37.7807647  99.5700046  62.1785029  37.2273846 100.2447690
  63.3884224  38.0918226  99.9606563  59.5380141  49.2191506  83.4813615
  60.0504662  50.0134756  83.6319180  60.1902854  48.5217796  83.4147217
  61.3475026  52.3357262  85.5636369  61.5241654  53.2575227  85.3757353
  62.1431859  52.0215681  85.9930748  65.4886044  39.1965527  97.1620302
  66.2295758  39.7972680  97.0824765  65.7203967  38.4543164  96.6038345
  60.6327382  44.3821894  95.4398532  60.5180897  43.4807151  95.7405631
  59.7771900  44.6285591  95.0883348  67.7119220  52.3239634  97.0386032
  67.2683074  51.5376013  96.7206937  68.3736434  52.5118785  96.3729923
  62.4706341  53.8535436  91.5646711  63.0213766  53.7252499  90.7923705
  61.6317817  54.1530325  91.2141604  69.8100458  52.6042434  95.0667434
  69.7918933  53.4251315  94.5747703  70.7320378  52.4796509  95.2917575
  66.2673512  50.1186564  95.9090942  66.8001849  49.3574852  95.6790250
  65.7387593  49.8260215  96.6515097  69.4343207  35.2246630  91.4384584
  69.0907477  36.1148271  91.3623694  69.8022170  35.0348287  90.5754169
  69.3993490  45.2155241  79.9457019  68.8840113  45.9859845  80.1845406
  69.1270798  44.5420377  80.5690080  66.9840601  40.0604941  85.0042257
  66.1282197  39.6711792  84.8247896  67.3967553  40.1396902  84.1442043
  68.5139748  37.5951285  89.4033817  68.0104543  37.5581420  88.5901622
  68.8070355  38.5044027  89.4630474  64.7582634  37.6790014  88.4099999
  65.6235630  37.4832823  88.0505888  64.8260142  37.4500366  89.3369356
  74.3727764  47.9687595  81.8810192  73.5957207  47.6298755  81.4365355
  75.0519245  47.9740218  81.2065157  69.1879793  43.0882333  81.7716800
  68.8829929  43.4028482  82.6226943  70.1410235  43.1663753  81.8144133
  67.6326225  49.2472556  83.4209754  67.1047587  48.5125316  83.1082992
  67.1313728  50.0247232  83.1749722  72.6119071  47.4421577  88.5376800
  71.9542745  48.1320838  88.6256929  73.4159470  47.8318008  88.8810787
  62.3644953  39.9092222  85.7816366  62.9388705  39.6867404  85.0489559
  62.9515935  39.9780917  86.5344967  71.4224530  45.7965949  86.5880742
  71.9356412  46.4295941  87.0902452  72.0725754  45.1967145  86.2224102
  62.6914540  41.9396683  79.8012251  61.8551852  42.2771370  80.1221526
  62.5519309  41.8045663  78.8639388  64.6667620  36.7833471  84.5091435
  64.0132033  36.4682488  83.8848050  64.6248094  36.1609212  85.2351258
  67.9005361  43.2715405  88.8339083  66.9827922  43.4930352  88.6760771
  68.3165504  43.3461715  87.9750790  68.6840408  44.6706820  83.9641763
  69.4312227  45.1828218  83.6548885  68.9531998  44.3490873  84.8246157
  66.9567059  47.1665361  80.9468717  66.0478278  46.8824394  81.0441187
  66.9862142  47.5864440  80.0872024  72.1886326  50.7771951  84.7159885
  71.7348653  49.9362861  84.7725075  71.5580293  51.4133349  85.0534665
  71.1319246  41.7063937  85.9460552  70.3942002  41.1941323  86.2770795
  71.3846019  41.2664318  85.1343829  70.6319265  52.6148447  85.6509703
  70.9242240  53.1753504  84.9322069  71.1417886  52.9077008  86.4062862
  71.2330873  34.4840189  86.5402322  71.5389750  33.6237552  86.2528237
  71.9583478  35.0757809  86.3401315  57.5255229  44.8870875  84.9283919
  57.3279629  44.2940236  84.2034986  56.9701893  44.5823085  85.6459858
  65.5051953  44.7793982  87.0478513  65.5600562  43.8267818  86.9720989
  64.6943155  44.9353421  87.5319811  63.4444313  43.3971041  84.8068891
  62.6312178  43.6965212  85.2134084  63.9403307  43.0026730  85.5243374
  65.5952890  53.3928798  86.7403156  65.5529069  53.6189645  85.8111688
  66.5115589  53.1592173  86.8888957  69.0418524  43.8612866  93.6383785
  69.3967912  44.0884339  94.4978251  69.6890655  44.1931243  93.0161041
  74.7716261  46.9831302  84.3433114  74.6334160  47.1732898  83.4154304
  74.4152480  47.7450685  84.8001166  62.9358387  40.9689397  90.4230126
  63.5757767  40.8278156  89.7253090  62.1035918  40.6823910  90.0468728
  74.7985641  49.0507829  89.3544386  75.2322147  48.9583118  90.2027440
  75.5117222  49.0265329  88.7164402  63.7118691  50.2691827  86.5365119
  64.5059290  49.7742148  86.3347694  63.0010384  49.7409691  86.1732824
  68.5313536  52.6509923  90.8877486  68.5850558  53.2200859  91.6555202
  67.6628317  52.8211808  90.5231524  60.0201455  44.4134909  82.6124872
  59.0899043  44.3519365  82.8294834  60.1158927  43.8910862  81.8161513
  59.9387004  40.9389722  85.2003113  60.1993821  41.8535055  85.0912274
  60.7604176  40.4714165  85.3499726  61.4111929  42.3527479  92.3701938
  62.0834983  42.1444841  91.7214587  60.5841716  42.1549565  91.9307170
  75.6601190  49.0931530  91.8877271  75.8537080  49.9977340  92.1336546
  75.5601809  48.6338949  92.7215856  67.3137501  38.9789420  94.3867599
  66.6665416  39.6779370  94.2932075  68.0838517  39.4125564  94.7543847
  70.7216299  49.2438272  97.4618152  70.5701805  49.0148824  96.5448236
  70.7120979  50.2008874  97.4749497  67.4901635  46.8170185  92.4464418
  68.4193695  46.9681345  92.2733386  67.0692665  46.9054206  91.5913065
  66.2889967  50.8420849  90.2162956  66.1501053  50.4739634  91.0888894
  65.5004563  51.3568489  90.0446914  66.8838119  55.9429946  81.5588492
  67.0589875  55.4717989  82.3734115  66.1970907  56.5695712  81.7869753
  67.8395182  50.2202452  87.6051794  67.5045015  50.1803222  88.5009444
  67.3399128  49.5547168  87.1322204  61.8139426  45.6270082  93.1304375
  61.6759224  44.8950321  93.7315914  62.7244350  45.5378982  92.8488563
  70.7754374  47.5658486  77.8788853  70.1583545  46.8405315  77.7821906
  70.3070863  48.3267847  77.5355928  64.4421727  45.3390041  92.6188055
  65.1521346  44.6983234  92.5774673  64.3991035  45.5902936  93.5414235
  72.4308506  52.2757395  95.5394634  72.3721052  51.5916615  94.8725217
  72.8328024  53.0176385  95.0875260  63.1550661  42.3255259  94.4383694
  62.6188018  41.8745998  95.0905290  62.5667369  42.4601168  93.6954158
  62.5652920  41.7843911  77.0010158  61.6882386  41.6632712  76.6372404
  63.0410673  40.9929989  76.7489046  72.4325913  50.2396979  93.7708613
  71.5452692  49.9022901  93.8935012  73.0024464  49.5080010  94.0077379
  54.0855060  46.5721070  87.0951665  54.7726100  46.2582801  86.5072680
  53.9303189  47.4762435  86.8218916  58.8889782  41.4611267  91.5236689
  58.8047971  40.8536937  90.7887098  58.0672489  41.9520285  91.5246185
  65.9627066  54.8998431  90.7369857  65.8897238  55.7053403  91.2489161
  65.5204459  55.0990397  89.9117878  65.7516846  54.1370201  84.2472678
  64.9684368  54.6791881  84.3410903  66.4509591  54.6544181  84.6466919
  69.0613496  39.9464831  86.8906884  69.5582196  39.1934793  86.5707954
  68.2900478  39.9829147  86.3250093  76.9143254  45.6505196  88.5325175
  76.9033130  46.5329912  88.1619108  76.0460633  45.2976747  88.3379712
  68.4225750  54.7985265  92.8928015  69.1353722  55.4332730  92.8203917
  67.9315779  54.8949131  92.0768017  70.1443277  48.7036518  84.4645307
  69.2099556  48.8237980  84.2950011  70.3219945  47.8008985  84.2005317
  65.6448465  42.0882214  86.6178568  65.2746252  41.5353254  87.3059474
  66.1407557  41.4840347  86.0653568  73.5315828  44.5453837  84.9995341
  73.9976280  45.3781829  84.9255644  73.9823329  44.0798819  85.7040600
  63.4737663  52.5479709  93.7133586  64.1747123  53.1816192  93.8662980
  63.0032778  52.8894440  92.9529225  71.5992059  50.8897658  81.9981493
  71.8751903  50.7754253  82.9075367  70.7296558  50.4915143  81.9593666
  71.5032491  36.9134424  89.0386242  70.5895571  37.1438651  89.2068449
  71.9325592  36.9972868  89.8900275  71.2738949  45.1024316  91.5386136
  70.6210400  45.3500223  90.8838589  71.6519329  44.2888454  91.2048614
  68.2346123  55.1384009  85.6414307  68.4168518  54.3205665  86.1042059
  69.0579109  55.3551701  85.2039197  68.5688289  54.0652194  82.9029355
  69.0976055  53.5544649  82.2899517  68.8316508  53.7494725  83.7674888
  67.3226522  45.8444127  98.0252174  66.6467159  45.7438256  98.6954549
  68.1454156  45.6883341  98.4888171  59.0705381  52.0816064  90.6464689
  59.6558818  51.3359752  90.7792593  58.8730220  52.3920020  91.5301353
  61.9244037  55.1167311  85.6627131  61.2554412  55.6013439  85.1791171
  61.7856906  55.3636531  86.5770510  53.6623036  44.6521664  89.3669132
  53.7007136  44.1185255  90.1606250  53.1563329  44.1256869  88.7480109
  66.0649305  57.1511055  92.2609790  66.6167613  57.3142676  93.0258875
  66.4055499  57.7415492  91.5889814  61.0413799  39.4986204  92.8631674
  61.1055125  40.3601035  92.4509072  60.9780919  38.8860206  92.1304033
  60.5166071  41.5709337  96.5104709  61.1438110  41.1886414  97.1242233
  59.6593990  41.3523539  96.8760401  70.9160180  51.9772312  98.1158444
  71.4600084  52.5902270  97.6213399  70.3347024  52.5351890  98.6325457
  57.2931614  43.3785766  82.4423063  57.5885055  42.4696444  82.3890117
  56.3919650  43.3573505  82.1204066  69.2017693  55.0993030  89.2473472
  69.0768832  54.2982770  88.7384417  69.8596784  55.5939223  88.7587442
  60.8225861  41.4541763  88.4250612  60.1012447  42.0677730  88.2858085
  61.6119117  41.9899527  88.3467258  71.2652601  52.9002050  90.8753022
  70.3182936  52.7807401  90.8031349  71.6135374  52.0124548  90.9579283
  63.6252174  38.7896189  94.6991264  64.1486576  39.0358486  95.4617573
  63.4064508  39.6216224  94.2794401  59.0219455  41.0599864  82.5662388
  58.6932162  40.1797243  82.3837494  59.3758826  41.0047532  83.4538778
  68.2699034  52.6954766  87.0757374  68.1223997  51.7671474  87.2564944
  69.0952528  52.7174857  86.5914449  62.1361279  41.3472833  82.9337866
  62.4757351  41.8758755  82.2116475  62.5833399  41.6853240  83.7096433
  71.8733156  53.5183325  88.1622247  72.7979704  53.3126186  88.0246698
  71.7048459  53.2699726  89.0711588  64.8304719  39.7309884  92.3840934
  64.4901540  38.9317697  92.7861614  64.1243726  40.0311595  91.8117767
  65.4821191  36.8159197  90.8368257  66.3047261  36.3419675  90.7147148
  65.7259255  37.5949680  91.3366944  64.1229426  39.8447455  81.1331159
  64.8437788  40.2228708  80.6294876  63.4994730  40.5636332  81.2366137
  68.2660549  40.5492604  82.0689491  68.4824163  41.4317242  81.7678319
  67.7854616  40.1578817  81.3395133  63.0059770  43.5078317  88.6460236
  62.8604351  43.8218620  89.5384517  62.5284974  44.1263218  88.0931134
  64.8656153  40.4980865  88.6941125  64.8517722  39.6021959  88.3573423
  65.5828581  40.5051529  89.3279411  66.7182284  40.9318205  90.7394253
  66.4600061  41.8535276  90.7378583  66.1867324  40.5348640  91.4294717
  71.6628472  54.0368993  83.5184338  71.8365350  53.4715415  82.7658191
  72.1557364  54.8369887  83.3363828  57.4805432  46.0483662  91.5847897
  56.9358900  46.8243470  91.7168171  58.3584782  46.3954466  91.4267018
  64.2693049  39.3795246  83.9628696  64.3908960  38.4511892  84.1619583
  63.9795091  39.3933931  83.0507011  67.1384239  37.0650156  87.0995415
  67.1605936  37.1289489  86.1447395  67.5552298  36.2254665  87.2935922
  77.5167863  46.8005416  85.1374638  77.9599010  46.0512741  84.7393761
  76.6394374  46.7915552  84.7548370  72.6503645  53.3535757  80.6181237
  73.3454549  53.9742450  80.8368551  72.9926795  52.5031108  80.8933614
  58.2671454  45.1753558  94.4778054  57.5253190  45.3236193  95.0642684
  57.9464198  45.4361824  93.6144803  74.5495068  50.8035463  82.1468567
  75.0746392  51.1422735  81.4217887  74.4617420  49.8682478  81.9631702
  66.2115117  54.7169536  94.2758444  66.5202243  54.4718683  95.1481143
  67.0090599  54.9216175  93.7877314  66.2335729  56.8707446  86.5063820
  65.7940719  56.3783824  87.1996677  66.9843846  56.3280413  86.2655896
  58.7128068  53.0618987  86.5088449  59.5386088  52.7622759  86.1287092
  58.3622120  52.2926609  86.9578237  63.6809601  52.4145455  88.5786122
  63.0589610  51.7516160  88.2788350  64.3514468  52.4406587  87.8959770
  56.9136673  50.9805313  87.4677382  56.0768581  50.5527487  87.2861383
  56.8860318  51.1737756  88.4048173  63.7534128  40.8927243  98.1718628
  63.8022284  41.7689366  97.7896398  64.2956643  40.3504636  97.5990271
  74.2388974  51.4368366  97.4519765  73.4484518  51.4192505  96.9124265
  74.0022329  51.9756660  98.2068802  74.3586849  48.2860833  94.7652494
  74.4084854  48.1210840  95.7068017  74.2500772  47.4188092  94.3750375
  71.6490611  44.2691761  96.0811800  72.5500474  44.1298225  95.7895798
  71.7238586  44.4346215  97.0209978  65.9833417  41.6458615  94.9264987
  65.1136726  41.9392181  94.6547575  66.2192897  42.2299060  95.6472250
  75.8605046  50.7057774  95.0094515  75.5689854  51.0687755  95.8457976
  75.2477177  49.9924782  94.8307847  77.0600728  48.2710654  87.5297086
  77.8947620  48.7100458  87.6934646  77.1959857  47.7949307  86.7105331
  74.1092234  45.8290389  93.4774573  74.5846356  46.0218035  92.6693425
  73.1857799  45.8849574  93.2317957  60.9975741  46.9914556  83.0605652
  60.7521783  46.0876886  83.2585862  61.1671655  46.9931706  82.1185130
  68.6872451  37.8638232  92.4430407  69.2054394  38.5999259  92.1176896
  68.3327583  38.1702226  93.2777166  60.2671388  42.7242913  80.5591813
  59.5740633  42.7987268  79.9031849  60.0223140  41.9603257  81.0813330
  68.9385045  34.2838515  87.9631304  69.2186799  33.6161704  88.5891730
  69.7235652  34.4767610  87.4505968  72.8093903  42.7056149  91.7102879
  73.7611326  42.8054246  91.7315103  72.6397354  41.9134417  92.2200963
  70.8308283  39.7911732  91.8962280  70.2358215  40.0716745  91.2008768
  70.5457979  40.2805633  92.6679021  69.9615773  53.7434659  80.6564912
  70.8946446  53.6780220  80.8597788  69.8738986  54.5790926  80.1979445
  72.5903790  53.0600529  77.6168860  72.5117421  52.7260393  78.5104618
  73.4113456  53.5522297  77.6160332  75.2881981  45.9262268  90.8245179
  75.2558301  44.9878269  91.0104862  75.8982605  46.0046305  90.0911003
  67.1265312  44.7958321  76.8672383  68.0724416  44.6664530  76.9360801
  66.7479557  44.0572983  77.3441811  75.4376469  42.7173312  90.8703462
  74.9215518  41.9331769  90.6833391  76.3216418  42.3892028  91.0349981
  73.0987196  36.4614327  86.8299274  72.9012017  36.1529416  87.7142606
  73.7086902  37.1875966  86.9597204  81.1058531  46.9878275  89.9651215
  81.8361919  46.7263563  90.5258919  80.4965476  46.2506997  90.0053283
  79.1873828  45.1286138  90.5625667  78.4606991  44.9942103  89.9542158
  78.7721115  45.4362966  91.3682385  67.0104004  48.8476068  98.3273040
  67.9307014  49.0254667  98.5213086  66.9753587  47.9032113  98.1752739
  65.3108229  42.7208298  76.8027268  64.4039684  42.4241411  76.8789981
  65.5884210  42.4238116  75.9361554  56.2286169  44.0414661  87.2526314
  55.9088954  43.1879969  86.9600688  55.6819597  44.2563239  88.0084282
  60.0066077  46.7577102  90.9695821  60.2252087  47.6894210  90.9883855
  60.4191851  46.3985077  91.7550625  66.9270295  37.2645188  82.9571509
  66.1171023  36.9192272  83.3326755  67.6154712  36.9552731  83.5459121
  68.8560843  36.3423234  84.5795806  69.4091882  36.7618688  85.2385829
  69.0930929  35.4158982  84.6218762  64.8793942  42.3310308 100.3598570
  64.7790669  43.2804665 100.2910661  64.6615484  42.0028547  99.4874640
  64.0807014  39.5795233  76.9439247  64.9426178  39.9050131  77.2035064
  64.2657358  38.7926729  76.4312313  56.0974429  47.6617573  89.2219436
  55.4037901  47.2471525  88.7089390  56.8447420  47.7038109  88.6252855
  72.2339650  38.4523759  84.0874470  71.6538319  39.1108564  83.7052522
  71.9675583  37.6301104  83.6761888  70.6843216  37.8528817  86.2895790
  71.1842995  37.9645352  85.4810109  71.3278824  37.5489870  86.9296599
  64.7425212  45.7607447  99.1763631  64.2592294  46.5607807  99.3827520
  64.8286151  45.7715392  98.2231075  58.0111172  47.5935826  87.0985451
  57.9881860  47.6923514  86.1467334  58.3211808  48.4400977  87.4202617
  60.6698550  49.6511982  91.2132065  61.6241803  49.6195924  91.1461997
  60.4711073  49.1902605  92.0282291  61.2597932  48.2213098  93.7802863
  62.0790821  48.7157176  93.8037700  61.5334740  47.3045066  93.7520430
  71.0164528  40.6123850  83.1430818  70.1290383  40.8973500  82.9251013
  71.4318517  40.4517613  82.2958095  74.3679064  40.6370371  86.8585158
  75.1439454  41.1266823  87.1309774  73.6427198  41.0628425  87.3157027
  76.8051623  41.3497990  87.9159098  77.3996114  41.1093726  87.2052406
  76.8778206  40.6305121  88.5432634  59.0248778  55.1931601  88.2302263
  58.8903246  54.4332002  87.6640261  58.6080841  55.9172501  87.7631052
  70.9905552  46.1278386  83.3581108  70.9340753  46.5846937  82.5188741
  71.5433894  45.3669070  83.1803951  74.8010358  41.9168118  84.1831228
  74.5447292  41.5164753  85.0139436  74.1763226  42.6311912  84.0581367
  79.1122696  44.6564191  86.6902519  78.5522254  44.7257380  87.4634081
  78.5066199  44.4805176  85.9702016  62.1817904  56.0900918  88.4420706
  62.0650288  57.0346351  88.3399396  61.3610351  55.7874480  88.8306505
  72.0694439  50.8151054  79.2877298  72.9040043  50.3832252  79.1054773
  71.9078782  50.6433067  80.2154193  71.7240331  47.3183167  80.6533638
  71.6689135  47.1527438  79.7122082  71.0986386  48.0259200  80.8095827
  56.5132846  42.5551231  94.4795060  57.1591710  42.0450185  94.9682285
  56.3049997  43.2919913  95.0538485  69.0386238  49.6232079  99.9787200
  69.9077398  49.7972731  99.6173835  68.5592990  50.4426496  99.8562930
  65.0336457  36.8191276  80.2318956  65.0215126  37.7633116  80.3887227
  65.9259878  36.6361421  79.9378417  63.2072418  56.7429180  91.6576634
  64.1099665  56.7752790  91.9743129  62.9809789  55.8129631  91.6722970
  64.9626020  55.4960166  88.3186713  64.0121652  55.4962028  88.2051085
  65.2658507  54.7492901  87.8022747  68.8488576  33.4134053  84.4864893
  68.0820972  32.8592539  84.6321575  69.2599281  33.4855921  85.3479044
  60.8530337  39.7018848  98.5770074  61.7161799  39.3455653  98.7873399
  60.2795748  39.3632743  99.2645478  80.6978714  61.3320705  89.3832475
  81.3357124  61.2127452  88.6795815  80.5799557  62.2801549  89.4420427
  77.5068420  61.2848133  89.3194000  77.1686932  61.1689198  88.4314535
  78.3758188  60.8839298  89.2995006  77.9888203  62.4382985  95.2780205
  77.9776844  62.0435783  94.4060709  78.1508843  61.7049057  95.8713977
  78.9454795  66.8054577  80.6205356  78.2942774  67.3908657  80.2339369
  79.7399157  67.3360772  80.6800393  74.7095464  65.2220096  94.2259389
  74.4185330  66.1265727  94.1106056  75.3452449  65.2636624  94.9403459
  75.6351671  62.5996945  90.8160749  76.2315243  62.3752967  90.1017712
  75.6926643  61.8581690  91.4186197  80.2519982  59.0572159  86.4585683
  81.0383072  58.6391582  86.1076100  80.5158687  59.9618251  86.6267331
  80.4230060  64.4945009  81.1574340  79.7875893  64.5679636  81.8695245
  80.0927466  65.0838608  80.4793419  85.6528410  58.9947392  87.3618662
  86.3853582  58.4246609  87.5956491  84.8967765  58.6068992  87.8025167
  77.2704529  61.4174633  84.5582004  76.9062737  60.8905254  85.2694926
  78.1271645  61.0273102  84.3848489  83.1753830  52.7068966  91.8213270
  82.8437155  53.5764377  91.5974485  82.5799443  52.3905250  92.5007301
  76.9110016  56.4464533  79.5543353  77.0784419  57.3144769  79.9213824
  76.7207185  56.6091815  78.6304642  79.6685349  64.9081512  91.2209183
  79.3686073  65.8106551  91.1124990  79.3236409  64.6413695  92.0730336
  73.1197831  61.3595309  87.2545887  72.1948327  61.2271523  87.4623579
  73.3682244  62.1389528  87.7515830  83.0682493  57.4264052  88.9006620
  82.1599371  57.3579461  88.6065381  83.0170089  57.9035997  89.7288446
  76.8899237  58.9022191  80.5390019  76.7698862  59.3479241  81.3775500
  76.1951826  59.2507508  79.9803558  77.1423359  58.8453698  96.8441518
  76.3656693  59.4047618  96.8344382  77.7813922  59.3310481  97.3656388
  84.9344140  55.6280491  90.6784494  84.2918520  55.9213024  90.0324289
  84.4299068  55.5133411  91.4837691  82.5884303  59.3743664  81.3670353
  83.5002159  59.6071051  81.1918051  82.0793950  59.9580708  80.8045432
  75.3969731  61.6539151  96.4059485  76.1384416  62.1924195  96.1294308
  74.6906717  62.2805440  96.5631036  80.8725071  63.7968292  95.0031646
  81.2808427  63.3550702  94.2586278  80.1502332  63.2220919  95.2565839
  77.2256141  58.7340898  92.3765203  78.0717336  59.1580312  92.5199852
  77.1654779  58.0774523  93.0703766  81.1953886  64.3569482  88.7583935
  80.5662748  64.5215196  88.0560003  80.8079548  64.7711092  89.5294899
  85.0743118  65.2923920  86.1128299  84.3894156  65.6722821  85.5625332
  85.1586967  65.9019247  86.8460246  80.3755586  56.3945267  94.0346377
  80.1316518  57.1487327  93.4980652  80.6515517  56.7730614  94.8693624
  82.3294049  62.9383879  92.7123642  82.5410944  63.5815639  92.0358023
  82.2823797  62.1046196  92.2445572  79.9320278  55.5501700  89.6160214
  79.0704757  55.8482953  89.9076952  79.9582713  55.7672099  88.6841247
  76.7481848  64.0943890  86.0234020  77.2120193  64.3731593  85.2338643
  76.4838646  63.1927335  85.8407111  73.6405929  63.6415372  88.9613783
  74.2107286  64.0702640  88.3231268  74.2314040  63.3597957  89.6597969
  75.6850734  60.2167043  82.8323585  76.3874777  60.6688086  83.2997512
  75.3531362  59.5750862  83.4603478  74.1331095  58.8078799  97.2074795
  73.5029756  59.4895080  97.4410191  74.0267183  58.6961881  96.2627933
  69.4276068  58.4750595  88.1340719  68.6375122  58.7308124  87.6580829
  69.9187315  59.2898933  88.2392759  83.4439877  65.8155835  90.8846000
  84.2657321  65.4136022  90.6028681  83.4402280  65.7124069  91.8362115
  71.3790813  58.8395175  85.0924195  70.5821976  58.9513869  85.6107691
  71.1516405  59.1781827  84.2265086  77.2096481  65.3639878  93.0406710
  77.2740913  65.8260285  93.8764882  76.5007404  64.7337243  93.1689020
  67.7113771  58.7281086  90.5655710  67.9621809  59.6128096  90.8313285
  68.2473319  58.5485687  89.7930801  91.5345870  62.1594583  87.2330971
  90.7809579  61.5901981  87.0774975  91.6693411  62.1257247  88.1801606
  73.4111838  53.1099565  99.5700046  73.0178783  52.5565764 100.2447690
  74.2277978  53.4210144  99.9606563  76.3279799  54.5257444  97.1620302
  77.0689512  55.1264597  97.0824765  76.5597722  53.7835082  96.6038345
  71.4721137  59.7113812  95.4398532  71.3574652  58.8099069  95.7405631
  70.6165655  59.9577508  95.0883348  78.5512975  67.6531552  97.0386032
  78.1076829  66.8667930  96.7206937  79.2130188  67.8410702  96.3729923
  80.6494213  67.9334352  95.0667434  80.6312688  68.7543233  94.5747703
  81.5714133  67.8088427  95.2917575  77.1067267  65.4478481  95.9090942
  77.6395604  64.6866769  95.6790250  76.5781348  65.1552133  96.6515097
  80.2736962  50.5538547  91.4384584  79.9301231  51.4440189  91.3623694
  80.6415924  50.3640205  90.5754169  80.2387244  60.5447158  79.9457019
  79.7233868  61.3151763  80.1845406  79.9664553  59.8712294  80.5690080
  77.8234356  55.3896859  85.0042257  76.9675952  55.0003709  84.8247896
  78.2361307  55.4688820  84.1442043  79.3533502  52.9243202  89.4033817
  78.8498298  52.8873337  88.5901622  79.6464109  53.8335945  89.4630474
  75.5976388  53.0081932  88.4099999  76.4629385  52.8124741  88.0505888
  75.6653897  52.7792284  89.3369356  85.2121519  63.2979513  81.8810192
  84.4350961  62.9590672  81.4365355  85.8913000  63.3032136  81.2065157
  80.0273548  58.4174250  81.7716800  79.7223683  58.7320400  82.6226943
  80.9803990  58.4955670  81.8144133  78.4719980  64.5764474  83.4209754
  77.9441341  63.8417233  83.1082992  77.9707482  65.3539150  83.1749722
  83.4512826  62.7713494  88.5376800  82.7936500  63.4612756  88.6256929
  84.2553225  63.1609926  88.8810787  73.2038707  55.2384140  85.7816366
  73.7782459  55.0159321  85.0489559  73.7909690  55.3072834  86.5344967
  82.2618284  61.1257867  86.5880742  82.7750166  61.7587859  87.0902452
  82.9119508  60.5259062  86.2224102  73.5308294  57.2688601  79.8012251
  72.6945606  57.6063288  80.1221526  73.3913064  57.1337581  78.8639388
  75.5061375  52.1125389  84.5091435  74.8525787  51.7974406  83.8848050
  75.4641849  51.4901129  85.2351258  79.5240659  71.1042191  79.3441413
  78.8502357  71.4073888  79.9526371  79.9106481  71.9071271  78.9946870
  78.7399115  58.6007322  88.8339083  77.8221677  58.8222269  88.6760771
  79.1559259  58.6753633  87.9750790  79.5234163  59.9998738  83.9641763
  80.2705982  60.5120135  83.6548885  79.7925752  59.6782791  84.8246157
  83.0280081  66.1063868  84.7159885  82.5742408  65.2654778  84.7725075
  82.3974047  66.7425267  85.0534665  81.9713000  57.0355854  85.9460552
  81.2335757  56.5233241  86.2770795  82.2239774  56.5956236  85.1343829
  81.4713020  67.9440365  85.6509703  81.7635994  68.5045422  84.9322069
  81.9811640  68.2368926  86.4062862  82.0724627  49.8132106  86.5402322
  82.3783504  48.9529470  86.2528237  82.7977232  50.4049727  86.3401315
  68.3648984  60.2162793  84.9283919  68.1673383  59.6232154  84.2034986
  67.8095647  59.9115003  85.6459858  76.3445707  60.1085899  87.0478513
  76.3994317  59.1559736  86.9720989  75.5336909  60.2645339  87.5319811
  74.2838067  58.7262959  84.8068891  73.4705933  59.0257130  85.2134084
  74.7797061  58.3318648  85.5243374  79.8812279  59.1904784  93.6383785
  80.2361666  59.4176257  94.4978251  80.5284410  59.5223160  93.0161041
  85.6110016  62.3123220  84.3433114  85.4727914  62.5024816  83.4154304
  85.2546235  63.0742602  84.8001166  73.7752142  56.2981315  90.4230126
  74.4151521  56.1570074  89.7253090  72.9429672  56.0115828  90.0468728
  85.6379395  64.3799747  89.3544386  86.0715902  64.2875036  90.2027440
  86.3510976  64.3557247  88.7164402  70.8595209  59.7426827  82.6124872
  69.9292797  59.6811282  82.8294834  70.9552681  59.2202780  81.8161513
  70.7780758  56.2681640  85.2003113  71.0387576  57.1826973  85.0912274
  71.5997931  55.8006082  85.3499726  72.2505684  57.6819397  92.3701938
  72.9228737  57.4736759  91.7214587  71.4235470  57.4841483  91.9307170
  86.4994945  64.4223447  91.8877271  86.6930835  65.3269258  92.1336546
  86.3995563  63.9630866  92.7215856  78.1531256  54.3081338  94.3867599
  77.5059171  55.0071287  94.2932075  78.9232271  54.7417482  94.7543847
  81.5610054  64.5730190  97.4618152  81.4095560  64.3440742  96.5448236
  81.5514733  65.5300791  97.4749497  78.3295390  62.1462103  92.4464418
  79.2587450  62.2973262  92.2733386  77.9086420  62.2346123  91.5913065
  77.7231874  71.2721864  81.5588492  77.8983629  70.8009907  82.3734115
  77.0364662  71.8987630  81.7869753  78.6788937  65.5494370  87.6051794
  78.3438769  65.5095140  88.5009444  78.1792883  64.8839086  87.1322204
  72.6533181  60.9562000  93.1304375  72.5152979  60.2242239  93.7315914
  73.5638104  60.8670900  92.8488563  81.6148129  62.8950404  77.8788853
  80.9977299  62.1697232  77.7821906  81.1464617  63.6559764  77.5355928
  75.2815482  60.6681959  92.6188055  75.9915100  60.0275151  92.5774673
  75.2384790  60.9194854  93.5414235  83.2702260  67.6049312  95.5394634
  83.2114806  66.9208533  94.8725217  83.6721779  68.3468303  95.0875260
  73.9944415  57.6547177  94.4383694  73.4581773  57.2037915  95.0905290
  73.4061124  57.7893086  93.6954158  73.4046674  57.1135828  77.0010158
  72.5276141  56.9924629  76.6372404  73.8804428  56.3221907  76.7489046
  83.2719667  65.5688896  93.7708613  82.3846446  65.2314818  93.8935012
  83.8418219  64.8371928  94.0077379  69.7283537  56.7903185  91.5236689
  69.6441725  56.1828854  90.7887098  68.9066243  57.2812203  91.5246185
  79.9007251  55.2756748  86.8906884  80.3975950  54.5226711  86.5707954
  79.1294232  55.3121065  86.3250093  87.7537008  60.9797114  88.5325175
  87.7426884  61.8621829  88.1619108  86.8854387  60.6268665  88.3379712
  79.2619504  70.1277183  92.8928015  79.9747477  70.7624648  92.8203917
  78.7709533  70.2241049  92.0768017  80.9837031  64.0328435  84.4645307
  80.0493310  64.1529898  84.2950011  81.1613700  63.1300902  84.2005317
  76.4842219  57.4174131  86.6178568  76.1140007  56.8645172  87.3059474
  76.9801312  56.8132265  86.0653568  84.3709583  59.8745755  84.9995341
  84.8370035  60.7073746  84.9255644  84.8217083  59.4090736  85.7040600
  82.4385814  66.2189576  81.9981493  82.7145658  66.1046171  82.9075367
  81.5690312  65.8207061  81.9593666  82.3426245  52.2426342  89.0386242
  81.4289325  52.4730569  89.2068449  82.7719347  52.3264786  89.8900275
  82.1132704  60.4316234  91.5386136  81.4604154  60.6792141  90.8838589
  82.4913084  59.6180372  91.2048614  79.4082043  69.3944112  82.9029355
  79.9369810  68.8836567  82.2899517  79.6710263  69.0786642  83.7674888
  78.1620277  61.1736045  98.0252174  77.4860914  61.0730174  98.6954549
  78.9847911  61.0175259  98.4888171  64.5016791  59.9813582  89.3669132
  64.5400890  59.4477172  90.1606250  63.9957084  59.4548787  88.7480109
  76.9043060  72.4802972  92.2609790  77.4561368  72.6434594  93.0258875
  77.2449253  73.0707410  91.5889814  71.8807553  54.8278122  92.8631674
  71.9448879  55.6892953  92.4509072  71.8174673  54.2152124  92.1304033
  71.3559826  56.9001255  96.5104709  71.9831864  56.5178332  97.1242233
  70.4987744  56.6815457  96.8760401  81.7553934  67.3064230  98.1158444
  82.2993838  67.9194188  97.6213399  81.1740779  67.8643808  98.6325457
  68.1325368  58.7077684  82.4423063  68.4278809  57.7988362  82.3890117
  67.2313404  58.6865423  82.1204066  71.6619615  56.7833680  88.4250612
  70.9406201  57.3969648  88.2858085  72.4512871  57.3191445  88.3467258
  82.1046355  68.2293968  90.8753022  81.1576691  68.1099319  90.8031349
  82.4529129  67.3416466  90.9579283  74.4645929  54.1188107  94.6991264
  74.9880331  54.3650403  95.4617573  74.2458262  54.9508142  94.2794401
  69.8613210  56.3891781  82.5662388  69.5325916  55.5089160  82.3837494
  70.2152581  56.3339450  83.4538778  72.9755033  56.6764751  82.9337866
  73.3151106  57.2050672  82.2116475  73.4227154  57.0145157  83.7096433
  82.7126911  68.8475243  88.1622247  83.6373458  68.6418104  88.0246698
  82.5442214  68.5991644  89.0711588  75.6698474  55.0601802  92.3840934
  75.3295294  54.2609615  92.7861614  74.9637480  55.3603513  91.8117767
  76.3214946  52.1451114  90.8368257  77.1441015  51.6711592  90.7147148
  76.5653009  52.9241598  91.3366944  74.9623180  55.1739373  81.1331159
  75.6831543  55.5520626  80.6294876  74.3388484  55.8928250  81.2366137
  79.1054303  55.8784522  82.0689491  79.3217917  56.7609160  81.7678319
  78.6248370  55.4870735  81.3395133  73.8453524  58.8370235  88.6460236
  73.6998105  59.1510538  89.5384517  73.3678728  59.4555135  88.0931134
  75.7049907  55.8272783  88.6941125  75.6911476  54.9313876  88.3573423
  76.4222335  55.8343447  89.3279411  77.5576038  56.2610123  90.7394253
  77.2993816  57.1827194  90.7378583  77.0261078  55.8640558  91.4294717
  82.5022227  69.3660910  83.5184338  82.6759104  68.8007333  82.7658191
  82.9951118  70.1661805  83.3363828  75.1086803  54.7087163  83.9628696
  75.2302714  53.7803809  84.1619583  74.8188846  54.7225849  83.0507011
  77.9777994  52.3942074  87.0995415  77.9999690  52.4581407  86.1447395
  78.3946053  51.5546582  87.2935922  88.3561618  62.1297333  85.1374638
  88.7992764  61.3804658  84.7393761  87.4788128  62.1207470  84.7548370
  83.4897399  68.6827675  80.6181237  84.1848304  69.3034367  80.8368551
  83.8320549  67.8323026  80.8933614  69.1065208  60.5045476  94.4778054
  68.3646944  60.6528111  95.0642684  68.7857953  60.7653741  93.6144803
  85.3888822  66.1327380  82.1468567  85.9140146  66.4714653  81.4217887
  85.3011175  65.1974396  81.9631702  77.0508871  70.0461454  94.2758444
  77.3595998  69.8010601  95.1481143  77.8484353  70.2508092  93.7877314
  74.5927883  56.2219161  98.1718628  74.6416038  57.0981283  97.7896398
  75.1350397  55.6796554  97.5990271  85.0782728  66.7660284  97.4519765
  84.2878272  66.7484423  96.9124265  84.8416083  67.3048578  98.2068802
  85.1980604  63.6152750  94.7652494  85.2478608  63.4502758  95.7068017
  85.0894527  62.7480009  94.3750375  82.4884366  59.5983678  96.0811800
  83.3894229  59.4590143  95.7895798  82.5632340  59.7638133  97.0209978
  76.8227171  56.9750533  94.9264987  75.9530481  57.2684099  94.6547575
  77.0586652  57.5590978  95.6472250  86.6998800  66.0349692  95.0094515
  86.4083609  66.3979672  95.8457976  86.0870932  65.3216700  94.8307847
  87.8994483  63.6002571  87.5297086  88.7341374  64.0392376  87.6934646
  88.0353611  63.1241225  86.7105331  84.9485989  61.1582306  93.4774573
  85.4240110  61.3509953  92.6693425  84.0251554  61.2141492  93.2317957
  71.8369495  62.3206474  83.0605652  71.5915537  61.4168804  83.2585862
  72.0065410  62.3223624  82.1185130  79.5266205  53.1930150  92.4430407
  80.0448149  53.9291177  92.1176896  79.1721338  53.4994143  93.2777166
  71.1065143  58.0534831  80.5591813  70.4134388  58.1279186  79.9031849
  70.8616895  57.2895175  81.0813330  79.7778799  49.6130432  87.9631304
  80.0580553  48.9453622  88.5891730  80.5629406  49.8059528  87.4505968
  77.5812268  68.7889426  79.5256330  77.0086235  69.4079613  79.0726802
  78.1545061  69.3388788  80.0596252  83.6487658  58.0348066  91.7102879
  84.6005080  58.1346164  91.7315103  83.4791108  57.2426335  92.2200963
  81.6702037  55.1203650  91.8962280  81.0751969  55.4008662  91.2008768
  81.3851734  55.6097551  92.6679021  80.8009528  69.0726576  80.6564912
  81.7340201  69.0072138  80.8597788  80.7132740  69.9082843  80.1979445
  83.4297544  68.3892447  77.6168860  83.3511176  68.0552310  78.5104618
  84.2507211  68.8814215  77.6160332  86.1275735  61.2554186  90.8245179
  86.0952055  60.3170187  91.0104862  86.7376359  61.3338223  90.0911003
  77.9659066  60.1250239  76.8672383  78.9118171  59.9956447  76.9360801
  77.5873311  59.3864901  77.3441811  86.2770224  58.0465230  90.8703462
  85.7609273  57.2623686  90.6833391  87.1610172  57.7183946  91.0349981
  83.9380951  51.7906245  86.8299274  83.7405772  51.4821333  87.7142606
  84.5480656  52.5167884  86.9597204  91.9452285  62.3170193  89.9651215
  92.6755674  62.0555481  90.5258919  91.3359231  61.5798915  90.0053283
  90.0267582  60.4578056  90.5625667  89.3000746  60.3234020  89.9542158
  89.6114869  60.7654884  91.3682385  77.8497759  64.1767985  98.3273040
  78.7700768  64.3546584  98.5213086  77.8147342  63.2324031  98.1752739
  76.1501983  58.0500215  76.8027268  75.2433439  57.7533328  76.8789981
  76.4277964  57.7530034  75.9361554  67.0679924  59.3706579  87.2526314
  66.7482708  58.5171887  86.9600688  66.5213352  59.5855157  88.0084282
  77.7664049  52.5937105  82.9571509  76.9564777  52.2484190  83.3326755
  78.4548466  52.2844649  83.5459121  79.6954597  51.6715152  84.5795806
  80.2485636  52.0910605  85.2385829  79.9324684  50.7450900  84.6218762
  75.7187697  57.6602226 100.3598570  75.6184424  58.6096583 100.2910661
  75.5009239  57.3320465  99.4874640  74.9200768  54.9087151  76.9439247
  75.7819932  55.2342049  77.2035064  75.1051112  54.1218647  76.4312313
  83.0733404  53.7815677  84.0874470  82.4932074  54.4400481  83.7052522
  82.8069337  52.9593022  83.6761888  81.5236971  53.1820735  86.2895790
  82.0236749  53.2937269  85.4810109  82.1672579  52.8781788  86.9296599
  75.5818967  61.0899364  99.1763631  75.0986048  61.8899725  99.3827520
  75.6679906  61.1007309  98.2231075  72.0991686  63.5505015  93.7802863
  72.9184575  64.0449094  93.8037700  72.3728494  62.6336983  93.7520430
  81.8558283  55.9415768  83.1430818  80.9684138  56.2265418  82.9251013
  82.2712272  55.7809531  82.2958095  85.2072819  55.9662289  86.8585158
  85.9833209  56.4558741  87.1309774  84.4820953  56.3920343  87.3157027
  87.6445377  56.6789908  87.9159098  88.2389868  56.4385644  87.2052406
  87.7171961  55.9597038  88.5432634  81.0001496  65.7060442  77.2378838
  81.7037346  65.9110445  77.8536494  80.2764145  66.2737204  77.5027922
  81.8299306  61.4570303  83.3581108  81.7734508  61.9138855  82.5188741
  82.3827649  60.6960988  83.1803951  85.6404112  57.2460035  84.1831228
  85.3841046  56.8456671  85.0139436  85.0156980  57.9603829  84.0581367
  89.9516450  59.9856109  86.6902519  89.3916008  60.0549298  87.4634081
  89.3459953  59.8097093  85.9702016  82.9088193  66.1442971  79.2877298
  83.7433797  65.7124170  79.1054773  82.7472536  65.9724985  80.2154193
  82.5634086  62.6475085  80.6533638  82.5082889  62.4819356  79.7122082
  81.9380141  63.3551118  80.8095827  67.3526601  57.8843149  94.4795060
  67.9985464  57.3742103  94.9682285  67.1443752  58.6211831  95.0538485
  79.8779993  64.9523997  99.9787200  80.7471152  65.1264649  99.6173835
  79.3986744  65.7718413  99.8562930  75.8730211  52.1483194  80.2318956
  75.8608881  53.0925034  80.3887227  76.7653633  51.9653339  79.9378417
  79.6882330  48.7425970  84.4864893  78.9214726  48.1884457  84.6321575
  80.0993035  48.8147839  85.3479044  71.6924092  55.0310766  98.5770074
  72.5555553  54.6747571  98.7873399  71.1189502  54.6924661  99.2645478
  91.5372468  76.6612623  89.3832475  92.1750878  76.5419370  88.6795815
  91.4193311  77.6093466  89.4420427  88.3462175  76.6140051  89.3194000
  88.0080686  76.4981115  88.4314535  89.2151943  76.2131216  89.2995006
  84.2048990  78.4675527  85.3090891  83.6413856  78.3765464  84.5407178
  84.0901385  77.6475431  85.7893383  88.8281958  77.7674902  95.2780205
  88.8170599  77.3727701  94.4060709  88.9902597  77.0340975  95.8713977
  81.7513422  79.9626719  88.1475111  82.5434714  79.6217543  87.7321410
  81.9910073  80.0721694  89.0677264  89.7848549  82.1346495  80.6205356
  89.1336529  82.7200575  80.2339369  90.5792912  82.6652690  80.6800393
  83.7104176  79.2235632  81.0192490  84.4835052  78.6764619  80.8805366
  84.0629575  80.0879881  81.2306951  85.5489219  80.5512014  94.2259389
  85.2579085  81.4557645  94.1106056  86.1846203  80.5928542  94.9403459
  86.4745426  77.9288863  90.8160749  87.0708998  77.7044885  90.1017712
  86.5320397  77.1873608  91.4186197  86.0470454  75.3828298  78.6510940
  86.2995975  74.8609819  77.8894403  85.1095013  75.2194443  78.7537623
  91.0913737  74.3864076  86.4585683  91.8776826  73.9683500  86.1076100
  91.3552441  75.2910169  86.6267331  91.2623814  79.8236927  81.1574340
  90.6269647  79.8971553  81.8695245  90.9321221  80.4130526  80.4793419
  96.4922164  74.3239310  87.3618662  97.2247336  73.7538526  87.5956491
  95.7361520  73.9360910  87.8025167  85.7666743  77.2856404  80.8535315
  85.6503001  76.6101307  81.5216399  85.8769003  76.7988778  80.0367468
  88.1098284  76.7466551  84.5582004  87.7456491  76.2197172  85.2694926
  88.9665400  76.3565020  84.3848489  94.0147584  68.0360884  91.8213270
  93.6830909  68.9056295  91.5974485  93.4193198  67.7197168  92.5007301
  87.7503771  71.7756451  79.5543353  87.9178173  72.6436687  79.9213824
  87.5600940  71.9383732  78.6304642  90.5079104  80.2373430  91.2209183
  90.2079827  81.1398468  91.1124990  90.1630163  79.9705613  92.0730336
  83.9591585  76.6887227  87.2545887  83.0342082  76.5563441  87.4623579
  84.2075999  77.4681446  87.7515830  93.9076248  72.7555970  88.9006620
  92.9993125  72.6871378  88.6065381  93.8563844  73.2327915  89.7288446
  87.7292992  74.2314108  80.5390019  87.6092617  74.6771159  81.3775500
  87.0345580  74.5799426  79.9803558  81.3200396  76.3320500  88.0889676
  81.4492778  76.5854979  89.0029088  80.6397848  76.9248208  87.7694332
  85.4899884  87.0017750  84.1880151  85.4123913  87.9525575  84.2668631
  84.8861527  86.6563623  84.8455077  87.9817114  74.1745615  96.8441518
  87.2050448  74.7339536  96.8344382  88.6207677  74.6602398  97.3656388
  95.7737894  70.9572408  90.6784494  95.1312274  71.2504941  90.0324289
  95.2692823  70.8425329  91.4837691  93.4278058  74.7035581  81.3670353
  94.3395914  74.9362968  81.1918051  92.9187705  75.2872626  80.8045432
  86.2363486  76.9831069  96.4059485  86.9778170  77.5216113  96.1294308
  85.5300471  77.6097358  96.5631036  91.7118825  79.1260209  95.0031646
  92.1202182  78.6842620  94.2586278  90.9896087  78.5512837  95.2565839
  88.0649896  74.0632816  92.3765203  88.9111091  74.4872230  92.5199852
  88.0048533  73.4066440  93.0703766  92.0347640  79.6861400  88.7583935
  91.4056503  79.8507114  88.0560003  91.6473302  80.1003009  89.5294899
  95.9136872  80.6215838  86.1128299  95.2287910  81.0014739  85.5625332
  95.9980721  81.2311164  86.8460246  91.2149341  71.7237184  94.0346377
  90.9710273  72.4779245  93.4980652  91.4909271  72.1022532  94.8693624
  93.1687804  78.2675797  92.7123642  93.3804699  78.9107557  92.0358023
  93.1217552  77.4338113  92.2445572  90.7714033  70.8793617  89.6160214
  89.9098512  71.1774871  89.9076952  90.7976467  71.0964016  88.6841247
  87.5875602  79.4235808  86.0234020  88.0513948  79.7023511  85.2338643
  87.3232400  78.5219253  85.8407111  84.4799683  78.9707290  88.9613783
  85.0501040  79.3994558  88.3231268  85.0707795  78.6889874  89.6597969
  86.5244488  75.5458960  82.8323585  87.2268531  75.9980004  83.2997512
  86.1925117  74.9042779  83.4603478  84.9724850  74.1370717  97.2074795
  84.3423510  74.8186998  97.4410191  84.8660937  74.0253799  96.2627933
  80.2669822  73.8042513  88.1340719  79.4768876  74.0600042  87.6580829
  80.7581069  74.6190851  88.2392759  94.2833632  81.1447752  90.8846000
  95.1051075  80.7427939  90.6028681  94.2796034  81.0415986  91.8362115
  82.2184567  74.1687092  85.0924195  81.4215731  74.2805787  85.6107691
  81.9910160  74.5073744  84.2265086  88.0490235  80.6931795  93.0406710
  88.1134668  81.1552203  93.8764882  87.3401159  80.0629160  93.1689020
  78.5507525  74.0573003  90.5655710  78.8015563  74.9420013  90.8313285
  79.0867073  73.8777605  89.7930801 102.3739625  77.4886501  87.2330971
 101.6203333  76.9193899  87.0774975 102.5087166  77.4549165  88.1801606
  87.7638253  82.3599903  82.9085690  87.6283927  83.2051439  83.3370538
  88.3048065  82.5619181  82.1451624  84.2505592  68.4391483  99.5700046
  83.8572538  67.8857681 100.2447690  85.0671733  68.7502061  99.9606563
  81.2167650  79.8775341  83.4813615  81.7292171  80.6718591  83.6319180
  81.8690363  79.1801631  83.4147217  83.0262535  82.9941097  85.5636369
  83.2029163  83.9159062  85.3757353  83.8219368  82.6799517  85.9930748
  87.1673553  69.8549362  97.1620302  87.9083267  70.4556515  97.0824765
  87.3991476  69.1127000  96.6038345  82.3114891  75.0405729  95.4398532
  82.1968406  74.1390986  95.7405631  81.4559409  75.2869426  95.0883348
  89.3906729  82.9823469  97.0386032  88.9470583  82.1959848  96.7206937
  90.0523943  83.1702620  96.3729923  84.1493850  84.5119271  91.5646711
  84.7001275  84.3836334  90.7923705  83.3105326  84.8114160  91.2141604
  91.4887967  83.2626269  95.0667434  91.4706442  84.0835150  94.5747703
  92.4107887  83.1380345  95.2917575  87.9461021  80.7770399  95.9090942
  88.4789358  80.0158687  95.6790250  87.4175102  80.4844051  96.6515097
  91.1130716  65.8830465  91.4384584  90.7694986  66.7732107  91.3623694
  91.4809679  65.6932122  90.5754169  79.1816567  78.2063995  84.2573186
  80.0191789  78.6161004  84.0406894  79.3594835  77.2663437  84.2273380
  91.0780999  75.8739076  79.9457019  90.5627622  76.6443681  80.1845406
  90.8058307  75.2004212  80.5690080  88.6628110  70.7188777  85.0042257
  87.8069706  70.3295627  84.8247896  89.0755062  70.7980738  84.1442043
  90.1927257  68.2535120  89.4033817  89.6892052  68.2165255  88.5901622
  90.4857864  69.1627863  89.4630474  86.4370143  68.3373850  88.4099999
  87.3023139  68.1416658  88.0505888  86.5047651  68.1084202  89.3369356
  96.0515273  78.6271431  81.8810192  95.2744716  78.2882590  81.4365355
  96.7306754  78.6324054  81.2065157  90.8667302  73.7466168  81.7716800
  90.5617438  74.0612317  82.6226943  91.8197744  73.8247588  81.8144133
  89.3113734  79.9056391  83.4209754  88.7835096  79.1709151  83.1082992
  88.8101237  80.6831068  83.1749722  94.2906580  78.1005412  88.5376800
  93.6330254  78.7904673  88.6256929  95.0946979  78.4901844  88.8810787
  84.0432462  70.5676058  85.7816366  84.6176214  70.3451239  85.0489559
  84.6303444  70.6364752  86.5344967  93.1012039  76.4549785  86.5880742
  93.6143921  77.0879776  87.0902452  93.7513263  75.8550980  86.2224102
  84.3702049  72.5980519  79.8012251  83.5339361  72.9355205  80.1221526
  84.2306818  72.4629498  78.8639388  86.3455129  67.4417307  84.5091435
  85.6919542  67.1266324  83.8848050  86.3035603  66.8193047  85.2351258
  87.4566334  77.7236602  76.4244727  86.5493396  77.4925855  76.6235876
  87.9537366  76.9274221  76.6118709  90.3634413  86.4334109  79.3441413
  89.6896112  86.7365806  79.9526371  90.7500235  87.2363189  78.9946870
  89.5792870  73.9299240  88.8339083  88.6615431  74.1514187  88.6760771
  89.9953013  74.0045551  87.9750790  90.3627917  75.3290656  83.9641763
  91.1099736  75.8412053  83.6548885  90.6319507  75.0074709  84.8246157
  88.6354568  77.8249197  80.9468717  87.7265787  77.5408229  81.0441187
  88.6649651  78.2448275  80.0872024  93.8673835  81.4355786  84.7159885
  93.4136162  80.5946696  84.7725075  93.2367802  82.0717184  85.0534665
  92.8106755  72.3647772  85.9460552  92.0729511  71.8525158  86.2770795
  93.0633528  71.9248154  85.1343829  92.3106774  83.2732283  85.6509703
  92.6029749  83.8337340  84.9322069  92.8205395  83.5660844  86.4062862
  92.9118382  65.1424024  86.5402322  93.2177259  64.2821387  86.2528237
  93.6370987  65.7341644  86.3401315  79.2042738  75.5454711  84.9283919
  79.0067138  74.9524071  84.2034986  78.6489402  75.2406921  85.6459858
  87.1839462  75.4377817  87.0478513  87.2388071  74.4851654  86.9720989
  86.3730664  75.5937256  87.5319811  88.3330655  79.3657940  78.2856796
  87.8950085  78.6493799  77.8262433  89.0741096  79.5934055  77.7241887
  85.1231822  74.0554877  84.8068891  84.3099687  74.3549047  85.2134084
  85.6190816  73.6610566  85.5243374  87.2740399  84.0512634  86.7403156
  87.2316578  84.2773480  85.8111688  88.1903098  83.8176008  86.8888957
  90.7206033  74.5196701  93.6383785  91.0755421  74.7468174  94.4978251
  91.3678164  74.8515078  93.0161041  96.4503770  77.6415137  84.3433114
  96.3121669  77.8316733  83.4154304  96.0939989  78.4034520  84.8001166
  84.6145896  71.6273232  90.4230126  85.2545276  71.4861991  89.7253090
  83.7823427  71.3407746  90.0468728  96.4773150  79.7091664  89.3544386
  96.9109656  79.6166953  90.2027440  97.1904731  79.6849165  88.7164402
  85.3906200  80.9275663  86.5365119  86.1846799  80.4325983  86.3347694
  84.6797893  80.3993526  86.1732824  90.2101045  83.3093758  90.8877486
  90.2638067  83.8784695  91.6555202  89.3415826  83.4795643  90.5231524
  81.6988964  75.0718745  82.6124872  80.7686552  75.0103200  82.8294834
  81.7946436  74.5494697  81.8161513  81.6174513  71.5973557  85.2003113
  81.8781330  72.5118891  85.0912274  82.4391685  71.1298000  85.3499726
  83.0899438  73.0111315  92.3701938  83.7622492  72.8028677  91.7214587
  82.2629225  72.8133401  91.9307170  97.3388699  79.7515365  91.8877271
  97.5324589  80.6561175  92.1336546  97.2389318  79.2922784  92.7215856
  88.9925010  69.6373255  94.3867599  88.3452925  70.3363205  94.2932075
  89.7626025  70.0709399  94.7543847  92.4003808  79.9022108  97.4618152
  92.2489314  79.6732659  96.5448236  92.3908488  80.8592709  97.4749497
  89.1689144  77.4754020  92.4464418  90.0981204  77.6265180  92.2733386
  88.7480174  77.5638041  91.5913065  87.9677476  81.5004685  90.2162956
  87.8288562  81.1323469  91.0888894  87.1792072  82.0152324  90.0446914
  88.5625628  86.6013781  81.5588492  88.7377384  86.1301824  82.3734115
  87.8758416  87.2279547  81.7869753  89.5182691  80.8786287  87.6051794
  89.1832524  80.8387057  88.5009444  89.0186637  80.2131003  87.1322204
  83.4926935  76.2853918  93.1304375  83.3546733  75.5534156  93.7315914
  84.4031859  76.1962818  92.8488563  92.4541883  78.2242322  77.8788853
  91.8371054  77.4989150  77.7821906  91.9858371  78.9851682  77.5355928
  86.1209236  75.9973877  92.6188055  86.8308855  75.3567069  92.5774673
  86.0778544  76.2486772  93.5414235  94.1096015  82.9341230  95.5394634
  94.0508561  82.2500450  94.8725217  94.5115533  83.6760220  95.0875260
  84.8338170  72.9839095  94.4383694  84.2975527  72.5329833  95.0905290
  84.2454878  73.1185004  93.6954158  83.1286713  89.7503144  88.3328353
  83.3683312  90.3821668  89.0107371  82.2855910  89.3991184  88.6193712
  84.2440429  72.4427746  77.0010158  83.3669895  72.3216547  76.6372404
  84.7198182  71.6513824  76.7489046  94.1113422  80.8980814  93.7708613
  93.2240201  80.5606736  93.8935012  94.6811973  80.1663845  94.0077379
  80.5677291  72.1195102  91.5236689  80.4835480  71.5120772  90.7887098
  79.7459998  72.6104121  91.5246185  87.6414575  85.5582266  90.7369857
  87.5684747  86.3637238  91.2489161  87.1991968  85.7574232  89.9117878
  87.4304355  84.7954036  84.2472678  86.6471877  85.3375717  84.3410903
  88.1297100  85.3128016  84.6466919  90.7401005  70.6048666  86.8906884
  91.2369705  69.8518628  86.5707954  89.9687987  70.6412983  86.3250093
  98.5930762  76.3089031  88.5325175  98.5820639  77.1913747  88.1619108
  97.7248142  75.9560582  88.3379712  90.1013259  85.4569100  92.8928015
  90.8141231  86.0916565  92.8203917  89.6103288  85.5532966  92.0768017
  91.8230786  79.3620353  84.4645307  90.8887065  79.4821816  84.2950011
  92.0007454  78.4592820  84.2005317  87.3235974  72.7466049  86.6178568
  86.9533761  72.1937089  87.3059474  87.8195066  72.1424182  86.0653568
  95.2103337  75.2037672  84.9995341  95.6763789  76.0365664  84.9255644
  95.6610838  74.7382654  85.7040600  85.1525172  83.2063544  93.7133586
  85.8534632  83.8400027  93.8662980  84.6820287  83.5478275  92.9529225
  93.2779568  81.5481494  81.9981493  93.5539412  81.4338088  82.9075367
  92.4084067  81.1498979  81.9593666  93.1820000  67.5718259  89.0386242
  92.2683080  67.8022486  89.2068449  93.6113101  67.6556704  89.8900275
  92.9526458  75.7608151  91.5386136  92.2997909  76.0084059  90.8838589
  93.3306838  74.9472290  91.2048614  89.9133632  85.7967845  85.6414307
  90.0956027  84.9789501  86.1042059  90.7366618  86.0135537  85.2039197
  90.2475798  84.7236030  82.9029355  90.7763564  84.2128484  82.2899517
  90.5104017  84.4078560  83.7674888  89.0014031  76.5027962  98.0252174
  88.3254668  76.4022092  98.6954549  89.8241665  76.3467176  98.4888171
  80.7492890  82.7399899  90.6464689  81.3346327  81.9943587  90.7792593
  80.5517729  83.0503856  91.5301353  83.6031546  85.7751146  85.6627131
  82.9341921  86.2597274  85.1791171  83.4644415  86.0220367  86.5770510
  87.7436814  87.8094890  92.2609790  88.2955122  87.9726511  93.0258875
  88.0843008  88.3999328  91.5889814  82.7201307  70.1570040  92.8631674
  82.7842634  71.0184871  92.4509072  82.6568428  69.5444041  92.1304033
  82.1953580  72.2293172  96.5104709  82.8225619  71.8470250  97.1242233
  81.3381499  72.0107374  96.8760401  92.5947689  82.6356147  98.1158444
  93.1387593  83.2486106  97.6213399  92.0134533  83.1935726  98.6325457
  78.9719123  74.0369601  82.4423063  79.2672564  73.1280280  82.3890117
  78.0707159  74.0157341  82.1204066  90.8805202  85.7576865  89.2473472
  90.7556341  84.9566605  88.7384417  91.5384293  86.2523059  88.7587442
  82.5013370  72.1125598  88.4250612  81.7799956  72.7261566  88.2858085
  83.2906626  72.6483363  88.3467258  92.9440110  83.5585886  90.8753022
  91.9970445  83.4391237  90.8031349  93.2922883  82.6708384  90.9579283
  85.3039683  69.4480024  94.6991264  85.8274085  69.6942321  95.4617573
  85.0852017  70.2800059  94.2794401  80.7006964  71.7183699  82.5662388
  80.3719671  70.8381078  82.3837494  81.0546335  71.6631368  83.4538778
  89.9486543  83.3538602  87.0757374  89.8011506  82.4255309  87.2564944
  90.7740037  83.3758692  86.5914449  83.8148788  72.0056669  82.9337866
  84.1544860  72.5342590  82.2116475  84.2620908  72.3437075  83.7096433
  93.5520665  84.1767160  88.1622247  94.4767213  83.9710022  88.0246698
  93.3835968  83.9283562  89.0711588  86.5092228  70.3893720  92.3840934
  86.1689049  69.5901533  92.7861614  85.8031235  70.6895430  91.8117767
  87.1608700  67.4743032  90.8368257  87.9834769  67.0003510  90.7147148
  87.4046764  68.2533516  91.3366944  85.8016935  70.5031290  81.1331159
  86.5225297  70.8812543  80.6294876  85.1782239  71.2220167  81.2366137
  89.9448058  71.2076439  82.0689491  90.1611672  72.0901077  81.7678319
  89.4642125  70.8162653  81.3395133  84.6847279  74.1662153  88.6460236
  84.5391860  74.4802456  89.5384517  84.2072483  74.7847053  88.0931134
  86.5443662  71.1564701  88.6941125  86.5305231  70.2605794  88.3573423
  87.2616090  71.1635364  89.3279411  88.3969793  71.5902041  90.7394253
  88.1387570  72.5119111  90.7378583  87.8654833  71.1932475  91.4294717
  93.3415981  84.6952828  83.5184338  93.5152859  84.1299250  82.7658191
  93.8344873  85.4953723  83.3363828  79.1592941  76.7067497  91.5847897
  78.6146409  77.4827305  91.7168171  80.0372291  77.0538301  91.4267018
  85.9480558  70.0379081  83.9628696  86.0696469  69.1095727  84.1619583
  85.6582600  70.0517767  83.0507011  88.8171748  67.7233991  87.0995415
  88.8393445  67.7873324  86.1447395  89.2339807  66.8838500  87.2935922
  99.1955372  77.4589251  85.1374638  99.6386518  76.7096576  84.7393761
  98.3181883  77.4499387  84.7548370  94.3291154  84.0119592  80.6181237
  95.0242058  84.6326285  80.8368551  94.6714304  83.1614944  80.8933614
  79.9458963  75.8337393  94.4778054  79.2040699  75.9820029  95.0642684
  79.6251707  76.0945659  93.6144803  96.2282577  81.4619298  82.1468567
  96.7533901  81.8006571  81.4217887  96.1404929  80.5266313  81.9631702
  87.8902626  85.3753372  94.2758444  88.1989752  85.1302518  95.1481143
  88.6878108  85.5800010  93.7877314  87.9123238  87.5291281  86.5063820
  87.4728228  87.0367660  87.1996677  88.6631355  86.9864249  86.2655896
  80.3915577  83.7202822  86.5088449  81.2173597  83.4206594  86.1287092
  80.0409629  82.9510444  86.9578237  85.3597110  83.0729290  88.5786122
  84.7377119  82.4099995  88.2788350  86.0301977  83.0990422  87.8959770
  78.5924182  81.6389148  87.4677382  77.7556090  81.2111323  87.2861383
  78.5647827  81.8321592  88.4048173  85.4321637  71.5511078  98.1718628
  85.4809793  72.4273201  97.7896398  85.9744151  71.0088471  97.5990271
  95.9176483  82.0952201  97.4519765  95.1272027  82.0776340  96.9124265
  95.6809838  82.6340495  98.2068802  96.0374358  78.9444668  94.7652494
  96.0872363  78.7794675  95.7068017  95.9288281  78.0771927  94.3750375
  84.9210617  81.6233214  82.0544583  85.0698737  82.3068678  81.4011255
  85.7277060  81.6038304  82.5694038  93.3278120  74.9275596  96.0811800
  94.2287983  74.7882061  95.7895798  93.4026095  75.0930051  97.0209978
  87.6620926  72.3042451  94.9264987  86.7924235  72.5976017  94.6547575
  87.8980406  72.8882896  95.6472250  97.5392555  81.3641609  95.0094515
  97.2477363  81.7271590  95.8457976  96.9264686  80.6508618  94.8307847
  98.7388237  78.9294489  87.5297086  99.5735129  79.3684293  87.6934646
  98.8747366  78.4533142  86.7105331  95.7879743  76.4874224  93.4774573
  96.2633865  76.6801870  92.6693425  94.8645308  76.5433410  93.2317957
  82.6763250  77.6498391  83.0605652  82.4309292  76.7460721  83.2585862
  82.8459164  77.6515542  82.1185130  90.3659960  68.5222068  92.4430407
  90.8841903  69.2583095  92.1176896  90.0115092  68.8286061  93.2777166
  81.9458897  73.3826749  80.5591813  81.2528142  73.4571104  79.9031849
  81.7010649  72.6187092  81.0813330  90.6172554  64.9422350  87.9631304
  90.8974308  64.2745539  88.5891730  91.4023161  65.1351446  87.4505968
  88.4206022  84.1181344  79.5256330  87.8479989  84.7371531  79.0726802
  88.9938816  84.6680706  80.0596252  94.4881412  73.3639984  91.7102879
  95.4398835  73.4638082  91.7315103  94.3184862  72.5718253  92.2200963
  92.5095792  70.4495567  91.8962280  91.9145724  70.7300580  91.2008768
  92.2245488  70.9389468  92.6679021  91.6403282  84.4018494  80.6564912
  92.5733955  84.3364056  80.8597788  91.5526495  85.2374761  80.1979445
  94.2691299  83.7184364  77.6168860  94.1904930  83.3844228  78.5104618
  95.0900965  84.2106132  77.6160332  96.9669490  76.5846104  90.8245179
  96.9345810  75.6462105  91.0104862  97.5770114  76.6630141  90.0911003
  88.8052821  75.4542157  76.8672383  89.7511925  75.3248365  76.9360801
  88.4267066  74.7156819  77.3441811  97.1163978  73.3757147  90.8703462
  96.6003027  72.5915604  90.6833391  98.0003927  73.0475864  91.0349981
  94.7774705  67.1198163  86.8299274  94.5799526  66.8113251  87.7142606
  95.3874411  67.8459802  86.9597204 102.7846040  77.6462111  89.9651215
 103.5149428  77.3847399  90.5258919 102.1752985  76.9090833  90.0053283
 100.8661337  75.7869973  90.5625667 100.1394500  75.6525938  89.9542158
 100.4508624  76.0946802  91.3682385  88.6891513  79.5059903  98.3273040
  89.6094523  79.6838502  98.5213086  88.6541096  78.5615948  98.1752739
  86.9895738  73.3792133  76.8027268  86.0827193  73.0825246  76.8789981
  87.2671719  73.0821951  75.9361554  81.6853586  77.4160938  90.9695821
  81.9039596  78.3478045  90.9883855  82.0979360  77.0568912  91.7550625
  88.6057804  67.9229023  82.9571509  87.7958532  67.5776108  83.3326755
  89.2942221  67.6136567  83.5459121  90.5348352  67.0007070  84.5795806
  91.0879391  67.4202523  85.2385829  90.7718438  66.0742818  84.6218762
  86.5581451  72.9894143 100.3598570  86.4578178  73.9388500 100.2910661
  86.3402993  72.6612382  99.4874640  85.7594523  70.2379068  76.9439247
  86.6213687  70.5633967  77.2035064  85.9444867  69.4510564  76.4312313
  77.7761938  78.3201408  89.2219436  77.0825410  77.9055361  88.7089390
  78.5234929  78.3621945  88.6252855  93.9127159  69.1107595  84.0874470
  93.3325828  69.7692399  83.7052522  93.6463092  68.2884939  83.6761888
  92.3630725  68.5112653  86.2895790  92.8630504  68.6229187  85.4810109
  93.0066333  68.2073705  86.9296599  86.4212721  76.4191282  99.1763631
  85.9379803  77.2191642  99.3827520  86.5073660  76.4299227  98.2231075
  79.6898681  78.2519662  87.0985451  79.6669369  78.3507349  86.1467334
  79.9999317  79.0984813  87.4202617  82.3486059  80.3095817  91.2132065
  83.3029312  80.2779759  91.1461997  82.1498582  79.8486441  92.0282291
  82.9385441  78.8796933  93.7802863  83.7578330  79.3741012  93.8037700
  83.2122249  77.9628901  93.7520430  92.6952037  71.2707685  83.1430818
  91.8077892  71.5557336  82.9251013  93.1106026  71.1101449  82.2958095
  96.0466573  71.2954206  86.8585158  96.8226963  71.7850659  87.1309774
  95.3214707  71.7212260  87.3157027  98.4839132  72.0081825  87.9159098
  99.0783623  71.7677561  87.2052406  98.5565715  71.2888956  88.5432634
  80.7036287  85.8515436  88.2302263  80.5690755  85.0915837  87.6640261
  80.2868350  86.5756336  87.7631052  91.8395250  81.0352360  77.2378838
  92.5431101  81.2402362  77.8536494  91.1157899  81.6029122  77.5027922
  92.6693061  76.7862221  83.3581108  92.6128262  77.2430773  82.5188741
  93.2221403  76.0252906  83.1803951  96.4797867  72.5751953  84.1831228
  96.2234801  72.1748589  85.0139436  95.8550735  73.2895747  84.0581367
 100.7910205  75.3148026  86.6902519 100.2309762  75.3841216  87.4634081
 100.1853708  75.1389011  85.9702016  83.8605413  86.7484753  88.4420706
  83.7437797  87.6930186  88.3399396  83.0397860  86.4458315  88.8306505
  93.7481948  81.4734889  79.2877298  94.5827552  81.0416088  79.1054773
  93.5866291  81.3016903  80.2154193  93.4027840  77.9767002  80.6533638
  93.3476644  77.8111274  79.7122082  92.7773895  78.6843035  80.8095827
  78.1920355  73.2135067  94.4795060  78.8379219  72.7034021  94.9682285
  77.9837506  73.9503748  95.0538485  90.7173747  80.2815914  99.9787200
  91.5864907  80.4556567  99.6173835  90.2380499  81.1010331  99.8562930
  86.7123966  67.4775111  80.2318956  86.7002635  68.4216951  80.3887227
  87.6047387  67.2945257  79.9378417  84.8859927  87.4013015  91.6576634
  85.7887174  87.4336626  91.9743129  84.6597298  86.4713466  91.6722970
  86.6413529  86.1544002  88.3186713  85.6909160  86.1545863  88.2051085
  86.9446016  85.4076736  87.8022747  90.5276085  64.0717888  84.4864893
  89.7608481  63.5176375  84.6321575  90.9386790  64.1439757  85.3479044
  82.5317846  70.3602684  98.5770074  83.3949308  70.0039489  98.7873399
  81.9583257  70.0216579  99.2645478 102.3766223  91.9904540  89.3832475
 103.0144633  91.8711288  88.6795815 102.2587066  92.9385384  89.4420427
  99.1855929  91.9431968  89.3194000  98.8474441  91.8273033  88.4314535
 100.0545697  91.5423133  89.2995006  95.0442745  93.7967445  85.3090891
  94.4807610  93.7057382  84.5407178  94.9295140  92.9767349  85.7893383
  99.6675712  93.0966820  95.2780205  99.6564353  92.7019618  94.4060709
  99.8296352  92.3632893  95.8713977  92.5907177  95.2918636  88.1475111
  93.3828469  94.9509461  87.7321410  92.8303827  95.4013611  89.0677264
 100.6242304  97.4638412  80.6205356  99.9730283  98.0492493  80.2339369
 101.4186666  97.9944607  80.6800393  94.5497931  94.5527550  81.0192490
  95.3228807  94.0056537  80.8805366  94.9023330  95.4171799  81.2306951
  96.3882973  95.8803932  94.2259389  96.0972839  96.7849563  94.1106056
  97.0239958  95.9220459  94.9403459  97.3139180  93.2580780  90.8160749
  97.9102752  93.0336803  90.1017712  97.3714152  92.5165526  91.4186197
  96.8864209  90.7120216  78.6510940  97.1389729  90.1901737  77.8894403
  95.9488768  90.5486361  78.7537623 101.9307491  89.7155994  86.4585683
 102.7170581  89.2975417  86.1076100 102.1946196  90.6202086  86.6267331
 102.1017569  95.1528844  81.1574340 101.4663402  95.2263471  81.8695245
 101.7714975  95.7422443  80.4793419 107.3315919  89.6531227  87.3618662
 108.0641091  89.0830444  87.5956491 106.5755274  89.2652828  87.8025167
  96.6060497  92.6148322  80.8535315  96.4896755  91.9393225  81.5216399
  96.7162757  92.1280696  80.0367468  98.9492038  92.0758469  84.5582004
  98.5850246  91.5489090  85.2694926  99.8059154  91.6856938  84.3848489
 104.8541339  83.3652801  91.8213270 104.5224664  84.2348212  91.5974485
 104.2586952  83.0489085  92.5007301  98.5897525  87.1048368  79.5543353
  98.7571928  87.9728605  79.9213824  98.3994694  87.2675650  78.6304642
 101.3472858  95.5665347  91.2209183 101.0473582  96.4690386  91.1124990
 101.0023918  95.2997531  92.0730336  94.7985340  92.0179144  87.2545887
  93.8735836  91.8855358  87.4623579  95.0469753  92.7973363  87.7515830
 104.7470002  88.0847888  88.9006620 103.8386880  88.0163296  88.6065381
 104.6957598  88.5619832  89.7288446  98.5686746  89.5606026  80.5390019
  98.4486371  90.0063077  81.3775500  97.8739335  89.9091344  79.9803558
  92.1594151  91.6612418  88.0889676  92.2886532  91.9146897  89.0029088
  91.4791602  92.2540126  87.7694332  96.3293638 102.3309668  84.1880151
  96.2517668 103.2817493  84.2668631  95.7255282 101.9855540  84.8455077
  98.8210868  89.5037533  96.8441518  98.0444202  90.0631453  96.8344382
  99.4601431  89.9894316  97.3656388 106.6131649  86.2864326  90.6784494
 105.9706029  86.5796859  90.0324289 106.1086577  86.1717246  91.4837691
 104.2671812  90.0327499  81.3670353 105.1789668  90.2654886  81.1918051
 103.7581459  90.6164543  80.8045432  97.0757240  92.3122986  96.4059485
  97.8171925  92.8508030  96.1294308  96.3694226  92.9389275  96.5631036
 102.5512580  94.4552127  95.0031646 102.9595936  94.0134537  94.2586278
 101.8289841  93.8804754  95.2565839  98.9043650  89.3924734  92.3765203
  99.7504845  89.8164147  92.5199852  98.8442288  88.7358358  93.0703766
 102.8741395  95.0153318  88.7583935 102.2450257  95.1799032  88.0560003
 102.4867057  95.4294927  89.5294899 106.7530627  95.9507755  86.1128299
 106.0681665  96.3306657  85.5625332 106.8374476  96.5603082  86.8460246
 102.0543095  87.0529102  94.0346377 101.8104027  87.8071163  93.4980652
 102.3303026  87.4314450  94.8693624 104.0081558  93.5967714  92.7123642
 104.2198453  94.2399474  92.0358023 103.9611306  92.7630031  92.2445572
 101.6107787  86.2085535  89.6160214 100.7492266  86.5066789  89.9076952
 101.6370222  86.4255934  88.6841247  98.4269356  94.7527726  86.0234020
  98.8907702  95.0315429  85.2338643  98.1626155  93.8511170  85.8407111
  95.3193438  94.2999207  88.9613783  95.8894795  94.7286476  88.3231268
  95.9101549  94.0181792  89.6597969  97.3638243  90.8750878  82.8323585
  98.0662286  91.3271922  83.2997512  97.0318871  90.2334697  83.4603478
  95.8118604  89.4662635  97.2074795  95.1817265  90.1478916  97.4410191
  95.7054692  89.3545716  96.2627933  91.1063577  89.1334431  88.1340719
  90.3162630  89.3891959  87.6580829  91.5974824  89.9482769  88.2392759
 105.1227386  96.4739670  90.8846000 105.9444830  96.0719857  90.6028681
 105.1189789  96.3707904  91.8362115  93.0578322  89.4979010  85.0924195
  92.2609485  89.6097704  85.6107691  92.8303914  89.8365662  84.2265086
  98.8883990  96.0223713  93.0406710  98.9528422  96.4844120  93.8764882
  98.1794913  95.3921078  93.1689020  89.3901279  89.3864921  90.5655710
  89.6409318  90.2711931  90.8313285  89.9260828  89.2069523  89.7930801
 113.2133379  92.8178418  87.2330971 112.4597088  92.2485816  87.0774975
 113.3480920  92.7841083  88.1801606  98.6032007  97.6891821  82.9085690
  98.4677682  98.5343356  83.3370538  99.1441820  97.8911098  82.1451624
  95.0899347  83.7683401  99.5700046  94.6966292  83.2149599 100.2447690
  95.9065487  84.0793979  99.9606563  92.0561405  95.2067259  83.4813615
  92.5685925  96.0010509  83.6319180  92.7084117  94.5093549  83.4147217
  93.8656289  98.3233015  85.5636369  94.0422918  99.2450980  85.3757353
  94.6613123  98.0091434  85.9930748  98.0067308  85.1841280  97.1620302
  98.7477021  85.7848433  97.0824765  98.2385231  84.4418917  96.6038345
  93.1508646  90.3697647  95.4398532  93.0362161  89.4682904  95.7405631
  92.2953164  90.6161344  95.0883348 100.2300484  98.3115387  97.0386032
  99.7864338  97.5251766  96.7206937 100.8917697  98.4994538  96.3729923
  94.9887605  99.8411189  91.5646711  95.5395030  99.7128252  90.7923705
  94.1499081 100.1406078  91.2141604 102.3281722  98.5918187  95.0667434
 102.3100197  99.4127068  94.5747703 103.2501642  98.4672262  95.2917575
  98.7854776  96.1062317  95.9090942  99.3183113  95.3450605  95.6790250
  98.2568857  95.8135968  96.6515097 101.9524471  81.2122383  91.4384584
 101.6088740  82.1024024  91.3623694 102.3203433  81.0224040  90.5754169
  90.0210321  93.5355913  84.2573186  90.8585543  93.9452921  84.0406894
  90.1988589  92.5955355  84.2273380 101.9174753  91.2030994  79.9457019
 101.4021377  91.9735598  80.1845406 101.6452062  90.5296130  80.5690080
  99.5021864  86.0480694  85.0042257  98.6463461  85.6587545  84.8247896
  99.9148816  86.1272655  84.1442043 101.0321011  83.5827038  89.4033817
 100.5285807  83.5457173  88.5901622 101.3251618  84.4919780  89.4630474
  97.2763897  83.6665767  88.4099999  98.1416894  83.4708576  88.0505888
  97.3441406  83.4376119  89.3369356 106.8909028  93.9563348  81.8810192
 106.1138470  93.6174508  81.4365355 107.5700509  93.9615971  81.2065157
 101.7061057  89.0758086  81.7716800 101.4011192  89.3904235  82.6226943
 102.6591499  89.1539506  81.8144133 100.1507488  95.2348309  83.4209754
  99.6228850  94.5001069  83.1082992  99.6494991  96.0122985  83.1749722
 105.1300335  93.4297330  88.5376800 104.4724009  94.1196591  88.6256929
 105.9340734  93.8193761  88.8810787  94.8826216  85.8967975  85.7816366
  95.4569968  85.6743157  85.0489559  95.4697199  85.9656670  86.5344967
 103.9405793  91.7841702  86.5880742 104.4537675  92.4171694  87.0902452
 104.5907017  91.1842898  86.2224102  95.2095803  87.9272436  79.8012251
  94.3733115  88.2647123  80.1221526  95.0700573  87.7921416  78.8639388
  97.1848884  82.7709224  84.5091435  96.5313296  82.4558241  83.8848050
  97.1429358  82.1484965  85.2351258  98.2960089  93.0528519  76.4244727
  97.3887150  92.8217773  76.6235876  98.7931121  92.2566139  76.6118709
 101.2028168 101.7626027  79.3441413 100.5289866 102.0657723  79.9526371
 101.5893990 102.5655107  78.9946870 100.4186624  89.2591158  88.8339083
  99.5009186  89.4806105  88.6760771 100.8346768  89.3337468  87.9750790
 101.2021672  90.6582573  83.9641763 101.9493491  91.1703971  83.6548885
 101.4713261  90.3366626  84.8246157  99.4748322  93.1541114  80.9468717
  98.5659541  92.8700147  81.0441187  99.5043406  93.5740193  80.0872024
 104.7067590  96.7647704  84.7159885 104.2529917  95.9238614  84.7725075
 104.0761556  97.4009102  85.0534665 103.6500509  87.6939690  85.9460552
 102.9123266  87.1817076  86.2770795 103.9027283  87.2540071  85.1343829
 103.1500529  98.6024200  85.6509703 103.4423503  99.1629257  84.9322069
 103.6599149  98.8952761  86.4062862 103.7512136  80.4715942  86.5402322
 104.0571013  79.6113305  86.2528237 104.4764741  81.0633562  86.3401315
  90.0436492  90.8746628  84.9283919  89.8460892  90.2815989  84.2034986
  89.4883156  90.5698838  85.6459858  98.0233216  90.7669735  87.0478513
  98.0781826  89.8143571  86.9720989  97.2124418  90.9229174  87.5319811
  99.1724410  94.6949858  78.2856796  98.7343840  93.9785717  77.8262433
  99.9134851  94.9225973  77.7241887  95.9625576  89.3846795  84.8068891
  95.1493442  89.6840965  85.2134084  96.4584570  88.9902483  85.5243374
  98.1134154  99.3804551  86.7403156  98.0710333  99.6065398  85.8111688
  99.0296853  99.1467926  86.8888957 101.5599788  89.8488619  93.6383785
 101.9149175  90.0760092  94.4978251 102.2071919  90.1806996  93.0161041
 107.2897525  92.9707055  84.3433114 107.1515423  93.1608651  83.4154304
 106.9333743  93.7326438  84.8001166  95.4539651  86.9565150  90.4230126
  96.0939030  86.8153909  89.7253090  94.6217181  86.6699663  90.0468728
 107.3166904  95.0383582  89.3544386 107.7503411  94.9458871  90.2027440
 108.0298485  95.0141082  88.7164402  96.2299955  96.2567580  86.5365119
  97.0240553  95.7617901  86.3347694  95.5191647  95.7285444  86.1732824
 101.0494799  98.6385676  90.8877486 101.1031821  99.2076612  91.6555202
 100.1809581  98.8087561  90.5231524  92.5382718  90.4010662  82.6124872
  91.6080306  90.3395118  82.8294834  92.6340190  89.8786615  81.8161513
  92.4568267  86.9265475  85.2003113  92.7175085  87.8410808  85.0912274
  93.2785440  86.4589918  85.3499726  93.9293193  88.3403232  92.3701938
  94.6016246  88.1320594  91.7214587  93.1022979  88.1425318  91.9307170
 108.1782454  95.0807283  91.8877271 108.3718344  95.9853093  92.1336546
 108.0783072  94.6214702  92.7215856  99.8318765  84.9665173  94.3867599
  99.1846680  85.6655123  94.2932075 100.6019780  85.4001317  94.7543847
 103.2397563  95.2314025  97.4618152 103.0883069  95.0024577  96.5448236
 103.2302242  96.1884627  97.4749497 100.0082899  92.8045938  92.4464418
 100.9374959  92.9557098  92.2733386  99.5873929  92.8929959  91.5913065
  98.8071231  96.8296602  90.2162956  98.6682316  96.4615387  91.0888894
  98.0185827  97.3444242  90.0446914  99.4019383 101.9305699  81.5588492
  99.5771138 101.4593742  82.3734115  98.7152171 102.5571465  81.7869753
 100.3576446  96.2078205  87.6051794 100.0226278  96.1678975  88.5009444
  99.8580392  95.5422921  87.1322204  94.3320690  91.6145835  93.1304375
  94.1940488  90.8826074  93.7315914  95.2425613  91.5254735  92.8488563
 103.2935638  93.5534239  77.8788853 102.6764808  92.8281068  77.7821906
 102.8252126  94.3143600  77.5355928  96.9602990  91.3265795  92.6188055
  97.6702609  90.6858987  92.5774673  96.9172299  91.5778689  93.5414235
 104.9489769  98.2633148  95.5394634 104.8902315  97.5792368  94.8725217
 105.3509288  99.0052138  95.0875260  95.6731924  88.3131012  94.4383694
  95.1369281  87.8621751  95.0905290  95.0848633  88.4476921  93.6954158
  93.9680468 105.0795062  88.3328353  94.2077066 105.7113586  89.0107371
  93.1249664 104.7283102  88.6193712  95.0834183  87.7719664  77.0010158
  94.2063650  87.6508465  76.6372404  95.5591936  86.9805742  76.7489046
 104.9507176  96.2272732  93.7708613 104.0633955  95.8898654  93.8935012
 105.5205728  95.4955763  94.0077379  86.6036324  92.5596824  87.0951665
  87.2907363  92.2458554  86.5072680  86.4484452  93.4638188  86.8218916
  91.4071046  87.4487020  91.5236689  91.3229234  86.8412690  90.7887098
  90.5853752  87.9396038  91.5246185  98.4808330 100.8874184  90.7369857
  98.4078501 101.6929156  91.2489161  98.0385723 101.0866150  89.9117878
  98.2698109 100.1245954  84.2472678  97.4865631 100.6667634  84.3410903
  98.9690855 100.6419934  84.6466919 101.5794760  85.9340584  86.8906884
 102.0763459  85.1810546  86.5707954 100.8081741  85.9704900  86.3250093
 109.4324517  91.6380949  88.5325175 109.4214393  92.5205665  88.1619108
 108.5641896  91.2852500  88.3379712 100.9407013 100.7861018  92.8928015
 101.6534986 101.4208483  92.8203917 100.4497042 100.8824884  92.0768017
 102.6624540  94.6912271  84.4645307 101.7280819  94.8113733  84.2950011
 102.8401209  93.7884738  84.2005317  98.1629728  88.0757967  86.6178568
  97.7927516  87.5229007  87.3059474  98.6588821  87.4716100  86.0653568
 106.0497092  90.5329590  84.9995341 106.5157544  91.3657582  84.9255644
 106.5004592  90.0674572  85.7040600  95.9918927  98.5355462  93.7133586
  96.6928386  99.1691945  93.8662980  95.5214042  98.8770193  92.9529225
 104.1173323  96.8773411  81.9981493 104.3933167  96.7630006  82.9075367
 103.2477821  96.4790896  81.9593666 104.0213754  82.9010177  89.0386242
 103.1076834  83.1314404  89.2068449 104.4506856  82.9848621  89.8900275
 103.7920213  91.0900069  91.5386136 103.1391663  91.3375977  90.8838589
 104.1700593  90.2764207  91.2048614 100.7527387 101.1259762  85.6414307
 100.9349781 100.3081418  86.1042059 101.5760373 101.3427455  85.2039197
 101.0869552 100.0527947  82.9029355 101.6157319  99.5420402  82.2899517
 101.3497772  99.7370478  83.7674888  99.8407786  91.8319880  98.0252174
  99.1648423  91.7314009  98.6954549 100.6635420  91.6759094  98.4888171
  91.5886645  98.0691817  90.6464689  92.1740082  97.3235505  90.7792593
  91.3911483  98.3795773  91.5301353  94.4425300 101.1043064  85.6627131
  93.7735675 101.5889192  85.1791171  94.3038170 101.3512285  86.5770510
  86.1804300  90.6397417  89.3669132  86.2188399  90.1061008  90.1606250
  85.6744593  90.1132622  88.7480109  98.5830569 103.1386808  92.2609790
  99.1348877 103.3018429  93.0258875  98.9236762 103.7291245  91.5889814
  93.5595062  85.4861957  92.8631674  93.6236388  86.3476788  92.4509072
  93.4962182  84.8735959  92.1304033  93.0347335  87.5585090  96.5104709
  93.6619373  87.1762167  97.1242233  92.1775253  87.3399292  96.8760401
  89.8112877  89.3661519  82.4423063  90.1066318  88.4572197  82.3890117
  88.9100913  89.3449258  82.1204066 101.7198956 101.0868783  89.2473472
 101.5950095 100.2858523  88.7384417 102.3778047 101.5814976  88.7587442
  93.3407124  87.4417516  88.4250612  92.6193710  88.0553483  88.2858085
  94.1300380  87.9775280  88.3467258 103.7833864  98.8877803  90.8753022
 102.8364200  98.7683154  90.8031349 104.1316638  98.0000301  90.9579283
  96.1433438  84.7771942  94.6991264  96.6667840  85.0234239  95.4617573
  95.9245771  85.6091977  94.2794401  91.5400719  87.0475617  82.5662388
  91.2113425  86.1672996  82.3837494  91.8940090  86.9923285  83.4538778
 100.7880298  98.6830519  87.0757374 100.6405260  97.7547227  87.2564944
 101.6133791  98.7050610  86.5914449  94.6542542  87.3348586  82.9337866
  94.9938615  87.8634508  82.2116475  95.1014662  87.6728993  83.7096433
 104.3914420  99.5059078  88.1622247 105.3160967  99.3001939  88.0246698
 104.2229723  99.2575479  89.0711588  97.3485983  85.7185637  92.3840934
  97.0082803  84.9193450  92.7861614  96.6424989  86.0187348  91.8117767
  98.0002455  82.8034950  90.8368257  98.8228524  82.3295428  90.7147148
  98.2440518  83.5825433  91.3366944  96.6410689  85.8323208  81.1331159
  97.3619052  86.2104461  80.6294876  96.0175993  86.5512085  81.2366137
 100.7841812  86.5368357  82.0689491 101.0005426  87.4192995  81.7678319
 100.3035879  86.1454570  81.3395133  95.5241033  89.4954070  88.6460236
  95.3785614  89.8094373  89.5384517  95.0466237  90.1138971  88.0931134
  97.3837416  86.4856618  88.6941125  97.3698985  85.5897712  88.3573423
  98.1009844  86.4927282  89.3279411  99.2363547  86.9193958  90.7394253
  98.9781325  87.8411029  90.7378583  98.7048587  86.5224393  91.4294717
 104.1809736 100.0244746  83.5184338 104.3546613  99.4591168  82.7658191
 104.6738627 100.8245640  83.3363828  89.9986696  92.0359415  91.5847897
  89.4540164  92.8119223  91.7168171  90.8766045  92.3830219  91.4267018
  96.7874312  85.3670999  83.9628696  96.9090223  84.4387645  84.1619583
  96.4976355  85.3809685  83.0507011  99.6565503  83.0525909  87.0995415
  99.6787199  83.1165242  86.1447395 100.0733562  82.2130418  87.2935922
 110.0349127  92.7881169  85.1374638 110.4780273  92.0388494  84.7393761
 109.1575637  92.7791305  84.7548370 105.1684908  99.3411510  80.6181237
 105.8635813  99.9618203  80.8368551 105.5108058  98.4906861  80.8933614
  90.7852717  91.1629311  94.4778054  90.0434453  91.3111946  95.0642684
  90.4645462  91.4237577  93.6144803 107.0676331  96.7911216  82.1468567
 107.5927655  97.1298488  81.4217887 106.9798684  95.8558231  81.9631702
  98.7296380 100.7045289  94.2758444  99.0383507 100.4594436  95.1481143
  99.5271862 100.9091928  93.7877314  98.7516992 102.8583199  86.5063820
  98.3121982 102.3659578  87.1996677  99.5025109 102.3156166  86.2655896
  91.2309331  99.0494740  86.5088449  92.0567351  98.7498512  86.1287092
  90.8803383  98.2802362  86.9578237  96.1990864  98.4021208  88.5786122
  95.5770874  97.7391913  88.2788350  96.8695731  98.4282340  87.8959770
  89.4317936  96.9681066  87.4677382  88.5949844  96.5403240  87.2861383
  89.4041582  97.1613509  88.4048173  96.2715392  86.8802996  98.1718628
  96.3203547  87.7565119  97.7896398  96.8137906  86.3380389  97.5990271
 106.8768112  94.2736586  94.7652494 106.9266117  94.1086593  95.7068017
 106.7682036  93.4063845  94.3750375  95.7604371  96.9525131  82.0544583
  95.9092492  97.6360596  81.4011255  96.5670815  96.9330221  82.5694038
 104.1671875  90.2567514  96.0811800 105.0681738  90.1173978  95.7895798
 104.2419849  90.4221968  97.0209978  98.5014680  87.6334368  94.9264987
  97.6317990  87.9267934  94.6547575  98.7374161  88.2174813  95.6472250
 108.3786309  96.6933527  95.0094515 108.0871118  97.0563508  95.8457976
 107.7658441  95.9800535  94.8307847 109.5781992  94.2586407  87.5297086
 110.4128883  94.6976211  87.6934646 109.7141120  93.7825060  86.7105331
 106.6273498  91.8166142  93.4774573 107.1027619  92.0093788  92.6693425
 105.7039063  91.8725328  93.2317957  93.5157004  92.9790309  83.0605652
  93.2703046  92.0752639  83.2585862  93.6852919  92.9807459  82.1185130
 101.2053714  83.8513985  92.4430407 101.7235658  84.5875012  92.1176896
 100.8508847  84.1577979  93.2777166  92.7852652  88.7118666  80.5591813
  92.0921897  88.7863021  79.9031849  92.5404404  87.9479010  81.0813330
 101.4566308  80.2714268  87.9631304 101.7368062  79.6037457  88.5891730
 102.2416915  80.4643363  87.4505968  99.2599777  99.4473262  79.5256330
  98.6873744 100.0663449  79.0726802  99.8332570  99.9972623  80.0596252
 105.3275167  88.6931902  91.7102879 106.2792589  88.7929999  91.7315103
 105.1578617  87.9010170  92.2200963 103.3489546  85.7787485  91.8962280
 102.7539478  86.0592498  91.2008768 103.0639243  86.2681386  92.6679021
 102.4797037  99.7310412  80.6564912 103.4127710  99.6655973  80.8597788
 102.3920249 100.5666679  80.1979445 105.1085053  99.0476282  77.6168860
 105.0298685  98.7136146  78.5104618 105.9294720  99.5398050  77.6160332
 107.8063244  91.9138021  90.8245179 107.7739564  90.9754022  91.0104862
 108.4163868  91.9922058  90.0911003  99.6446575  90.7834074  76.8672383
 100.5905680  90.6540283  76.9360801  99.2660820  90.0448736  77.3441811
 107.9557733  88.7049065  90.8703462 107.4396781  87.9207522  90.6833391
 108.8397681  88.3767782  91.0349981 105.6168460  82.4490080  86.8299274
 105.4193281  82.1405169  87.7142606 106.2268165  83.1751719  86.9597204
 113.6239794  92.9754028  89.9651215 114.3543183  92.7139316  90.5258919
 113.0146740  92.2382750  90.0053283 111.7055091  91.1161891  90.5625667
 110.9788255  90.9817856  89.9542158 111.2902378  91.4238720  91.3682385
  99.5285268  94.8351821  98.3273040 100.4488277  95.0130420  98.5213086
  99.4934851  93.8907866  98.1752739  97.8289492  88.7084051  76.8027268
  96.9220948  88.4117164  76.8789981  98.1065473  88.4113869  75.9361554
  88.7467433  90.0290414  87.2526314  88.4270217  89.1755722  86.9600688
  88.2000861  90.2438992  88.0084282  92.5247340  92.7452855  90.9695821
  92.7433350  93.6769963  90.9883855  92.9373114  92.3860830  91.7550625
  99.4451558  83.2520941  82.9571509  98.6352286  82.9068026  83.3326755
 100.1335975  82.9428484  83.5459121 101.3742106  82.3298987  84.5795806
 101.9273145  82.7494441  85.2385829 101.6112193  81.4034735  84.6218762
  97.3975206  88.3186061 100.3598570  97.2971933  89.2680418 100.2910661
  97.1796748  87.9904300  99.4874640  96.5988277  85.5670986  76.9439247
  97.4607441  85.8925884  77.2035064  96.7838621  84.7802482  76.4312313
  88.6155693  93.6493326  89.2219436  87.9219164  93.2347279  88.7089390
  89.3628684  93.6913862  88.6252855 104.7520913  84.4399513  84.0874470
 104.1719583  85.0984317  83.7052522 104.4856846  83.6176857  83.6761888
 103.2024480  83.8404570  86.2895790 103.7024258  83.9521105  85.4810109
 103.8460088  83.5365623  86.9296599  97.2606476  91.7483200  99.1763631
  96.7773557  92.5483560  99.3827520  97.3467415  91.7591145  98.2231075
  90.5292435  93.5811580  87.0985451  90.5063123  93.6799267  86.1467334
  90.8393072  94.4276730  87.4202617  93.1879813  95.6387735  91.2132065
  94.1423067  95.6071677  91.1461997  92.9892337  95.1778358  92.0282291
  93.7779195  94.2088851  93.7802863  94.5972084  94.7032929  93.8037700
  94.0516003  93.2920819  93.7520430 103.5345791  86.5999603  83.1430818
 102.6471647  86.8849254  82.9251013 103.9499781  86.4393366  82.2958095
 106.8860328  86.6246124  86.8585158 107.6620718  87.1142576  87.1309774
 106.1608462  87.0504178  87.3157027 109.3232886  87.3373743  87.9159098
 109.9177377  87.0969479  87.2052406 109.3959470  86.6180874  88.5432634
  91.5430042 101.1807354  88.2302263  91.4084510 100.4207755  87.6640261
  91.1262104 101.9048254  87.7631052 102.6789005  96.3644278  77.2378838
 103.3824855  96.5694280  77.8536494 101.9551654  96.9321039  77.5027922
 103.5086815  92.1154139  83.3581108 103.4522017  92.5722690  82.5188741
 104.0615158  91.3544823  83.1803951 107.3191621  87.9043871  84.1831228
 107.0628555  87.5040506  85.0139436 106.6944489  88.6187665  84.0581367
 111.6303959  90.6439944  86.6902519 111.0703517  90.7133133  87.4634081
 111.0247462  90.4680929  85.9702016  94.6999168 102.0776671  88.4420706
  94.5831552 103.0222104  88.3399396  93.8791614 101.7750233  88.8306505
 104.5875702  96.8026807  79.2877298 105.4221306  96.3708005  79.1054773
 104.4260045  96.6308820  80.2154193 104.2421595  93.3058920  80.6533638
 104.1870398  93.1403192  79.7122082 103.6167650  94.0134953  80.8095827
  89.0314110  88.5426984  94.4795060  89.6772973  88.0325938  94.9682285
  88.8231261  89.2795666  95.0538485  97.5517720  82.8067029  80.2318956
  97.5396390  83.7508869  80.3887227  98.4441142  82.6237174  79.9378417
  95.7253682 102.7304933  91.6576634  96.6280929 102.7628543  91.9743129
  95.4991052 101.8005384  91.6722970  97.4807284 101.4835919  88.3186713
  96.5302915 101.4837781  88.2051085  97.7839770 100.7368654  87.8022747
 101.3669839  79.4009806  84.4864893 100.6002235  78.8468292  84.6321575
 101.7780544  79.4731674  85.3479044  93.3711601  85.6894602  98.5770074
  94.2343062  85.3331406  98.7873399  92.7977011  85.3508496  99.2645478
 110.0249684 107.2723886  89.3194000 109.6868195 107.1564951  88.4314535
 110.8939452 106.8715051  89.2995006 105.8836499 109.1259362  85.3090891
 105.3201365 109.0349299  84.5407178 105.7688894 108.3059267  85.7893383
 103.4300931 110.6210554  88.1475111 104.2222223 110.2801379  87.7321410
 103.6697582 110.7305529  89.0677264 105.3891685 109.8819467  81.0192490
 106.1622561 109.3348454  80.8805366 105.7417084 110.7463717  81.2306951
 107.7257963 106.0412133  78.6510940 107.9783484 105.5193655  77.8894403
 106.7882522 105.8778279  78.7537623 112.7701246 105.0447912  86.4585683
 113.5564335 104.6267335  86.1076100 113.0339950 105.9494004  86.6267331
 112.9411323 110.4820762  81.1574340 112.3057156 110.5555389  81.8695245
 112.6108730 111.0714361  80.4793419 118.1709673 104.9823145  87.3618662
 118.9034845 104.4122362  87.5956491 117.4149029 104.5944745  87.8025167
 107.4454252 107.9440239  80.8535315 107.3290510 107.2685143  81.5216399
 107.5556512 107.4572613  80.0367468 109.7885793 107.4050386  84.5582004
 109.4244000 106.8781007  85.2694926 110.6452909 107.0148855  84.3848489
 115.6935093  98.6944719  91.8213270 115.3618418  99.5640130  91.5974485
 115.0980707  98.3781003  92.5007301 109.4291280 102.4340286  79.5543353
 109.5965682 103.3020523  79.9213824 109.2388449 102.5967568  78.6304642
 105.6379094 107.3471062  87.2545887 104.7129591 107.2147276  87.4623579
 105.8863508 108.1265281  87.7515830 109.4080501 104.8897944  80.5390019
 109.2880126 105.3354994  81.3775500 108.7133089 105.2383261  79.9803558
 102.9987905 106.9904335  88.0889676 103.1280287 107.2438814  89.0029088
 102.3185357 107.5832043  87.7694332 115.1065567 105.3619417  81.3670353
 116.0183423 105.5946804  81.1918051 114.5975214 105.9456461  80.8045432
 112.4501542 101.5377453  89.6160214 111.5886021 101.8358706  89.9076952
 112.4763976 101.7547852  88.6841247 109.2663111 110.0819643  86.0234020
 109.7301457 110.3607346  85.2338643 109.0019909 109.1803088  85.8407111
 106.1587192 109.6291125  88.9613783 106.7288549 110.0578393  88.3231268
 106.7495304 109.3473710  89.6597969 108.2031997 106.2042796  82.8323585
 108.9056040 106.6563839  83.2997512 107.8712626 105.5626615  83.4603478
 101.9457331 104.4626348  88.1340719 101.1556385 104.7183877  87.6580829
 102.4368578 105.2774686  88.2392759 103.8972076 104.8270928  85.0924195
 103.1003240 104.9389622  85.6107691 103.6697669 105.1657580  84.2265086
 100.2295034 104.7156839  90.5655710 100.4803072 105.6003849  90.8313285
 100.7654582 104.5361440  89.7930801 109.4425762 113.0183738  82.9085690
 109.3071436 113.8635274  83.3370538 109.9835574 113.2203016  82.1451624
 102.8955159 110.5359176  83.4813615 103.4079680 111.3302427  83.6319180
 103.5477872 109.8385467  83.4147217 104.7050044 113.6524933  85.5636369
 104.8816672 114.5742897  85.3757353 105.5006877 113.3383352  85.9930748
 112.7918225  96.5414300  91.4384584 112.4482495  97.4315942  91.3623694
 113.1597188  96.3515958  90.5754169 100.8604076 108.8647831  84.2573186
 101.6979298 109.2744839  84.0406894 101.0382344 107.9247273  84.2273380
 112.7568508 106.5322911  79.9457019 112.2415131 107.3027516  80.1845406
 112.4845816 105.8588047  80.5690080 110.3415619 101.3772612  85.0042257
 109.4857215 100.9879462  84.8247896 110.7542571 101.4564573  84.1442043
 111.8714766  98.9118955  89.4033817 111.3679561  98.8749091  88.5901622
 112.1645372  99.8211698  89.4630474 108.1157652  98.9957685  88.4099999
 108.9810648  98.8000494  88.0505888 108.1835160  98.7668037  89.3369356
 112.5454811 104.4050003  81.7716800 112.2404947 104.7196153  82.6226943
 113.4985253 104.4831423  81.8144133 110.9901243 110.5640227  83.4209754
 110.4622605 109.8292986  83.1082992 110.4888746 111.3414903  83.1749722
 105.7219971 101.2259893  85.7816366 106.2963722 101.0035075  85.0489559
 106.3090953 101.2948588  86.5344967 114.7799548 107.1133620  86.5880742
 115.2931430 107.7463612  87.0902452 115.4300772 106.5134815  86.2224102
 106.0489558 103.2564354  79.8012251 105.2126870 103.5939041  80.1221526
 105.9094327 103.1213334  78.8639388 108.0242638  98.1001142  84.5091435
 107.3707051  97.7850159  83.8848050 107.9823112  97.4776882  85.2351258
 109.1353843 108.3820437  76.4244727 108.2280905 108.1509690  76.6235876
 109.6324875 107.5858056  76.6118709 111.2580379 104.5883075  88.8339083
 110.3402940 104.8098022  88.6760771 111.6740522 104.6629386  87.9750790
 112.0415426 105.9874491  83.9641763 112.7887245 106.4995888  83.6548885
 112.3107016 105.6658544  84.8246157 110.3142077 108.4833032  80.9468717
 109.4053296 108.1992065  81.0441187 110.3437160 108.9032110  80.0872024
 114.4894264 103.0231607  85.9460552 113.7517020 102.5108994  86.2770795
 114.7421037 102.5831989  85.1343829 114.5905891  95.8007859  86.5402322
 114.8964768  94.9405223  86.2528237 115.3158496  96.3925480  86.3401315
 100.8830247 106.2038546  84.9283919 100.6854647 105.6107907  84.2034986
 100.3276911 105.8990756  85.6459858 108.8626971 106.0961652  87.0478513
 108.9175580 105.1435489  86.9720989 108.0518173 106.2521092  87.5319811
 110.0118164 110.0241776  78.2856796 109.5737594 109.3077634  77.8262433
 110.7528605 110.2517890  77.7241887 106.8019331 104.7138712  84.8068891
 105.9887196 105.0132883  85.2134084 107.2978325 104.3194401  85.5243374
 106.2933405 102.2857068  90.4230126 106.9332785 102.1445827  89.7253090
 105.4610936 101.9991581  90.0468728 107.0693709 111.5859498  86.5365119
 107.8634308 111.0909818  86.3347694 106.3585402 111.0577361  86.1732824
 103.3776473 105.7302580  82.6124872 102.4474061 105.6687035  82.8294834
 103.4733945 105.2078533  81.8161513 103.2962022 102.2557393  85.2003113
 103.5568839 103.1702726  85.0912274 104.1179194 101.7881835  85.3499726
 104.7686947 103.6695150  92.3701938 105.4410000 103.4612512  91.7214587
 103.9416734 103.4717236  91.9307170 114.1329392 108.8826157  77.8788853
 113.5158563 108.1572985  77.7821906 113.6645880 109.6435517  77.5355928
 105.9227938 103.1011581  77.0010158 105.0457404 102.9800382  76.6372404
 106.3985691 102.3097660  76.7489046  97.4430078 107.8888741  87.0951665
  98.1301118 107.5750471  86.5072680  97.2878207 108.7930106  86.8218916
 102.2464800 102.7778938  91.5236689 102.1622989 102.1704607  90.7887098
 101.4247507 103.2687956  91.5246185 112.4188514 101.2632501  86.8906884
 112.9157214 100.5102464  86.5707954 111.6475496 101.2996818  86.3250093
 113.5018295 110.0204189  84.4645307 112.5674573 110.1405651  84.2950011
 113.6794963 109.1176655  84.2005317 109.0023483 103.4049884  86.6178568
 108.6321270 102.8520925  87.3059474 109.4982575 102.8008018  86.0653568
 116.8890846 105.8621508  84.9995341 117.3551298 106.6949499  84.9255644
 117.3398347 105.3966489  85.7040600 114.8607509  98.2302095  89.0386242
 113.9470589  98.4606322  89.2068449 115.2900610  98.3140539  89.8900275
  97.0198054 105.9689335  89.3669132  97.0582154 105.4352925  90.1606250
  96.5138347 105.4424540  88.7480109 104.3988816 100.8153875  92.8631674
 104.4630143 101.6768706  92.4509072 104.3355937 100.2027877  92.1304033
 100.6506632 104.6953437  82.4423063 100.9460073 103.7864115  82.3890117
  99.7494668 104.6741176  82.1204066 104.1800879 102.7709433  88.4250612
 103.4587465 103.3845401  88.2858085 104.9694135 103.3067198  88.3467258
 102.3794473 102.3767534  82.5662388 102.0507180 101.4964913  82.3837494
 102.7333844 102.3215203  83.4538778 105.4936297 102.6640504  82.9337866
 105.8332369 103.1926425  82.2116475 105.9408417 103.0020910  83.7096433
 108.1879737 101.0477555  92.3840934 107.8476558 100.2485368  92.7861614
 107.4818744 101.3479266  91.8117767 108.8396209  98.1326867  90.8368257
 109.6622278  97.6587346  90.7147148 109.0834273  98.9117351  91.3366944
 107.4804444 101.1615126  81.1331159 108.2012806 101.5396379  80.6294876
 106.8569748 101.8804003  81.2366137 111.6235567 101.8660275  82.0689491
 111.8399181 102.7484913  81.7678319 111.1429634 101.4746488  81.3395133
 106.3634788 104.8245988  88.6460236 106.2179369 105.1386291  89.5384517
 105.8859992 105.4430888  88.0931134 108.2231171 101.8148536  88.6941125
 108.2092740 100.9189629  88.3573423 108.9403599 101.8219200  89.3279411
 110.0757302 102.2485876  90.7394253 109.8175079 103.1702947  90.7378583
 109.5442342 101.8516311  91.4294717 100.8380450 107.3651332  91.5847897
 100.2933918 108.1411140  91.7168171 101.7159800 107.7122137  91.4267018
 107.6268067 100.6962916  83.9628696 107.7483978  99.7679562  84.1619583
 107.3370109 100.7101602  83.0507011 110.4959257  98.3817827  87.0995415
 110.5180954  98.4457160  86.1447395 110.9127316  97.5422335  87.2935922
 102.0703086 114.3786657  86.5088449 102.8961106 114.0790429  86.1287092
 101.7197138 113.6094280  86.9578237 100.2711691 112.2972984  87.4677382
  99.4343599 111.8695158  87.2861383 100.2435336 112.4905427  88.4048173
 106.5998126 112.2817049  82.0544583 106.7486246 112.9652513  81.4011255
 107.4064569 112.2622139  82.5694038 104.3550759 108.3082227  83.0605652
 104.1096801 107.4044557  83.2585862 104.5246673 108.3099377  82.1185130
 112.0447469  99.1805903  92.4430407 112.5629412  99.9166930  92.1176896
 111.6902601  99.4869896  93.2777166 103.6246406 104.0410584  80.5591813
 102.9315651 104.1154939  79.9031849 103.3798158 103.2770928  81.0813330
 112.2960063  95.6006185  87.9631304 112.5761816  94.9329375  88.5891730
 113.0810670  95.7935281  87.4505968 110.4840330 106.1125992  76.8672383
 111.4299434 105.9832200  76.9360801 110.1054575 105.3740654  77.3441811
 116.4562214  97.7781998  86.8299274 116.2587035  97.4697086  87.7142606
 117.0661920  98.5043637  86.9597204 108.6683247 104.0375969  76.8027268
 107.7614702 103.7409081  76.8789981 108.9459228 103.7405787  75.9361554
  99.5861187 105.3582332  87.2526314  99.2663972 104.5047640  86.9600688
  99.0394615 105.5730910  88.0084282 103.3641095 108.0744773  90.9695821
 103.5827105 109.0061881  90.9883855 103.7766869 107.7152747  91.7550625
 110.2845313  98.5812858  82.9571509 109.4746041  98.2359943  83.3326755
 110.9729730  98.2720402  83.5459121 112.2135861  97.6590905  84.5795806
 112.7666899  98.0786358  85.2385829 112.4505947  96.7326653  84.6218762
 107.4382031 100.8962904  76.9439247 108.3001195 101.2217802  77.2035064
 107.6232376 100.1094400  76.4312313  99.4549447 108.9785243  89.2219436
  98.7612919 108.5639196  88.7089390 100.2022438 109.0205780  88.6252855
 115.5914668  99.7691430  84.0874470 115.0113337 100.4276234  83.7052522
 115.3250601  98.9468775  83.6761888 114.0418234  99.1696488  86.2895790
 114.5418013  99.2813022  85.4810109 114.6853842  98.8657541  86.9296599
 101.3686190 108.9103497  87.0985451 101.3456878 109.0091184  86.1467334
 101.6786826 109.7568648  87.4202617 114.3739546 101.9291521  83.1430818
 113.4865401 102.2141171  82.9251013 114.7893535 101.7685284  82.2958095
 117.7254082 101.9538042  86.8585158 118.5014472 102.4434494  87.1309774
 117.0002216 102.3796096  87.3157027 120.1626641 102.6665661  87.9159098
 120.7571132 102.4261397  87.2052406 120.2353224 101.9472791  88.5432634
 114.3480570 107.4446057  83.3581108 114.2915771 107.9014608  82.5188741
 114.9008912 106.6836741  83.1803951 118.1585376 103.2335788  84.1831228
 117.9022310 102.8332424  85.0139436 117.5338244 103.9479582  84.0581367
 115.0815349 108.6350838  80.6533638 115.0264153 108.4695109  79.7122082
 114.4561404 109.3426871  80.8095827  99.8707864 103.8718902  94.4795060
 100.5166728 103.3617856  94.9682285  99.6625015 104.6087584  95.0538485
 108.3911474  98.1358947  80.2318956 108.3790144  99.0800787  80.3887227
 109.2834896  97.9529092  79.9378417 112.2063594  94.7301723  84.4864893
 111.4395990  94.1760210  84.6321575 112.6174299  94.8023592  85.3479044
  44.9887158  -7.6965497  76.0439306  44.6505670  -7.8124433  75.1559841
  45.8576926  -8.0974332  76.0240313  40.8473974  -5.8430021  72.0336197
  40.2838839  -5.9340084  71.2652485  40.7326369  -6.6630117  72.5138690
  45.4706941  -6.5430646  82.0025512  45.4595582  -6.9377847  81.1306016
  45.6327581  -7.2764573  82.5959283  38.3938406  -4.3478829  74.8720418
  39.1859698  -4.6888005  74.4566717  38.6335056  -4.2383854  75.7922571
  46.4273532  -2.1759053  67.3450662  45.7761512  -1.5904973  66.9584676
  47.2217895  -1.6452858  67.4045700  40.3529160  -5.0869916  67.7437797
  41.1260036  -5.6340929  67.6050672  40.7054558  -4.2225667  67.9552258
  42.1914202  -3.7593534  80.9504696  41.9004068  -2.8547903  80.8351362
  42.8271187  -3.7177006  81.6648765  43.1170409  -6.3816685  77.5406056
  43.7133981  -6.6060663  76.8263018  43.1745381  -7.1231940  78.1431503
  42.6895437  -8.9277250  65.3756247  42.9420958  -9.4495729  64.6139710
  41.7519997  -9.0911105  65.4782930  47.9048798  -4.4868621  67.8819647
  47.2694631  -4.4133995  68.5940551  47.5746204  -3.8975023  67.2038726
  42.4091726  -7.0249144  67.5780621  42.2927984  -7.7004241  68.2461706
  42.5193986  -7.5116770  66.7612775  44.7523267  -7.5638997  71.2827311
  44.3881474  -8.0908376  71.9940232  45.6090383  -7.9540528  71.1093796
  47.1504087  -4.0732118  77.9454490  46.8504810  -3.1707080  77.8370297
  46.8055147  -4.3399935  78.7975642  40.6016569  -7.6218322  73.9791194
  39.6767065  -7.7542107  74.1868886  40.8500982  -6.8424102  74.4761136
  37.9625380  -7.9785048  74.8134983  38.0917761  -7.7250569  75.7274395
  37.2822831  -7.3857340  74.4939638  42.1324867   2.6912202  70.9125457
  42.0548897   3.6420027  70.9913938  41.5286511   2.3458074  71.5700384
  42.8788469  -7.3274479  83.1304791  43.6203154  -6.7889435  82.8539615
  42.1725455  -6.7008191  83.2876343  48.3543809  -5.1845339  81.7276953
  48.7627165  -5.6262928  80.9831585  47.6321070  -5.7592711  81.9811146
  48.6772623  -4.6244148  75.4829242  48.0481486  -4.4598434  74.7805309
  48.2898286  -4.2102539  76.2540206  52.5561855  -3.6889710  72.8373605
  51.8712893  -3.3090809  72.2870639  52.6405705  -3.0794384  73.5705553
  49.8112787  -6.0429751  79.4368949  50.0229682  -5.3997991  78.7603330
  49.7642535  -6.8767435  78.9690879  44.2300585  -4.8869740  72.7479327
  44.6938931  -4.6082037  71.9583949  43.9657383  -5.7886296  72.5652417
  41.1224666  -5.3398259  75.6859090  41.6926023  -4.9110990  75.0476574
  41.7132778  -5.6215674  76.3843276  43.1669471  -8.7646588  69.5568892
  43.8693515  -8.3125544  70.0242818  42.8350100  -9.4062769  70.1848785
  41.6149833 -10.1734831  83.9320101  40.9848493  -9.4918550  84.1655498
  41.5085921 -10.2851750  82.9873239  50.9258615  -3.1657796  77.6091306
  51.7476059  -3.5677609  77.3273988  50.9221018  -3.2689562  78.5607422
  44.6915218  -3.6173753  79.7652017  44.7559651  -3.1553345  80.6010189
  43.9826142  -4.2476388  79.8934327  44.4063236  -1.9505645  69.6330997
  44.2708911  -1.1054109  70.0615845  44.9473048  -1.7486367  68.8696931
  37.8592633  -4.4330207  70.2058922  38.3717154  -3.6386957  70.3564487
  38.5115346  -5.1303917  70.1392524  39.6687518  -1.3164451  72.2881675
  39.8454146  -0.3946486  72.1002659  40.4644352  -1.6306032  72.7176055
  46.0331712  -1.3282079  83.7631339  45.5895567  -2.1145700  83.4452244
  46.6948926  -1.1402928  83.0975230  40.7918834   0.2013723  78.2892018
  41.3426259   0.0730786  77.5169012  39.9530309   0.5008612  77.9386910
  48.1312950  -1.0479279  81.7912740  48.1131426  -0.2270398  81.2993010
  49.0532870  -1.1725203  82.0162882  44.5886005  -3.5335149  82.6336249
  45.1214341  -4.2946861  82.4035557  44.0600086  -3.8261497  83.3760403
  52.6940256  -5.6834117  68.6055499  51.9169699  -6.0222958  68.1610661
  53.3731737  -5.6781494  67.9310464  45.9538717  -4.4049157  70.1455061
  45.4260079  -5.1396397  69.8328298  45.4526220  -3.6274480  69.8995029
  50.9331563  -6.2100136  75.2622107  50.2755238  -5.5200875  75.3502236
  51.7371963  -5.8203704  75.6056093  44.0991317  -6.5868946  63.1490034
  43.1918379  -6.8179693  63.3481183  44.5962349  -7.3831327  63.3364015
  47.0059396   2.1228561  66.0686720  46.3321095   2.4260257  66.6771678
  47.3925218   2.9257641  65.7192177  45.2779551  -6.4856352  67.6714024
  44.3690770  -6.7697319  67.7686494  45.3074635  -6.0657273  66.8117331
  50.5098818  -2.8749762  71.4405191  50.0561145  -3.7158852  71.4970382
  49.8792785  -2.2388364  71.7779972  48.9531758  -1.0373265  72.3755010
  49.2454732  -0.4768208  71.6567375  49.4630378  -0.7444704  73.1308169
  44.9755639  -4.9447608  65.0102102  44.5375069  -5.6611749  64.5507740
  45.7166080  -4.7171493  64.4487194  43.9165383  -0.2592914  73.4648463
  43.8741562  -0.0332068  72.5356995  44.8328082  -0.4929540  73.6134264
  53.1198133  -4.6013884  76.0789693  53.5534640  -4.6938595  76.9272747
  53.8329714  -4.6256383  75.4409709  42.0331184  -3.3829885  73.2610425
  42.8271782  -3.8779565  73.0593000  41.3222876  -3.9112022  72.8978131
  46.8526028  -1.0011790  77.6122793  46.9063050  -0.4320853  78.3800509
  45.9840809  -0.8309905  77.2476830  53.9813683  -4.5590183  78.6122578
  54.1749573  -3.6544373  78.8581853  53.8814301  -5.0182764  79.4461163
  49.0428791  -4.4083440  84.1863459  48.8914298  -4.6372889  83.2693542
  49.0333471  -3.4512839  84.1994804  45.8114128  -6.8351528  79.1709725
  46.7406188  -6.6840368  78.9978692  45.3905158  -6.7467507  78.3158371
  44.6102460  -2.8100863  76.9408263  44.4713545  -3.1782079  77.8134201
  43.8217056  -2.2953224  76.7692220  45.2050611   2.2908233  68.2833799
  45.3802367   1.8196276  69.0979422  44.5183400   2.9173999  68.5115060
  46.1607675  -3.4319261  74.3297100  45.8257507  -3.4718491  75.2254750
  45.6611620  -4.0974545  73.8567511  40.1351919  -8.0251631  79.8549682
  39.9971717  -8.7571392  80.4561221  41.0456842  -8.1142730  79.5733869
  49.0966866  -6.0863226  64.6034160  48.4796037  -6.8116398  64.5067213
  48.6283355  -5.3253866  64.2601234  42.7634219  -8.3131671  79.3433361
  43.4733838  -8.9538479  79.3019980  42.7203527  -8.0618776  80.2659542
  50.7520998  -1.3764318  82.2639940  50.6933544  -2.0605098  81.5970523
  51.1540516  -0.6345328  81.8120566  39.7711697   5.4397596  75.0573659
  40.0108295   6.0716120  75.7352678  38.9280893   5.0885636  75.3439019
  50.7538405  -3.4124734  80.4953920  49.8665184  -3.7498812  80.6180319
  51.3236956  -4.1441703  80.7322685  44.2839559   1.2476718  77.4615163
  44.2109730   2.0531690  77.9734468  43.8416952   1.4468684  76.6363185
  44.0729338   0.4848488  70.9717985  43.2896860   1.0270169  71.0656209
  44.7722083   1.0022468  71.3712226  46.7438242   1.1463552  79.6173322
  47.4566214   1.7811017  79.5449223  46.2528271   1.2427418  78.8013324
  48.4655769  -4.9485195  71.1890614  47.5312048  -4.8283732  71.0195318
  48.6432438  -5.8512728  70.9250623  41.7950156  -1.1042004  80.4378893
  42.4959615  -0.4705521  80.5908287  41.3245271  -0.7627273  79.6774532
  49.9204552  -2.7624054  68.7226800  50.1964395  -2.8767460  69.6320674
  49.0509050  -3.1606570  68.6838973  46.5558616   1.4862296  72.3659613
  46.7381010   0.6683952  72.8287366  47.3791602   1.7029989  71.9284503
  46.8900781   0.4130482  69.6274662  47.4188547  -0.0977064  69.0144824
  47.1529001   0.0973012  70.4920195  45.6439015  -7.8077586  84.7497480
  44.9679652  -7.9083456  85.4199855  46.4666649  -7.9638372  85.2133477
  37.3917874  -1.5705649  77.3709995  37.9771311  -2.3161961  77.5037900
  37.1942712  -1.2601692  78.2546659  40.2456529   1.4645598  72.3872438
  39.5766904   1.9491726  71.9036478  40.1069399   1.7114819  73.3015816
  44.3861798   3.4989342  78.9855096  44.9380106   3.6620963  79.7504181
  44.7267991   4.0893780  78.3135121  49.2372672  -1.6749401  84.8403751
  49.7812576  -1.0619442  84.3458705  48.6559517  -1.1169822  85.3570764
  47.5230185   1.4471317  75.9718778  47.3981324   0.6461057  75.4629724
  48.1809276   1.9417511  75.4832748  49.5865093  -0.7519663  77.5998328
  48.6395429  -0.8714311  77.5276655  49.9347866  -1.6397165  77.6824590
  46.5911527  -0.9566946  73.8002681  46.4436489  -1.8850239  73.9810251
  47.4165020  -0.9346856  73.3159756  50.1945648  -0.1338388  74.8867553
  51.1192196  -0.3395526  74.7492005  50.0260952  -0.3821986  75.7956895
  41.3272262 -10.1443395  75.3705542  41.1816843  -9.8303092  76.2629824
  40.8497466  -9.5258495  74.8176441  49.9840965   0.3847280  70.2429645
  50.1577842  -0.1806298  69.4903497  50.4769856   1.1848175  70.0609135
  50.9716137  -0.2985956  67.3426543  51.6667042   0.3220737  67.5613858
  51.3139287  -1.1490605  67.6178921  52.8707560  -2.8486250  68.8713874
  53.3958884  -2.5098977  68.1463194  52.7829913  -3.7839235  68.6877009
  44.5327609   1.0647823  81.0003751  44.8414735   0.8196970  81.8726450
  45.3303091   1.2694462  80.5122621  44.5548221   3.2185733  73.2309127
  44.1153211   2.7262112  73.9241984  45.3056338   2.6758701  72.9901202
  37.0340560  -0.5902726  73.2333755  37.8598580  -0.8898954  72.8532399
  36.6834612  -1.3595104  73.6823544  42.0022093  -1.2376258  75.3031429
  41.3802102  -1.9005553  75.0033657  42.6726960  -1.2115126  74.6205077
  35.2349165  -2.6716400  74.1922689  34.3981073  -3.0994225  74.0106690
  35.2072810  -2.4783956  75.1293480  52.5601466  -2.2153347  84.1765072
  51.7697010  -2.2329208  83.6369571  52.3234821  -1.6765053  84.9314108
  52.6799341  -5.3660880  81.4897800  52.7297346  -5.5310873  82.4313323
  52.5713265  -6.2333621  81.0995681  41.5635600  -2.6872335  68.7789889
  41.7123720  -2.0036870  68.1256562  42.3702043  -2.7067244  69.2939345
  54.1817538  -2.9463939  81.7339822  53.8902346  -2.5833958  82.5703283
  53.5689669  -3.6596930  81.5553154  39.3188233  -6.6607157  69.7850958
  39.0734275  -7.5644827  69.9831168  39.4884148  -6.6590006  68.8430436
  45.0631006  -0.1924204  66.2501637  44.4904973   0.4265983  65.7972109
  45.6363799   0.3575158  66.7841559  48.2828265   0.0912946  67.3810219
  49.2158938   0.0258508  67.5843095  48.1951478   0.9269213  66.9224752
  50.9116282  -0.5921184  64.3414167  50.8329914  -0.9261320  65.2349924
  51.7325949  -0.0999416  64.3405639  45.3316497  -4.8045645  85.0518346
  46.2519506  -4.6267046  85.2458393  45.2966080  -5.7489600  84.8998045
  38.3278569  -6.8944611  77.6941127  38.5464579  -5.9627503  77.7129161
  38.7404343  -7.2536636  78.4795931  43.0637704  -7.8914266  85.9008938
  42.5804786  -7.0913906  86.1072827  43.1498644  -7.8806321  84.9476382
  36.3323664  -6.0585886  73.8230757  36.3094352  -5.9598199  72.8712640
  36.6424301  -5.2120735  74.1447923  38.9911042  -4.0009731  77.9377372
  39.9454296  -4.0325789  77.8707303  38.7923566  -4.4619108  78.7527598
  39.5810424  -5.4308615  80.5048169  40.4003313  -4.9364537  80.5283007
  39.8547232  -6.3476647  80.4765737  37.3461271   1.5409888  74.9547570
  37.2115739   0.7810289  74.3885568  36.9293333   2.2650788  74.4876358
  48.4820234  -3.2753188  63.9624145  49.1856084  -3.0703186  64.5781801
  47.7582883  -2.7076426  64.2273228  40.5030397   2.4379205  75.1666012
  40.3862781   3.3824638  75.0644703  39.6822843   2.1352767  75.5551811
  50.3906931  -2.8370659  66.0122605  51.2252535  -3.2689461  65.8300080
  50.2291274  -3.0088645  66.9399499  50.0452823  -6.3338546  67.3778944
  49.9901627  -6.4994274  66.4367388  49.4198879  -5.6262513  67.5341134
  47.3598731  -4.0289634  86.7032507  48.2289890  -3.8548982  86.3419142
  46.8805482  -3.2095217  86.5808236  41.5284911   3.0907467  78.3821941
  42.4312157   3.1231077  78.6988436  41.3022281   2.1607918  78.3968276
  43.2838513   1.8438454  75.0432019  42.3334144   1.8440315  74.9296392
  43.5870999   1.0971188  74.5268054  59.0191206   7.6798992  76.1077782
  59.6569616   7.5605739  75.4041122  58.9012049   8.6279836  76.1665734
  55.8280913   7.6326420  76.0439306  55.4899424   7.5167485  75.1559841
  56.6970681   7.2317585  76.0240313  51.6867728   9.4861897  72.0336197
  51.1232593   9.3951834  71.2652485  51.5720123   8.6661801  72.5138690
  56.3100696   8.7861272  82.0025512  56.2989336   8.3914070  81.1306016
  56.4721335   8.0527345  82.5959283  49.2332160  10.9813088  74.8720418
  50.0253452  10.6403913  74.4566717  49.4728810  11.0908063  75.7922571
  57.2667287  13.1532864  67.3450662  56.6155267  13.7386945  66.9584676
  58.0611650  13.6839059  67.4045700  51.1922914  10.2422001  67.7437797
  51.9653790   9.6950989  67.6050672  51.5448313  11.1066251  67.9552258
  53.0307957  11.5698384  80.9504696  52.7397823  12.4744015  80.8351362
  53.6664941  11.6114911  81.6648765  53.9564164   8.9475232  77.5406056
  54.5527736   8.7231255  76.8263018  54.0139135   8.2059978  78.1431503
  53.5289192   6.4014668  65.3756247  53.7814713   5.8796189  64.6139710
  52.5913751   6.2380813  65.4782930  58.5732475   5.4050446  73.1830990
  59.3595564   4.9869869  72.8321407  58.8371179   6.3096538  73.3512638
  58.7442552  10.8423296  67.8819647  58.1088385  10.9157923  68.5940551
  58.4139959  11.4316895  67.2038726  63.9740902   5.3425679  74.0863968
  64.7066074   4.7724896  74.3201798  63.2180258   4.9547280  74.5270474
  53.2485481   8.3042774  67.5780621  53.1321739   7.6287677  68.2461706
  53.3587741   7.8175147  66.7612775  55.5917022   7.7652921  71.2827311
  55.2275229   7.2383542  71.9940232  56.4484138   7.3751390  71.1093796
  61.4966322  -0.9452747  78.5458577  61.1649647  -0.0757336  78.3219792
  60.9011936  -1.2616463  79.2252607  55.2322509   2.7942820  66.2788659
  55.3996911   3.6623057  66.6459130  55.0419678   2.9570102  65.3549948
  57.9897842  11.2559799  77.9454490  57.6898565  12.1584838  77.8370297
  57.6448901  10.9891982  78.7975642  51.4410323   7.7073596  73.9791194
  50.5160820   7.5749810  74.1868886  51.6894736   8.4867815  74.4761136
  61.3894986   3.7742339  75.6251927  60.4811863   3.7057748  75.3310688
  61.3382581   4.2514284  76.4533752  55.2111729   5.2500478  67.2635326
  55.0911355   5.6957529  68.1020806  54.5164318   5.5985796  66.7048864
  48.8019134   7.3506870  74.8134983  48.9311515   7.6041349  75.7274395
  48.1216586   7.9434578  74.4939638  52.9718622  18.0204120  70.9125457
  52.8942651  18.9711945  70.9913938  52.3680265  17.6749992  71.5700384
  55.4635851   5.1931985  83.5686824  54.6869185   5.7525905  83.5589689
  56.1026414   5.6788768  84.0901694  63.2556632   1.9758778  77.4029801
  62.6131012   2.2691311  76.7569595  62.7511560   1.8611698  78.2082997
  60.9096796   5.7221951  68.0915660  61.8214652   5.9549338  67.9163358
  60.4006443   6.3058995  67.5290739  53.7182224   8.0017438  83.1304791
  54.4596908   8.5402482  82.8539615  53.0119209   8.6283727  83.2876343
  59.1937563  10.1446579  81.7276953  59.6020919   9.7028989  80.9831585
  58.4714825   9.5699206  81.9811146  55.5468633   5.0819186  79.1010510
  56.3929829   5.5058599  79.2445159  55.4867271   4.4252810  79.7949073
  59.5166378  10.7047769  75.4829242  58.8875240  10.8693484  74.7805309
  59.1292040  11.1189379  76.2540206  63.3955610  11.6402207  72.8373605
  62.7106648  12.0201109  72.2870639  63.4799459  12.2497534  73.5705553
  58.6968079   2.7423554  80.7591683  58.4529011   3.4965614  80.2225959
  58.9728009   3.1208902  81.5938930  60.6506541   9.2862166  79.4368949
  60.8623437   9.9293926  78.7603330  60.6036290   8.4524483  78.9690879
  58.2532770   1.8979987  76.3405521  57.3917249   2.1961241  76.6322259
  58.2795205   2.1150386  75.4086554  55.0694340  10.4422178  72.7479327
  55.5332685  10.7209881  71.9583949  54.8051138   9.5405622  72.5652417
  51.9618421   9.9893659  75.6859090  52.5319778  10.4180927  75.0476574
  52.5526533   9.7076244  76.3843276  54.0063226   6.5645330  69.5568892
  54.7087269   7.0166374  70.0242818  53.6743854   5.9229149  70.1848785
  52.4543587   5.1557087  83.9320101  51.8242248   5.8373367  84.1655498
  52.3479675   5.0440168  82.9873239  47.7488560   4.8228883  74.8586025
  46.9587614   5.0786411  74.3826136  48.2399807   5.6377220  74.9638066
  61.7652369  12.1634122  77.6091306  62.5869813  11.7614309  77.3273988
  61.7614772  12.0602356  78.5607422  49.7003305   5.1873462  71.8169502
  48.9034468   5.2992156  72.3352998  49.4728897   5.5260114  70.9510393
  55.5308973  11.7118165  79.7652017  55.5953405  12.1738572  80.6010189
  54.8219897  11.0815530  79.8934327  46.0326263   5.0759373  77.2901016
  46.2834301   5.9606383  77.5558592  46.5685811   4.8963975  76.5176108
  69.8558362   8.5072870  73.9576278  69.1022071   7.9380268  73.8020282
  69.9905904   8.4735535  74.9046912  55.2456990  13.3786273  69.6330997
  55.1102665  14.2237808  70.0615845  55.7866803  13.5805550  68.8696931
  51.7324330  -0.5422148  86.2945352  51.3391276  -1.0955949  86.9692996
  52.5490470  -0.2311569  86.6851870  48.6986388  10.8961711  70.2058922
  49.2110908  11.6904961  70.3564487  49.3509101  10.1988001  70.1392524
  50.5081273  14.0127467  72.2881675  50.6847901  14.9345432  72.1002659
  51.3038106  13.6985886  72.7176055  54.6492291   0.8735731  83.8865609
  55.3902004   1.4742885  83.8070071  54.8810214   0.1313369  83.3283651
  49.7933629   6.0592099  82.1643838  49.6787144   5.1577356  82.4650937
  48.9378147   6.3055796  81.8128655  56.8725467  14.0009839  83.7631339
  56.4289321  13.2146218  83.4452244  57.5342680  14.1888990  83.0975230
  51.6312588  15.5305641  78.2892018  52.1820013  15.4022704  77.5169012
  50.7924064  15.8300530  77.9386910  58.9706705  14.2812639  81.7912740
  58.9525180  15.1021520  81.2993010  59.8926625  14.1566714  82.0162882
  55.4279759  11.7956768  82.6336249  55.9608096  11.0345057  82.4035557
  54.8993840  11.5030420  83.3760403  58.5949454  -3.0983166  78.1629890
  58.2513723  -2.2081524  78.0869001  58.9628417  -3.2881508  77.2999475
  46.6635305   9.2250365  70.9818493  47.5010527   9.6347373  70.7652200
  46.8413572   8.2849807  70.9518687  58.5599737   6.8925446  66.6702326
  58.0446360   7.6630050  66.9090713  58.2877045   6.2190582  67.2935387
  56.1446848   1.7375146  71.7287564  55.2888444   1.3481997  71.5493203
  56.5573800   1.8167107  70.8687349  57.6745994  -0.7278510  76.1279124
  57.1710790  -0.7648375  75.3146929  57.9676601   0.1814232  76.1875780
  53.9188880  -0.6439781  75.1345305  54.7841877  -0.8396972  74.7751195
  53.9866389  -0.8729429  76.0614662  63.5334011   9.6457800  68.6055499
  62.7563454   9.3068960  68.1610661  64.2125492   9.6510423  67.9310464
  58.3486040   4.7652538  68.4962107  58.0436176   5.0798687  69.3472250
  59.3016482   4.8433958  68.5389440  56.7932472  10.9242761  70.1455061
  56.2653833  10.1895521  69.8328298  56.2919975  11.7017437  69.8995029
  61.7725318   9.1191781  75.2622107  61.1148992   9.8091043  75.3502236
  62.5765717   9.5088213  75.6056093  51.5251199   1.5862427  72.5061672
  52.0994951   1.3637609  71.7734865  52.1122182   1.6551122  73.2590274
  60.5830777   7.4736154  73.3126049  61.0962658   8.1066146  73.8147759
  61.2332000   6.8737350  72.9469409  51.8520786   3.6166888  66.5257558
  51.0158099   3.9541575  66.8466832  51.7125556   3.4815868  65.5884695
  53.8273867  -1.5396324  71.2336742  53.1738279  -1.8547307  70.6093356
  53.7854341  -2.1620583  71.9596565  54.9385072   8.7422971  63.1490034
  54.0312134   8.5112225  63.3481183  55.4356104   7.9460590  63.3364015
  57.8453151  17.4520478  66.0686720  57.1714850  17.7552175  66.6771678
  58.2318973  18.2549559  65.7192177  57.0611607   4.9485610  75.5584389
  56.1434169   5.1700557  75.4006077  57.4771751   5.0231920  74.6996097
  57.8446655   6.3477025  70.6887070  58.5918474   6.8598423  70.3794192
  58.1138245   6.0261078  71.5491463  56.1173305   8.8435566  67.6714024
  55.2084525   8.5594599  67.7686494  56.1468389   9.2634645  66.8117331
  61.3492573  12.4542156  71.4405191  60.8954900  11.6133065  71.4970382
  60.7186540  13.0903554  71.7779972  60.2925492   3.3834142  72.6705859
  59.5548249   2.8711528  73.0016101  60.5452266   2.9434523  71.8589136
  59.7925512  14.2918652  72.3755010  60.0848486  14.8523709  71.6567375
  60.3024133  14.5847213  73.1308169  46.6861476   6.5641080  71.6529226
  46.4885876   5.9710441  70.9280293  46.1308140   6.2593290  72.3705165
  54.6658199   6.4564187  73.7723819  54.7206809   5.5038023  73.6966296
  53.8549401   6.6123626  74.2565118  55.8149393  10.3844310  65.0102102
  55.3768823   9.6680169  64.5507740  56.5559834  10.6120425  64.4487194
  52.6050559   5.0741246  71.5314198  51.7918425   5.3735417  71.9379390
  53.1009554   4.6796935  72.2488680  54.7559137  15.0699003  73.4648463
  54.7135316  15.2959850  72.5356995  55.6721836  14.8362378  73.6134264
  58.2024771   5.5383071  80.3629092  58.5574159   5.7654544  81.2223558
  58.8496902   5.8701448  79.7406347  63.9322508   8.6601507  71.0678421
  63.7940407   8.8503103  70.1399610  63.5758727   9.4220890  71.5246472
  52.0964634   2.6459602  77.1475433  52.7364013   2.5048361  76.4498396
  51.2642165   2.3594115  76.7714035  63.9591888  10.7278034  76.0789693
  64.3928394  10.6353323  76.9272747  64.6723468  10.7035534  75.4409709
  52.8724938  11.9462032  73.2610425  53.6665537  11.4512353  73.0593000
  52.1616630  11.4179895  72.8978131  57.6919782  14.3280128  77.6122793
  57.7456805  14.8971064  78.3800509  56.8234564  14.4982013  77.2476830
  49.1807701   6.0905114  69.3370178  48.2505290   6.0289570  69.5540140
  49.2765173   5.5681067  68.5406819  49.0993251   2.6159927  71.9248420
  49.3600068   3.5305260  71.8157580  49.9210423   2.1484370  72.0745033
  50.5718176   4.0297684  79.0947244  51.2441229   3.8215046  78.4459893
  49.7447962   3.8319770  78.6552477  64.8207437  10.7701734  78.6122578
  65.0143327  11.6747545  78.8581853  64.7208055  10.3109154  79.4461163
  56.4743748   0.6559625  81.1112905  55.8271663   1.3549575  81.0177382
  57.2444763   1.0895769  81.4789153  59.8822546  10.9208477  84.1863459
  59.7308052  10.6919029  83.2693542  59.8727225  11.8779079  84.1994804
  56.6507882   8.4940390  79.1709725  57.5799942   8.6451550  78.9978692
  56.2298912   8.5824411  78.3158371  55.4496214  12.5191054  76.9408263
  55.3107300  12.1509839  77.8134201  54.6610810  13.0338694  76.7692220
  56.0444366  17.6200151  68.2833799  56.2196122  17.1488194  69.0979422
  55.3577154  18.2465917  68.5115060  57.0001429  11.8972657  74.3297100
  56.6651262  11.8573427  75.2254750  56.5005375  11.2317373  73.8567511
  50.9745673   7.3040287  79.8549682  50.8365471   6.5720526  80.4561221
  51.8850597   7.2149187  79.5733869  59.9360621   9.2428691  64.6034160
  59.3189791   8.5175520  64.5067213  59.4677109  10.0038052  64.2601234
  53.6027974   7.0160246  79.3433361  54.3127592   6.3753439  79.3019980
  53.5597282   7.2673141  80.2659542  61.5914752  13.9527600  82.2639940
  61.5327299  13.2686820  81.5970523  61.9934271  14.6946590  81.8120566
  52.3156908   4.0025464  81.1629001  51.7794265   3.5516203  81.8150597
  51.7273616   4.1371373  80.4199465  50.6105451  20.7689514  75.0573659
  50.8502049  21.4008038  75.7352678  49.7674648  20.4177554  75.3439019
  51.7259167   3.4614116  63.7255464  50.8488633   3.3402916  63.3617711
  52.2016920   2.6700194  63.4734353  61.5932160  11.9167184  80.4953920
  60.7058939  11.5793105  80.6180319  62.1630711  11.1850215  80.7322685
  43.2461307   8.2491275  73.8196971  43.9332347   7.9353005  73.2317987
  43.0909436   9.1532640  73.5464223  48.0496029   3.1381472  78.2481995
  47.9654218   2.5307142  77.5132405  47.2278735   3.6290490  78.2491491
  55.1233313  16.5768636  77.4615163  55.0503485  17.3823608  77.9734468
  54.6810706  16.7760602  76.6363185  54.9123093  15.8140406  70.9717985
  54.1290615  16.3562086  71.0656209  55.6115838  16.3314386  71.3712226
  58.2219743   1.6235036  73.6152190  58.7188442   0.8704998  73.2953260
  57.4506724   1.6599352  73.0495400  66.0749500   7.3275401  75.2570482
  66.0639377   8.2100116  74.8864415  65.2066880   6.9746952  75.0625019
  57.5831997  16.4755470  79.6173322  58.2959969  17.1102935  79.5449223
  57.0922025  16.5719336  78.8013324  59.3049524  10.3806723  71.1890614
  58.3705802  10.5008185  71.0195318  59.4826192   9.4779190  70.9250623
  54.8054712   3.7652419  73.3423875  54.4352499   3.2123459  74.0304780
  55.3013804   3.1610552  72.7898875  62.6922075   6.2224042  71.7240648
  63.1582527   7.0552034  71.6500950  63.1429575   5.7569024  72.4285906
  52.6343910  14.2249914  80.4378893  53.3353370  14.8586396  80.5908287
  52.1639025  14.5664645  79.6774532  60.7598306  12.5667863  68.7226800
  61.0358150  12.4524458  69.6320674  59.8902805  12.1685348  68.6838973
  60.6638738  -1.4095371  75.7631549  59.7501817  -1.1791144  75.9313756
  61.0931839  -1.3256927  76.6145581  60.4345196   6.7794521  78.2631443
  59.7816646   7.0270428  77.6083896  60.8125576   5.9658659  77.9293920
  57.3952370  16.8154214  72.3659613  57.5774765  15.9975870  72.8287366
  58.2185356  17.0321906  71.9284503  57.7294536  15.7422399  69.6274662
  58.2582302  15.2314854  69.0144824  57.9922755  15.4264929  70.4920195
  56.4832769   7.5214332  84.7497480  55.8073406   7.4208461  85.4199855
  57.3060403   7.3653546  85.2133477  48.2311628  13.7586269  77.3709995
  48.8165065  13.0129956  77.5037900  48.0336467  14.0690225  78.2546659
  51.0850283  16.7937516  72.3872438  50.4160659  17.2783644  71.9036478
  50.9463153  17.0406736  73.3015816  42.8229283   6.3291869  76.0914439
  42.8613382   5.7955459  76.8851557  42.3169576   5.8027074  75.4725416
  55.2255552  18.8281259  78.9855096  55.7773860  18.9912881  79.7504181
  55.5661746  19.4185697  78.3135121  50.2020045   1.1756409  79.5876981
  50.2661372   2.0371240  79.1754379  50.1387166   0.5630411  78.8549339
  49.6772318   3.2479542  83.2350015  50.3044357   2.8656619  83.8487539
  48.8200237   3.0293744  83.6005708  60.0766426  13.6542517  84.8403751
  60.6206330  14.2672475  84.3458705  59.4953271  14.2122095  85.3570764
  46.4537861   5.0555971  69.1668370  46.7491302   4.1466649  69.1135424
  45.5525896   5.0343710  68.8449372  58.3623939  16.7763235  75.9718778
  58.2375079  15.9752975  75.4629724  59.0203030  17.2709428  75.4832748
  49.9832108   3.1311968  75.1495919  49.2618693   3.7447935  75.0103392
  50.7725363   3.6669732  75.0712565  60.4258848  14.5772255  77.5998328
  59.4789183  14.4577606  77.5276655  60.7741621  13.6894753  77.6824590
  52.7858421   0.4666394  81.4236570  53.3092823   0.7128691  82.1862880
  52.5670754   1.2986429  81.0039708  48.1825702   2.7370069  69.2907695
  47.8538408   1.8567448  69.1082801  48.5365073   2.6817737  70.1784084
  57.4305281  14.3724971  73.8002681  57.2830243  13.4441679  73.9810251
  58.2558775  14.3945062  73.3159756  51.2967525   3.0243038  69.6583173
  51.6363598   3.5528960  68.9361781  51.7439646   3.3623445  70.4341739
  61.0339403  15.1953530  74.8867553  61.9585950  14.9896391  74.7492005
  60.8654706  14.9469931  75.7956895  53.9910966   1.4080089  79.1086241
  53.6507786   0.6087902  79.5106921  53.2849972   1.7081800  78.5363074
  54.6427438  -1.5070598  77.5613564  55.4653507  -1.9810120  77.4392454
  54.8865501  -0.7280115  78.0612250  53.2835672   1.5217660  67.8576466
  54.0044035   1.8998913  67.3540182  52.6600977   2.2406537  67.9611444
  57.4266795   2.2262809  68.7934798  57.6430410   3.1087447  68.4923626
  56.9460862   1.8349022  68.0640440  52.1666017   5.1848522  75.3705542
  52.0210597   5.4988825  76.2629824  51.6891220   5.8033423  74.8176441
  54.0262400   2.1751070  75.4186432  54.0123968   1.2792163  75.0818730
  54.7434828   2.1821734  76.0524718  55.8788530   2.6088410  77.4639559
  55.6206308   3.5305481  77.4623890  55.3473571   2.2118845  78.1540024
  60.8234719  15.7139197  70.2429645  60.9971597  15.1485620  69.4903497
  61.3163610  16.5140092  70.0609135  46.6411679   7.7253867  78.3093204
  46.0965147   8.5013675  78.4413478  47.5191029   8.0724671  78.1512325
  53.4299296   1.0565450  70.6874002  53.5515207   0.1282097  70.8864890
  53.1401338   1.0704136  69.7752318  56.2990486  -1.2579639  73.8240722
  56.3212183  -1.1940306  72.8692702  56.7158545  -2.0975130  74.0181228
  66.6774110   8.4775620  71.8619945  67.1205256   7.7282946  71.4639068
  65.8000621   8.4685757  71.4793677  61.8109892  15.0305962  67.3426543
  62.5060796  15.6512655  67.5613858  62.1533042  14.1801313  67.6178921
  47.4277701   6.8523763  81.2023361  46.6859437   7.0006398  81.7887991
  47.1070445   7.1132028  80.3390110  63.7101315  12.4805667  68.8713874
  64.2352639  12.8192940  68.1463194  63.6223667  11.5452683  68.6877009
  55.3721363  16.3939741  81.0003751  55.6808490  16.1488888  81.8726450
  56.1696845  16.5986380  80.5122621  55.3941975  18.5477651  73.2309127
  54.9546966  18.0554029  73.9241984  56.1450092  18.0050618  72.9901202
  47.8734314  14.7389192  73.2333755  48.6992334  14.4392963  72.8532399
  47.5228366  13.9696814  73.6823544  52.8415848  14.0915660  75.3031429
  52.2195857  13.4286365  75.0033657  53.5120714  14.1176792  74.6205077
  46.0742919  12.6575518  74.1922689  45.2374828  12.2297692  74.0106690
  46.0466565  12.8507961  75.1293480  52.9140375   2.5697448  84.8963935
  52.9628531   3.4459571  84.5141704  53.4562889   2.0274841  84.3235578
  63.3995221  13.1138571  84.1765072  62.6090764  13.0962710  83.6369571
  63.1628575  13.6526865  84.9314108  63.5193096   9.9631037  81.4897800
  63.5691101   9.7981045  82.4313323  63.4107019   9.0958296  81.0995681
  52.4029354  12.6419583  68.7789889  52.5517475  13.3255048  68.1256562
  53.2095798  12.6224673  69.2939345  60.8096858   5.9461965  82.8057107
  61.7106721   5.8068430  82.5141105  60.8844833   6.1116420  83.7455285
  55.1439664   3.3228820  81.6510293  54.2742973   3.6162386  81.3792882
  55.3799144   3.9069265  82.3717557  65.0211293  12.3827979  81.7339822
  64.7296101  12.7457960  82.5703283  64.4083424  11.6694987  81.5553154
  66.2206975   9.9480859  74.2542392  67.0553866  10.3870663  74.4179953
  66.3566104   9.4719512  73.4350638  63.2698481   7.5060594  80.2019880
  63.7452602   7.6988240  79.3938731  62.3464046   7.5619779  79.9563264
  50.1581987   8.6684761  69.7850958  49.9128029   7.7647091  69.9831168
  50.3277902   8.6701911  68.8430436  57.8478697  -0.4591563  79.1675714
  58.3660641   0.2769464  78.8422202  57.4933830  -0.1527570  80.0022473
  49.4277635   4.4013118  67.2837120  48.7346880   4.4757473  66.6277156
  49.1829387   3.6373462  67.8058637  55.9024760  15.1367714  66.2501637
  55.3298727  15.7557901  65.7972109  56.4757554  15.6867075  66.7841559
  61.9700150   4.3826354  78.4348186  62.9217573   4.4824451  78.4560410
  61.8003600   3.5904622  78.9446270  59.9914529   1.4681937  78.6207586
  59.3964461   1.7486950  77.9254075  59.7064226   1.9575838  79.3924328
  59.1222020  15.4204864  67.3810219  60.0552693  15.3550425  67.5843095
  59.0345233  16.2561131  66.9224752  61.7510036  14.7370734  64.3414167
  61.6723668  14.4030598  65.2349924  62.5719703  15.2292502  64.3405639
  64.4488228   7.6032473  77.5490485  64.4164548   6.6648474  77.7350169
  65.0588851   7.6816510  76.8156310  56.2871559   6.4728526  63.5917689
  57.2330663   6.3434734  63.6606107  55.9085803   5.7343188  64.0687117
  64.5982716   4.3943517  77.5948768  64.0821765   3.6101973  77.4078697
  65.4822665   4.0662233  77.7595288  62.2593443  -1.8615468  73.5544581
  62.0618264  -2.1700379  74.4387913  62.8693149  -1.1353829  73.6842511
  70.2664778   8.6648480  76.6896522  70.9968166   8.4033768  77.2504225
  69.6571723   7.9277202  76.7298590  68.3480075   6.8056343  77.2870973
  67.6213238   6.6712308  76.6787465  67.9327361   7.1133171  78.0927691
  56.1710251  10.5246272  85.0518346  57.0913261  10.7024871  85.2458393
  56.1359834   9.5802318  84.8998045  54.4714476   4.3978503  63.5272574
  53.5645931   4.1011615  63.6035288  54.7490457   4.1008321  62.6606861
  45.3892416   5.7184866  73.9771621  45.0695200   4.8650174  73.6845995
  44.8425844   5.9333444  74.7329588  49.1672324   8.4347307  77.6941127
  49.3858333   9.3664415  77.7129161  49.5798097   8.0755282  78.4795931
  56.0876541  -1.0584608  69.6816816  55.2777270  -1.4037523  70.0572062
  56.7760958  -1.3677064  70.2704427  58.0167090  -1.9806561  71.3041112
  58.5698128  -1.5611107  71.9631135  58.2537176  -2.9070813  71.3464068
  54.0400189   4.0080513  87.0843876  53.9396916   4.9574870  87.0155967
  53.8221731   3.6798752  86.2119946  53.2413260   1.2565438  63.6684554
  54.1032424   1.5820336  63.9280371  53.4263604   0.4696934  63.1557619
  45.2580676   9.3387778  75.9464742  44.5644147   8.9241730  75.4334697
  46.0053667   9.3808314  75.3498161  61.3945897   0.1293964  70.8119777
  60.8144566   0.7878768  70.4297829  61.1281829  -0.6928691  70.4007194
  59.8449463  -0.4700978  73.0141097  60.3449241  -0.3584443  72.2055416
  60.4885071  -0.7739925  73.6541905  53.9031459   7.4377652  85.9008938
  53.4198541   8.2378012  86.1072827  53.9892398   7.4485597  84.9476382
  47.1717419   9.2706031  73.8230757  47.1488107   9.3693719  72.8712640
  47.4818055  10.1171182  74.1447923  49.8304796  11.3282186  77.9377372
  50.7848050  11.2966129  77.8707303  49.6317320  10.8672810  78.7527598
  50.4204179   9.8983302  80.5048169  51.2397068  10.3927381  80.5283007
  50.6940986   8.9815271  80.4765737  60.1770775   2.2894055  69.8676125
  59.2896630   2.5743705  69.6496320  60.5924764   2.1287818  69.0203402
  63.5285311   2.3140576  73.5830464  64.3045701   2.8037028  73.8555081
  62.8033445   2.7398630  74.0402334  65.9657870   3.0268195  74.6404405
  66.5602360   2.7863931  73.9297713  66.0384453   2.3075326  75.2677941
  48.1855025  16.8701806  74.9547570  48.0509493  16.1102207  74.3885568
  47.7687088  17.5942706  74.4876358  59.3213988  12.0538729  63.9624145
  60.0249838  12.2588732  64.5781801  58.5976637  12.6215491  64.2273228
  60.1511799   7.8048591  70.0826415  60.0947000   8.2617142  69.2434047
  60.7040141   7.0439275  69.9049258  63.9616604   3.5938323  70.9076535
  63.7053539   3.1934958  71.7384742  63.3369472   4.3082117  70.7826674
  68.2728942   6.3334396  73.4147826  67.7128500   6.4027585  74.1879388
  67.6672446   6.1575380  72.6947322  51.3424151  17.7671123  75.1666012
  51.2256535  18.7116555  75.0644703  50.5216597  17.4644684  75.5551811
  61.2300686  12.4921259  66.0122605  62.0646290  12.0602457  65.8300080
  61.0685029  12.3203272  66.9399499  60.8846578   8.9953372  67.3778944
  60.8295382   8.8297643  66.4367388  60.2592633   9.7029405  67.5341134
  45.6739093   4.2321436  81.2040366  46.3197956   3.7220390  81.6927592
  45.4656244   4.9690118  81.7783792  58.1992485  11.3002284  86.7032507
  59.0683645  11.4742936  86.3419142  57.7199236  12.1196701  86.5808236
  54.1942703  -1.5038519  66.9564263  54.1821373  -0.5596679  67.1132534
  55.0866125  -1.6868374  66.6623724  52.3678665  18.4199385  78.3821941
  53.2705912  18.4522995  78.6988436  52.1416035  17.4899836  78.3968276
  54.1232267  17.1730371  75.0432019  53.1727898  17.1732233  74.9296392
  54.4264753  16.4263106  74.5268054  50.0136584   1.3789053  85.3015381
  50.8768045   1.0225858  85.5118705  49.4401994   1.0402948  85.9890785
  69.8584961  23.0090910  76.1077782  70.4963371  22.8897657  75.4041122
  69.7405804  23.9571754  76.1665734  66.6674667  22.9618338  76.0439306
  66.3293179  22.8459403  75.1559841  67.5364435  22.5609503  76.0240313
  62.5261483  24.8153814  72.0336197  61.9626348  24.7243751  71.2652485
  62.4113878  23.9953719  72.5138690  67.1494450  24.1153190  82.0025512
  67.1383091  23.7205988  81.1306016  67.3115089  23.3819262  82.5959283
  60.0725915  26.3105006  74.8720418  60.8647207  25.9695831  74.4566717
  60.3122565  26.4199981  75.7922571  62.0316669  25.5713919  67.7437797
  62.8047545  25.0242906  67.6050672  62.3842067  26.4358168  67.9552258
  63.8701711  26.8990301  80.9504696  63.5791577  27.8035932  80.8351362
  64.5058696  26.9406829  81.6648765  64.7957918  24.2767150  77.5406056
  65.3921490  24.0523172  76.8263018  64.8532890  23.5351895  78.1431503
  64.3682946  21.7306585  65.3756247  64.6208467  21.2088107  64.6139710
  63.4307506  21.5672731  65.4782930  69.4126229  20.7342364  73.1830990
  70.1989318  20.3161787  72.8321407  69.6764934  21.6388456  73.3512638
  69.5836307  26.1715214  67.8819647  68.9482140  26.2449840  68.5940551
  69.2533713  26.7608813  67.2038726  74.8134656  20.6717597  74.0863968
  75.5459828  20.1016814  74.3201798  74.0574012  20.2839197  74.5270474
  64.0879235  23.6334691  67.5780621  63.9715493  22.9579595  68.2461706
  64.1981495  23.1467065  66.7612775  66.4310776  23.0944838  71.2827311
  66.0668983  22.5675459  71.9940232  67.2877892  22.7043307  71.1093796
  72.3360077  14.3839171  78.5458577  72.0043401  15.2534582  78.3219792
  71.7405690  14.0675455  79.2252607  66.0716263  18.1234738  66.2788659
  66.2390665  18.9914974  66.6459130  65.8813432  18.2862020  65.3549948
  68.8291596  26.5851717  77.9454490  68.5292319  27.4876756  77.8370297
  68.4842656  26.3183900  78.7975642  62.2804078  23.0365514  73.9791194
  61.3554574  22.9041728  74.1868886  62.5288491  23.8159733  74.4761136
  72.2288740  19.1034257  75.6251927  71.3205617  19.0349666  75.3310688
  72.1776336  19.5806202  76.4533752  66.0505484  20.5792396  67.2635326
  65.9305109  21.0249446  68.1020806  65.3558072  20.9277713  66.7048864
  59.6412889  22.6798787  74.8134983  59.7705270  22.9333266  75.7274395
  58.9610340  23.2726495  74.4939638  66.3029606  20.5223903  83.5686824
  65.5262940  21.0817823  83.5589689  66.9420169  21.0080686  84.0901694
  74.0950386  17.3050695  77.4029801  73.4524767  17.5983229  76.7569595
  73.5905315  17.1903616  78.2082997  71.7490550  21.0513869  68.0915660
  72.6608406  21.2841255  67.9163358  71.2400197  21.6350913  67.5290739
  64.5575978  23.3309356  83.1304791  65.2990662  23.8694400  82.8539615
  63.8512964  23.9575645  83.2876343  70.0331318  25.4738497  81.7276953
  70.4414674  25.0320907  80.9831585  69.3108579  24.8991124  81.9811146
  66.3862388  20.4111103  79.1010510  67.2323583  20.8350517  79.2445159
  66.3261025  19.7544728  79.7949073  70.3560132  26.0339687  75.4829242
  69.7268995  26.1985401  74.7805309  69.9685794  26.4481297  76.2540206
  74.2349364  26.9694125  72.8373605  73.5500402  27.3493026  72.2870639
  74.3193214  27.5789452  73.5705553  69.5361833  18.0715472  80.7591683
  69.2922765  18.8257532  80.2225959  69.8121764  18.4500819  81.5938930
  71.4900296  24.6154084  79.4368949  71.7017191  25.2585844  78.7603330
  71.4430044  23.7816401  78.9690879  69.0926525  17.2271905  76.3405521
  68.2311004  17.5253158  76.6322259  69.1188960  17.4442304  75.4086554
  65.9088094  25.7714095  72.7479327  66.3726440  26.0501798  71.9583949
  65.6444892  24.8697540  72.5652417  62.8012175  25.3185577  75.6859090
  63.3713532  25.7472845  75.0476574  63.3920287  25.0368161  76.3843276
  64.8456980  21.8937248  69.5568892  65.5481024  22.3458291  70.0242818
  64.5137609  21.2521066  70.1848785  63.2937342  20.4849004  83.9320101
  62.6636002  21.1665285  84.1655498  63.1873430  20.3732086  82.9873239
  58.5882314  20.1520800  74.8586025  57.7981368  20.4078329  74.3826136
  59.0793562  20.9669138  74.9638066  72.6046124  27.4926039  77.6091306
  73.4263568  27.0906227  77.3273988  72.6008527  27.3894274  78.5607422
  60.5397060  20.5165380  71.8169502  59.7428223  20.6284074  72.3352998
  60.3122652  20.8552032  70.9510393  66.3702727  27.0410083  79.7652017
  66.4347160  27.5030490  80.6010189  65.6613651  26.4107448  79.8934327
  56.8720017  20.4051291  77.2901016  57.1228056  21.2898301  77.5558592
  57.4079566  20.2255892  76.5176108  80.6952117  23.8364788  73.9576278
  79.9415825  23.2672186  73.8020282  80.8299658  23.8027452  74.9046912
  62.5718085  14.7869770  86.2945352  62.1785030  14.2335969  86.9692996
  63.3884225  15.0980349  86.6851870  59.5380142  26.2253628  70.2058922
  60.0504663  27.0196879  70.3564487  60.1902855  25.5279919  70.1392524
  61.3475027  29.3419385  72.2881675  61.5241655  30.2637349  72.1002659
  62.1431861  29.0277804  72.7176055  65.4886046  16.2027649  83.8865609
  66.2295759  16.8034802  83.8070071  65.7203968  15.4605287  83.3283651
  60.6327384  21.3884016  82.1643838  60.5180899  20.4869274  82.4650937
  59.7771901  21.6347713  81.8128655  67.7119221  29.3301757  83.7631339
  67.2683076  28.5438135  83.4452244  68.3736435  29.5180907  83.0975230
  62.4706343  30.8597558  78.2892018  63.0213768  30.7314622  77.5169012
  61.6317818  31.1592447  77.9386910  69.8100459  29.6104557  81.7912740
  69.7918935  30.4313438  81.2993010  70.7320379  29.4858632  82.0162882
  66.2673514  27.1248686  82.6336249  66.8001850  26.3636974  82.4035557
  65.7387595  26.8322338  83.3760403  69.4343209  12.2308752  78.1629890
  69.0907478  13.1210394  78.0869001  69.8022171  12.0410410  77.2999475
  57.5029059  24.5542283  70.9818493  58.3404281  24.9639291  70.7652200
  57.6807327  23.6141725  70.9518687  69.3993491  22.2217363  66.6702326
  68.8840115  22.9921968  66.9090713  69.1270800  21.5482499  67.2935387
  66.9840602  17.0667064  71.7287564  66.1282199  16.6773914  71.5493203
  67.3967554  17.1459025  70.8687349  68.5139749  14.6013407  76.1279124
  68.0104545  14.5643542  75.3146929  68.8070356  15.5106150  76.1875780
  64.7582635  14.6852137  75.1345305  65.6235632  14.4894946  74.7751195
  64.8260144  14.4562489  76.0614662  74.3727765  24.9749718  68.6055499
  73.5957208  24.6360877  68.1610661  75.0519246  24.9802341  67.9310464
  69.1879794  20.0944455  68.4962107  68.8829930  20.4090604  69.3472250
  70.1410237  20.1725875  68.5389440  67.6326226  26.2534679  70.1455061
  67.1047588  25.5187438  69.8328298  67.1313729  27.0309355  69.8995029
  72.6119072  24.4483699  75.2622107  71.9542747  25.1382961  75.3502236
  73.4159472  24.8380131  75.6056093  62.3644954  16.9154345  72.5061672
  62.9388706  16.6929526  71.7734865  62.9515936  16.9843039  73.2590274
  71.4224531  22.8028072  73.3126049  71.9356413  23.4358064  73.8147759
  72.0725755  22.2029267  72.9469409  62.6914541  18.9458806  66.5257558
  61.8551853  19.2833492  66.8466832  62.5519311  18.8107786  65.5884695
  64.6667622  13.7895594  71.2336742  64.0132034  13.4744611  70.6093356
  64.6248096  13.1671334  71.9596565  65.7778826  24.0714889  63.1490034
  64.8705888  23.8404142  63.3481183  66.2749858  23.2752508  63.3364015
  67.9005362  20.2777527  75.5584389  66.9827923  20.4992474  75.4006077
  68.3165506  20.3523838  74.6996097  68.6840410  21.6768943  70.6887070
  69.4312229  22.1890340  70.3794192  68.9531999  21.3552996  71.5491463
  66.9567060  24.1727484  67.6714024  66.0478279  23.8886517  67.7686494
  66.9862144  24.5926562  66.8117331  72.1886327  27.7834073  71.4405191
  71.7348654  26.9424983  71.4970382  71.5580294  28.4195472  71.7779972
  71.1319247  18.7126059  72.6705859  70.3942004  18.2003445  73.0016101
  71.3846020  18.2726441  71.8589136  70.6319267  29.6210570  72.3755010
  70.9242241  30.1815627  71.6567375  71.1417887  29.9139131  73.1308169
  71.2330874  11.4902311  73.2647628  71.5389751  10.6299675  72.9773543
  71.9583479  12.0819931  73.0646622  57.5255230  21.8932998  71.6529226
  57.3279630  21.3002359  70.9280293  56.9701894  21.5885208  72.3705165
  65.5051954  21.7856104  73.7723819  65.5600564  20.8329941  73.6966296
  64.6943156  21.9415543  74.2565118  66.6543148  25.7136227  65.0102102
  66.2162578  24.9972086  64.5507740  67.3953589  25.9412342  64.4487194
  63.4444314  20.4033164  71.5314198  62.6312179  20.7027335  71.9379390
  63.9403308  20.0088853  72.2488680  65.5952892  30.3990921  73.4648463
  65.5529071  30.6251767  72.5356995  66.5115591  30.1654296  73.6134264
  69.0418526  20.8674989  80.3629092  69.3967913  21.0946462  81.2223558
  69.6890657  21.1993365  79.7406347  74.7716262  23.9893424  71.0678421
  74.6334161  24.1795020  70.1399610  74.4152481  24.7512807  71.5246472
  62.9358389  17.9751520  77.1475433  63.5757768  17.8340279  76.4498396
  62.1035919  17.6886033  76.7714035  74.7985642  26.0569951  76.0789693
  75.2322149  25.9645241  76.9272747  75.5117223  26.0327452  75.4409709
  63.7118693  27.2753950  73.2610425  64.5059291  26.7804270  73.0593000
  63.0010385  26.7471813  72.8978131  68.5313537  29.6572046  77.6122793
  68.5850559  30.2262982  78.3800509  67.6628318  29.8273931  77.2476830
  60.0201456  21.4197032  69.3370178  59.0899044  21.3581487  69.5540140
  60.1158928  20.8972985  68.5406819  59.9387005  17.9451845  71.9248420
  60.1993822  18.8597178  71.8157580  60.7604177  17.4776287  72.0745033
  61.4111930  19.3589602  79.0947244  62.0834984  19.1506964  78.4459893
  60.5841717  19.1611688  78.6552477  75.6601192  26.0993652  78.6122578
  75.8537082  27.0039463  78.8581853  75.5601810  25.6401071  79.4461163
  67.3137502  15.9851543  81.1112905  66.6665417  16.6841492  81.0177382
  68.0838518  16.4187687  81.4789153  70.7216300  26.2500395  84.1863459
  70.5701807  26.0210947  83.2693542  70.7120980  27.2070996  84.1994804
  67.4901637  23.8232308  79.1709725  68.4193697  23.9743467  78.9978692
  67.0692667  23.9116328  78.3158371  66.2889969  27.8482972  76.9408263
  66.1501054  27.4801756  77.8134201  65.5004565  28.3630611  76.7692220
  67.8395184  27.2264575  74.3297100  67.5045016  27.1865345  75.2254750
  67.3399129  26.5609291  73.8567511  61.8139428  22.6332205  79.8549682
  61.6759226  21.9012444  80.4561221  62.7244351  22.5441105  79.5733869
  70.7754375  24.5720609  64.6034160  70.1583546  23.8467437  64.5067213
  70.3070864  25.3329969  64.2601234  64.4421728  22.3452164  79.3433361
  65.1521347  21.7045356  79.3019980  64.3991036  22.5965059  80.2659542
  72.4308507  29.2819517  82.2639940  72.3721053  28.5978738  81.5970523
  72.8328025  30.0238507  81.8120566  63.1550662  19.3317382  81.1629001
  62.6188019  18.8808120  81.8150597  62.5667371  19.4663291  80.4199465
  61.4499206  36.0981431  75.0573659  61.6895804  36.7299955  75.7352678
  60.6068402  35.7469471  75.3439019  62.5652921  18.7906033  63.7255464
  61.6882388  18.6694834  63.3617711  63.0410674  17.9992112  63.4734353
  72.4325914  27.2459101  80.4953920  71.5452693  26.9085023  80.6180319
  73.0024465  26.5142133  80.7322685  54.0855061  23.5783193  73.8196971
  54.7726101  23.2644923  73.2317987  53.9303190  24.4824558  73.5464223
  58.8889783  18.4673390  78.2481995  58.8047972  17.8599059  77.5132405
  58.0672490  18.9582408  78.2491491  65.9627068  31.9060554  77.4615163
  65.8897239  32.7115525  77.9734468  65.5204461  32.1052520  76.6363185
  65.7516847  31.1432324  70.9717985  64.9684369  31.6854004  71.0656209
  66.4509592  31.6606303  71.3712226  69.0613497  16.9526953  73.6152190
  69.5582197  16.1996916  73.2953260  68.2900479  16.9891270  73.0495400
  76.9143255  22.6567319  75.2570482  76.9033131  23.5392034  74.8864415
  76.0460634  22.3038870  75.0625019  68.4225751  31.8047388  79.6173322
  69.1353723  32.4394853  79.5449223  67.9315780  31.9011254  78.8013324
  70.1443278  25.7098640  71.1890614  69.2099557  25.8300103  71.0195318
  70.3219947  24.8071107  70.9250623  65.6448466  19.0944336  73.3423875
  65.2746254  18.5415377  74.0304780  66.1407559  18.4902470  72.7898875
  73.5315829  21.5515960  71.7240648  73.9976282  22.3843951  71.6500950
  73.9823330  21.0860941  72.4285906  63.4737665  29.5541831  80.4378893
  64.1747124  30.1878314  80.5908287  63.0032780  29.8956563  79.6774532
  71.5032492  13.9196547  75.7631549  70.5895572  14.1500774  75.9313756
  71.9325594  14.0034991  76.6145581  71.2738951  22.1086439  78.2631443
  70.6210401  22.3562346  77.6083896  71.6519331  21.2950577  77.9293920
  67.3226524  22.8506250  84.7497480  66.6467161  22.7500379  85.4199855
  68.1454158  22.6945463  85.2133477  59.0705383  29.0878186  77.3709995
  59.6558820  28.3421874  77.5037900  58.8730221  29.3982143  78.2546659
  61.9244038  32.1229434  72.3872438  61.2554413  32.6075561  71.9036478
  61.7856908  32.3698654  73.3015816  53.6623037  21.6583786  76.0914439
  53.7007137  21.1247377  76.8851557  53.1563330  21.1318992  75.4725416
  66.0649307  34.1573177  78.9855096  66.6167615  34.3204799  79.7504181
  66.4055500  34.7477615  78.3135121  61.0413800  16.5048327  79.5876981
  61.1055126  17.3663158  79.1754379  60.9780920  15.8922329  78.8549339
  60.5166072  18.5771460  83.2350015  61.1438111  18.1948537  83.8487539
  59.6593991  18.3585661  83.6005708  70.9160181  28.9834435  84.8403751
  71.4600085  29.5964393  84.3458705  70.3347026  29.5414013  85.3570764
  57.2931615  20.3847889  69.1668370  57.5885056  19.4758567  69.1135424
  56.3919651  20.3635628  68.8449372  69.2017694  32.1055153  75.9718778
  69.0768833  31.3044893  75.4629724  69.8596785  32.6001346  75.4832748
  60.8225862  18.4603885  75.1495919  60.1012448  19.0739853  75.0103392
  61.6119118  18.9961650  75.0712565  71.2652602  29.9064173  77.5998328
  70.3182938  29.7869524  77.5276655  71.6135375  29.0186671  77.6824590
  63.6252176  15.7958312  81.4236570  64.1486577  16.0420608  82.1862880
  63.4064509  16.6278346  81.0039708  59.0219457  18.0661986  69.2907695
  58.6932163  17.1859365  69.1082801  59.3758827  18.0109655  70.1784084
  68.2699036  29.7016889  73.8002681  68.1223998  28.7733596  73.9810251
  69.0952529  29.7236980  73.3159756  62.1361280  18.3534956  69.6583173
  62.4757352  18.8820877  68.9361781  62.5833400  18.6915362  70.4341739
  71.8733157  30.5245448  74.8867553  72.7979705  30.3188309  74.7492005
  71.7048461  30.2761849  75.7956895  64.8304721  16.7372007  79.1086241
  64.4901541  15.9379820  79.5106921  64.1243727  17.0373718  78.5363074
  65.4821192  13.8221319  77.5613564  66.3047262  13.3481797  77.4392454
  65.7259256  14.6011803  78.0612250  64.1229427  16.8509578  67.8576466
  64.8437789  17.2290830  67.3540182  63.4994731  17.5698454  67.9611444
  68.2660550  17.5554727  68.7934798  68.4824164  18.4379365  68.4923626
  67.7854617  17.1640940  68.0640440  63.0059771  20.5140440  75.3705542
  62.8604352  20.8280743  76.2629824  62.5284975  21.1325340  74.8176441
  64.8656154  17.5042988  75.4186432  64.8517723  16.6084081  75.0818730
  65.5828582  17.5113652  76.0524718  66.7182285  17.9380328  77.4639559
  66.4600063  18.8597399  77.4623890  66.1867325  17.5410763  78.1540024
  57.4805433  23.0545784  78.3093204  56.9358901  23.8305592  78.4413478
  58.3584783  23.4016589  78.1512325  64.2693050  16.3857368  70.6874002
  64.3908961  15.4574014  70.8864890  63.9795092  16.3996054  69.7752318
  67.1384240  14.0712279  73.8240722  67.1605937  14.1351612  72.8692702
  67.5552299  13.2316787  74.0181228  77.5167865  23.8067538  71.8619945
  77.9599011  23.0574863  71.4639068  76.6394375  23.7977674  71.4793677
  58.2671455  22.1815681  81.2023361  57.5253191  22.3298316  81.7887991
  57.9464200  22.4423946  80.3390110  74.5495069  27.8097585  68.8713874
  75.0746393  28.1484858  68.1463194  74.4617422  26.8744600  68.6877009
  66.2115118  31.7231659  81.0003751  66.5202244  31.4780806  81.8726450
  67.0090600  31.9278297  80.5122621  58.7128069  30.0681109  73.2333755
  59.5386089  29.7684881  72.8532399  58.3622121  29.2988732  73.6823544
  63.6809602  29.4207577  75.3031429  63.0589611  28.7578282  75.0033657
  64.3514469  29.4468709  74.6205077  56.9136674  27.9867436  74.1922689
  56.0768582  27.5589610  74.0106690  56.8860319  28.1799879  75.1293480
  63.7534130  17.8989365  84.8963935  63.8022285  18.7751488  84.5141704
  64.2956644  17.3566759  84.3235578  74.2388975  28.4430489  84.1765072
  73.4484519  28.4254628  83.6369571  74.0022330  28.9818782  84.9314108
  74.3586850  25.2922955  81.4897800  74.4084855  25.1272963  82.4313323
  74.2500774  24.4250214  81.0995681  63.2423109  27.9711501  68.7789889
  63.3911229  28.6546965  68.1256562  64.0489552  27.9516591  69.2939345
  71.6490613  21.2753883  82.8057107  72.5500475  21.1360348  82.5141105
  71.7238587  21.4408338  83.7455285  65.9833418  18.6520738  81.6510293
  65.1136727  18.9454304  81.3792882  66.2192898  19.2361183  82.3717557
  75.8605047  27.7119897  81.7339822  75.5689855  28.0749877  82.5703283
  75.2477178  26.9986905  81.5553154  77.0600729  25.2772776  74.2542392
  77.8947621  25.7162580  74.4179953  77.1959858  24.8011430  73.4350638
  74.1092235  22.8352511  80.2019880  74.5846357  23.0280158  79.3938731
  73.1857801  22.8911697  79.9563264  60.9975742  23.9976678  69.7850958
  60.7521784  23.0939008  69.9831168  61.1671656  23.9993829  68.8430436
  68.6872452  14.8700355  79.1675714  69.2054396  15.6061382  78.8422202
  68.3327585  15.1764348  80.0022473  60.2671389  19.7305036  67.2837120
  59.5740634  19.8049391  66.6277156  60.0223141  18.9665380  67.8058637
  68.9385046  11.2900637  74.6876610  69.2186800  10.6223826  75.3137037
  69.7235653  11.4829733  74.1751274  72.8093904  19.7118271  78.4348186
  73.7611327  19.8116369  78.4560410  72.6397355  18.9196540  78.9446270
  70.8308284  16.7973855  78.6207586  70.2358216  17.0778867  77.9254075
  70.5457981  17.2867755  79.3924328  75.2881982  22.9324391  77.5490485
  75.2558302  21.9940392  77.7350169  75.8982606  23.0108428  76.8156310
  67.1265313  21.8020444  63.5917689  68.0724418  21.6726652  63.6606107
  66.7479558  21.0635106  64.0687117  75.4376471  19.7235434  77.5948768
  74.9215519  18.9393891  77.4078697  76.3216419  19.3954151  77.7595288
  73.0987198  13.4676450  73.5544581  72.9012019  13.1591538  74.4387913
  73.7086903  14.1938089  73.6842511  81.1058532  23.9940398  76.6896522
  81.8361920  23.7325686  77.2504225  80.4965477  23.2569120  76.7298590
  79.1873829  22.1348260  77.2870973  78.4606993  22.0004225  76.6787465
  78.7721116  22.4425089  78.0927691  67.0104006  25.8538190  85.0518346
  67.9307015  26.0316789  85.2458393  66.9753589  24.9094235  84.8998045
  65.3108230  19.7270420  63.5272574  64.4039686  19.4303533  63.6035288
  65.5884211  19.4300238  62.6606861  56.2286171  21.0476784  73.9771621
  55.9088955  20.1942092  73.6845995  55.6819599  21.2625362  74.7329588
  60.0066078  23.7639225  77.6941127  60.2252088  24.6956333  77.7129161
  60.4191852  23.4047199  78.4795931  66.9270296  14.2707310  69.6816816
  66.1171024  13.9254395  70.0572062  67.6154713  13.9614854  70.2704427
  68.8560844  13.3485357  71.3041112  69.4091883  13.7680810  71.9631135
  69.0930931  12.4221105  71.3464068  64.8793943  19.3372431  87.0843876
  64.7790670  20.2866788  87.0155967  64.6615485  19.0090669  86.2119946
  64.0807015  16.5857356  63.6684554  64.9426179  16.9112254  63.9280371
  64.2657359  15.7988852  63.1557619  56.0974431  24.6679695  75.9464742
  55.4037902  24.2533648  75.4334697  56.8447422  24.7100232  75.3498161
  72.2339651  15.4585882  70.8119777  71.6538320  16.1170686  70.4297829
  71.9675584  14.6363227  70.4007194  70.6843218  14.8590940  73.0141097
  71.1842996  14.9707474  72.2055416  71.3278826  14.5551993  73.6541905
  64.7425213  22.7669569  85.9008938  64.2592295  23.5669930  86.1072827
  64.8286152  22.7777514  84.9476382  58.0111173  24.5997949  73.8230757
  57.9881861  24.6985636  72.8712640  58.3211810  25.4463100  74.1447923
  60.6698551  26.6574104  77.9377372  61.6241804  26.6258046  77.8707303
  60.4711075  26.1964728  78.7527598  61.2597933  25.2275220  80.5048169
  62.0790822  25.7219299  80.5283007  61.5334741  24.3107188  80.4765737
  71.0164529  17.6185972  69.8676125  70.1290384  17.9035623  69.6496320
  71.4318518  17.4579736  69.0203402  74.3679065  17.6432493  73.5830464
  75.1439456  18.1328946  73.8555081  73.6427200  18.0690548  74.0402334
  76.8051624  18.3560113  74.6404405  77.3996115  18.1155849  73.9297713
  76.8778208  17.6367243  75.2677941  59.0248780  32.1993724  74.9547570
  58.8903248  31.4394124  74.3885568  58.6080842  32.9234623  74.4876358
  70.9905553  23.1340508  70.0826415  70.9340754  23.5909060  69.2434047
  71.5433895  22.3731193  69.9049258  74.8010359  18.9230240  70.9076535
  74.5447293  18.5226876  71.7384742  74.1763227  19.6374034  70.7826674
  79.1122697  21.6626314  73.4147826  78.5522255  21.7319503  74.1879388
  78.5066200  21.4867298  72.6947322  62.1817906  33.0963041  75.1666012
  62.0650290  34.0408473  75.0644703  61.3610352  32.7936602  75.5551811
  71.7240332  24.3245290  67.3778944  71.6689136  24.1589561  66.4367388
  71.0986388  25.0321323  67.5341134  56.5132847  19.5613354  81.2040366
  57.1591711  19.0512308  81.6927592  56.3049998  20.2982036  81.7783792
  69.0386240  26.6294201  86.7032507  69.9077399  26.8034854  86.3419142
  68.5592991  27.4488618  86.5808236  65.0336458  13.8253399  66.9564263
  65.0215128  14.7695239  67.1132534  65.9259880  13.6423544  66.6623724
  63.2072420  33.7491303  78.3821941  64.1099666  33.7814913  78.6988436
  62.9809790  32.8191753  78.3968276  64.9626022  32.5022289  75.0432019
  64.0121653  32.5024151  74.9296392  65.2658508  31.7555024  74.5268054
  68.8488577  10.4196175  71.2110199  68.0820973   9.8654662  71.3566882
  69.2599282  10.4918044  72.0724351  60.8530338  16.7080971  85.3015381
  61.7161800  16.3517776  85.5118705  60.2795749  16.3694866  85.9890785
  80.6978715  38.3382827  76.1077782  81.3357125  38.2189575  75.4041122
  80.5799558  39.2863671  76.1665734  77.5068422  38.2910256  76.0439306
  77.1686933  38.1751320  75.1559841  78.3758190  37.8901421  76.0240313
  73.3655237  40.1445732  72.0336197  72.8020102  40.0535669  71.2652485
  73.2507632  39.3245636  72.5138690  77.9888205  39.4445107  82.0025512
  77.9776845  39.0497906  81.1306016  78.1508844  38.7111180  82.5959283
  70.9119669  41.6396924  74.8720418  71.7040961  41.2987748  74.4566717
  71.1516319  41.7491899  75.7922571  78.9454796  43.8116700  67.3450662
  78.2942776  44.3970780  66.9584676  79.7399159  44.3422895  67.4045700
  74.7095466  42.2282219  80.9504696  74.4185332  43.1327850  80.8351362
  75.3452450  42.2698747  81.6648765  75.6351673  39.6059068  77.5406056
  76.2315245  39.3815090  76.8263018  75.6926644  38.8643813  78.1431503
  80.2519984  36.0634281  73.1830990  81.0383073  35.6453704  72.8321407
  80.5158688  36.9680373  73.3512638  80.4230061  41.5007132  67.8819647
  79.7875894  41.5741758  68.5940551  80.0927467  42.0900730  67.2038726
  85.6528411  36.0009514  74.0863968  86.3853583  35.4308731  74.3201798
  84.8967767  35.6131115  74.5270474  77.2704531  38.4236756  71.2827311
  76.9062738  37.8967377  71.9940232  78.1271646  38.0335225  71.1093796
  83.1753831  29.7131089  78.5458577  82.8437156  30.5826500  78.3219792
  82.5799445  29.3967373  79.2252607  79.6685351  41.9143635  77.9454490
  79.3686074  42.8168673  77.8370297  79.3236410  41.6475818  78.7975642
  73.1197832  38.3657431  73.9791194  72.1948329  38.2333646  74.1868886
  73.3682245  39.1451651  74.4761136  83.0682495  34.4326175  75.6251927
  82.1599372  34.3641583  75.3310688  83.0170090  34.9098120  76.4533752
  70.4806643  38.0090705  74.8134983  70.6099024  38.2625184  75.7274395
  69.8004095  38.6018413  74.4939638  77.1423360  35.8515820  83.5686824
  76.3656694  36.4109741  83.5589689  77.7813923  36.3372603  84.0901694
  84.9344141  32.6342613  77.4029801  84.2918521  32.9275146  76.7569595
  84.4299069  32.5195534  78.2082997  75.3969733  38.6601274  83.1304791
  76.1384417  39.1986318  82.8539615  74.6906718  39.2867562  83.2876343
  80.8725072  40.8030414  81.7276953  81.2808428  40.3612825  80.9831585
  80.1502334  40.2283042  81.9811146  77.2256142  35.7403021  79.1010510
  78.0717338  36.1642435  79.2445159  77.1654780  35.0836645  79.7949073
  81.1953887  41.3631605  75.4829242  80.5662749  41.5277319  74.7805309
  80.8079549  41.7773214  76.2540206  85.0743119  42.2986043  72.8373605
  84.3894157  42.6784944  72.2870639  85.1586968  42.9081369  73.5705553
  80.3755588  33.4007389  80.7591683  80.1316520  34.1549450  80.2225959
  80.6515518  33.7792737  81.5938930  82.3294050  39.9446002  79.4368949
  82.5410946  40.5877762  78.7603330  82.2823799  39.1108318  78.9690879
  79.9320279  32.5563822  76.3405521  79.0704758  32.8545076  76.6322259
  79.9582714  32.7734221  75.4086554  76.7481849  41.1006013  72.7479327
  77.2120194  41.3793716  71.9583949  76.4838647  40.1989457  72.5652417
  73.6405930  40.6477494  75.6859090  74.2107287  41.0764763  75.0476574
  74.2314042  40.3660079  76.3843276  75.6850735  37.2229165  69.5568892
  76.3874778  37.6750209  70.0242818  75.3531363  36.5812984  70.1848785
  74.1331096  35.8140922  83.9320101  73.5029757  36.4957203  84.1655498
  74.0267184  35.7024004  82.9873239  69.4276069  35.4812718  74.8586025
  68.6375123  35.7370246  74.3826136  69.9187316  36.2961056  74.9638066
  83.4439878  42.8217957  77.6091306  84.2657322  42.4198144  77.3273988
  83.4402281  42.7186191  78.5607422  77.2096482  42.3702000  79.7652017
  77.2740914  42.8322408  80.6010189  76.5007406  41.7399365  79.8934327
  67.7113772  35.7343208  77.2901016  67.9621810  36.6190218  77.5558592
  68.2473320  35.5547810  76.5176108  91.5345871  39.1656706  73.9576278
  90.7809580  38.5964104  73.8020282  91.6693413  39.1319370  74.9046912
  76.9244499  44.0370108  69.6330997  76.7890174  44.8821644  70.0615845
  77.4654312  44.2389386  68.8696931  73.4111839  30.1161688  86.2945352
  73.0178785  29.5627886  86.9692996  74.2277979  30.4272266  86.6851870
  72.1868782  44.6711302  72.2881675  72.3635410  45.5929267  72.1002659
  72.9825615  44.3569721  72.7176055  76.3279800  31.5319567  83.8865609
  77.0689513  32.1326720  83.8070071  76.5597723  30.7897205  83.3283651
  71.4721138  36.7175934  82.1643838  71.3574653  35.8161191  82.4650937
  70.6165656  36.9639631  81.8128655  78.5512976  44.6593674  83.7631339
  78.1076830  43.8730053  83.4452244  79.2130189  44.8472825  83.0975230
  73.3100097  46.1889476  78.2892018  73.8607522  46.0606539  77.5169012
  72.4711573  46.4884365  77.9386910  80.6494214  44.9396474  81.7912740
  80.6312689  45.7605355  81.2993010  81.5714134  44.8150550  82.0162882
  77.1067268  42.4540604  82.6336249  77.6395605  41.6928892  82.4035557
  76.5781349  42.1614256  83.3760403  80.2736963  27.5600670  78.1629890
  79.9301232  28.4502311  78.0869001  80.6415926  27.3702327  77.2999475
  77.8234357  32.3958982  71.7287564  76.9675953  32.0065832  71.5493203
  78.2361309  32.4750942  70.8687349  79.3533503  29.9305325  76.1279124
  78.8498299  29.8935460  75.3146929  79.6464110  30.8398068  76.1875780
  75.5976389  30.0144055  75.1345305  76.4629386  29.8186863  74.7751195
  75.6653898  29.7854406  76.0614662  85.2121520  40.3041636  68.6055499
  84.4350963  39.9652795  68.1610661  85.8913001  40.3094259  67.9310464
  78.4719981  41.5826596  70.1455061  77.9441342  40.8479356  69.8328298
  77.9707483  42.3601273  69.8995029  83.4512827  39.7775617  75.2622107
  82.7936501  40.4674878  75.3502236  84.2553226  40.1672049  75.6056093
  73.2038708  32.2446263  72.5061672  73.7782460  32.0221444  71.7734865
  73.7909691  32.3134957  73.2590274  82.2618286  38.1319989  73.3126049
  82.7750167  38.7649981  73.8147759  82.9119509  37.5321185  72.9469409
  75.5061376  29.1187511  71.2336742  74.8525788  28.8036529  70.6093356
  75.4641850  28.4963252  71.9596565  78.7399116  35.6069445  75.5584389
  77.8221678  35.8284392  75.4006077  79.1559260  35.6815755  74.6996097
  79.5234164  37.0060861  70.6887070  80.2705983  37.5182258  70.3794192
  79.7925754  36.6844913  71.5491463  83.0280082  43.1125991  71.4405191
  82.5742409  42.2716901  71.4970382  82.3974049  43.7487389  71.7779972
  81.9713001  34.0417977  72.6705859  81.2335758  33.5295363  73.0016101
  82.2239775  33.6018359  71.8589136  81.4713021  44.9502488  72.3755010
  81.7635995  45.5107545  71.6567375  81.9811642  45.2431049  73.1308169
  82.0724629  26.8194229  73.2647628  82.3783505  25.9591592  72.9773543
  82.7977233  27.4111849  73.0646622  76.3445708  37.1148022  73.7723819
  76.3994318  36.1621858  73.6966296  75.5336910  37.2707461  74.2565118
  74.2838068  35.7325082  71.5314198  73.4705934  36.0319252  71.9379390
  74.7797063  35.3380771  72.2488680  76.4346646  45.7282839  73.4648463
  76.3922825  45.9543685  72.5356995  77.3509345  45.4946213  73.6134264
  79.8812280  36.1966906  80.3629092  80.2361668  36.4238379  81.2223558
  80.5284411  36.5285283  79.7406347  85.6110017  39.3185342  71.0678421
  85.4727916  39.5086938  70.1399610  85.2546236  40.0804725  71.5246472
  73.7752143  33.3043437  77.1475433  74.4151522  33.1632196  76.4498396
  72.9429674  33.0177951  76.7714035  85.6379397  41.3861869  76.0789693
  86.0715903  41.2937158  76.9272747  86.3510977  41.3619370  75.4409709
  74.5512447  42.6045868  73.2610425  75.3453045  42.1096188  73.0593000
  73.8404139  42.0763731  72.8978131  79.3707291  44.9863963  77.6122793
  79.4244314  45.5554900  78.3800509  78.5022073  45.1565848  77.2476830
  72.2505685  34.6881519  79.0947244  72.9228738  34.4798882  78.4459893
  71.4235471  34.4903605  78.6552477  86.4994946  41.4285570  78.6122578
  86.6930836  42.3331380  78.8581853  86.3995564  40.9692989  79.4461163
  78.1531257  31.3143460  81.1112905  77.5059172  32.0133410  81.0177382
  78.9232272  31.7479604  81.4789153  81.5610055  41.5792313  84.1863459
  81.4095561  41.3502864  83.2693542  81.5514734  42.5362914  84.1994804
  78.3295391  39.1524225  79.1709725  79.2587451  39.3035385  78.9978692
  77.9086421  39.2408246  78.3158371  77.1283723  43.1774890  76.9408263
  76.9894809  42.8093674  77.8134201  76.3398319  43.6922529  76.7692220
  78.6788938  42.5556492  74.3297100  78.3438771  42.5157262  75.2254750
  78.1792884  41.8901208  73.8567511  72.6533182  37.9624122  79.8549682
  72.5152980  37.2304361  80.4561221  73.5638106  37.8733023  79.5733869
  75.2815483  37.6744082  79.3433361  75.9915101  37.0337274  79.3019980
  75.2384791  37.9256977  80.2659542  83.2702261  44.6111435  82.2639940
  83.2114808  43.9270655  81.5970523  83.6721780  45.3530425  81.8120566
  73.9944417  34.6609300  81.1629001  73.4581774  34.2100038  81.8150597
  73.4061125  34.7955208  80.4199465  72.2892960  51.4273349  75.0573659
  72.5289558  52.0591873  75.7352678  71.4462157  51.0761389  75.3439019
  83.2719669  42.5751019  80.4953920  82.3846447  42.2376941  80.6180319
  83.8418220  41.8434050  80.7322685  69.7283538  33.7965307  78.2481995
  69.6441727  33.1890977  77.5132405  68.9066244  34.2874326  78.2491491
  76.8020822  47.2352471  77.4615163  76.7290994  48.0407443  77.9734468
  76.3598215  47.4344437  76.6363185  79.9007252  32.2818871  73.6152190
  80.3975951  31.5288833  73.2953260  79.1294233  32.3183188  73.0495400
  87.7537009  37.9859236  75.2570482  87.7426886  38.8683952  74.8864415
  86.8854389  37.6330787  75.0625019  79.2619506  47.1339305  79.6173322
  79.9747478  47.7686770  79.5449223  78.7709534  47.2303171  78.8013324
  80.9837033  41.0390558  71.1890614  80.0493311  41.1592021  71.0195318
  81.1613701  40.1363025  70.9250623  76.4842221  34.4236254  73.3423875
  76.1140008  33.8707294  74.0304780  76.9801313  33.8194387  72.7898875
  84.3709584  36.8807877  71.7240648  84.8370036  37.7135869  71.6500950
  84.8217084  36.4152859  72.4285906  74.3131419  44.8833749  80.4378893
  75.0140879  45.5170232  80.5908287  73.8426534  45.2248480  79.6774532
  82.4385815  43.2251699  68.7226800  82.7145659  43.1108293  69.6320674
  81.5690314  42.8269184  68.6838973  82.3426247  29.2488464  75.7631549
  81.4289326  29.4792691  75.9313756  82.7719348  29.3326908  76.6145581
  82.1132705  37.4378356  78.2631443  81.4604155  37.6854264  77.6083896
  82.4913085  36.6242495  77.9293920  79.0739879  47.4738050  72.3659613
  79.2562274  46.6559705  72.8287366  79.8972865  47.6905742  71.9284503
  79.4082045  46.4006235  69.6274662  79.9369811  45.8898689  69.0144824
  79.6710264  46.0848765  70.4920195  78.1620278  38.1798167  84.7497480
  77.4860915  38.0792297  85.4199855  78.9847912  38.0237381  85.2133477
  69.9099137  44.4170104  77.3709995  70.4952574  43.6713792  77.5037900
  69.7123976  44.7274061  78.2546659  64.5016792  36.9875704  76.0914439
  64.5400891  36.4539295  76.8851557  63.9957085  36.4610910  75.4725416
  76.9043061  49.4865095  78.9855096  77.4561369  49.6496716  79.7504181
  77.2449254  50.0769533  78.3135121  71.8807554  31.8340245  79.5876981
  71.9448881  32.6955076  79.1754379  71.8174675  31.2214246  78.8549339
  71.3559827  33.9063377  83.2350015  71.9831866  33.5240454  83.8487539
  70.4987746  33.6877579  83.6005708  81.7553935  44.3126352  84.8403751
  82.2993839  44.9256311  84.3458705  81.1740780  44.8705931  85.3570764
  80.0411448  47.4347070  75.9718778  79.9162588  46.6336810  75.4629724
  80.6990539  47.9293264  75.4832748  71.6619617  33.7895803  75.1495919
  70.9406202  34.4031771  75.0103392  72.4512872  34.3253568  75.0712565
  82.1046357  45.2356090  77.5998328  81.1576692  45.1161442  77.5276655
  82.4529130  44.3478588  77.6824590  74.4645930  31.1250229  81.4236570
  74.9880332  31.3712526  82.1862880  74.2458263  31.9570264  81.0039708
  79.1092790  45.0308807  73.8002681  78.9617752  44.1025514  73.9810251
  79.9346284  45.0528897  73.3159756  82.7126912  45.8537365  74.8867553
  83.6373459  45.6480227  74.7492005  82.5442215  45.6053767  75.7956895
  75.6698475  32.0663924  79.1086241  75.3295295  31.2671738  79.5106921
  74.9637481  32.3665635  78.5363074  76.3214947  29.1513237  77.5613564
  77.1441016  28.6773715  77.4392454  76.5653010  29.9303721  78.0612250
  79.1054304  32.8846644  68.7934798  79.3217919  33.7671282  68.4923626
  78.6248371  32.4932858  68.0640440  73.8453526  35.8432358  75.3705542
  73.6998106  36.1572661  76.2629824  73.3678729  36.4617258  74.8176441
  75.7049909  32.8334906  75.4186432  75.6911477  31.9375999  75.0818730
  76.4222337  32.8405569  76.0524718  77.5576039  33.2672246  77.4639559
  77.2993817  34.1889316  77.4623890  77.0261080  32.8702680  78.1540024
  82.5022228  46.3723033  70.2429645  82.6759106  45.8069455  69.4903497
  82.9951119  47.1723928  70.0609135  68.3199188  38.3837702  78.3093204
  67.7752656  39.1597510  78.4413478  69.1978538  38.7308506  78.1512325
  75.1086805  31.7149286  70.6874002  75.2302716  30.7865932  70.8864890
  74.8188847  31.7287972  69.7752318  77.9777995  29.4004196  73.8240722
  77.9999692  29.4643529  72.8692702  78.3946054  28.5608705  74.0181228
  88.3561619  39.1359456  71.8619945  88.7992765  38.3866781  71.4639068
  87.4788130  39.1269592  71.4793677  83.4897401  45.6889797  67.3426543
  84.1848305  46.3096490  67.5613858  83.8320551  44.8385148  67.6178921
  69.1065210  37.5107598  81.2023361  68.3646946  37.6590234  81.7887991
  68.7857954  37.7715864  80.3390110  85.3888824  43.1389503  68.8713874
  85.9140148  43.4776776  68.1463194  85.3011176  42.2036518  68.6877009
  77.0508872  47.0523576  81.0003751  77.3595999  46.8072723  81.8726450
  77.8484354  47.2570215  80.5122621  69.5521823  45.3973027  73.2333755
  70.3779843  45.0976799  72.8532399  69.2015875  44.6280649  73.6823544
  74.5203357  44.7499495  75.3031429  73.8983366  44.0870200  75.0033657
  75.1908223  44.7760627  74.6205077  67.7530428  43.3159353  74.1922689
  66.9162337  42.8881528  74.0106690  67.7254074  43.5091797  75.1293480
  74.5927884  33.2281283  84.8963935  74.6416040  34.1043406  84.5141704
  75.1350398  32.6858676  84.3235578  85.0782730  43.7722406  84.1765072
  84.2878273  43.7546545  83.6369571  84.8416084  44.3110700  84.9314108
  85.1980605  40.6214873  81.4897800  85.2478610  40.4564880  82.4313323
  85.0894528  39.7542132  81.0995681  74.0816863  43.3003418  68.7789889
  74.2304984  43.9838883  68.1256562  74.8883307  43.2808509  69.2939345
  82.4884367  36.6045801  82.8057107  83.3894230  36.4652266  82.5141105
  82.5632342  36.7700256  83.7455285  76.8227172  33.9812656  81.6510293
  75.9530482  34.2746222  81.3792882  77.0586653  34.5653101  82.3717557
  86.6998802  43.0411814  81.7339822  86.4083610  43.4041795  82.5703283
  86.0870933  42.3278823  81.5553154  87.8994484  40.6064694  74.2542392
  88.7341375  41.0454498  74.4179953  88.0353613  40.1303347  73.4350638
  84.9485990  38.1644429  80.2019880  85.4240111  38.3572075  79.3938731
  84.0251555  38.2203615  79.9563264  79.5266206  30.1992272  79.1675714
  80.0448150  30.9353299  78.8422202  79.1721339  30.5056266  80.0022473
  79.7778800  26.6192555  74.6876610  80.0580554  25.9515744  75.3137037
  80.5629407  26.8121651  74.1751274  83.6487659  35.0410189  78.4348186
  84.6005082  35.1408287  78.4560410  83.4791109  34.2488458  78.9446270
  81.6702038  32.1265772  78.6207586  81.0751970  32.4070785  77.9254075
  81.3851735  32.6159673  79.3924328  86.1275737  38.2616309  77.5490485
  86.0952057  37.3232309  77.7350169  86.7376360  38.3400345  76.8156310
  86.2770225  35.0527352  77.5948768  85.7609274  34.2685809  77.4078697
  87.1610174  34.7246069  77.7595288  83.9380952  28.7968368  73.5544581
  83.7405773  28.4883456  74.4387913  84.5480658  29.5230007  73.6842511
  91.9452286  39.3232316  76.6896522  92.6755675  39.0617604  77.2504225
  91.3359232  38.5861037  76.7298590  90.0267584  37.4640178  77.2870973
  89.3000747  37.3296143  76.6787465  89.6114870  37.7717007  78.0927691
  77.8497760  41.1830108  85.0518346  78.7700769  41.3608707  85.2458393
  77.8147343  40.2386153  84.8998045  70.8459833  39.0931142  77.6941127
  71.0645842  40.0248250  77.7129161  71.2585606  38.7339117  78.4795931
  77.7664050  29.5999228  69.6816816  76.9564779  29.2546313  70.0572062
  78.4548467  29.2906772  70.2704427  79.6954599  28.6777275  71.3041112
  80.2485637  29.0972728  71.9631135  79.9324685  27.7513023  71.3464068
  75.7187698  34.6664348  87.0843876  75.6184425  35.6158705  87.0155967
  75.5009240  34.3382587  86.2119946  66.9368185  39.9971613  75.9464742
  66.2431656  39.5825566  75.4334697  67.6841176  40.0392149  75.3498161
  83.0733406  30.7877800  70.8119777  82.4932075  31.4462604  70.4297829
  82.8069338  29.9655144  70.4007194  81.5236972  30.1882857  73.0141097
  82.0236750  30.2999392  72.2055416  82.1672580  29.8843910  73.6541905
  75.5818968  38.0961487  85.9008938  75.0986050  38.8961847  86.1072827
  75.6679907  38.1069432  84.9476382  71.5092305  41.9866022  77.9377372
  72.4635559  41.9549964  77.8707303  71.3104829  41.5256646  78.7527598
  72.0991688  40.5567138  80.5048169  72.9184577  41.0511216  80.5283007
  72.3728495  39.6399106  80.4765737  81.8558284  32.9477890  69.8676125
  80.9684139  33.2327541  69.6496320  82.2712273  32.7871654  69.0203402
  85.2072820  32.9724411  73.5830464  85.9833210  33.4620864  73.8555081
  84.4820954  33.3982465  74.0402334  87.6445379  33.6852030  74.6404405
  88.2389869  33.4447766  73.9297713  87.7171962  32.9659161  75.2677941
  69.8642534  47.5285641  74.9547570  69.7297002  46.7686042  74.3885568
  69.4474596  48.2526541  74.4876358  81.8299308  38.4632426  70.0826415
  81.7734509  38.9200977  69.2434047  82.3827650  37.7023111  69.9049258
  85.6404113  34.2522158  70.9076535  85.3841048  33.8518794  71.7384742
  85.0156981  34.9665952  70.7826674  89.9516451  36.9918231  73.4147826
  89.3916009  37.0611420  74.1879388  89.3459955  36.8159216  72.6947322
  73.0211660  48.4254958  75.1666012  72.9044044  49.3700391  75.0644703
  72.2004106  48.1228520  75.5551811  82.5634087  39.6537207  67.3778944
  82.5082891  39.4881479  66.4367388  81.9380142  40.3613240  67.5341134
  67.3526602  34.8905272  81.2040366  67.9985465  34.3804226  81.6927592
  67.1443753  35.6273953  81.7783792  79.8779994  41.9586119  86.7032507
  80.7471154  42.1326771  86.3419142  79.3986745  42.7780536  86.5808236
  74.0466174  49.0783220  78.3821941  74.9493421  49.1106830  78.6988436
  73.8203544  48.1483671  78.3968276  75.8019776  47.8314207  75.0432019
  74.8515407  47.8316068  74.9296392  76.1052262  47.0846941  74.5268054
  79.6882332  25.7488093  71.2110199  78.9214728  25.1946580  71.3566882
  80.0993037  25.8209962  72.0724351  71.6924093  32.0372889  85.3015381
  72.5555554  31.6809694  85.5118705  71.1189503  31.6986784  85.9890785
  91.5372470  53.6674745  76.1077782  92.1750880  53.5481492  75.4041122
  91.4193313  54.6155589  76.1665734  88.3462176  53.6202173  76.0439306
  88.0080688  53.5043238  75.1559841  89.2151944  53.2193338  76.0240313
  88.8281959  54.7737025  82.0025512  88.8170600  54.3789823  81.1306016
  88.9902598  54.0403098  82.5959283  81.7513424  56.9688841  74.8720418
  82.5434716  56.6279666  74.4566717  81.9910074  57.0783816  75.7922571
  85.5489220  57.5574137  80.9504696  85.2579086  58.4619768  80.8351362
  86.1846204  57.5990664  81.6648765  86.4745427  54.9350985  77.5406056
  87.0708999  54.7107008  76.8263018  86.5320399  54.1935731  78.1431503
  91.0913738  51.3926199  73.1830990  91.8776827  50.9745622  72.8321407
  91.3552443  52.2972291  73.3512638  96.4922165  51.3301432  74.0863968
  97.2247337  50.7600649  74.3201798  95.7361521  50.9423033  74.5270474
  88.1098285  53.7528674  71.2827311  87.7456492  53.2259295  71.9940232
  88.9665401  53.3627143  71.1093796  94.0147586  45.0423006  78.5458577
  93.6830910  45.9118417  78.3219792  93.4193199  44.7259290  79.2252607
  83.9591587  53.6949349  73.9791194  83.0342083  53.5625563  74.1868886
  84.2076000  54.4743568  74.4761136  93.9076249  49.7618092  75.6251927
  92.9993126  49.6933501  75.3310688  93.8563845  50.2390037  76.4533752
  81.3200398  53.3382623  74.8134983  81.4492779  53.5917102  75.7274395
  80.6397849  53.9310331  74.4939638  87.9817115  51.1807738  83.5686824
  87.2050449  51.7401658  83.5589689  88.6207678  51.6664521  84.0901694
  95.7737895  47.9634531  77.4029801  95.1312276  48.2567064  76.7569595
  95.2692824  47.8487451  78.2082997  93.4278059  51.7097704  68.0915660
  94.3395915  51.9425091  67.9163358  92.9187706  52.2934748  67.5290739
  86.2363487  53.9893191  83.1304791  86.9778171  54.5278235  82.8539615
  85.5300473  54.6159480  83.2876343  91.7118827  56.1322332  81.7276953
  92.1202183  55.6904742  80.9831585  90.9896088  55.5574959  81.9811146
  88.0649897  51.0694939  79.1010510  88.9111092  51.4934352  79.2445159
  88.0048534  50.4128563  79.7949073  95.9136873  57.6277960  72.8373605
  95.2287911  58.0076862  72.2870639  95.9980723  58.2373287  73.5705553
  91.2149342  48.7299307  80.7591683  90.9710274  49.4841368  80.2225959
  91.4909273  49.1084655  81.5938930  93.1687805  55.2737919  79.4368949
  93.3804700  55.9169679  78.7603330  93.1217553  54.4400236  78.9690879
  90.7714034  47.8855740  76.3405521  89.9098513  48.1836994  76.6322259
  90.7976469  48.1026139  75.4086554  84.4799684  55.9769412  75.6859090
  85.0501041  56.4056680  75.0476574  85.0707796  55.6951997  76.3843276
  86.5244489  52.5521083  69.5568892  87.2268533  53.0042127  70.0242818
  86.1925118  51.9104902  70.1848785  84.9724851  51.1432840  83.9320101
  84.3423511  51.8249120  84.1655498  84.8660939  51.0315921  82.9873239
  80.2669823  50.8104636  74.8586025  79.4768877  51.0662164  74.3826136
  80.7581071  51.6252973  74.9638066  94.2833633  58.1509875  77.6091306
  95.1051077  57.7490062  77.3273988  94.2796036  58.0478109  78.5607422
  88.0490236  57.6993918  79.7652017  88.1134669  58.1614325  80.6010189
  87.3401160  57.0691283  79.8934327  78.5507526  51.0635126  77.2901016
  78.8015565  51.9482136  77.5558592  79.0867075  50.8839728  76.5176108
 102.3739626  54.4948623  73.9576278 101.6203334  53.9256021  73.8020282
 102.5087167  54.4611288  74.9046912  84.2505594  45.4453605  86.2945352
  83.8572539  44.8919804  86.9692996  85.0671734  45.7564184  86.6851870
  87.1673555  46.8611485  83.8865609  87.9083268  47.4618638  83.8070071
  87.3991477  46.1189122  83.3283651  82.3114893  52.0467852  82.1643838
  82.1968408  51.1453109  82.4650937  81.4559410  52.2931549  81.8128655
  89.3906730  59.9885592  83.7631339  88.9470585  59.2021971  83.4452244
  90.0523944  60.1764743  83.0975230  84.1493852  61.5181394  78.2892018
  84.7001277  61.3898457  77.5169012  83.3105327  61.8176283  77.9386910
  91.4887968  60.2688392  81.7912740  91.4706444  61.0897273  81.2993010
  92.4107888  60.1442467  82.0162882  87.9461023  57.7832521  82.6336249
  88.4789359  57.0220810  82.4035557  87.4175104  57.4906173  83.3760403
  91.1130718  42.8892587  78.1629890  90.7694987  43.7794229  78.0869001
  91.4809680  42.6994245  77.2999475  88.6628111  47.7250899  71.7287564
  87.8069708  47.3357750  71.5493203  89.0755063  47.8042860  70.8687349
  90.1927258  45.2597243  76.1279124  89.6892053  45.2227378  75.3146929
  90.4857865  46.1689985  76.1875780  86.4370144  45.3435972  75.1345305
  87.3023141  45.1478781  74.7751195  86.5047653  45.1146324  76.0614662
  96.0515274  55.6333553  68.6055499  95.2744717  55.2944713  68.1610661
  96.7306755  55.6386176  67.9310464  90.8667303  50.7528291  68.4962107
  90.5617439  51.0674440  69.3472250  91.8197746  50.8309711  68.5389440
  94.2906581  55.1067534  75.2622107  93.6330256  55.7966796  75.3502236
  95.0946980  55.4963966  75.6056093  84.0432463  47.5738180  72.5061672
  84.6176215  47.3513362  71.7734865  84.6303445  47.6426875  73.2590274
  93.1012040  53.4611907  73.3126049  93.6143922  54.0941899  73.8147759
  93.7513264  52.8613103  72.9469409  86.3455131  44.4479429  71.2336742
  85.6919543  44.1328446  70.6093356  86.3035605  43.8255170  71.9596565
  89.5792871  50.9361363  75.5584389  88.6615432  51.1576310  75.4006077
  89.9953015  51.0107673  74.6996097  90.3627919  52.3352778  70.6887070
  91.1099738  52.8474176  70.3794192  90.6319508  52.0136831  71.5491463
  92.8106756  49.3709895  72.6705859  92.0729513  48.8587281  73.0016101
  93.0633529  48.9310276  71.8589136  92.9118383  42.1486147  73.2647628
  93.2177260  41.2883510  72.9773543  93.6370988  42.7403767  73.0646622
  87.1839463  52.4439940  73.7723819  87.2388073  51.4913776  73.6966296
  86.3730665  52.5999379  74.2565118  85.1231823  51.0616999  71.5314198
  84.3099688  51.3611170  71.9379390  85.6190817  50.6672688  72.2488680
  90.7206035  51.5258824  80.3629092  91.0755422  51.7530297  81.2223558
  91.3678166  51.8577201  79.7406347  96.4503771  54.6477260  71.0678421
  96.3121670  54.8378856  70.1399610  96.0939990  55.4096643  71.5246472
  84.6145898  48.6335355  77.1475433  85.2545277  48.4924114  76.4498396
  83.7823428  48.3469868  76.7714035  96.4773151  56.7153787  76.0789693
  96.9109658  56.6229076  76.9272747  97.1904732  56.6911287  75.4409709
  81.6174514  48.6035680  71.9248420  81.8781331  49.5181013  71.8157580
  82.4391686  48.1360123  72.0745033  83.0899439  50.0173437  79.0947244
  83.7622493  49.8090799  78.4459893  82.2629226  49.8195523  78.6552477
  97.3388701  56.7577487  78.6122578  97.5324591  57.6623298  78.8581853
  97.2389319  56.2984907  79.4461163  88.9925011  46.6435378  81.1112905
  88.3452926  47.3425328  81.0177382  89.7626027  47.0771522  81.4789153
  92.4003809  56.9084230  84.1863459  92.2489316  56.6794782  83.2693542
  92.3908489  57.8654832  84.1994804  89.1689146  54.4816143  79.1709725
  90.0981206  54.6327303  78.9978692  88.7480176  54.5700164  78.3158371
  83.4926937  53.2916040  79.8549682  83.3546735  52.5596279  80.4561221
  84.4031860  53.2024940  79.5733869  86.1209237  53.0035999  79.3433361
  86.8308856  52.3629192  79.3019980  86.0778545  53.2548894  80.2659542
  94.1096016  59.9403353  82.2639940  94.0508562  59.2562573  81.5970523
  94.5115534  60.6822343  81.8120566  84.8338171  49.9901217  81.1629001
  84.2975528  49.5391956  81.8150597  84.2454880  50.1247126  80.4199465
  83.1286715  66.7565267  75.0573659  83.3683313  67.3883791  75.7352678
  82.2855911  66.4053307  75.3439019  94.1113423  57.9042937  80.4953920
  93.2240202  57.5668858  80.6180319  94.6811974  57.1725968  80.7322685
  80.5677292  49.1257225  78.2481995  80.4835481  48.5182895  77.5132405
  79.7459999  49.6166243  78.2491491  87.6414577  62.5644389  77.4615163
  87.5684748  63.3699361  77.9734468  87.1991970  62.7636355  76.6363185
  90.7401006  47.6110789  73.6152190  91.2369706  46.8580751  73.2953260
  89.9687988  47.6475105  73.0495400  98.5930764  53.3151154  75.2570482
  98.5820640  54.1975870  74.8864415  97.7248143  52.9622705  75.0625019
  90.1013260  62.4631223  79.6173322  90.8141232  63.0978688  79.5449223
  89.6103289  62.5595089  78.8013324  87.3235975  49.7528172  73.3423875
  86.9533763  49.1999212  74.0304780  87.8195068  49.1486305  72.7898875
  95.2103338  52.2099795  71.7240648  95.6763791  53.0427787  71.6500950
  95.6610839  51.7444777  72.4285906  85.1525174  60.2125667  80.4378893
  85.8534633  60.8462150  80.5908287  84.6820289  60.5540398  79.6774532
  93.1820001  44.5780382  75.7631549  92.2683081  44.8084609  75.9313756
  93.6113103  44.6618826  76.6145581  92.9526460  52.7670274  78.2631443
  92.2997910  53.0146181  77.6083896  93.3306840  51.9534412  77.9293920
  89.0014033  53.5090085  84.7497480  88.3254670  53.4084214  85.4199855
  89.8241667  53.3529299  85.2133477  80.7492892  59.7462022  77.3709995
  81.3346329  59.0005710  77.5037900  80.5517730  60.0565978  78.2546659
  75.3410546  52.3167622  76.0914439  75.3794646  51.7831213  76.8851557
  74.8350839  51.7902827  75.4725416  87.7436816  64.8157013  78.9855096
  88.2955124  64.9788634  79.7504181  88.0843009  65.4061450  78.3135121
  82.7201309  47.1632162  79.5876981  82.7842635  48.0246993  79.1754379
  82.6568429  46.5506164  78.8549339  82.1953581  49.2355295  83.2350015
  82.8225620  48.8532372  83.8487539  81.3381500  49.0169497  83.6005708
  92.5947690  59.6418270  84.8403751  93.1387594  60.2548228  84.3458705
  92.0134535  60.1997848  85.3570764  82.5013371  49.1187721  75.1495919
  81.7799957  49.7323688  75.0103392  83.2906627  49.6545485  75.0712565
  92.9440111  60.5648008  77.5998328  91.9970447  60.4453359  77.5276655
  93.2922884  59.6770506  77.6824590  85.3039685  46.4542147  81.4236570
  85.8274086  46.7004444  82.1862880  85.0852018  47.2862182  81.0039708
  83.8148789  49.0118791  69.6583173  84.1544861  49.5404713  68.9361781
  84.2620909  49.3499198  70.4341739  86.5092230  47.3955842  79.1086241
  86.1689050  46.5963655  79.5106921  85.8031236  47.6957553  78.5363074
  87.1608701  44.4805155  77.5613564  87.9834771  44.0065633  77.4392454
  87.4046765  45.2595638  78.0612250  89.9448059  48.2138562  68.7934798
  90.1611673  49.0963200  68.4923626  89.4642126  47.8224775  68.0640440
  84.6847280  51.1724275  75.3705542  84.5391861  51.4864578  76.2629824
  84.2072484  51.7909176  74.8176441  86.5443663  48.1626823  75.4186432
  86.5305232  47.2667917  75.0818730  87.2616091  48.1697487  76.0524718
  88.3969794  48.5964163  77.4639559  88.1387572  49.5181234  77.4623890
  87.8654834  48.1994598  78.1540024  79.1592942  53.7129620  78.3093204
  78.6146410  54.4889428  78.4413478  80.0372292  54.0600424  78.1512325
  85.9480559  47.0441203  70.6874002  86.0696470  46.1157850  70.8864890
  85.6582601  47.0579889  69.7752318  88.8171749  44.7296114  73.8240722
  88.8393446  44.7935447  72.8692702  89.2339808  43.8900623  74.0181228
  99.1955374  54.4651373  71.8619945  99.6386520  53.7158699  71.4639068
  98.3181884  54.4561510  71.4793677  79.9458964  52.8399516  81.2023361
  79.2040700  52.9882151  81.7887991  79.6251708  53.1007781  80.3390110
  96.2282578  58.4681420  68.8713874  96.7533902  58.8068693  68.1463194
  96.1404931  57.5328436  68.6877009  87.8902627  62.3815494  81.0003751
  88.1989753  62.1364641  81.8726450  88.6878109  62.5862133  80.5122621
  85.4321639  48.5573201  84.8963935  85.4809794  49.4335324  84.5141704
  85.9744153  48.0150594  84.3235578  95.9176484  59.1014324  84.1765072
  95.1272028  59.0838463  83.6369571  95.6809839  59.6402618  84.9314108
  96.0374359  55.9506790  81.4897800  96.0872364  55.7856798  82.4313323
  95.9288283  55.0834049  81.0995681  93.3278122  51.9337718  82.8057107
  94.2287984  51.7944183  82.5141105  93.4026096  52.0992173  83.7455285
  87.6620927  49.3104573  81.6510293  86.7924236  49.6038139  81.3792882
  87.8980407  49.8945018  82.3717557  97.5392556  58.3703732  81.7339822
  97.2477364  58.7333713  82.5703283  96.9264687  57.6570740  81.5553154
  98.7388238  55.9356612  74.2542392  99.5735130  56.3746416  74.4179953
  98.8747367  55.4595265  73.4350638  95.7879744  53.4936347  80.2019880
  96.2633866  53.6863993  79.3938731  94.8645310  53.5495532  79.9563264
  90.3659961  45.5284190  79.1675714  90.8841905  46.2645217  78.8422202
  90.0115094  45.8348183  80.0022473  90.6172555  41.9484473  74.6876610
  90.8974309  41.2807662  75.3137037  91.4023162  42.1413568  74.1751274
  94.4881413  50.3702107  78.4348186  95.4398836  50.4700204  78.4560410
  94.3184864  49.5780375  78.9446270  92.5095793  47.4557690  78.6207586
  91.9145725  47.7362703  77.9254075  92.2245490  47.9451591  79.3924328
  94.2691300  60.7246487  64.3414167  94.1904931  60.3906351  65.2349924
  95.0900967  61.2168255  64.3405639  96.9669491  53.5908226  77.5490485
  96.9345811  52.6524227  77.7350169  97.5770115  53.6692263  76.8156310
  97.1163980  50.3819270  77.5948768  96.6003028  49.5977726  77.4078697
  98.0003928  50.0537986  77.7595288  94.7774707  44.1260285  73.5544581
  94.5799528  43.8175374  74.4387913  95.3874412  44.8521924  73.6842511
 102.7846041  54.6524233  76.6896522 103.5149429  54.3909521  77.2504225
 102.1752986  53.9152955  76.7298590 100.8661338  52.7932096  77.2870973
 100.1394502  52.6588061  76.6787465 100.4508625  53.1008924  78.0927691
  88.6891515  56.5122025  85.0518346  89.6094524  56.6900624  85.2458393
  88.6541098  55.5678071  84.8998045  77.9073680  51.7060619  73.9771621
  77.5876464  50.8525927  73.6845995  77.3607108  51.9209197  74.7329588
  81.6853587  54.4223060  77.6941127  81.9039597  55.3540168  77.7129161
  82.0979361  54.0631035  78.4795931  88.6057805  44.9291145  69.6816816
  87.7958533  44.5838230  70.0572062  89.2942222  44.6198689  70.2704427
  90.5348353  44.0069192  71.3041112  91.0879392  44.4264646  71.9631135
  90.7718440  43.0804940  71.3464068  86.5581452  49.9956266  87.0843876
  86.4578179  50.9450623  87.0155967  86.3402994  49.6674505  86.2119946
  77.7761940  55.3263531  75.9464742  77.0825411  54.9117483  75.4334697
  78.5234931  55.3684067  75.3498161  93.9127160  46.1169717  70.8119777
  93.3325829  46.7754521  70.4297829  93.6463093  45.2947062  70.4007194
  92.3630727  45.5174775  73.0141097  92.8630505  45.6291310  72.2055416
  93.0066335  45.2135828  73.6541905  86.4212722  53.4253405  85.9008938
  85.9379804  54.2253765  86.1072827  86.5073661  53.4361350  84.9476382
  82.3486060  57.3157939  77.9377372  83.3029313  57.2841882  77.8707303
  82.1498584  56.8548563  78.7527598  82.9385442  55.8859055  80.5048169
  83.7578331  56.3803134  80.5283007  83.2122250  54.9691024  80.4765737
  92.6952038  48.2769808  69.8676125  91.8077893  48.5619458  69.6496320
  93.1106027  48.1163571  69.0203402  96.0466574  48.3016329  73.5830464
  96.8226965  48.7912781  73.8555081  95.3214709  48.7274383  74.0402334
  98.4839133  49.0143948  74.6404405  99.0783624  48.7739684  73.9297713
  98.5565717  48.2951079  75.2677941  80.7036289  62.8577559  74.9547570
  80.5690757  62.0977960  74.3885568  80.2868351  63.5818459  74.4876358
  92.6693062  53.7924344  70.0826415  92.6128263  54.2492895  69.2434047
  93.2221404  53.0315028  69.9049258  96.4797868  49.5814076  70.9076535
  96.2234802  49.1810711  71.7384742  95.8550736  50.2957870  70.7826674
 100.7910206  52.3210149  73.4147826 100.2309764  52.3903338  74.1879388
 100.1853709  52.1451133  72.6947322  83.8605415  63.7546876  75.1666012
  83.7437799  64.6992308  75.0644703  83.0397861  63.4520438  75.5551811
  93.4027841  54.9829125  67.3778944  93.3476645  54.8173396  66.4367388
  92.7773897  55.6905158  67.5341134  78.1920356  50.2197189  81.2040366
  78.8379220  49.7096143  81.6927592  77.9837507  50.9565871  81.7783792
  90.7173748  57.2878037  86.7032507  91.5864908  57.4618689  86.3419142
  90.2380500  58.1072454  86.5808236  86.7123967  44.4837234  66.9564263
  86.7002637  45.4279074  67.1132534  87.6047389  44.3007379  66.6623724
  84.8859929  64.4075138  78.3821941  85.7887175  64.4398748  78.6988436
  84.6597299  63.4775589  78.3968276  90.5276086  41.0780011  71.2110199
  89.7608482  40.5238497  71.3566882  90.9386791  41.1501879  72.0724351
  82.5317847  47.3664806  85.3015381  83.3949309  47.0101611  85.5118705
  81.9583258  47.0278701  85.9890785 102.3766224  68.9966663  76.1077782
 103.0144634  68.8773410  75.4041122 102.2587067  69.9447507  76.1665734
  99.1855931  68.9494091  76.0439306  98.8474442  68.8335156  75.1559841
 100.0545699  68.5485256  76.0240313  95.0442746  70.8029567  72.0336197
  94.4807611  70.7119504  71.2652485  94.9295141  69.9829472  72.5138690
  99.6675713  70.1028943  82.0025512  99.6564354  69.7081741  81.1306016
  99.8296353  69.3695015  82.5959283  92.5907178  72.2980759  74.8720418
  93.3828470  71.9571584  74.4566717  92.8303828  72.4075734  75.7922571
 100.6242305  74.4700535  67.3450662  99.9730285  75.0554615  66.9584676
 101.4186668  75.0006730  67.4045700  94.5497932  71.5589672  67.7437797
  95.3228808  71.0118659  67.6050672  94.9023331  72.4233921  67.9552258
  96.3882975  72.8866054  80.9504696  96.0972841  73.7911685  80.8351362
  97.0239959  72.9282582  81.6648765  97.3139181  70.2642903  77.5406056
  97.9102754  70.0398925  76.8263018  97.3714153  69.5227648  78.1431503
  96.8864210  67.7182338  65.3756247  97.1389731  67.1963860  64.6139710
  95.9488769  67.5548484  65.4782930 101.9307493  66.7218117  73.1830990
 102.7170582  66.3037540  72.8321407 102.1946197  67.6264209  73.3512638
 102.1017570  72.1590967  67.8819647 101.4663403  72.2325593  68.5940551
 101.7714976  72.7484566  67.2038726 107.3315920  66.6593350  74.0863968
 108.0641092  66.0892567  74.3201798 106.5755276  66.2714950  74.5270474
  96.6060499  69.6210444  67.5780621  96.4896757  68.9455348  68.2461706
  96.7162759  69.1342818  66.7612775  98.9492040  69.0820591  71.2827311
  98.5850247  68.5551212  71.9940232  99.8059155  68.6919060  71.1093796
 104.8541340  60.3714924  78.5458577 104.5224665  61.2410335  78.3219792
 104.2586954  60.0551208  79.2252607  98.5897527  64.1110491  66.2788659
  98.7571929  64.9790727  66.6459130  98.3994696  64.2737773  65.3549948
 101.3472860  72.5727470  77.9454490 101.0473583  73.4752509  77.8370297
 101.0023919  72.3059653  78.7975642 104.7470004  65.0910010  75.6251927
 103.8386881  65.0225419  75.3310688 104.6957599  65.5681955  76.4533752
  98.5686747  66.5668149  67.2635326  98.4486373  67.0125199  68.1020806
  97.8739336  66.9153466  66.7048864  96.3293640  79.3371790  70.9125457
  96.2517669  80.2879615  70.9913938  95.7255283  78.9917663  71.5700384
  98.8210869  66.5099656  83.5686824  98.0444203  67.0693576  83.5589689
  99.4601432  66.9956439  84.0901694 106.6131650  63.2926449  77.4029801
 105.9706030  63.5858982  76.7569595 106.1086578  63.1779369  78.2082997
 104.2671814  67.0389622  68.0915660 105.1789670  67.2717008  67.9163358
 103.7581461  67.6226666  67.5290739  97.0757242  69.3185109  83.1304791
  97.8171926  69.8570153  82.8539615  96.3694227  69.9451398  83.2876343
 102.5512581  71.4614250  81.7276953 102.9595937  71.0196660  80.9831585
 101.8289843  70.8866877  81.9811146  98.9043651  66.3986856  79.1010510
  99.7504846  66.8226270  79.2445159  98.8442289  65.7420481  79.7949073
 102.8741396  72.0215440  75.4829242 102.2450258  72.1861154  74.7805309
 102.4867058  72.4357050  76.2540206 106.7530628  72.9569878  72.8373605
 106.0681666  73.3368779  72.2870639 106.8374477  73.5665205  73.5705553
 102.0543097  64.0591225  80.7591683 101.8104028  64.8133285  80.2225959
 102.3303027  64.4376572  81.5938930 104.0081559  70.6029837  79.4368949
 104.2198455  71.2461597  78.7603330 103.9611308  69.7692154  78.9690879
 101.6107788  63.2147658  76.3405521 100.7492267  63.5128911  76.6322259
 101.6370223  63.4318057  75.4086554  98.4269358  71.7589848  72.7479327
  98.8907703  72.0377551  71.9583949  98.1626156  70.8573293  72.5652417
  95.3193439  71.3061330  75.6859090  95.8894796  71.7348598  75.0476574
  95.9101551  71.0243914  76.3843276  97.3638244  67.8813001  69.5568892
  98.0662287  68.3334044  70.0242818  97.0318872  67.2396819  70.1848785
  95.8118605  66.4724757  83.9320101  95.1817266  67.1541038  84.1655498
  95.7054693  66.3607839  82.9873239 105.1227387  73.4801792  77.6091306
 105.9444831  73.0781980  77.3273988 105.1189790  73.3770027  78.5607422
  98.8883991  73.0285836  79.7652017  98.9528423  73.4906243  80.6010189
  98.1794915  72.3983201  79.8934327 113.2133380  69.8240541  73.9576278
 112.4597089  69.2547939  73.8020282 113.3480922  69.7903205  74.9046912
  98.6032008  74.6953943  69.6330997  98.4677683  75.5405479  70.0615845
  99.1441821  74.8973221  68.8696931  95.0899348  60.7745523  86.2945352
  94.6966294  60.2211722  86.9692996  95.9065488  61.0856102  86.6851870
  92.0561406  72.2129381  70.2058922  92.5685926  73.0072632  70.3564487
  92.7084119  71.5155672  70.1392524  93.8656291  75.3295138  72.2881675
  94.0422919  76.2513102  72.1002659  94.6613124  75.0153557  72.7176055
  98.0067309  62.1903402  83.8865609  98.7477022  62.7910555  83.8070071
  98.2385232  61.4481040  83.3283651  93.1508647  67.3759769  82.1643838
  93.0362162  66.4745027  82.4650937  92.2953165  67.6223466  81.8128655
 100.2300485  75.3177510  83.7631339  99.7864339  74.5313888  83.4452244
 100.8917698  75.5056660  83.0975230  94.9887606  76.8473311  78.2892018
  95.5395031  76.7190375  77.5169012  94.1499082  77.1468200  77.9386910
 102.3281723  75.5980310  81.7912740 102.3100198  76.4189191  81.2993010
 103.2501643  75.4734385  82.0162882  98.7854777  73.1124439  82.6336249
  99.3183114  72.3512727  82.4035557  98.2568858  72.8198091  83.3760403
 101.9524472  58.2184505  78.1629890 101.6088741  59.1086147  78.0869001
 102.3203435  58.0286163  77.2999475  90.0210323  70.5418036  70.9818493
  90.8585545  70.9515044  70.7652200  90.1988590  69.6017478  70.9518687
 101.9174755  68.2093116  66.6702326 101.4021378  68.9797721  66.9090713
 101.6452063  67.5358252  67.2935387  99.5021866  63.0542817  71.7287564
  98.6463462  62.6649667  71.5493203  99.9148818  63.1334778  70.8687349
 101.0321012  60.5889160  76.1279124 100.5285808  60.5519295  75.3146929
 101.3251619  61.4981903  76.1875780  97.2763898  60.6727890  75.1345305
  98.1416895  60.4770699  74.7751195  97.3441407  60.4438242  76.0614662
 106.8909029  70.9625471  68.6055499 106.1138472  70.6236630  68.1610661
 107.5700510  70.9678094  67.9310464 101.7061058  66.0820208  68.4962107
 101.4011193  66.3966358  69.3472250 102.6591500  66.1601628  68.5389440
 100.1507490  72.2410432  70.1455061  99.6228851  71.5063191  69.8328298
  99.6494992  73.0185108  69.8995029 105.1300336  70.4359452  75.2622107
 104.4724010  71.1258714  75.3502236 105.9340735  70.8255884  75.6056093
 103.9405795  68.7903825  73.3126049 104.4537676  69.4233817  73.8147759
 104.5907018  68.1905020  72.9469409  98.2960090  70.0590642  63.1490034
  97.3887152  69.8279895  63.3481183  98.7931122  69.2628261  63.3364015
 101.2028169  78.7688149  66.0686720 100.5289868  79.0719846  66.6771678
 101.5893991  79.5717229  65.7192177 100.4186625  66.2653280  75.5584389
  99.5009187  66.4868227  75.4006077 100.8346769  66.3399591  74.6996097
 101.2021673  67.6644696  70.6887070 101.9493492  68.1766093  70.3794192
 101.4713263  67.3428749  71.5491463  99.4748323  70.1603237  67.6714024
  98.5659543  69.8762270  67.7686494  99.5043407  70.5802315  66.8117331
 104.7067591  73.7709826  71.4405191 104.2529918  72.9300736  71.4970382
 104.0761557  74.4071225  71.7779972 103.6500510  64.7001812  72.6705859
 102.9123267  64.1879199  73.0016101 103.9027284  64.2602194  71.8589136
 103.1500530  75.6086323  72.3755010 103.4423504  76.1691380  71.6567375
 103.6599151  75.9014884  73.1308169 103.7512138  57.4778064  73.2647628
 104.0571014  56.6175428  72.9773543 104.4764742  58.0695685  73.0646622
  98.0233217  67.7731857  73.7723819  98.0781827  66.8205694  73.6966296
  97.2124419  67.9291296  74.2565118  99.1724411  71.7011980  65.0102102
  98.7343841  70.9847839  64.5507740  99.9134852  71.9288095  64.4487194
  98.1134155  76.3866674  73.4648463  98.0710334  76.6127520  72.5356995
  99.0296854  76.1530049  73.6134264 101.5599789  66.8550742  80.3629092
 101.9149177  67.0822215  81.2223558 102.2071920  67.1869118  79.7406347
 107.2897526  69.9769177  71.0678421 107.1515425  70.1670773  70.1399610
 106.9333745  70.7388560  71.5246472 107.3166906  72.0445704  76.0789693
 107.7503412  71.9520994  76.9272747 108.0298486  72.0203205  75.4409709
  96.2299956  73.2629703  73.2610425  97.0240554  72.7680023  73.0593000
  95.5191648  72.7347566  72.8978131 101.0494800  75.6447799  77.6122793
 101.1031823  76.2138735  78.3800509 100.1809582  75.8149684  77.2476830
 108.1782455  72.0869405  78.6122578 108.3718345  72.9915216  78.8581853
 108.0783073  71.6276824  79.4461163  99.8318766  61.9727296  81.1112905
  99.1846681  62.6717245  81.0177382 100.6019781  62.4063440  81.4789153
 103.2397564  72.2376148  84.1863459 103.0883070  72.0086700  83.2693542
 103.2302243  73.1946749  84.1994804 100.0082900  69.8108061  79.1709725
 100.9374960  69.9619220  78.9978692  99.5873930  69.8992081  78.3158371
  98.8071232  73.8358725  76.9408263  98.6682318  73.4677509  77.8134201
  98.0185828  74.3506364  76.7692220  99.4019384  78.9367822  68.2833799
  99.5771140  78.4655865  69.0979422  98.7152172  79.5633588  68.5115060
 100.3576447  73.2140328  74.3297100 100.0226280  73.1741098  75.2254750
  99.8580393  72.5485044  73.8567511 103.2935639  70.5596362  64.6034160
 102.6764809  69.8343190  64.5067213 102.8252127  71.3205722  64.2601234
  96.9602992  68.3327917  79.3433361  97.6702610  67.6921109  79.3019980
  96.9172300  68.5840812  80.2659542 104.9489770  75.2695270  82.2639940
 104.8902317  74.5854491  81.5970523 105.3509289  76.0114260  81.8120566
  95.6731926  65.3193135  81.1629001  95.1369283  64.8683873  81.8150597
  95.0848634  65.4539044  80.4199465  93.9680469  82.0857184  75.0573659
  94.2077067  82.7175708  75.7352678  93.1249666  81.7345224  75.3439019
 104.9507178  73.2334854  80.4953920 104.0633956  72.8960776  80.6180319
 105.5205729  72.5017886  80.7322685  86.6036325  69.5658946  73.8196971
  87.2907365  69.2520676  73.2317987  86.4484454  70.4700311  73.5464223
  98.4808331  77.8936307  77.4615163  98.4078503  78.6991278  77.9734468
  98.0385724  78.0928273  76.6363185  98.2698111  77.1308077  70.9717985
  97.4865633  77.6729757  71.0656209  98.9690856  77.6482056  71.3712226
 101.5794761  62.9402706  73.6152190 102.0763460  62.1872669  73.2953260
 100.8081742  62.9767023  73.0495400 109.4324518  68.6443072  75.2570482
 109.4214394  69.5267787  74.8864415 108.5641898  68.2914623  75.0625019
 100.9407015  77.7923141  79.6173322 101.6534987  78.4270606  79.5449223
 100.4497043  77.8887007  78.8013324 102.6624542  71.6974393  71.1890614
 101.7280820  71.8175856  71.0195318 102.8401210  70.7946860  70.9250623
  98.1629730  65.0820089  73.3423875  97.7927517  64.5291130  74.0304780
  98.6588822  64.4778223  72.7898875 106.0497093  67.5391713  71.7240648
 106.5157545  68.3719704  71.6500950 106.5004593  67.0736694  72.4285906
  95.9918928  75.5417584  80.4378893  96.6928388  76.1754067  80.5908287
  95.5214043  75.8832316  79.6774532 104.1173324  73.8835534  68.7226800
 104.3933168  73.7692129  69.6320674 103.2477823  73.4853019  68.6838973
 104.0213756  59.9072300  75.7631549 103.1076835  60.1376527  75.9313756
 104.4506857  59.9910744  76.6145581 103.7920214  68.0962192  78.2631443
 103.1391664  68.3438099  77.6083896 104.1700594  67.2826330  77.9293920
 100.7527388  78.1321885  72.3659613 100.9349783  77.3143541  72.8287366
 101.5760374  78.3489577  71.9284503 101.0869553  77.0590070  69.6274662
 101.6157320  76.5482525  69.0144824 101.3497773  76.7432600  70.4920195
  99.8407787  68.8382003  84.7497480  99.1648424  68.7376132  85.4199855
 100.6635421  68.6821216  85.2133477  91.5886646  75.0753939  77.3709995
  92.1740083  74.3297627  77.5037900  91.3911485  75.3857896  78.2546659
  94.4425301  78.1105187  72.3872438  93.7735677  78.5951314  71.9036478
  94.3038171  78.3574407  73.3015816  86.1804301  67.6459539  76.0914439
  86.2188400  67.1123130  76.8851557  85.6744594  67.1194745  75.4725416
  98.5830570  80.1448930  78.9855096  99.1348878  80.3080552  79.7504181
  98.9236763  80.7353368  78.3135121  93.5595063  62.4924080  79.5876981
  93.6236390  63.3538911  79.1754379  93.4962183  61.8798082  78.8549339
  93.0347336  64.5647213  83.2350015  93.6619375  64.1824290  83.8487539
  92.1775255  64.3461414  83.6005708 103.4341444  74.9710188  84.8403751
 103.9781348  75.5840146  84.3458705 102.8528289  75.5289766  85.3570764
 101.7198957  78.0930906  75.9718778 101.5950097  77.2920646  75.4629724
 102.3778048  78.5877099  75.4832748 103.7833866  75.8939926  77.5998328
 102.8364201  75.7745277  77.5276655 104.1316639  75.0062424  77.6824590
  96.1433439  61.7834065  81.4236570  96.6667841  62.0296361  82.1862880
  95.9245772  62.6154100  81.0039708 100.7880299  75.6892642  73.8002681
 100.6405261  74.7609349  73.9810251 101.6133792  75.7112733  73.3159756
 104.3914421  76.5121201  74.8867553 105.3160968  76.3064062  74.7492005
 104.2229724  76.2637602  75.7956895  97.3485984  62.7247760  79.1086241
  97.0082804  61.9255573  79.5106921  96.6424990  63.0249471  78.5363074
  98.0002456  59.8097072  77.5613564  98.8228525  59.3357550  77.4392454
  98.2440519  60.5887556  78.0612250 100.7841813  63.5430480  68.7934798
 101.0005428  64.4255118  68.4923626 100.3035880  63.1516693  68.0640440
  97.3837418  63.4918741  75.4186432  97.3698986  62.5959834  75.0818730
  98.1009846  63.4989405  76.0524718  99.2363548  63.9256081  77.4639559
  98.9781326  64.8473152  77.4623890  98.7048589  63.5286516  78.1540024
 104.1809737  77.0306868  70.2429645 104.3546615  76.4653291  69.4903497
 104.6738628  77.8307763  70.0609135  89.9986697  69.0421537  78.3093204
  89.4540165  69.8181345  78.4413478  90.8766047  69.3892342  78.1512325
  99.6565504  60.0588032  73.8240722  99.6787201  60.1227365  72.8692702
 100.0733563  59.2192540  74.0181228 110.0349128  69.7943291  71.8619945
 110.4780274  69.0450616  71.4639068 109.1575638  69.7853427  71.4793677
 105.1684910  76.3473633  67.3426543 105.8635814  76.9680325  67.5613858
 105.5108060  75.4968984  67.6178921  90.7852719  68.1691434  81.2023361
  90.0434455  68.3174069  81.7887991  90.4645463  68.4299699  80.3390110
 107.0676333  73.7973338  68.8713874 107.5927657  74.1360611  68.1463194
 106.9798685  72.8620353  68.6877009  98.7296381  77.7107412  81.0003751
  99.0383508  77.4656559  81.8726450  99.5271863  77.9154050  80.5122621
  98.7516993  79.8645321  73.2309127  98.3121984  79.3721700  73.9241984
  99.5025110  79.3218289  72.9901202  91.2309332  76.0556862  73.2333755
  92.0567352  75.7560634  72.8532399  90.8803384  75.2864485  73.6823544
  96.1990866  75.4083330  75.3031429  95.5770875  74.7454036  75.0033657
  96.8695732  75.4344462  74.6205077  89.4317937  73.9743189  74.1922689
  88.5949846  73.5465363  74.0106690  89.4041583  74.1675632  75.1293480
  96.2715393  63.8865119  84.8963935  96.3203549  64.7627241  84.5141704
  96.8137907  63.3442512  84.3235578 106.7570239  74.4306242  84.1765072
 105.9665782  74.4130381  83.6369571 106.5203593  74.9694535  84.9314108
 106.8768114  71.2798708  81.4897800 106.9266119  71.1148716  82.4313323
 106.7682037  70.4125967  81.0995681  95.7604372  73.9587254  68.7789889
  95.9092493  74.6422718  68.1256562  96.5670816  73.9392344  69.2939345
 104.1671876  67.2629636  82.8057107 105.0681739  67.1236101  82.5141105
 104.2419851  67.4284091  83.7455285  98.5014681  64.6396491  81.6510293
  97.6317991  64.9330057  81.3792882  98.7374162  65.2236936  82.3717557
 108.3786311  73.6995650  81.7339822 108.0871119  74.0625630  82.5703283
 107.7658442  72.9862658  81.5553154 109.5781993  71.2648529  74.2542392
 110.4128884  71.7038334  74.4179953 109.7141122  70.7887183  73.4350638
 106.6273499  68.8228264  80.2019880 107.1027620  69.0155911  79.3938731
 105.7039064  68.8787450  79.9563264  93.5157005  69.9852431  69.7850958
  93.2703047  69.0814761  69.9831168  93.6852920  69.9869582  68.8430436
 101.2053715  60.8576108  79.1675714 101.7235659  61.5937135  78.8422202
 100.8508848  61.1640101  80.0022473 101.4566309  57.2776390  74.6876610
 101.7368063  56.6099579  75.3137037 102.2416916  57.4705486  74.1751274
  99.2599778  76.4535384  66.2501637  98.6873745  77.0725571  65.7972109
  99.8332572  77.0034746  66.7841559 105.3275168  65.6994024  78.4348186
 106.2792591  65.7992122  78.4560410 105.1578618  64.9072293  78.9446270
 103.3489547  62.7849608  78.6207586 102.7539479  63.0654620  77.9254075
 103.0639244  63.2743509  79.3924328 102.4797038  76.7372534  67.3810219
 103.4127711  76.6718096  67.5843095 102.3920251  77.5728801  66.9224752
 105.1085054  76.0538405  64.3414167 105.0298686  75.7198268  65.2349924
 105.9294721  76.5460173  64.3405639 107.8063246  68.9200144  77.5490485
 107.7739566  67.9816145  77.7350169 108.4163869  68.9984181  76.8156310
  99.6446576  67.7896197  63.5917689 100.5905681  67.6602405  63.6606107
  99.2660821  67.0510859  64.0687117 107.9557734  65.7111187  77.5948768
 107.4396783  64.9269644  77.4078697 108.8397683  65.3829904  77.7595288
 105.6168461  59.4552203  73.5544581 105.4193282  59.1467291  74.4387913
 106.2268167  60.1813842  73.6842511 113.6239795  69.9816151  76.6896522
 114.3543184  69.7201439  77.2504225 113.0146741  69.2444873  76.7298590
 111.7055093  68.1224013  77.2870973 110.9788256  67.9879978  76.6787465
 111.2902379  68.4300842  78.0927691  99.5285269  71.8413943  85.0518346
 100.4488278  72.0192542  85.2458393  99.4934852  70.8969989  84.8998045
  97.8289494  65.7146173  63.5272574  96.9220949  65.4179286  63.6035288
  98.1065475  65.4175992  62.6606861  99.4451559  60.2583063  69.6816816
  98.6352288  59.9130148  70.0572062 100.1335976  59.9490607  70.2704427
 101.3742108  59.3361110  71.3041112 101.9273146  59.7556563  71.9631135
 101.6112194  58.4096858  71.3464068  97.3975207  65.3248184  87.0843876
  97.2971934  66.2742541  87.0155967  97.1796749  64.9966422  86.2119946
  96.5988278  62.5733109  63.6684554  97.4607442  62.8988007  63.9280371
  96.7838622  61.7864605  63.1557619  88.6155694  70.6555448  75.9464742
  87.9219165  70.2409401  75.4334697  89.3628685  70.6975985  75.3498161
 104.7520915  61.4461635  70.8119777 104.1719584  62.1046439  70.4297829
 104.4856847  60.6238980  70.4007194 103.2024481  60.8466693  73.0141097
 103.7024259  60.9583227  72.2055416 103.8460089  60.5427746  73.6541905
  97.2606477  68.7545322  85.9008938  96.7773559  69.5545683  86.1072827
  97.3467416  68.7653267  84.9476382  90.5292437  70.5873702  73.8230757
  90.5063125  70.6861389  72.8712640  90.8393073  71.4338853  74.1447923
  93.1879814  72.6449857  77.9377372  94.1423068  72.6133799  77.8707303
  92.9892338  72.1840481  78.7527598  93.7779197  71.2150973  80.5048169
  94.5972086  71.7095052  80.5283007  94.0516004  70.2982941  80.4765737
 103.5345793  63.6061725  69.8676125 102.6471648  63.8911376  69.6496320
 103.9499782  63.4455489  69.0203402 106.8860329  63.6308246  73.5830464
 107.6620719  64.1204699  73.8555081 106.1608463  64.0566301  74.0402334
 109.3232888  64.3435866  74.6404405 109.9177378  64.1031602  73.9297713
 109.3959471  63.6242996  75.2677941  91.5430043  78.1869477  74.9547570
  91.4084511  77.4269878  74.3885568  91.1262105  78.9110376  74.4876358
 102.6789006  73.3706400  63.9624145 103.3824856  73.5756403  64.5781801
 101.9551655  73.9383162  64.2273228 103.5086816  69.1216261  70.0826415
 103.4522018  69.5784813  69.2434047 104.0615159  68.3606946  69.9049258
 107.3191622  64.9105993  70.9076535 107.0628557  64.5102629  71.7384742
 106.6944490  65.6249787  70.7826674 111.6303960  67.6502067  73.4147826
 111.0703518  67.7195256  74.1879388 111.0247464  67.4743051  72.6947322
  94.6999169  79.0838794  75.1666012  94.5831553  80.0284226  75.0644703
  93.8791615  78.7812355  75.5551811 104.5875704  73.8088929  66.0122605
 105.4221308  73.3770128  65.8300080 104.4260047  73.6370943  66.9399499
 104.2421596  70.3121043  67.3778944 104.1870400  70.1465314  66.4367388
 103.6167651  71.0197076  67.5341134  89.0314111  65.5489107  81.2040366
  89.6772974  65.0388061  81.6927592  88.8231262  66.2857789  81.7783792
 101.5567503  72.6169955  86.7032507 102.4258663  72.7910607  86.3419142
 101.0774254  73.4364371  86.5808236  97.5517721  59.8129152  66.9564263
  97.5396391  60.7570992  67.1132534  98.4441143  59.6299297  66.6623724
  95.7253683  79.7367056  78.3821941  96.6280930  79.7690666  78.6988436
  95.4991053  78.8067506  78.3968276  97.4807285  78.4898042  75.0432019
  96.5302916  78.4899904  74.9296392  97.7839771  77.7430777  74.5268054
 101.3669841  56.4071928  71.2110199 100.6002237  55.8530415  71.3566882
 101.7780546  56.4793797  72.0724351  93.3711602  62.6956724  85.3015381
  94.2343063  62.3393529  85.5118705  92.7977012  62.3570619  85.9890785
 113.2159979  84.3258580  76.1077782 113.8538389  84.2065328  75.4041122
 113.0980822  85.2739424  76.1665734 110.0249685  84.2786009  76.0439306
 109.6868197  84.1627073  75.1559841 110.8939453  83.8777174  76.0240313
 105.8836501  86.1321485  72.0336197 105.3201366  86.0411422  71.2652485
 105.7688896  85.3121389  72.5138690 110.5069468  85.4320860  82.0025512
 110.4958109  85.0373659  81.1306016 110.6690107  84.6986933  82.5959283
 103.4300933  87.6272677  74.8720418 104.2222225  87.2863501  74.4566717
 103.6697583  87.7367652  75.7922571 111.4636059  89.7992453  67.3450662
 110.8124039  90.3846533  66.9584676 112.2580422  90.3298648  67.4045700
 105.3891687  86.8881590  67.7437797 106.1622563  86.3410577  67.6050672
 105.7417085  87.7525839  67.9552258 107.2276729  88.2157972  80.9504696
 106.9366595  89.1203603  80.8351362 107.8633713  88.2574500  81.6648765
 108.1532936  85.5934821  77.5406056 108.7496508  85.3690843  76.8263018
 108.2107908  84.8519566  78.1431503 107.7257964  83.0474256  65.3756247
 107.9783485  82.5255777  64.6139710 106.7882523  82.8840401  65.4782930
 112.7701247  82.0510034  73.1830990 113.5564336  81.6329457  72.8321407
 113.0339952  82.9556127  73.3512638 112.9411325  87.4882885  67.8819647
 112.3057158  87.5617511  68.5940551 112.6108731  88.0776483  67.2038726
 118.1709674  81.9885268  74.0863968 118.9034846  81.4184484  74.3201798
 117.4149030  81.6006868  74.5270474 107.4454253  84.9502362  67.5780621
 107.3290511  84.2747265  68.2461706 107.5556513  84.4634736  66.7612775
 109.7885794  84.4112509  71.2827311 109.4244001  83.8843130  71.9940232
 110.6452910  84.0210978  71.1093796 115.6935095  75.7006842  78.5458577
 115.3618419  76.5702253  78.3219792 115.0980708  75.3843126  79.2252607
 109.4291281  79.4402409  66.2788659 109.5965683  80.3082645  66.6459130
 109.2388450  79.6029690  65.3549948 112.1866614  87.9019388  77.9454490
 111.8867337  88.8044426  77.8370297 111.8417674  87.6351571  78.7975642
 105.6379096  84.3533184  73.9791194 104.7129592  84.2209399  74.1868886
 105.8863509  85.1327404  74.4761136 115.5863758  80.4201928  75.6251927
 114.6780635  80.3517336  75.3310688 115.5351354  80.8973873  76.4533752
 109.4080502  81.8960066  67.2635326 109.2880127  82.3417117  68.1020806
 108.7133090  82.2445384  66.7048864 102.9987907  83.9966458  74.8134983
 103.1280288  84.2500937  75.7274395 102.3185358  84.5894166  74.4939638
 107.1687394  94.6663708  70.9125457 107.0911424  95.6171533  70.9913938
 106.5649038  94.3209580  71.5700384 109.6604624  81.8391573  83.5686824
 108.8837958  82.3985494  83.5589689 110.2995187  82.3248356  84.0901694
 117.4525404  78.6218366  77.4029801 116.8099785  78.9150899  76.7569595
 116.9480333  78.5071287  78.2082997 115.1065568  82.3681539  68.0915660
 116.0183424  82.6008926  67.9163358 114.5975215  82.9518584  67.5290739
 107.9150996  84.6477027  83.1304791 108.6565680  85.1862071  82.8539615
 107.2087982  85.2743316  83.2876343 113.3906336  86.7906167  81.7276953
 113.7989692  86.3488578  80.9831585 112.6683597  86.2158795  81.9811146
 109.7437406  81.7278774  79.1010510 110.5898601  82.1518188  79.2445159
 109.6836043  81.0712398  79.7949073 113.7135150  87.3507358  75.4829242
 113.0844013  87.5153072  74.7805309 113.3260812  87.7648967  76.2540206
 117.5924382  88.2861796  72.8373605 116.9075420  88.6660697  72.2870639
 117.6768232  88.8957122  73.5705553 112.8936851  79.3883142  80.7591683
 112.6497783  80.1425203  80.2225959 113.1696782  79.7668490  81.5938930
 114.8475314  85.9321755  79.4368949 115.0592209  86.5753515  78.7603330
 114.8005062  85.0984071  78.9690879 112.4501543  78.5439575  76.3405521
 111.5886022  78.8420829  76.6322259 112.4763977  78.7609974  75.4086554
 109.2663112  87.0881766  72.7479327 109.7301458  87.3669469  71.9583949
 109.0019910  86.1865211  72.5652417 106.1587193  86.6353247  75.6859090
 106.7288550  87.0640516  75.0476574 106.7495305  86.3535832  76.3843276
 108.2031998  83.2104918  69.5568892 108.9056042  83.6625962  70.0242818
 107.8712627  82.5688737  70.1848785 106.6512360  81.8016675  83.9320101
 106.0211020  82.4832956  84.1655498 106.5448448  81.6899757  82.9873239
 101.9457332  81.4688471  74.8586025 101.1556386  81.7245999  74.3826136
 102.4368580  82.2836809  74.9638066 115.9621142  88.8093710  77.6091306
 116.7838586  88.4073897  77.3273988 115.9583545  88.7061944  78.5607422
 103.8972078  81.8333050  71.8169502 103.1003241  81.9451744  72.3352998
 103.6697670  82.1719702  70.9510393 109.7277745  88.3577753  79.7652017
 109.7922178  88.8198161  80.6010189 109.0188669  87.7275118  79.8934327
 100.2295035  81.7218961  77.2901016 100.4803074  82.6065971  77.5558592
 100.7654584  81.5423563  76.5176108 109.4425763  90.0245861  69.6330997
 109.3071438  90.8697397  70.0615845 109.9835575  90.2265139  68.8696931
 105.9293103  76.1037441  86.2945352 105.5360048  75.5503639  86.9692996
 106.7459243  76.4148019  86.6851870 102.8955160  87.5421299  70.2058922
 103.4079681  88.3364549  70.3564487 103.5477873  86.8447589  70.1392524
 104.7050045  90.6587055  72.2881675 104.8816673  91.5805020  72.1002659
 105.5006879  90.3445474  72.7176055 108.8461064  77.5195320  83.8865609
 109.5870777  78.1202473  83.8070071 109.0778986  76.7772958  83.3283651
 103.9902402  82.7051687  82.1643838 103.8755917  81.8036944  82.4650937
 103.1346919  82.9515384  81.8128655 111.0694239  90.6469427  83.7631339
 110.6258093  89.8605806  83.4452244 111.7311453  90.8348578  83.0975230
 105.8281360  92.1765229  78.2892018 106.3788786  92.0482292  77.5169012
 104.9892836  92.4760118  77.9386910 113.1675477  90.9272227  81.7912740
 113.1493953  91.7481108  81.2993010 114.0895397  90.8026303  82.0162882
 109.6248532  88.4416357  82.6336249 110.1576868  87.6804645  82.4035557
 109.0962613  88.1490009  83.3760403 112.7918226  73.5476423  78.1629890
 112.4482496  74.4378064  78.0869001 113.1597189  73.3578080  77.2999475
 100.8604077  85.8709953  70.9818493 101.6979299  86.2806962  70.7652200
 101.0382345  84.9309395  70.9518687 112.7568509  83.5385034  66.6702326
 112.2415133  84.3089639  66.9090713 112.4845818  82.8650170  67.2935387
 110.3415620  78.3834735  71.7287564 109.4857217  77.9941585  71.5493203
 110.7542572  78.4626695  70.8687349 111.8714767  75.9181078  76.1279124
 111.3679562  75.8811213  75.3146929 112.1645374  76.8273821  76.1875780
 108.1157653  76.0019808  75.1345305 108.9810650  75.8062616  74.7751195
 108.1835162  75.7730159  76.0614662 117.7302783  86.2917389  68.6055499
 116.9532226  85.9528548  68.1610661 118.4094264  86.2970012  67.9310464
 112.5454812  81.4112126  68.4962107 112.2404948  81.7258275  69.3472250
 113.4985255  81.4893546  68.5389440 110.9901244  87.5702349  70.1455061
 110.4622606  86.8355109  69.8328298 110.4888747  88.3477026  69.8995029
 115.9694090  85.7651370  75.2622107 115.3117765  86.4550631  75.3502236
 116.7734489  86.1547802  75.6056093 105.7219972  78.2322016  72.5061672
 106.2963724  78.0097197  71.7734865 106.3090954  78.3010710  73.2590274
 114.7799549  84.1195742  73.3126049 115.2931431  84.7525734  73.8147759
 115.4300773  83.5196938  72.9469409 106.0489559  80.2626477  66.5257558
 105.2126871  80.6001163  66.8466832 105.9094329  80.1275456  65.5884695
 108.0242640  75.1063265  71.2336742 107.3707052  74.7912282  70.6093356
 107.9823114  74.4839005  71.9596565 109.1353844  85.3882560  63.1490034
 108.2280906  85.1571813  63.3481183 109.6324876  84.5920179  63.3364015
 112.0421923  94.0980067  66.0686720 111.3683622  94.4011764  66.6771678
 112.4287745  94.9009147  65.7192177 111.2580380  81.5945198  75.5584389
 110.3402941  81.8160145  75.4006077 111.6740524  81.6691509  74.6996097
 112.0415428  82.9936614  70.6887070 112.7887247  83.5058011  70.3794192
 112.3107017  82.6720666  71.5491463 110.3142078  85.4895154  67.6714024
 109.4053297  85.2054187  67.7686494 110.3437162  85.9094233  66.8117331
 115.5461345  89.1001744  71.4405191 115.0923672  88.2592654  71.4970382
 114.9155312  89.7363142  71.7779972 114.4894265  80.0293730  72.6705859
 113.7517022  79.5171116  73.0016101 114.7421038  79.5894112  71.8589136
 113.9894285  90.9378241  72.3755010 114.2817259  91.4983298  71.6567375
 114.4992905  91.2306802  73.1308169 114.5905892  72.8069982  73.2647628
 114.8964769  71.9467345  72.9773543 115.3158497  73.3987602  73.0646622
 100.8830248  83.2100669  71.6529226 100.6854648  82.6170029  70.9280293
 100.3276912  82.9052879  72.3705165 108.8626972  83.1023775  73.7723819
 108.9175582  82.1497611  73.6966296 108.0518174  83.2583214  74.2565118
 110.0118166  87.0303898  65.0102102 109.5737596  86.3139757  64.5507740
 110.7528607  87.2580013  64.4487194 106.8019332  81.7200835  71.5314198
 105.9887197  82.0195005  71.9379390 107.2978326  81.3256524  72.2488680
 108.9527910  91.7158592  73.4648463 108.9104088  91.9419438  72.5356995
 109.8690609  91.4821966  73.6134264 112.3993543  82.1842659  80.3629092
 112.7542931  82.4114132  81.2223558 113.0465675  82.5161036  79.7406347
 118.1291280  85.3061095  71.0678421 117.9909179  85.4962691  70.1399610
 117.7727499  86.0680478  71.5246472 106.2933407  79.2919190  77.1475433
 106.9332786  79.1507949  76.4498396 105.4610937  79.0053704  76.7714035
 118.1560660  87.3737622  76.0789693 118.5897167  87.2812911  76.9272747
 118.8692241  87.3495123  75.4409709 107.0693710  88.5921621  73.2610425
 107.8634309  88.0971941  73.0593000 106.3585403  88.0639484  72.8978131
 111.8888555  90.9739716  77.6122793 111.9425577  91.5430653  78.3800509
 111.0203336  91.1441601  77.2476830 103.3776474  82.7364702  69.3370178
 102.4474062  82.6749158  69.5540140 103.4733946  82.2140655  68.5406819
 103.2962023  79.2619515  71.9248420 103.5568840  80.1764849  71.8157580
 104.1179195  78.7943958  72.0745033 104.7686948  80.6757272  79.0947244
 105.4410002  80.4674635  78.4459893 103.9416735  80.4779358  78.6552477
 119.0176210  87.4161323  78.6122578 119.2112100  88.3207133  78.8581853
 118.9176828  86.9568742  79.4461163 110.6712520  77.3019213  81.1112905
 110.0240435  78.0009163  81.0177382 111.4413536  77.7355357  81.4789153
 114.0791318  87.5668066  84.1863459 113.9276825  87.3378617  83.2693542
 114.0695998  88.5238667  84.1994804 110.8476655  85.1399978  79.1709725
 111.7768715  85.2911138  78.9978692 110.4267685  85.2283999  78.3158371
 109.6464986  89.1650643  76.9408263 109.5076072  88.7969427  77.8134201
 108.8579583  89.6798282  76.7692220 110.2413138  94.2659739  68.2833799
 110.4164894  93.7947782  69.0979422 109.5545926  94.8925505  68.5115060
 111.1970202  88.5432245  74.3297100 110.8620034  88.5033015  75.2254750
 110.6974147  87.8776961  73.8567511 105.1714446  83.9499875  79.8549682
 105.0334244  83.2180114  80.4561221 106.0819369  83.8608776  79.5733869
 114.1329393  85.8888280  64.6034160 113.5158564  85.1635108  64.5067213
 113.6645882  86.6497640  64.2601234 107.7996746  83.6619835  79.3433361
 108.5096365  83.0213027  79.3019980 107.7566054  83.9132730  80.2659542
 115.7883525  90.5987188  82.2639940 115.7296071  89.9146408  81.5970523
 116.1903043  91.3406178  81.8120566 106.5125680  80.6485053  81.1629001
 105.9763037  80.1975791  81.8150597 105.9242389  80.7830961  80.4199465
 104.8074224  97.4149102  75.0573659 105.0470822  98.0467626  75.7352678
 103.9643420  97.0637142  75.3439019 105.9227939  80.1073704  63.7255464
 105.0457405  79.9862505  63.3617711 106.3985692  79.3159782  63.4734353
 115.7900932  88.5626772  80.4953920 114.9027711  88.2252694  80.6180319
 116.3599483  87.8309803  80.7322685  97.4430079  84.8950864  73.8196971
  98.1301119  84.5812594  73.2317987  97.2878208  85.7992228  73.5464223
 102.2464801  79.7841060  78.2481995 102.1622990  79.1766730  77.5132405
 101.4247508  80.2750079  78.2491491 109.3202086  93.2228224  77.4615163
 109.2472257  94.0283196  77.9734468 108.8779479  93.4220190  76.6363185
 109.1091865  92.4599994  70.9717985 108.3259387  93.0021675  71.0656209
 109.8084610  92.9773974  71.3712226 112.4188515  78.2694624  73.6152190
 112.9157215  77.5164586  73.2953260 111.6475497  78.3058941  73.0495400
 120.2718273  83.9734989  75.2570482 120.2608149  84.8559705  74.8864415
 119.4035652  83.6206540  75.0625019 111.7800769  93.1215058  79.6173322
 112.4928741  93.7562523  79.5449223 111.2890798  93.2178924  78.8013324
 113.5018296  87.0266311  71.1890614 112.5674575  87.1467774  71.0195318
 113.6794964  86.1238778  70.9250623 109.0023484  80.4112007  73.3423875
 108.6321272  79.8583047  74.0304780 109.4982577  79.8070140  72.7898875
 116.8890847  82.8683630  71.7240648 117.3551300  83.7011622  71.6500950
 117.3398348  82.4028612  72.4285906 106.8312683  90.8709502  80.4378893
 107.5322142  91.5045985  80.5908287 106.3607798  91.2124233  79.6774532
 114.9567078  89.2127452  68.7226800 115.2326922  89.0984046  69.6320674
 114.0871577  88.8144937  68.6838973 114.8607510  75.2364217  75.7631549
 113.9470590  75.4668444  75.9313756 115.2900612  75.3202661  76.6145581
 114.6313969  83.4254109  78.2631443 113.9785419  83.6730017  77.6083896
 115.0094349  82.6118248  77.9293920 111.5921142  93.4613803  72.3659613
 111.7743537  92.6435458  72.8287366 112.4154129  93.6781495  71.9284503
 111.9263308  92.3881988  69.6274662 112.4551074  91.8774442  69.0144824
 112.1891528  92.0724518  70.4920195 110.6801542  84.1673920  84.7497480
 110.0042179  84.0668050  85.4199855 111.5029176  84.0113134  85.2133477
 102.4280401  90.4045857  77.3709995 103.0133838  89.6589545  77.5037900
 102.2305239  90.7149814  78.2546659 105.2819056  93.4397104  72.3872438
 104.6129431  93.9243232  71.9036478 105.1431926  93.6866325  73.3015816
  97.0198055  82.9751457  76.0914439  97.0582155  82.4415048  76.8851557
  96.5138348  82.4486663  75.4725416 109.4224325  95.4740848  78.9855096
 109.9742633  95.6372469  79.7504181 109.7630518  96.0645286  78.3135121
 104.3988818  77.8215998  79.5876981 104.4630144  78.6830829  79.1754379
 104.3355938  77.2089999  78.8549339 103.8741090  79.8939130  83.2350015
 104.5013129  79.5116208  83.8487539 103.0169009  79.6753332  83.6005708
 114.2735199  90.3002105  84.8403751 114.8175103  90.9132064  84.3458705
 113.6922044  90.8581684  85.3570764 100.6506633  81.7015559  69.1668370
 100.9460074  80.7926238  69.1135424  99.7494669  81.6803299  68.8449372
 112.5592712  93.4222823  75.9718778 112.4343851  92.6212563  75.4629724
 113.2171803  93.9169017  75.4832748 104.1800880  79.7771556  75.1495919
 103.4587466  80.3907524  75.0103392 104.9694136  80.3129321  75.0712565
 114.6227620  91.2231843  77.5998328 113.6757956  91.1037195  77.5276655
 114.9710393  90.3354342  77.6824590 106.9827194  77.1125982  81.4236570
 107.5061595  77.3588279  82.1862880 106.7639527  77.9446017  81.0039708
 102.3794475  79.3829657  69.2907695 102.0507181  78.5027036  69.1082801
 102.7333845  79.3277326  70.1784084 111.6274053  91.0184560  73.8002681
 111.4799016  90.0901267  73.9810251 112.4527547  91.0404650  73.3159756
 105.4936298  79.6702627  69.6583173 105.8332370  80.1988548  68.9361781
 105.9408418  80.0083033  70.4341739 115.2308175  91.8413118  74.8867553
 116.1554723  91.6355980  74.7492005 115.0623479  91.5929520  75.7956895
 108.1879739  78.0539678  79.1086241 107.8476559  77.2547491  79.5106921
 107.4818745  78.3541388  78.5363074 108.8396210  75.1388990  77.5613564
 109.6622280  74.6649468  77.4392454 109.0834274  75.9179474  78.0612250
 107.4804445  78.1677248  67.8576466 108.2012807  78.5458501  67.3540182
 106.8569749  78.8866125  67.9611444 111.6235568  78.8722397  68.7934798
 111.8399182  79.7547035  68.4923626 111.1429635  78.4808611  68.0640440
 106.3634789  81.8308111  75.3705542 106.2179370  82.1448414  76.2629824
 105.8859993  82.4493011  74.8176441 108.2231172  78.8210659  75.4186432
 108.2092741  77.9251752  75.0818730 108.9403600  78.8281322  76.0524718
 110.0757303  79.2547999  77.4639559 109.8175081  80.1765069  77.4623890
 109.5442343  78.8578433  78.1540024 115.0203492  92.3598786  70.2429645
 115.1940369  91.7945208  69.4903497 115.5132383  93.1599681  70.0609135
 100.8380451  84.3713455  78.3093204 100.2933919  85.1473263  78.4413478
 101.7159801  84.7184259  78.1512325 107.6268068  77.7025039  70.6874002
 107.7483979  76.7741685  70.8864890 107.3370110  77.7163725  69.7752318
 110.4959258  75.3879949  73.8240722 110.5180955  75.4519282  72.8692702
 110.9127317  74.5484458  74.0181228 120.8742883  85.1235209  71.8619945
 121.3174029  84.3742534  71.4639068 119.9969393  85.1145345  71.4793677
 116.0078664  91.6765550  67.3426543 116.7029569  92.2972243  67.5613858
 116.3501814  90.8260901  67.6178921 101.6246473  83.4983351  81.2023361
 100.8828209  83.6465987  81.7887991 101.3039217  83.7591617  80.3390110
 117.9070087  89.1265256  68.8713874 118.4321411  89.4652529  68.1463194
 117.8192440  88.1912271  68.6877009 109.5690136  93.0399329  81.0003751
 109.8777262  92.7948476  81.8726450 110.3665618  93.2445968  80.5122621
 109.5910748  95.1937239  73.2309127 109.1515738  94.7013618  73.9241984
 110.3418865  94.6510207  72.9901202 102.0703087  91.3848780  73.2333755
 102.8961107  91.0852552  72.8532399 101.7197139  90.6156402  73.6823544
 107.0384620  90.7375248  75.3031429 106.4164629  90.0745953  75.0033657
 107.7089487  90.7636380  74.6205077 100.2711692  89.3035106  74.1922689
  99.4343600  88.8757281  74.0106690 100.2435337  89.4967550  75.1293480
 107.1109148  79.2157036  84.8963935 107.1597303  80.0919159  84.5141704
 107.6531662  78.6734429  84.3235578 117.5963993  89.7598159  84.1765072
 116.8059537  89.7422298  83.6369571 117.3597348  90.2986453  84.9314108
 117.7161868  86.6090626  81.4897800 117.7659873  86.4440633  82.4313323
 117.6075792  85.7417885  81.0995681 106.5998127  89.2879172  68.7789889
 106.7486247  89.9714636  68.1256562 107.4064570  89.2684262  69.2939345
 115.0065631  82.5921554  82.8057107 115.9075493  82.4528019  82.5141105
 115.0813605  82.7576009  83.7455285 109.3408436  79.9688409  81.6510293
 108.4711745  80.2621975  81.3792882 109.5767916  80.5528854  82.3717557
 119.2180065  89.0287567  81.7339822 118.9264873  89.3917548  82.5703283
 118.6052196  88.3154576  81.5553154 120.4175747  86.5940447  74.2542392
 121.2522639  87.0330251  74.4179953 120.5534876  86.1179100  73.4350638
 117.4667253  84.1520182  80.2019880 117.9421375  84.3447828  79.3938731
 116.5432819  84.2079368  79.9563264 104.3550760  85.3144349  69.7850958
 104.1096802  84.4106679  69.9831168 104.5246674  85.3161500  68.8430436
 112.0447470  76.1868026  79.1675714 112.5629414  76.9229052  78.8422202
 111.6902603  76.4932019  80.0022473 103.6246407  81.0472707  67.2837120
 102.9315652  81.1217062  66.6277156 103.3798159  80.2833050  67.8058637
 112.2960064  72.6068308  74.6876610 112.5761818  71.9391497  75.3137037
 113.0810671  72.7997404  74.1751274 110.0993532  91.7827302  66.2501637
 109.5267500  92.4017489  65.7972109 110.6726326  92.3326664  66.7841559
 116.1668922  81.0285942  78.4348186 117.1186345  81.1284040  78.4560410
 115.9972373  80.2364211  78.9446270 114.1883302  78.1141525  78.6207586
 113.5933234  78.3946538  77.9254075 113.9032998  78.6035426  79.3924328
 113.3190792  92.0664452  67.3810219 114.2521465  92.0010014  67.5843095
 113.2314005  92.9020719  66.9224752 115.9478809  91.3830322  64.3414167
 115.8692440  91.0490186  65.2349924 116.7688476  91.8752090  64.3405639
 118.6457000  84.2492062  77.5490485 118.6133320  83.3108062  77.7350169
 119.2557624  84.3276098  76.8156310 110.4840331  83.1188115  63.5917689
 111.4299436  82.9894323  63.6606107 110.1054576  82.3802777  64.0687117
 118.7951489  81.0403105  77.5948768 118.2790537  80.2561562  77.4078697
 119.6791437  80.7121822  77.7595288 116.4562216  74.7844121  73.5544581
 116.2587037  74.4759209  74.4387913 117.0661921  75.5105760  73.6842511
 110.3679023  87.1705861  85.0518346 111.2882033  87.3484460  85.2458393
 110.3328607  86.2261906  84.8998045 108.6683248  81.0438091  63.5272574
 107.7614704  80.7471204  63.6035288 108.9459229  80.7467909  62.6606861
  99.5861188  82.3644455  73.9771621  99.2663973  81.5109763  73.6845995
  99.0394617  82.5793033  74.7329588 103.3641096  85.0806896  77.6941127
 103.5827106  86.0124003  77.7129161 103.7766870  84.7214870  78.4795931
 110.2845314  75.5874981  69.6816816 109.4746042  75.2422066  70.0572062
 110.9729731  75.2782525  70.2704427 112.2135862  74.6653028  71.3041112
 112.7666901  75.0848481  71.9631135 112.4505948  73.7388776  71.3464068
 108.2368961  80.6540101  87.0843876 108.1365688  81.6034458  87.0155967
 108.0190503  80.3258340  86.2119946 107.4382033  77.9025026  63.6684554
 108.3001197  78.2279925  63.9280371 107.6232377  77.1156522  63.1557619
  99.4549448  85.9847366  75.9464742  98.7612920  85.5701319  75.4334697
 100.2022440  86.0267903  75.3498161 115.5914669  76.7753553  70.8119777
 115.0113338  77.4338357  70.4297829 115.3250602  75.9530897  70.4007194
 114.0418236  76.1758610  73.0141097 114.5418014  76.2875145  72.2055416
 114.6853844  75.8719663  73.6541905 108.1000231  84.0837240  85.9008938
 107.6167313  84.8837600  86.1072827 108.1861170  84.0945185  84.9476382
 101.3686191  85.9165620  73.8230757 101.3456879  86.0153307  72.8712640
 101.6786828  86.7630771  74.1447923 104.0273569  87.9741775  77.9377372
 104.9816822  87.9425717  77.8707303 103.8286092  87.5132399  78.7527598
 104.6172951  86.5442891  80.5048169 105.4365840  87.0386970  80.5283007
 104.8909759  85.6274859  80.4765737 114.3739547  78.9353643  69.8676125
 113.4865402  79.2203294  69.6496320 114.7893536  78.7747407  69.0203402
 117.7254083  78.9600164  73.5830464 118.5014473  79.4496617  73.8555081
 117.0002218  79.3858218  74.0402334 120.1626642  79.6727783  74.6404405
 120.7571133  79.4323519  73.9297713 120.2353226  78.9534914  75.2677941
 102.3823798  93.5161394  74.9547570 102.2478266  92.7561795  74.3885568
 101.9655860  94.2402294  74.4876358 113.5182761  88.6998318  63.9624145
 114.2218611  88.9048320  64.5781801 112.7945409  89.2675080  64.2273228
 114.3480571  84.4508179  70.0826415 114.2915772  84.9076731  69.2434047
 114.9008913  83.6898864  69.9049258 118.1585377  80.2397911  70.9076535
 117.9022311  79.8394547  71.7384742 117.5338245  80.9541705  70.7826674
 122.4697715  82.9793984  73.4147826 121.9097273  83.0487174  74.1879388
 121.8641218  82.8034969  72.6947322 105.5392924  94.4130711  75.1666012
 105.4225308  95.3576144  75.0644703 104.7185370  94.1104273  75.5551811
 115.4269458  89.1380847  66.0122605 116.2615062  88.7062046  65.8300080
 115.2653801  88.9662861  66.9399499 115.0815350  85.6412960  67.3778944
 115.0264154  85.4757232  66.4367388 114.4561406  86.3488993  67.5341134
  99.8707865  80.8781025  81.2040366 100.5166729  80.3679979  81.6927592
  99.6625016  81.6149706  81.7783792 112.3961257  87.9461872  86.7032507
 113.2652417  88.1202524  86.3419142 111.9168009  88.7656289  86.5808236
 108.3911476  75.1421069  66.9564263 108.3790146  76.0862909  67.1132534
 109.2834898  74.9591215  66.6623724 106.5647438  95.0658973  78.3821941
 107.4674684  95.0982583  78.6988436 106.3384808  94.1359424  78.3968276
 108.3201040  93.8189960  75.0432019 107.3696671  93.8191821  74.9296392
 108.6233526  93.0722694  74.5268054 112.2063595  71.7363846  71.2110199
 111.4395991  71.1822333  71.3566882 112.6174300  71.8085715  72.0724351
 104.2105356  78.0248642  85.3015381 105.0736818  77.6685447  85.5118705
 103.6370767  77.6862537  85.9890785 120.8643439  99.6077926  76.0439306
 120.5261951  99.4918991  75.1559841 121.7333208  99.2069091  76.0240313
 116.7230255 101.4613403  72.0336197 116.1595120 101.3703340  71.2652485
 116.6082650 100.6413307  72.5138690 121.3463222 100.7612778  82.0025512
 121.3351863 100.3665576  81.1306016 121.5083862 100.0278851  82.5959283
 114.2694687 102.9564594  74.8720418 115.0615979 102.6155419  74.4566717
 114.5091337 103.0659569  75.7922571 116.2285441 102.2173508  67.7437797
 117.0016317 101.6702495  67.6050672 116.5810840 103.0817757  67.9552258
 118.0670484 103.5449890  80.9504696 117.7760350 104.4495521  80.8351362
 118.7027468 103.5866417  81.6648765 118.9926690 100.9226738  77.5406056
 119.5890263 100.6982761  76.8263018 119.0501662 100.1811484  78.1431503
 118.5651719  98.3766174  65.3756247 118.8177240  97.8547695  64.6139710
 117.6276278  98.2132319  65.4782930 118.2848008 100.2794280  67.5780621
 118.1684266  99.6039183  68.2461706 118.3950268  99.7926654  66.7612775
 120.6279549  99.7404427  71.2827311 120.2637756  99.2135048  71.9940232
 121.4846664  99.3502896  71.1093796 120.2685036  94.7694326  66.2788659
 120.4359438  95.6374563  66.6459130 120.0782205  94.9321608  65.3549948
 116.4772850  99.6825102  73.9791194 115.5523347  99.5501316  74.1868886
 116.7257263 100.4619321  74.4761136 120.2474256  97.2251984  67.2635326
 120.1273882  97.6709035  68.1020806 119.5526845  97.5737302  66.7048864
 113.8381661  99.3258376  74.8134983 113.9674042  99.5792855  75.7274395
 113.1579113  99.9186084  74.4939638 120.4998378  97.1683491  83.5686824
 119.7231712  97.7277411  83.5589689 121.1388941  97.6540274  84.0901694
 118.7544751  99.9768944  83.1304791 119.4959435 100.5153988  82.8539615
 118.0481736 100.6035233  83.2876343 120.5831160  97.0570692  79.1010510
 121.4292355  97.4810105  79.2445159 120.5229798  96.4004316  79.7949073
 120.1056867 102.4173684  72.7479327 120.5695212 102.6961387  71.9583949
 119.8413665 101.5157128  72.5652417 116.9980948 101.9645165  75.6859090
 117.5682305 102.3932434  75.0476574 117.5889060 101.6827750  76.3843276
 119.0425753  98.5396836  69.5568892 119.7449796  98.9917880  70.0242818
 118.7106381  97.8980655  70.1848785 117.4906114  97.1308593  83.9320101
 116.8604775  97.8124873  84.1655498 117.3842202  97.0191674  82.9873239
 112.7851087  96.7980389  74.8586025 111.9950141  97.0537917  74.3826136
 113.2762334  97.6128726  74.9638066 114.7365832  97.1624968  71.8169502
 113.9396995  97.2743662  72.3352998 114.5091424  97.5011620  70.9510393
 120.5671500 103.6869671  79.7652017 120.6315932 104.1490078  80.6010189
 119.8582424 103.0567036  79.8934327 111.0688790  97.0510879  77.2901016
 111.3196828  97.9357889  77.5558592 111.6048338  96.8715481  76.5176108
 120.2819517 105.3537779  69.6330997 120.1465192 106.1989314  70.0615845
 120.8229330 105.5557056  68.8696931 116.7686857  91.4329358  86.2945352
 116.3753803  90.8795557  86.9692996 117.5852997  91.7439937  86.6851870
 113.7348915 102.8713217  70.2058922 114.2473435 103.6656467  70.3564487
 114.3871628 102.1739507  70.1392524 115.5443800 105.9878973  72.2881675
 115.7210428 106.9096938  72.1002659 116.3400633 105.6737392  72.7176055
 119.6854818  92.8487238  83.8865609 120.4264531  93.4494391  83.8070071
 119.9172741  92.1064875  83.3283651 114.8296156  98.0343605  82.1643838
 114.7149671  97.1328862  82.4650937 113.9740674  98.2807302  81.8128655
 116.6675115 107.5057147  78.2892018 117.2182540 107.3774210  77.5169012
 115.8286591 107.8052036  77.9386910 120.4642286 103.7708275  82.6336249
 120.9970623 103.0096563  82.4035557 119.9356367 103.4781926  83.3760403
 111.6997832 101.2001871  70.9818493 112.5373054 101.6098879  70.7652200
 111.8776099 100.2601313  70.9518687 121.1809375  93.7126652  71.7287564
 120.3250971  93.3233503  71.5493203 121.5936327  93.7918613  70.8687349
 118.9551407  91.3311725  75.1345305 119.8204404  91.1354534  74.7751195
 119.0228916  91.1022077  76.0614662 121.8294999 102.8994267  70.1455061
 121.3016360 102.1647027  69.8328298 121.3282501 103.6768943  69.8995029
 116.5613726  93.5613933  72.5061672 117.1357478  93.3389115  71.7734865
 117.1484709  93.6302628  73.2590274 116.8883313  95.5918394  66.5257558
 116.0520626  95.9293081  66.8466832 116.7488083  95.4567374  65.5884695
 118.8636394  90.4355182  71.2336742 118.2100806  90.1204199  70.6093356
 118.8216868  89.8130923  71.9596565 119.9747599 100.7174477  63.1490034
 119.0674661 100.4863731  63.3481183 120.4718631  99.9212097  63.3364015
 121.1535832 100.8187072  67.6714024 120.2447052 100.5346105  67.7686494
 121.1830916 101.2386151  66.8117331 111.7224003  98.5392586  71.6529226
 111.5248403  97.9461947  70.9280293 111.1670667  98.2344796  72.3705165
 119.7020726  98.4315693  73.7723819 119.7569336  97.4789529  73.6966296
 118.8911928  98.5875132  74.2565118 120.8511920 102.3595816  65.0102102
 120.4131350 101.6431675  64.5507740 121.5922361 102.5871931  64.4487194
 117.6413086  97.0492752  71.5314198 116.8280952  97.3486923  71.9379390
 118.1372080  96.6548441  72.2488680 117.1327161  94.6211108  77.1475433
 117.7726540  94.4799867  76.4498396 116.3004692  94.3345621  76.7714035
 117.9087465 103.9213538  73.2610425 118.7028063 103.4263859  73.0593000
 117.1979157 103.3931402  72.8978131 114.2170228  98.0656620  69.3370178
 113.2867817  98.0041076  69.5540140 114.3127700  97.5432573  68.5406819
 114.1355777  94.5911433  71.9248420 114.3962595  95.5056766  71.8157580
 114.9572950  94.1235876  72.0745033 115.6080703  96.0049190  79.0947244
 116.2803756  95.7966552  78.4459893 114.7810489  95.8071276  78.6552477
 121.5106275  92.6311131  81.1112905 120.8634190  93.3301081  81.0177382
 122.2807290  93.0647275  81.4789153 120.4858741 104.4942560  76.9408263
 120.3469827 104.1261345  77.8134201 119.6973337 105.0090200  76.7692220
 122.0363956 103.8724163  74.3297100 121.7013789 103.8324933  75.2254750
 121.5367902 103.2068879  73.8567511 116.0108200  99.2791793  79.8549682
 115.8727998  98.5472032  80.4561221 116.9213124  99.1900693  79.5733869
 118.6390501  98.9911752  79.3433361 119.3490119  98.3504945  79.3019980
 118.5959809  99.2424647  80.2659542 117.3519435  95.9776970  81.1629001
 116.8156792  95.5267709  81.8150597 116.7636143  96.1122879  80.4199465
 116.7621694  95.4365622  63.7255464 115.8851160  95.3154423  63.3617711
 117.2379447  94.6451700  63.4734353 108.2823834 100.2242781  73.8196971
 108.9694874  99.9104512  73.2317987 108.1271962 101.1284146  73.5464223
 113.0858556  95.1132978  78.2481995 113.0016745  94.5058648  77.5132405
 112.2641262  95.6041996  78.2491491 119.8417239  95.7403925  73.3423875
 119.4715026  95.1874965  74.0304780 120.3376331  95.1362058  72.7898875
 117.6706437 106.2001420  80.4378893 118.3715897 106.8337903  80.5908287
 117.2001552 106.5416151  79.6774532 121.5195296  99.4965838  84.7497480
 120.8435933  99.3959967  85.4199855 122.3422930  99.3405052  85.2133477
 113.2674155 105.7337775  77.3709995 113.8527592 104.9881463  77.5037900
 113.0698994 106.0441731  78.2546659 116.1212810 108.7689022  72.3872438
 115.4523186 109.2535150  71.9036478 115.9825680 109.0158242  73.3015816
 107.8591810  98.3043375  76.0914439 107.8975909  97.7706966  76.8851557
 107.3532103  97.7778580  75.4725416 115.2382572  93.1507915  79.5876981
 115.3023899  94.0122746  79.1754379 115.1749692  92.5381917  78.8549339
 114.7134845  95.2231048  83.2350015 115.3406884  94.8408125  83.8487539
 113.8562764  95.0045250  83.6005708 111.4900388  97.0307477  69.1668370
 111.7853829  96.1218155  69.1135424 110.5888423  97.0095216  68.8449372
 115.0194635  95.1063474  75.1495919 114.2981220  95.7199441  75.0103392
 115.8087890  95.6421238  75.0712565 117.8220948  92.4417900  81.4236570
 118.3455350  92.6880197  82.1862880 117.6033281  93.2737935  81.0039708
 113.2188229  94.7121575  69.2907695 112.8900935  93.8318954  69.1082801
 113.5727600  94.6569243  70.1784084 116.3330052  94.9994544  69.6583173
 116.6726125  95.5280466  68.9361781 116.7802173  95.3374951  70.4341739
 119.0273493  93.3831595  79.1086241 118.6870313  92.5839408  79.5106921
 118.3212499  93.6833306  78.5363074 119.6789965  90.4680908  77.5613564
 120.5016034  89.9941386  77.4392454 119.9228028  91.2471391  78.0612250
 118.3198199  93.4969166  67.8576466 119.0406562  93.8750419  67.3540182
 117.6963504  94.2158043  67.9611444 117.2028544  97.1600028  75.3705542
 117.0573124  97.4740331  76.2629824 116.7253747  97.7784929  74.8176441
 119.0624927  94.1502576  75.4186432 119.0486495  93.2543670  75.0818730
 119.7797355  94.1573240  76.0524718 120.9151057  94.5839916  77.4639559
 120.6568835  95.5056987  77.4623890 120.3836098  94.1870351  78.1540024
 111.6774206  99.7005373  78.3093204 111.1327674 100.4765181  78.4413478
 112.5553556 100.0476177  78.1512325 118.4661822  93.0316957  70.6874002
 118.5877734  92.1033603  70.8864890 118.1763865  93.0455642  69.7752318
 121.3353013  90.7171867  73.8240722 121.3574710  90.7811200  72.8692702
 121.7521072  89.8776376  74.0181228 112.4640228  98.8275269  81.2023361
 111.7221964  98.9757904  81.7887991 112.1432972  99.0883535  80.3390110
 112.9096841 106.7140698  73.2333755 113.7354861 106.4144469  72.8532399
 112.5590893 105.9448320  73.6823544 117.8778375 106.0667166  75.3031429
 117.2558384 105.4037871  75.0033657 118.5483241 106.0928298  74.6205077
 111.1105446 104.6327024  74.1922689 110.2737355 104.2049198  74.0106690
 111.0829092 104.8259467  75.1293480 117.9502902  94.5448954  84.8963935
 117.9991057  95.4211077  84.5141704 118.4925416  94.0026347  84.3235578
 117.4391881 104.6171089  68.7789889 117.5880002 105.3006554  68.1256562
 118.2458325 104.5976179  69.2939345 120.1802190  95.2980326  81.6510293
 119.3105500  95.5913892  81.3792882 120.4161671  95.8820771  82.3717557
 115.1944514 100.6436267  69.7850958 114.9490556  99.7398597  69.9831168
 115.3640429 100.6453417  68.8430436 114.4640162  96.3764624  67.2837120
 113.7709407  96.4508979  66.6277156 114.2191914  95.6124968  67.8058637
 121.3234085  98.4480032  63.5917689 122.2693190  98.3186240  63.6606107
 120.9448330  97.7094694  64.0687117 121.2072778 102.4997779  85.0518346
 122.1275787 102.6776378  85.2458393 121.1722361 101.5553824  84.8998045
 119.5077003  96.3730009  63.5272574 118.6008458  96.0763121  63.6035288
 119.7852984  96.0759827  62.6606861 110.4254943  97.6936372  73.9771621
 110.1057727  96.8401680  73.6845995 109.8788371  97.9084950  74.7329588
 114.2034851 100.4098813  77.6941127 114.4220860 101.3415921  77.7129161
 114.6160624 100.0506788  78.4795931 121.1239068  90.9166898  69.6816816
 120.3139797  90.5713983  70.0572062 121.8123485  90.6074442  70.2704427
 119.0762716  95.9832019  87.0843876 118.9759443  96.9326376  87.0155967
 118.8584258  95.6550258  86.2119946 118.2775787  93.2316944  63.6684554
 119.1394951  93.5571842  63.9280371 118.4626131  92.4448440  63.1557619
 110.2943203 101.3139284  75.9464742 109.6006674 100.8993236  75.4334697
 111.0416194 101.3559820  75.3498161 118.9393986  99.4129158  85.9008938
 118.4561068 100.2129518  86.1072827 119.0254925  99.4237103  84.9476382
 112.2079946 101.2457537  73.8230757 112.1850634 101.3445225  72.8712640
 112.5180582 102.0922688  74.1447923 114.8667323 103.3033692  77.9377372
 115.8210577 103.2717635  77.8707303 114.6679847 102.8424316  78.7527598
 115.4566706 101.8734809  80.5048169 116.2759595 102.3678887  80.5283007
 115.7303513 100.9566777  80.4765737 113.2217552 108.8453312  74.9547570
 113.0872020 108.0853713  74.3885568 112.8049614 109.5694212  74.4876358
 110.7101620  96.2072942  81.2040366 111.3560483  95.6971896  81.6927592
 110.5018771  96.9441624  81.7783792 119.2305230  90.4712987  66.9564263
 119.2183900  91.4154827  67.1132534 120.1228652  90.2883132  66.6623724
 115.0499111  93.3540559  85.3015381 115.9130572  92.9977364  85.5118705
 114.4764521  93.0154454  85.9890785  52.9718623  -4.9733758  57.6370764
  52.8942653  -4.0225933  57.7159244  52.3680266  -5.3187885  58.2945690
  50.6105453  -2.2248364  61.7818966  50.8502051  -1.5929840  62.4597984
  49.7674649  -2.5760324  62.0684325  51.0850285  -6.2000361  59.1117744
  50.4160660  -5.7154234  58.6281785  50.9463154  -5.9531141  60.0261123
  55.2255553  -4.1656618  65.7100403  55.7773861  -4.0024996  66.4749488
  55.5661747  -3.5752180  65.0380428  55.3941977  -4.4460227  59.9554434
  54.9546967  -4.9383848  60.6487290  56.1450094  -4.9887259  59.7146509
  48.1855027  -6.1236071  61.6792876  48.0509494  -6.8835671  61.1130874
  47.7687089  -5.3995172  61.2121665  51.3424152  -5.2266754  61.8911319
  51.2256537  -4.2821322  61.7890009  50.5216599  -5.5293193  62.2797118
  52.3678667  -4.5738493  65.1067247  53.2705913  -4.5414882  65.4233742
  52.1416037  -5.5038042  65.1213583  66.6674668  -0.0319540  62.7684613
  66.3293180  -0.1478475  61.8805148  67.5364436  -0.4328374  62.7485619
  62.5261484   1.8215937  58.7581504  61.9626349   1.7305874  57.9897792
  62.4113879   1.0015841  59.2383997  67.1494451   1.1215312  68.7270819
  67.1383092   0.7268110  67.8551322  67.3115091   0.3881385  69.3204590
  60.0725916   3.3167128  61.5965724  60.8647208   2.9757953  61.1812024
  60.3122566   3.4262104  62.5167878  68.1061043   5.4886905  54.0695969
  67.4549022   6.0740985  53.6829983  68.9005406   6.0193099  54.1291006
  62.0316670   2.5776042  54.4683103  62.8047546   2.0305029  54.3295979
  62.3842069   3.4420291  54.6797565  63.8701712   3.9052424  67.6750003
  63.5791578   4.8098055  67.5596669  64.5058697   3.9468952  68.3894072
  64.7957919   1.2829273  64.2651362  65.3921492   1.0585295  63.5508325
  64.8532891   0.5414018  64.8676810  64.3682948  -1.2631292  52.1001553
  64.6208468  -1.7849771  51.3385016  63.4307507  -1.4265147  52.2028237
  69.5836308   3.1777337  54.6064953  68.9482141   3.2511963  55.3185858
  69.2533714   3.7670935  53.9284032  64.0879236   0.6396814  54.3025928
  63.9715495  -0.0358283  54.9707012  64.1981496   0.1529188  53.4858081
  66.4310777   0.1006961  58.0072617  66.0668985  -0.4262418  58.7185539
  67.2877893  -0.2894570  57.8339103  68.8291597   3.5913840  64.6699796
  68.5292321   4.4938878  64.5615603  68.4842657   3.3246023  65.5220949
  62.2804079   0.0427636  60.7036501  61.3554575  -0.0896150  60.9114192
  62.5288492   0.8221856  61.2006443  59.6412890  -0.3139090  61.5380290
  59.7705271  -0.0604611  62.4519701  58.9610341   0.2788618  61.2184945
  63.8112377  10.3558160  57.6370764  63.7336407  11.3065985  57.7159244
  63.2074021  10.0104032  58.2945690  64.5575979   0.3371479  69.8550098
  65.2990664   0.8756523  69.5784921  63.8512965   0.9637767  70.0121650
  70.0331319   2.4800619  68.4522259  70.4414675   2.0383030  67.7076892
  69.3108581   1.9053247  68.7056452  70.3560134   3.0401810  62.2074548
  69.7268996   3.2047524  61.5050616  69.9685796   3.4543419  62.9785512
  74.2349366   3.9756248  59.5618912  73.5500404   4.3555149  59.0115945
  74.3193215   4.5851574  60.2950860  71.4900297   1.6216207  66.1614255
  71.7017192   2.2647967  65.4848637  71.4430045   0.7878523  65.6936186
  65.9088096   2.7776218  59.4724633  66.3726441   3.0563921  58.6829256
  65.6444894   1.8759662  59.2897724  62.8012177   2.3247699  62.4104397
  63.3713534   2.7534968  61.7721881  63.3920288   2.0430284  63.1088582
  64.8456982  -1.1000630  56.2814198  65.5481025  -0.6479586  56.7488125
  64.5137610  -1.7416811  56.9094092  63.2937343  -2.5088873  70.6565408
  62.6636004  -1.8272592  70.8900805  63.1873431  -2.6205792  69.7118546
  58.5882316  -2.8417077  61.5831332  57.7981370  -2.5859549  61.1071443
  59.0793563  -2.0268739  61.6883373  72.6046125   4.4988162  64.3336613
  73.4263569   4.0968349  64.0519294  72.6008528   4.3956396  65.2852729
  60.5397061  -2.4772498  58.5414809  59.7428224  -2.3653804  59.0598304
  60.3122653  -2.1385846  57.6755699  66.3702729   4.0472205  66.4897323
  66.4347161   4.5092613  67.3255495  65.6613652   3.4169570  66.6179633
  56.8720019  -2.5886587  64.0146323  57.1228057  -1.7039577  64.2803899
  57.4079567  -2.7681985  63.2421415  66.0850746   5.7140313  56.3576304
  65.9496421   6.5591849  56.7861151  66.6260559   5.9159590  55.5942237
  59.5380144   3.2315751  56.9304229  60.0504664   4.0259001  57.0809793
  60.1902856   2.5342041  56.8637830  61.3475028   6.3481507  59.0126982
  61.5241657   7.2699472  58.8247966  62.1431862   6.0339926  59.4421362
  60.6327385  -1.6053861  68.8889145  60.5180900  -2.5068604  69.1896244
  59.7771903  -1.3590164  68.5373962  67.7119223   6.3363879  70.4876646
  67.2683077   5.5500258  70.1697550  68.3736436   6.5243030  69.8220537
  62.4706344   7.8659681  65.0137324  63.0213769   7.7376744  64.2414318
  61.6317820   8.1654570  64.6632217  69.8100461   6.6166679  68.5158047
  69.7918936   7.4375560  68.0238316  70.7320381   6.4920754  68.7408188
  66.2673515   4.1310809  69.3581555  66.8001852   3.3699097  69.1280863
  65.7387596   3.8384461  70.1005710  57.5029060   1.5604405  57.7063799
  58.3404282   1.9701414  57.4897507  57.6807328   0.6203847  57.6763993
  74.3727767   1.9811840  55.3300806  73.5957209   1.6423000  54.8855968
  75.0519248   1.9864464  54.6555771  67.6326228   3.2596801  56.8700367
  67.1047589   2.5249561  56.5573605  67.1313730   4.0371478  56.6240336
  72.6119074   1.4545822  61.9867414  71.9542748   2.1445083  62.0747542
  73.4159473   1.8442254  62.3301400  65.7778828   1.0777011  49.8735340
  64.8705889   0.8466265  50.0726489  66.2749860   0.2814631  50.0609322
  68.6846907   9.7874519  52.7932027  68.0108605  10.0906215  53.4016984
  69.0712729  10.5903599  52.4437484  66.9567061   1.1789606  54.3959331
  66.0478280   0.8948639  54.4931800  66.9862145   1.5988685  53.5362637
  72.1886329   4.7896196  58.1650498  71.7348656   3.9487106  58.2215689
  71.5580295   5.4257594  58.5025278  70.6319268   6.6272693  59.1000316
  70.9242242   7.1877750  58.3812682  71.1417888   6.9201254  59.8553475
  57.5255232  -1.1004880  58.3774533  57.3279631  -1.6935519  57.6525599
  56.9701896  -1.4052669  59.0950472  66.6543149   2.7198350  51.7347409
  66.2162579   2.0034209  51.2753046  67.3953590   2.9474465  51.1732500
  65.5952893   7.4053044  60.1893769  65.5529072   7.6313890  59.2602301
  66.5115592   7.1716418  60.3379571  74.7985643   3.0632074  62.8034999
  75.2322150   2.9707363  63.6518053  75.5117224   3.0389575  62.1655015
  63.7118694   4.2816073  59.9855732  64.5059292   3.7866393  59.7838307
  63.0010386   3.7533936  59.6223438  68.5313538   6.6634168  64.3368100
  68.5850561   7.2325104  65.1045816  67.6628320   6.8336053  63.9722137
  60.0201457  -1.5740846  56.0615485  59.0899045  -1.6356390  56.2785447
  60.1158929  -2.0964893  55.2652126  75.6601193   3.1055775  65.3367885
  75.8537083   4.0101585  65.5827159  75.5601811   2.6463194  66.1706470
  70.7216302   3.2562517  70.9108765  70.5701808   3.0273069  69.9938849
  70.7120981   4.2133119  70.9240110  67.4901638   0.8294430  65.8955032
  68.4193698   0.9805590  65.7223999  67.0692668   0.9178451  65.0403678
  66.2889970   4.8545095  63.6653569  66.1501055   4.4863879  64.5379507
  65.5004566   5.3692734  63.4937527  66.8838122   9.9554191  55.0079106
  67.0589877   9.4842234  55.8224728  66.1970910  10.5819957  55.2360366
  67.8395185   4.2326697  61.0542407  67.5045018   4.1927467  61.9500057
  67.3399131   3.5671413  60.5812817  61.8139429  -0.3605673  66.5794988
  61.6759227  -1.0925434  67.1806527  62.7244352  -0.4496773  66.2979176
  70.7754377   1.5782732  51.3279467  70.1583547   0.8529560  51.2312519
  70.3070865   2.3392092  50.9846541  64.4421730  -0.6485713  66.0678668
  65.1521348  -1.2892521  66.0265286  64.3991038  -0.3972818  66.9904849
  72.4308508   6.2881640  68.9885247  72.3721054   5.6040860  68.3215830
  72.8328027   7.0300630  68.5365873  61.4499207  13.1043554  61.7818966
  61.6895805  13.7362078  62.4597984  60.6068403  12.7531594  62.0684325
  72.4325915   4.2521224  67.2199227  71.5452694   3.9147146  67.3425626
  73.0024467   3.5204255  67.4567992  54.0855063   0.5845316  60.5442278
  54.7726102   0.2707046  59.9563293  53.9303191   1.4886680  60.2709530
  65.9627069   8.9122676  64.1860470  65.8897240   9.7177648  64.6979774
  65.5204462   9.1114642  63.3608491  65.7516849   8.1494446  57.6963291
  64.9684370   8.6916127  57.7901516  66.4509594   8.6668426  58.0957533
  68.4225752   8.8109510  66.3418629  69.1353725   9.4456975  66.2694530
  67.9315781   8.9073376  65.5258630  70.1443279   2.7160763  57.9135920
  69.2099558   2.8362225  57.7440625  70.3219948   1.8133230  57.6495930
  63.4737666   6.5603954  67.1624199  64.1747125   7.1940437  67.3153594
  63.0032781   6.9018685  66.4019839  71.5992062   4.9021904  55.4472106
  71.8751906   4.7878498  56.3565980  70.7296561   4.5039388  55.4084280
  68.2346126   9.1508254  59.0904920  68.4168520   8.3329910  59.5532672
  69.0579112   9.3675947  58.6529810  68.5688291   8.0776440  56.3519969
  69.0976058   7.5668894  55.7390131  68.8316511   7.7618970  57.2165502
  67.3226525  -0.1431628  71.4742787  66.6467162  -0.2437498  72.1445162
  68.1454159  -0.2992414  71.9378784  59.0705384   6.0940309  64.0955302
  59.6558821   5.3483997  64.2283206  58.8730222   6.4044266  64.9791966
  61.9244039   9.1291556  59.1117744  61.2554414   9.6137684  58.6281785
  61.7856909   9.3760777  60.0261123  53.6623039  -1.3354091  62.8159745
  53.7007138  -1.8690500  63.6096863  53.1563332  -1.8618885  62.1970722
  66.0649308  11.1635300  65.7100403  66.6167616  11.3266921  66.4749488
  66.4055501  11.7539738  65.0380428  70.9160182   5.9896557  71.5649057
  71.4600086   6.6026516  71.0704012  70.3347027   6.5476136  72.0816070
  57.2931616  -2.6089989  55.8913677  57.5885057  -3.5179310  55.8380730
  56.3919652  -2.6302249  55.5694679  69.2017695   9.1117275  62.6964085
  69.0768835   8.3107015  62.1875030  69.8596786   9.6063469  62.2078055
  71.2652603   6.9126295  64.3243635  70.3182939   6.7931647  64.2521962
  71.6135377   6.0248793  64.4069897  68.2699037   6.7079012  60.5247987
  68.1223999   5.7795719  60.7055557  69.0952530   6.7299102  60.0405063
  71.8733159   7.5307570  61.6112860  72.7979706   7.3250432  61.4737311
  71.7048462   7.2823971  62.5202202  63.0059772  -2.4797438  62.0950849
  62.8604353  -2.1657134  62.9875131  62.5284976  -1.8612537  61.5421748
  71.6628475   8.0493238  56.9674952  71.8365352   7.4839660  56.2148804
  72.1557366   8.8494133  56.7854441  57.4805435   0.0607907  65.0338510
  56.9358903   0.8367715  65.1658785  58.3584784   0.4078711  64.8757632
  72.6503647   7.3660002  54.0671850  73.3454552   7.9866695  54.2859164
  72.9926797   6.5155353  54.3424228  58.2671456  -0.8122197  67.9268667
  57.5253193  -0.6639562  68.5133298  57.9464201  -0.5513931  67.0635417
  74.5495070   4.8159708  55.5959181  75.0746395   5.1546980  54.8708501
  74.4617423   3.8806723  55.4122315  66.2115119   8.7293781  67.7249057
  66.5202246   8.4842928  68.5971757  67.0090601   8.9340420  67.2367927
  66.2335731  10.8831691  59.9554434  65.7940721  10.3908070  60.6487290
  66.9843848  10.3404659  59.7146509  58.7128070   7.0743232  59.9579062
  59.5386090   6.7747004  59.5777705  58.3622122   6.3050854  60.4068850
  63.6809603   6.4269700  62.0276735  63.0589613   5.7640405  61.7278963
  64.3514470   6.4530832  61.3450383  56.9136675   4.9929558  60.9167995
  56.0768584   4.5651733  60.7351997  56.8860321   5.1862002  61.8538787
  74.2388976   5.4492611  70.9010379  73.4484520   5.4316750  70.3614878
  74.0022331   5.9880905  71.6559415  74.3586852   2.2985078  68.2143107
  74.4084856   2.1335085  69.1558630  74.2500775   1.4312337  67.8240988
  63.2423110   4.9773623  55.5035196  63.3911231   5.6609088  54.8501869
  64.0489554   4.9578713  56.0184652  75.8605048   4.7182019  68.4585129
  75.5689857   5.0812000  69.2948590  75.2477180   4.0049028  68.2798461
  60.9975743   1.0038801  56.5096265  60.7521785   0.1001131  56.7076475
  61.1671658   1.0055951  55.5675743  66.7418516   7.4721754  52.9746943
  66.1692483   8.0911941  52.5217415  67.3151309   8.0221116  53.5086865
  69.9615776   7.7558904  54.1055526  70.8946449   7.6904466  54.3088401
  69.8738988   8.5915171  53.6470058  72.5903792   7.0724774  51.0659473
  72.5117424   6.7384638  51.9595231  73.4113459   7.5646542  51.0650946
  67.0104007   2.8600313  71.7763653  67.9307016   3.0378912  71.9703699
  66.9753590   1.9156358  71.6243352  56.2286172  -1.9461094  60.7016927
  55.9088956  -2.7995785  60.4091301  55.6819600  -1.7312515  61.4574895
  60.0066079   0.7701347  64.4186434  60.2252089   1.7018455  64.4374468
  60.4191853   0.4109322  65.2041238  56.0974432   1.6741818  62.6710049
  55.4037903   1.2595771  62.1580003  56.8447423   1.7162354  62.0743468
  64.7425215  -0.2268308  72.6254245  64.2592296   0.5732052  72.8318134
  64.8286154  -0.2160363  71.6721689  58.0111174   1.6060072  60.5476064
  57.9881862   1.7047759  59.5957947  58.3211811   2.4525222  60.8693230
  60.6698552   3.6636227  64.6622678  61.6241806   3.6320169  64.5952610
  60.4711076   3.2026850  65.4772904  61.2597934   2.2337343  67.2293476
  62.0790823   2.7281421  67.2528313  61.5334742   1.3169311  67.2011044
  59.0248781   9.2055846  61.6792876  58.8903249   8.4456247  61.1130874
  58.6080843   9.9296746  61.2121665  70.1607744   4.3892770  50.6869452
  70.8643594   4.5942772  51.3027107  69.4370393   4.9569532  50.9518535
  62.1817907  10.1025163  61.8911319  62.0650291  11.0470596  61.7890009
  61.3610353   9.7998725  62.2797118  72.0694441   4.8275299  52.7367912
  72.9040045   4.3956497  52.5545386  71.9078784   4.6557313  53.6644806
  71.7240334   1.3307412  54.1024251  71.6689137   1.1651684  53.1612695
  71.0986389   2.0383445  54.2586441  56.5132849  -3.4324523  67.9285673
  57.1591712  -3.9425569  68.4172898  56.3050000  -2.6955842  68.5029098
  69.0386241   3.6356324  73.4277814  69.9077400   3.8096976  73.0664449
  68.5592992   4.4550741  73.3053543  63.2072421  10.7553425  65.1067247
  64.1099668  10.7877035  65.4233742  62.9809791   9.8253876  65.1213583
  64.9626023   9.5084412  61.7677326  64.0121654   9.5086273  61.6541698
  65.2658509   8.7617146  61.2513361  80.6978716  15.3444950  62.8323088
  81.3357126  15.2251697  62.1286428  80.5799559  16.2925794  62.8911040
  77.5068423  15.2972378  62.7684613  77.1686934  15.1813443  61.8805148
  78.3758191  14.8963543  62.7485619  73.3655238  17.1507855  58.7581504
  72.8020104  17.0597791  57.9897792  73.2507634  16.3307759  59.2383997
  77.9888206  16.4507230  68.7270819  77.9776847  16.0560028  67.8551322
  78.1508845  15.7173302  69.3204590  70.9119670  18.6459046  61.5965724
  71.7040962  18.3049871  61.1812024  71.1516321  18.7554021  62.5167878
  78.9454797  20.8178822  54.0695969  78.2942777  21.4032903  53.6829983
  79.7399160  21.3485017  54.1291006  72.8710424  17.9067959  54.4683103
  73.6441300  17.3596946  54.3295979  73.2235823  18.7712209  54.6797565
  74.7095467  19.2344342  67.6750003  74.4185333  20.1389973  67.5596669
  75.3452451  19.2760869  68.3894072  75.6351674  16.6121190  64.2651362
  76.2315246  16.3877213  63.5508325  75.6926645  15.8705936  64.8676810
  75.2076702  14.0660626  52.1001553  75.4602223  13.5442147  51.3385016
  74.2701261  13.9026771  52.2028237  80.2519985  13.0696404  59.9076296
  81.0383074  12.6515827  59.5566713  80.5158689  13.9742496  60.0757945
  80.4230062  18.5069254  54.6064953  79.7875895  18.5803881  55.3185858
  80.0927469  19.0962853  53.9284032  85.6528412  13.0071637  60.8109275
  86.3853584  12.4370854  61.0447104  84.8967768  12.6193238  61.2515780
  74.9272991  15.9688731  54.3025928  74.8109249  15.2933635  54.9707012
  75.0375251  15.4821105  53.4858081  77.2704532  15.4298879  58.0072617
  76.9062739  14.9029500  58.7185539  78.1271648  15.0397348  57.8339103
  83.1753832   6.7193211  65.2703883  82.8437157   7.5888622  65.0465098
  82.5799446   6.4029495  65.9497914  76.9110019  10.4588778  53.0033966
  77.0784421  11.3269015  53.3704437  76.7207188  10.6216060  52.0795255
  79.6685352  18.9205757  64.6699796  79.3686075  19.8230796  64.5615603
  79.3236412  18.6537940  65.5220949  73.1197833  15.3719554  60.7036501
  72.1948330  15.2395768  60.9114192  73.3682247  16.1513773  61.2006443
  83.0682496  11.4388297  62.3497234  82.1599373  11.3703706  62.0555995
  83.0170092  11.9160242  63.1779059  76.8899240  12.9146436  53.9880633
  76.7698865  13.3603487  54.8266113  76.1951828  13.2631753  53.4294171
  70.4806645  15.0152828  61.5380290  70.6099026  15.2687307  62.4519701
  69.8004096  15.6080536  61.2184945  77.1423362  12.8577943  70.2932131
  76.3656696  13.4171863  70.2834995  77.7813925  13.3434726  70.8147001
  84.9344142   9.6404736  64.1275107  84.2918522   9.9337269  63.4814902
  84.4299071   9.5257656  64.9328304  82.5884306  13.3867909  54.8160967
  83.5002162  13.6195296  54.6408664  82.0793953  13.9704953  54.2536045
  75.3969734  15.6663396  69.8550098  76.1384418  16.2048440  69.5784921
  74.6906719  16.2929685  70.0121650  80.8725074  17.8092537  68.4522259
  81.2808430  17.3674947  67.7076892  80.1502335  17.2345164  68.7056452
  77.2256144  12.7465144  65.8255816  78.0717339  13.1704557  65.9690465
  77.1654781  12.0898768  66.5194379  81.1953888  18.3693727  62.2074548
  80.5662751  18.5339442  61.5050616  80.8079550  18.7835337  62.9785512
  85.0743120  19.3048165  59.5618912  84.3894158  19.6847067  59.0115945
  85.1586969  19.9143492  60.2950860  80.3755589  10.4069512  67.4836990
  80.1316521  11.1611572  66.9471266  80.6515519  10.7854860  68.3184237
  82.3294052  16.9508124  66.1614255  82.5410947  17.5939884  65.4848637
  82.2823800  16.1170441  65.6936186  79.9320281   9.5625945  63.0650828
  79.0704760   9.8607199  63.3567565  79.9582715   9.7796344  62.1331860
  76.7481850  18.1068136  59.4724633  77.2120196  18.3855838  58.6829256
  76.4838648  17.2051580  59.2897724  73.6405931  17.6539617  62.4104397
  74.2107288  18.0826885  61.7721881  74.2314043  17.3722202  63.1088582
  75.6850736  14.2291288  56.2814198  76.3874779  14.6812332  56.7488125
  75.3531365  13.5875107  56.9094092  74.1331098  12.8203044  70.6565408
  73.5029758  13.5019325  70.8900805  74.0267186  12.7086126  69.7118546
  69.4276070  12.4874841  61.5831332  68.6375124  12.7432369  61.1071443
  69.9187317  13.3023178  61.6883373  83.4439880  19.8280080  64.3336613
  84.2657323  19.4260267  64.0519294  83.4402282  19.7248314  65.2852729
  71.3790815  12.8519420  58.5414809  70.5821979  12.9638114  59.0598304
  71.1516408  13.1906072  57.6755699  77.2096483  19.3764123  66.4897323
  77.2740916  19.8384530  67.3255495  76.5007407  18.7461488  66.6179633
  67.7113773  12.7405331  64.0146323  67.9621811  13.6252341  64.2803899
  68.2473321  12.5609933  63.2421415  91.5345873  16.1718828  60.6821584
  90.7809581  15.6026226  60.5265589  91.6693414  16.1381493  61.6292219
  76.9244501  21.0432230  56.3576304  76.7890175  21.8883766  56.7861151
  77.4654313  21.2451508  55.5942237  73.4111840   7.1223810  73.0190659
  73.0178786   6.5690009  73.6938303  74.2277981   7.4334389  73.4097176
  70.3773898  18.5607669  56.9304229  70.8898419  19.3550919  57.0809793
  71.0296611  17.8633959  56.8637830  72.1868783  21.6773425  59.0126982
  72.3635411  22.5991390  58.8247966  72.9825616  21.3631844  59.4421362
  76.3279801   8.5381689  70.6110915  77.0689515   9.1388843  70.5315378
  76.5597724   7.7959327  70.0528958  71.4721139  13.7238057  68.8889145
  71.3574654  12.8223314  69.1896244  70.6165657  13.9701753  68.5373962
  78.5512977  21.6655797  70.4876646  78.1076831  20.8792176  70.1697550
  79.2130191  21.8534948  69.8220537  73.3100098  23.1951599  65.0137324
  73.8607523  23.0668662  64.2414318  72.4711574  23.4946488  64.6632217
  80.6494215  21.9458597  68.5158047  80.6312691  22.7667478  68.0238316
  81.5714135  21.8212672  68.7408188  77.1067269  19.4602726  69.3581555
  77.6395606  18.6991015  69.1280863  76.5781350  19.1676378  70.1005710
  80.2736964   4.5662792  64.8875197  79.9301234   5.4564434  64.8114308
  80.6415927   4.3764450  64.0244782  68.3422815  16.8896323  57.7063799
  69.1798037  17.2993331  57.4897507  68.5201083  15.9495765  57.6763993
  80.2387247  14.5571403  53.3947632  79.7233870  15.3276008  53.6336020
  79.9664555  13.8836540  54.0180694  77.8234358   9.4021104  58.4532871
  76.9675954   9.0127955  58.2738509  78.2361310   9.4813065  57.5932656
  79.3533505   6.9367448  62.8524430  78.8498300   6.8997583  62.0392236
  79.6464112   7.8460190  62.9121087  75.5976391   7.0206177  61.8590612
  76.4629387   6.8248986  61.4996502  75.6653899   6.7916529  62.7859969
  85.2121521  17.3103758  55.3300806  84.4350964  16.9714918  54.8855968
  85.8913002  17.3156381  54.6555771  80.0273550  12.4298496  55.2207413
  79.7223686  12.7444645  56.0717557  80.9803992  12.5079915  55.2634746
  78.4719982  18.5888719  56.8700367  77.9441344  17.8541478  56.5573605
  77.9707485  19.3663395  56.6240336  83.4512828  16.7837739  61.9867414
  82.7936502  17.4737001  62.0747542  84.2553227  17.1734171  62.3301400
  73.2038710   9.2508385  59.2306979  73.7782462   9.0283567  58.4980172
  73.7909692   9.3197080  59.9835580  82.2618287  15.1382112  60.0371355
  82.7750169  15.7712104  60.5393065  82.9119511  14.5383308  59.6714715
  73.5308297  11.2812846  53.2502864  72.6945609  11.6187533  53.5712139
  73.3913066  11.1461826  52.3130001  75.5061377   6.1249634  57.9582048
  74.8525790   5.8098651  57.3338663  75.4641851   5.5025375  58.6841871
  76.6172582  16.4068929  49.8735340  75.7099644  16.1758183  50.0726489
  77.1143614  15.6106548  50.0609322  78.7399118  12.6131568  62.2829696
  77.8221679  12.8346515  62.1251384  79.1559261  12.6877878  61.4241403
  79.5234165  14.0122983  57.4132376  80.2705984  14.5244381  57.1039498
  79.7925755  13.6907036  58.2736770  77.7960816  16.5081524  54.3959331
  76.8872035  16.2240557  54.4931800  77.8255899  16.9280603  53.5362637
  83.0280083  20.1188114  58.1650498  82.5742410  19.2779023  58.2215689
  82.3974050  20.7549512  58.5025278  81.9713003  11.0480100  59.3951166
  81.2335759  10.5357486  59.7261408  82.2239776  10.6080481  58.5834442
  81.4713022  21.9564610  59.1000316  81.7635997  22.5169667  58.3812682
  81.9811643  22.2493171  59.8553475  68.3648986  14.2287038  58.3774533
  68.1673386  13.6356399  57.6525599  67.8095650  13.9239248  59.0950472
  76.3445710  14.1210145  60.4969126  76.3994319  13.1683981  60.4211602
  75.5336912  14.2769584  60.9810424  77.4936903  18.0490268  51.7347409
  77.0556333  17.3326127  51.2753046  78.2347344  18.2766383  51.1732500
  74.2838070  12.7387204  58.2559505  73.4705935  13.0381375  58.6624697
  74.7797064  12.3442893  58.9733987  76.4346647  22.7344961  60.1893769
  76.3922826  22.9605808  59.2602301  77.3509346  22.5008336  60.3379571
  79.8812281  13.2029029  67.0874399  80.2361669  13.4300502  67.9468864
  80.5284413  13.5347406  66.4651654  85.6110018  16.3247465  57.7923728
  85.4727917  16.5149061  56.8644917  85.2546237  17.0866848  58.2491779
  73.7752144  10.3105560  63.8720740  74.4151524  10.1694319  63.1743703
  72.9429675  10.0240073  63.4959342  85.6379398  18.3923992  62.8034999
  86.0715904  18.2999281  63.6518053  86.3510979  18.3681492  62.1655015
  74.5512448  19.6107990  59.9855732  75.3453047  19.1158310  59.7838307
  73.8404141  19.0825853  59.6223438  79.3707293  21.9926086  64.3368100
  79.4244315  22.5617022  65.1045816  78.5022074  22.1627971  63.9722137
  70.8595212  13.7551072  56.0615485  69.9292800  13.6935528  56.2785447
  70.9552684  13.2327025  55.2652126  70.7780761  10.2805885  58.6493726
  71.0387578  11.1951218  58.5402887  71.5997933   9.8130327  58.7990339
  72.2505686  11.6943642  65.8192551  72.9228740  11.4861004  65.1705200
  71.4235473  11.4965728  65.3797783  86.4994947  18.4347692  65.3367885
  86.6930837  19.3393503  65.5827159  86.3995566  17.9755111  66.1706470
  78.1531258   8.3205583  67.8358212  77.5059173   9.0195533  67.7422688
  78.9232274   8.7541727  68.2034460  81.5610056  18.5854435  70.9108765
  81.4095562  18.3564987  69.9938849  81.5514736  19.5425037  70.9240110
  78.3295392  16.1586348  65.8955032  79.2587452  16.3097507  65.7223999
  77.9086422  16.2470369  65.0403678  77.1283724  20.1837012  63.6653569
  76.9894810  19.8155797  64.5379507  76.3398320  20.6984652  63.4937527
  78.6788939  19.5618615  61.0542407  78.3438772  19.5219385  61.9500057
  78.1792885  18.8963331  60.5812817  72.6533183  14.9686245  66.5794988
  72.5152981  14.2366484  67.1806527  73.5638107  14.8795145  66.2979176
  81.6148131  16.9074649  51.3279467  80.9977302  16.1821478  51.2312519
  81.1464620  17.6684010  50.9846541  75.2815484  14.6806204  66.0678668
  75.9915103  14.0399397  66.0265286  75.2384792  14.9319099  66.9904849
  83.2702263  21.6173558  68.9885247  83.2114809  20.9332778  68.3215830
  83.6721781  22.3592548  68.5365873  73.9944418  11.6671422  67.8874307
  73.4581775  11.2162161  68.5395904  73.4061126  11.8017331  67.1444772
  73.4046677  11.1260074  50.4500771  72.5276143  11.0048874  50.0863018
  73.8804430  10.3346152  50.1979660  83.2719670  19.5813142  67.2199227
  82.3846449  19.2439063  67.3425626  83.8418221  18.8496173  67.4567992
  64.9248817  15.9137233  60.5442278  65.6119857  15.5998963  59.9563293
  64.7696946  16.8178598  60.2709530  69.7283539  10.8027430  64.9727302
  69.6441728  10.1953099  64.2377712  68.9066246  11.2936448  64.9736798
  76.8020823  24.2414594  64.1860470  76.7290995  25.0469565  64.6979774
  76.3598216  24.4406560  63.3608491  76.5910603  23.4786364  57.6963291
  75.8078125  24.0208044  57.7901516  77.2903348  23.9960344  58.0957533
  79.9007253   9.2880993  60.3397497  80.3975953   8.5350956  60.0198567
  79.1294235   9.3245310  59.7740706  87.7537011  14.9921359  61.9815788
  87.7426887  15.8746074  61.6109721  86.8854390  14.6392910  61.7870325
  79.2619507  24.1401428  66.3418629  79.9747479  24.7748893  66.2694530
  78.7709536  24.2365294  65.5258630  80.9837034  18.0452681  57.9135920
  80.0493313  18.1654143  57.7440625  81.1613702  17.1425147  57.6495930
  76.4842222  11.4298376  60.0669181  76.1140009  10.8769417  60.7550087
  76.9801314  10.8256510  59.5144181  84.3709585  13.8870000  58.4485954
  84.8370037  14.7197992  58.3746257  84.8217086  13.4214982  59.1531213
  74.3131420  21.8895871  67.1624199  75.0140880  22.5232354  67.3153594
  73.8426535  22.2310603  66.4019839  82.4385816  20.2313821  55.4472106
  82.7145660  20.1170416  56.3565980  81.5690315  19.8331306  55.4084280
  82.3426248   6.2550587  62.4876856  81.4289328   6.4854814  62.6559063
  82.7719349   6.3389031  63.3390888  82.1132706  14.4440479  64.9876750
  81.4604157  14.6916386  64.3329202  82.4913086  13.6304617  64.6539227
  79.0739880  24.4800172  59.0904920  79.2562275  23.6621828  59.5532672
  79.8972866  24.6967864  58.6529810  79.4082046  23.4068357  56.3519969
  79.9369812  22.8960812  55.7390131  79.6710265  23.0910887  57.2165502
  78.1620279  15.1860290  71.4742787  77.4860916  15.0854419  72.1445162
  78.9847913  15.0299504  71.9378784  69.9099138  21.4232227  64.0955302
  70.4952575  20.6775914  64.2283206  69.7123977  21.7336183  64.9791966
  64.5016793  13.9937827  62.8159745  64.5400893  13.4601417  63.6096863
  63.9957086  13.4673032  62.1970722  76.9043062  26.4927217  65.7100403
  77.4561370  26.6558839  66.4749488  77.2449256  27.0831655  65.0380428
  71.8807556   8.8402367  66.3122288  71.9448882   9.7017198  65.8999685
  71.8174676   8.2276369  65.5794646  71.3559828  10.9125500  69.9595322
  71.9831867  10.5302577  70.5732846  70.4987747  10.6939702  70.3251014
  81.7553937  21.3188475  71.5649057  82.2993841  21.9318433  71.0704012
  81.1740781  21.8768053  72.0816070  68.1325371  12.7201929  55.8913677
  68.4278812  11.8112607  55.8380730  67.2313407  12.6989668  55.5694679
  80.0411450  24.4409193  62.6964085  79.9162589  23.6398933  62.1875030
  80.6990541  24.9355386  62.2078055  71.6619618  10.7957925  61.8741225
  70.9406204  11.4093893  61.7348699  72.4512874  11.3315690  61.7957871
  82.1046358  22.2418213  64.3243635  81.1576693  22.1223564  64.2521962
  82.4529131  21.3540711  64.4069897  74.4645931   8.1312352  68.1481877
  74.9880333   8.3774648  68.9108186  74.2458265   8.9632387  67.7285014
  69.8613212  10.4016027  56.0153002  69.5325919   9.5213405  55.8328108
  70.2152583  10.3463695  56.9029391  79.1092791  22.0370929  60.5247987
  78.9617754  21.1087637  60.7055557  79.9346285  22.0591020  60.0405063
  72.9755036  10.6888996  56.3828479  73.3151108  11.2174918  55.6607088
  73.4227156  11.0269402  57.1587046  82.7126913  22.8599488  61.6112860
  83.6373461  22.6542349  61.4737311  82.5442216  22.6115889  62.5202202
  75.6698476   9.0726047  65.8331547  75.3295297   8.2733860  66.2352227
  74.9637483   9.3727758  65.2608381  76.3214948   6.1575359  64.2858871
  77.1441018   5.6835838  64.1637761  76.5653012   6.9365843  64.7857557
  74.9623183   9.1863618  54.5821772  75.6831545   9.5644871  54.0785489
  74.3388487   9.9052495  54.6856750  79.1054306   9.8908767  55.5180105
  79.3217920  10.7733405  55.2168933  78.6248373   9.4994980  54.7885747
  73.8453527  12.8494480  62.0950849  73.6998108  13.1634783  62.9875131
  73.3678731  13.4679380  61.5421748  75.7049910   9.8397028  62.1431739
  75.6911479   8.9438121  61.8064037  76.4222338   9.8467692  62.7770025
  77.5576041  10.2734368  64.1884866  77.2993818  11.1951439  64.1869197
  77.0261081   9.8764803  64.8785330  82.5022229  23.3785155  56.9674952
  82.6759107  22.8131578  56.2148804  82.9951121  24.1786050  56.7854441
  68.3199189  15.3899825  65.0338510  67.7752657  16.1659632  65.1658785
  69.1978539  15.7370629  64.8757632  75.1086806   8.7211408  57.4119309
  75.2302717   7.7928055  57.6110196  74.8188848   8.7350094  56.4997624
  77.9777996   6.4066319  60.5486029  77.9999693   6.4705652  59.5938008
  78.3946055   5.5670827  60.7426535  88.3561620  16.1421578  58.5865251
  88.7992767  15.3928904  58.1884375  87.4788131  16.1331715  58.2038983
  69.1065211  14.5169721  67.9268667  68.3646947  14.6652356  68.5133298
  68.7857955  14.7777986  67.0635417  85.3888825  20.1451625  55.5959181
  85.9140149  20.4838898  54.8708501  85.3011177  19.2098641  55.4122315
  77.0508874  24.0585699  67.7249057  77.3596000  23.8134846  68.5971757
  77.8484356  24.2632337  67.2367927  77.0729486  26.2123609  59.9554434
  76.6334476  25.7199987  60.6487290  77.8237603  25.6696576  59.7146509
  69.5521825  22.4035150  59.9579062  70.3779845  22.1038921  59.5777705
  69.2015877  21.6342772  60.4068850  74.5203358  21.7561618  62.0276735
  73.8983367  21.0932323  61.7278963  75.1908225  21.7822750  61.3450383
  67.7530430  20.3221476  60.9167995  66.9162338  19.8943650  60.7351997
  67.7254075  20.5153919  61.8538787  74.5927885  10.2343406  71.6209241
  74.6416041  11.1105529  71.2387011  75.1350400   9.6920799  71.0480885
  85.0782731  20.7784529  70.9010379  84.2878275  20.7608668  70.3614878
  84.8416086  21.3172823  71.6559415  85.1980606  17.6276995  68.2143107
  85.2478611  17.4627003  69.1558630  85.0894529  16.7604254  67.8240988
  74.0816865  20.3065541  55.5035196  74.2304985  20.9901005  54.8501869
  74.8883308  20.2870631  56.0184652  82.4884368  13.6107923  69.5302414
  83.3894231  13.4714388  69.2386412  82.5632343  13.7762378  70.4700591
  76.8227174  10.9874778  68.3755600  75.9530483  11.2808344  68.1038189
  77.0586654  11.5715223  69.0962864  86.6998803  20.0473937  68.4585129
  86.4083611  20.4103917  69.2948590  86.0870934  19.3340945  68.2798461
  87.8994485  17.6126817  60.9787699  88.7341377  18.0516621  61.1425259
  88.0353614  17.1365470  60.1595945  84.9485991  15.1706552  66.9265187
  85.4240113  15.3634198  66.1184038  84.0251556  15.2265737  66.6808570
  71.8369498  16.3330719  56.5096265  71.5915540  15.4293049  56.7076475
  72.0065412  16.3347869  55.5675743  79.5266208   7.2054395  65.8921020
  80.0448151   7.9415422  65.5667509  79.1721340   7.5118388  66.7267780
  71.1065145  12.0659076  54.0082426  70.4134390  12.1403431  53.3522462
  70.8616897  11.3019420  54.5303943  77.5812270  22.8013672  52.9746943
  77.0086237  23.4203859  52.5217415  78.1545064  23.3513033  53.5086865
  83.6487660  12.0472312  65.1593492  84.6005083  12.1470409  65.1805716
  83.4791111  11.2550580  65.6691577  81.6702040   9.1327895  65.3452893
  81.0751972   9.4132908  64.6499382  81.3851736   9.6221796  66.1169634
  86.1275738  15.2678431  64.2735792  86.0952058  14.3294432  64.4595476
  86.7376362  15.3462468  63.5401617  77.9659069  14.1374484  50.3162996
  78.9118173  14.0080692  50.3851414  77.5873314  13.3989146  50.7932424
  86.2770226  12.0589475  64.3194075  85.7609275  11.2747931  64.1324004
  87.1610175  11.7308191  64.4840594  83.9380953   5.8030490  60.2789888
  83.7405774   5.4945578  61.1633220  84.5480659   6.5292129  60.4087818
  91.9452288  16.3294438  63.4141829  92.6755676  16.0679726  63.9749532
  91.3359233  15.5923160  63.4543897  90.0267585  14.4702301  64.0116280
  89.3000748  14.3358266  63.4032771  89.6114872  14.7779129  64.8172998
  77.8497761  18.1892230  71.7763653  78.7700771  18.3670829  71.9703699
  77.8147344  17.2448276  71.6243352  76.1501986  12.0624461  50.2517881
  75.2433441  11.7657573  50.3280595  76.4277967  11.7654279  49.3852167
  67.0679926  13.3830824  60.7016927  66.7482711  12.5296132  60.4091301
  66.5213354  13.5979402  61.4574895  70.8459834  16.0993265  64.4186434
  71.0645844  17.0310373  64.4374468  71.2585608  15.7401239  65.2041238
  77.7664052   6.6061350  56.4062122  76.9564780   6.2608435  56.7817368
  78.4548469   6.2968894  56.9949734  79.6954600   5.6839397  58.0286419
  80.2485639   6.1034851  58.6876442  79.9324686   4.7575145  58.0709375
  75.7187699  11.6726471  73.8089183  75.6184426  12.6220828  73.7401274
  75.5009241  11.3444710  72.9365253  74.9200771   8.9211396  50.3929860
  75.7819935   9.2466294  50.6525678  75.1051115   8.1342892  49.8802926
  66.9368186  17.0033736  62.6710049  66.2431658  16.5887688  62.1580003
  67.6841177  17.0454272  62.0743468  83.0733407   7.7939922  57.5365083
  82.4932076   8.4524726  57.1543136  82.8069340   6.9717267  57.1252501
  81.5236973   7.1944980  59.7386404  82.0236752   7.3061515  58.9300722
  82.1672581   6.8906033  60.3787212  75.5818969  15.1023610  72.6254245
  75.0986051  15.9023970  72.8318134  75.6679908  15.1131555  71.6721689
  68.8504929  16.9351989  60.5476064  68.8275617  17.0339677  59.5957947
  69.1605565  17.7817140  60.8693230  71.5092307  18.9928144  64.6622678
  72.4635560  18.9612087  64.5952610  71.3104830  18.5318768  65.4772904
  72.0991689  17.5629260  67.2293476  72.9184578  18.0573339  67.2528313
  72.3728497  16.6461229  67.2011044  81.8558285   9.9540013  56.5921432
  80.9684140  10.2389663  56.3741626  82.2712274   9.7933776  55.7448708
  85.2072821   9.9786534  60.3075771  85.9833211  10.4682986  60.5800388
  84.4820955  10.4044588  60.7647640  87.6445380  10.6914153  61.3649711
  88.2389871  10.4509889  60.6543020  87.7171963   9.9721283  61.9923248
  69.8642535  24.5347764  61.6792876  69.7297003  23.7748165  61.1130874
  69.4474598  25.2588664  61.2121665  81.0001498  19.7184687  50.6869452
  81.7037349  19.9234690  51.3027107  80.2764147  20.2861449  50.9518535
  81.8299309  15.4694549  56.8071722  81.7734510  15.9263100  55.9679354
  82.3827651  14.7085233  56.6294564  85.6404115  11.2584281  57.6321841
  85.3841049  10.8580916  58.4630049  85.0156983  11.9728074  57.5071980
  89.9516453  13.9980354  60.1393133  89.3916011  14.0673543  60.9124695
  89.3459956  13.8221338  59.4192629  82.9088196  20.1567217  52.7367912
  83.7433800  19.7248415  52.5545386  82.7472539  19.9849230  53.6644806
  82.5634088  16.6599330  54.1024251  82.5082892  16.4943601  53.1612695
  81.9380143  17.3675363  54.2586441  67.3526603  11.8967394  67.9285673
  67.9985467  11.3866348  68.4172898  67.1443754  12.6336076  68.5029098
  79.8779995  18.9648242  73.4277814  80.7471155  19.1388894  73.0664449
  79.3986747  19.7842659  73.3053543  75.8730214   6.1607439  53.6809569
  75.8608883   7.1049279  53.8377840  76.7653635   5.9777584  53.3869030
  71.6924094   9.0435011  72.0260687  72.5555556   8.6871816  72.2364012
  71.1189505   8.7048906  72.7136092  91.5372471  30.6736868  62.8323088
  92.1750881  30.5543615  62.1286428  91.4193314  31.6217712  62.8911040
  88.8281960  31.7799148  68.7270819  88.8170601  31.3851946  67.8551322
  88.9902600  31.0465220  69.3204590  85.5489221  34.5636259  67.6750003
  85.2579087  35.4681890  67.5596669  86.1846206  34.6052787  68.3894072
  91.0913739  28.3988322  59.9076296  91.8776829  27.9807745  59.5566713
  91.3552444  29.3034414  60.0757945  96.4922167  28.3363555  60.8109275
  97.2247339  27.7662772  61.0447104  95.7361522  27.9485155  61.2515780
  94.0147587  22.0485129  65.2703883  93.6830912  22.9180540  65.0465098
  93.4193200  21.7321413  65.9497914  87.7503773  25.7880696  53.0033966
  87.9178176  26.6560932  53.3704437  87.5600942  25.9507978  52.0795255
  90.5079106  34.2497675  64.6699796  90.2079830  35.1522714  64.5615603
  90.1630166  33.9829858  65.5220949  93.9076250  26.7680215  62.3497234
  92.9993128  26.6995623  62.0555995  93.8563846  27.2452160  63.1779059
  87.9817116  28.1869861  70.2932131  87.2050450  28.7463781  70.2834995
  88.6207679  28.6726644  70.8147001  95.7737897  24.9696653  64.1275107
  95.1312277  25.2629187  63.4814902  95.2692825  24.8549574  64.9328304
  93.4278060  28.7159827  54.8160967  94.3395916  28.9487213  54.6408664
  92.9187707  29.2996871  54.2536045  86.2363488  30.9955314  69.8550098
  86.9778173  31.5340358  69.5784921  85.5300474  31.6221603  70.0121650
  91.7118828  33.1384454  68.4522259  92.1202184  32.6966865  67.7076892
  90.9896090  32.5637082  68.7056452  88.0649898  28.0757061  65.8255816
  88.9111093  28.4996475  65.9690465  88.0048536  27.4190686  66.5194379
  92.0347643  33.6985645  62.2074548  91.4056505  33.8631359  61.5050616
  91.6473305  34.1127255  62.9785512  95.9136875  34.6340083  59.5618912
  95.2287913  35.0138984  59.0115945  95.9980724  35.2435410  60.2950860
  91.2149343  25.7361430  67.4836990  90.9710275  26.4903490  66.9471266
  91.4909274  26.1146777  68.3184237  93.1687806  32.2800042  66.1614255
  93.3804701  32.9231802  65.4848637  93.1217554  31.4462359  65.6936186
  90.7714035  24.8917863  63.0650828  89.9098514  25.1899116  63.3567565
  90.7976470  25.1088262  62.1331860  84.9724852  28.1494962  70.6565408
  84.3423513  28.8311243  70.8900805  84.8660940  28.0378044  69.7118546
  94.2833634  35.1571997  64.3336613  95.1051078  34.7552185  64.0519294
  94.2796037  35.0540232  65.2852729  88.0490238  34.7056041  66.4897323
  88.1134670  35.1676448  67.3255495  87.3401161  34.0753406  66.6179633
  78.5507528  28.0697249  64.0146323  78.8015566  28.9544259  64.2803899
  79.0867076  27.8901850  63.2421415 102.3739627  31.5010746  60.6821584
 101.6203336  30.9318144  60.5265589 102.5087168  31.4673410  61.6292219
  84.2505595  22.4515728  73.0190659  83.8572540  21.8981927  73.6938303
  85.0671735  22.7626306  73.4097176  87.1673556  23.8673607  70.6110915
  87.9083269  24.4680760  70.5315378  87.3991479  23.1251245  70.0528958
  82.3114894  29.0529974  68.8889145  82.1968409  28.1515232  69.1896244
  81.4559412  29.2993671  68.5373962  89.3906732  36.9947715  70.4876646
  88.9470586  36.2084093  70.1697550  90.0523945  37.1826865  69.8220537
  91.4887970  37.2750515  68.5158047  91.4706445  38.0959396  68.0238316
  92.4107890  37.1504590  68.7408188  87.9461024  34.7894644  69.3581555
  88.4789361  34.0282932  69.1280863  87.4175105  34.4968296  70.1005710
  91.1130719  19.8954710  64.8875197  90.7694988  20.7856352  64.8114308
  91.4809681  19.7056368  64.0244782  91.0781001  29.8863321  53.3947632
  90.5627625  30.6567926  53.6336020  90.8058310  29.2128457  54.0180694
  88.6628113  24.7313022  58.4532871  87.8069709  24.3419872  58.2738509
  89.0755064  24.8104983  57.5932656  90.1927259  22.2659365  62.8524430
  89.6892055  22.2289500  62.0392236  90.4857866  23.1752108  62.9121087
  86.4370145  22.3498095  61.8590612  87.3023142  22.1540904  61.4996502
  86.5047654  22.1208447  62.7859969  96.0515276  32.6395676  55.3300806
  95.2744718  32.3006835  54.8855968  96.7306757  32.6448299  54.6555771
  90.8667305  27.7590413  55.2207413  90.5617440  28.0736562  56.0717557
  91.8197747  27.8371833  55.2634746  94.2906583  32.1129657  61.9867414
  93.6330257  32.8028918  62.0747542  95.0946982  32.5026089  62.3301400
  84.0432464  24.5800303  59.2306979  84.6176216  24.3575484  58.4980172
  84.6303447  24.6488997  59.9835580  93.1012041  30.4674030  60.0371355
  93.6143923  31.1004022  60.5393065  93.7513265  29.8675225  59.6714715
  86.3455132  21.4541552  57.9582048  85.6919544  21.1390569  57.3338663
  86.3035606  20.8317292  58.6841871  90.3627920  29.3414901  57.4132376
  91.1099739  29.8536298  57.1039498  90.6319509  29.0198954  58.2736770
  93.8673838  35.4480031  58.1650498  93.4136165  34.6070941  58.2215689
  93.2367804  36.0841430  58.5025278  92.8106757  26.3772017  59.3951166
  92.0729514  25.8649403  59.7261408  93.0633531  25.9372399  58.5834442
  92.3106777  37.2856528  59.1000316  92.6029751  37.8461585  58.3812682
  92.8205397  37.5785089  59.8553475  92.9118384  19.1548269  59.9892935
  93.2177261  18.2945633  59.7018850  93.6370989  19.7465889  59.7891929
  90.7206036  28.5320947  67.0874399  91.0755423  28.7592420  67.9468864
  91.3678167  28.8639323  66.4651654  96.4503773  31.6539382  57.7923728
  96.3121671  31.8440978  56.8644917  96.0939992  32.4158765  58.2491779
  84.6145899  25.6397478  63.8720740  85.2545278  25.4986237  63.1743703
  83.7823429  25.3531991  63.4959342  96.4773152  33.7215909  62.8034999
  96.9109659  33.6291199  63.6518053  97.1904733  33.6973410  62.1655015
  81.6174515  25.6097803  58.6493726  81.8781333  26.5243136  58.5402887
  82.4391688  25.1422245  58.7990339  83.0899441  27.0235560  65.8192551
  83.7622494  26.8152922  65.1705200  82.2629227  26.8257646  65.3797783
  97.3388702  33.7639610  65.3367885  97.5324592  34.6685421  65.5827159
  97.2389320  33.3047029  66.1706470  88.9925013  23.6497501  67.8358212
  88.3452928  24.3487450  67.7422688  89.7626028  24.0833645  68.2034460
  92.4003811  33.9146353  70.9108765  92.2489317  33.6856905  69.9938849
  92.3908490  34.8716954  70.9240110  89.1689147  31.4878266  65.8955032
  90.0981207  31.6389425  65.7223999  88.7480177  31.5762286  65.0403678
  83.4926938  30.2978163  66.5794988  83.3546736  29.5658402  67.1806527
  84.4031861  30.2087063  66.2979176  94.1096017  36.9465475  68.9885247
  94.0508563  36.2624695  68.3215830  94.5115536  37.6884465  68.5365873
  84.8338172  26.9963340  67.8874307  84.2975530  26.5454078  68.5395904
  84.2454881  27.1309249  67.1444772  94.1113424  34.9105059  67.2199227
  93.2240203  34.5730981  67.3425626  94.6811976  34.1788091  67.4567992
  80.5677294  26.1319348  64.9727302  80.4835482  25.5245017  64.2377712
  79.7460000  26.6228366  64.9736798  90.7401008  24.6172911  60.3397497
  91.2369707  23.8642873  60.0198567  89.9687989  24.6537228  59.7740706
  98.5930765  30.3213277  61.9815788  98.5820641  31.2037992  61.6109721
  97.7248144  29.9684828  61.7870325  91.8230788  33.3744598  57.9135920
  90.8887067  33.4946061  57.7440625  92.0007457  32.4717065  57.6495930
  95.2103340  29.2161918  58.4485954  95.6763792  30.0489909  58.3746257
  95.6610840  28.7506899  59.1531213  93.1820002  21.5842505  62.4876856
  92.2683082  21.8146731  62.6559063  93.6113104  21.6680949  63.3390888
  92.9526461  29.7732397  64.9876750  92.2997911  30.0208304  64.3329202
  93.3306841  28.9596535  64.6539227  89.9133635  39.8092090  59.0904920
  90.0956029  38.9913746  59.5532672  90.7366621  40.0259782  58.6529810
  89.0014034  30.5152208  71.4742787  88.3254671  30.4146337  72.1445162
  89.8241668  30.3591421  71.9378784  82.7201310  24.1694285  66.3122288
  82.7842637  25.0309116  65.8999685  82.6568430  23.5568287  65.5794646
  82.1953583  26.2417417  69.9595322  82.8225621  25.8594495  70.5732846
  81.3381501  26.0231619  70.3251014  92.5947691  36.6480393  71.5649057
  93.1387595  37.2610351  71.0704012  92.0134536  37.2059971  72.0816070
  82.5013372  26.1249843  61.8741225  81.7799958  26.7385811  61.7348699
  83.2906628  26.6607608  61.7957871  92.9440112  37.5710131  64.3243635
  91.9970448  37.4515482  64.2521962  93.2922886  36.6832629  64.4069897
  85.3039686  23.4604270  68.1481877  85.8274088  23.7066566  68.9108186
  85.0852019  24.2924304  67.7285014  80.7006967  25.7307944  56.0153002
  80.3719673  24.8505323  55.8328108  81.0546338  25.6755613  56.9029391
  83.8148790  26.0180914  56.3828479  84.1544863  26.5466835  55.6607088
  84.2620911  26.3561320  57.1587046  93.5520668  38.1891406  61.6112860
  94.4767215  37.9834267  61.4737311  93.3835971  37.9407807  62.5202202
  86.5092231  24.4017965  65.8331547  86.1689051  23.6025778  66.2352227
  85.8031237  24.7019676  65.2608381  87.1608703  21.4867277  64.2858871
  87.9834772  21.0127755  64.1637761  87.4046766  22.2657761  64.7857557
  85.8016937  24.5155536  54.5821772  86.5225300  24.8936788  54.0785489
  85.1782241  25.2344412  54.6856750  89.9448060  25.2200685  55.5180105
  90.1611674  26.1025322  55.2168933  89.4642127  24.8286898  54.7885747
  86.5443664  25.1688946  62.1431739  86.5305233  24.2730039  61.8064037
  87.2616092  25.1759610  62.7770025  88.3969795  25.6026286  64.1884866
  88.1387573  26.5243357  64.1869197  87.8654835  25.2056721  64.8785330
  85.9480560  24.0503326  57.4119309  86.0696471  23.1219972  57.6110196
  85.6582603  24.0642012  56.4997624  88.8171751  21.7358237  60.5486029
  88.8393447  21.7997570  59.5938008  89.2339810  20.8962745  60.7426535
  99.1955375  31.4713496  58.5865251  99.6386521  30.7220821  58.1884375
  98.3181885  31.4623632  58.2038983  79.9458965  29.8461638  67.9268667
  79.2040702  29.9944274  68.5133298  79.6251710  30.1069904  67.0635417
  96.2282579  35.4743543  55.5959181  96.7533903  35.8130816  54.8708501
  96.1404932  34.5390558  55.4122315  87.8902628  39.3877617  67.7249057
  88.1989755  39.1426763  68.5971757  88.6878110  39.5924255  67.2367927
  85.4321640  25.5635323  71.6209241  85.4809795  26.4397446  71.2387011
  85.9744154  25.0212716  71.0480885  95.9176485  36.1076447  70.9010379
  95.1272029  36.0900586  70.3614878  95.6809840  36.6464740  71.6559415
  96.0374361  32.9568913  68.2143107  96.0872365  32.7918921  69.1558630
  95.9288284  32.0896172  67.8240988  93.3278123  28.9399841  69.5302414
  94.2287986  28.8006306  69.2386412  93.4026097  29.1054296  70.4700591
  87.6620928  26.3166696  68.3755600  86.7924238  26.6100262  68.1038189
  87.8980409  26.9007141  69.0962864  97.5392557  35.3765855  68.4585129
  97.2477366  35.7395835  69.2948590  96.9264689  34.6632863  68.2798461
  98.7388240  32.9418734  60.9787699  99.5735131  33.3808538  61.1425259
  98.8747368  32.4657388  60.1595945  95.7879746  30.4998469  66.9265187
  96.2633867  30.6926116  66.1184038  94.8645311  30.5557655  66.6808570
  90.3659962  22.5346313  65.8921020  90.8841906  23.2707340  65.5667509
  90.0115095  22.8410306  66.7267780  90.6172556  18.9546595  61.4121917
  90.8974310  18.2869784  62.0382344  91.4023163  19.1475691  60.8996581
  94.4881415  27.3764229  65.1593492  95.4398837  27.4762327  65.1805716
  94.3184865  26.5842498  65.6691577  92.5095794  24.4619813  65.3452893
  91.9145726  24.7424825  64.6499382  92.2245491  24.9513713  66.1169634
  96.9669492  30.5970349  64.2735792  96.9345812  29.6586350  64.4595476
  97.5770116  30.6754386  63.5401617  97.1163981  27.3881392  64.3194075
  96.6003030  26.6039849  64.1324004  98.0003929  27.0600109  64.4840594
  94.7774708  21.1322408  60.2789888  94.5799529  20.8237496  61.1633220
  95.3874413  21.8584047  60.4087818 102.7846042  31.6586356  63.4141829
 103.5149431  31.3971644  63.9749532 102.1752988  30.9215078  63.4543897
 100.8661339  29.7994218  64.0116280 100.1394503  29.6650183  63.4032771
 100.4508626  30.1071047  64.8172998  88.6891516  33.5184148  71.7763653
  89.6094525  33.6962747  71.9703699  88.6541099  32.5740193  71.6243352
  88.6057806  21.9353268  56.4062122  87.7958534  21.5900353  56.7817368
  89.2942223  21.6260812  56.9949734  90.5348354  21.0131315  58.0286419
  91.0879393  21.4326768  58.6876442  90.7718441  20.0867063  58.0709375
  86.5581454  27.0018389  73.8089183  86.4578181  27.9512745  73.7401274
  86.3402996  26.6736627  72.9365253  93.9127161  23.1231840  57.5365083
  93.3325831  23.7816644  57.1543136  93.6463094  22.3009185  57.1252501
  92.3630728  22.5236898  59.7386404  92.8630506  22.6353432  58.9300722
  93.0066336  22.2197951  60.3787212  86.4212724  30.4315527  72.6254245
  85.9379805  31.2315887  72.8318134  86.5073663  30.4423472  71.6721689
  92.6952040  25.2831930  56.5921432  91.8077895  25.5681581  56.3741626
  93.1106029  25.1225694  55.7448708  96.0466576  25.3078451  60.3075771
  96.8226966  25.7974904  60.5800388  95.3214710  25.7336506  60.7647640
  98.4839134  26.0206071  61.3649711  99.0783625  25.7801807  60.6543020
  98.5565718  25.3013201  61.9923248  92.6693063  30.7986466  56.8071722
  92.6128265  31.2555018  55.9679354  93.2221406  30.0377151  56.6294564
  96.4797869  26.5876198  57.6321841  96.2234803  26.1872834  58.4630049
  95.8550737  27.3019992  57.5071980 100.7910207  29.3272271  60.1393133
 100.2309765  29.3965461  60.9124695 100.1853710  29.1513256  59.4192629
  78.1920358  27.2259312  67.9285673  78.8379221  26.7158266  68.4172898
  77.9837509  27.9627994  68.5029098  90.7173750  34.2940159  73.4277814
  91.5864909  34.4680812  73.0664449  90.2380501  35.1134576  73.3053543
  86.7123968  21.4899357  53.6809569  86.7002638  22.4341197  53.8377840
  87.6047390  21.3069502  53.3869030  90.5276087  18.0842133  57.9355506
  89.7608483  17.5300620  58.0812188  90.9386792  18.1564002  58.7969658
  82.5317849  24.3726929  72.0260687  83.3949310  24.0163734  72.2364012
  81.9583259  24.0340824  72.7136092 102.3766225  46.0028785  62.8323088
 103.0144635  45.8835533  62.1286428 102.2587068  46.9509629  62.8911040
  99.1855932  45.9556213  62.7684613  98.8474443  45.8397278  61.8805148
 100.0545700  45.5547379  62.7485619  99.6675715  47.1091065  68.7270819
  99.6564356  46.7143863  67.8551322  99.8296354  46.3757138  69.3204590
 100.6242306  51.4762658  54.0695969  99.9730286  52.0616738  53.6829983
 101.4186669  52.0068853  54.1291006  96.3882976  49.8928177  67.6750003
  96.0972842  50.7973808  67.5596669  97.0239960  49.9344705  68.3894072
  97.3139183  47.2705026  64.2651362  97.9102755  47.0461048  63.5508325
  97.3714154  46.5289771  64.8676810  96.8864211  44.7244461  52.1001553
  97.1389732  44.2025982  51.3385016  95.9488770  44.5610606  52.2028237
 101.9307494  43.7280239  59.9076296 102.7170583  43.3099662  59.5566713
 102.1946198  44.6326331  60.0757945 102.1017571  49.1653090  54.6064953
 101.4663404  49.2387716  55.3185858 101.7714978  49.7546688  53.9284032
 107.3315921  43.6655472  60.8109275 108.0641093  43.0954689  61.0447104
 106.5755277  43.2777073  61.2515780  96.6060500  46.6272567  54.3025928
  96.4896758  45.9517470  54.9707012  96.7162760  46.1404941  53.4858081
  98.9492041  46.0882714  58.0072617  98.5850248  45.5613335  58.7185539
  99.8059157  45.6981183  57.8339103 104.8541341  37.3777047  65.2703883
 104.5224666  38.2472458  65.0465098 104.2586955  37.0613331  65.9497914
  98.5897528  41.1172614  53.0033966  98.7571930  41.9852850  53.3704437
  98.3994697  41.2799895  52.0795255 101.3472861  49.5789593  64.6699796
 101.0473584  50.4814631  64.5615603 101.0023920  49.3121776  65.5220949
  94.7985342  46.0303389  60.7036501  93.8735839  45.8979603  60.9114192
  95.0469756  46.8097609  61.2006443 104.7470005  42.0972133  62.3497234
 103.8386882  42.0287541  62.0555995 104.6957601  42.5744078  63.1779059
  98.5686749  43.5730271  53.9880633  98.4486374  44.0187322  54.8266113
  97.8739337  43.9215589  53.4294171  92.1594153  45.6736663  61.5380290
  92.2886535  45.9271142  62.4519701  91.4791605  46.2664371  61.2184945
  98.8210871  43.5161778  70.2932131  98.0444205  44.0755698  70.2834995
  99.4601434  44.0018561  70.8147001 106.6131651  40.2988571  64.1275107
 105.9706031  40.5921104  63.4814902 106.1086580  40.1841491  64.9328304
 104.2671815  44.0451744  54.8160967 105.1789671  44.2779131  54.6408664
 103.7581462  44.6288789  54.2536045  97.0757243  46.3247232  69.8550098
  97.8171927  46.8632276  69.5784921  96.3694228  46.9513520  70.0121650
 102.5512582  48.4676372  68.4522259 102.9595939  48.0258783  67.7076892
 101.8289844  47.8929000  68.7056452  98.9043653  43.4048979  65.8255816
  99.7504848  43.8288392  65.9690465  98.8442290  42.7482603  66.5194379
 102.8741397  49.0277563  62.2074548 102.2450260  49.1923277  61.5050616
 102.4867059  49.4419172  62.9785512 106.7530629  49.9632001  59.5618912
 106.0681667  50.3430902  59.0115945 106.8374478  50.5727327  60.2950860
 102.0543098  41.0653347  67.4836990 101.8104030  41.8195408  66.9471266
 102.3303028  41.4438695  68.3184237 104.0081561  47.6091960  66.1614255
 104.2198456  48.2523720  65.4848637 103.9611309  46.7754276  65.6936186
 101.6107790  40.2209780  63.0650828 100.7492269  40.5191034  63.3567565
 101.6370224  40.4380179  62.1331860  98.4269359  48.7651971  59.4724633
  98.8907705  49.0439674  58.6829256  98.1626157  47.8635415  59.2897724
  97.3638245  44.8875123  56.2814198  98.0662288  45.3396167  56.7488125
  97.0318874  44.2458942  56.9094092  95.8118607  43.4786880  70.6565408
  95.1817267  44.1603161  70.8900805  95.7054694  43.3669961  69.7118546
 105.1227389  50.4863915  64.3336613 105.9444832  50.0844102  64.0519294
 105.1189791  50.3832149  65.2852729  93.0578324  43.5103255  58.5414809
  92.2609488  43.6221949  59.0598304  92.8303917  43.8489907  57.6755699
  98.8883992  50.0347958  66.4897323  98.9528425  50.4968366  67.3255495
  98.1794916  49.4045323  66.6179633 113.2133382  46.8302664  60.6821584
 112.4597090  46.2610062  60.5265589 113.3480923  46.7965328  61.6292219
  98.6032010  51.7016066  56.3576304  98.4677684  52.5467602  56.7861151
  99.1441822  51.9035343  55.5942237  95.0899349  37.7807646  73.0190659
  94.6966295  37.2273844  73.6938303  95.9065490  38.0918224  73.4097176
  98.0067310  39.1965525  70.6110915  98.7477024  39.7972678  70.5315378
  98.2385233  38.4543163  70.0528958  93.1508648  44.3821892  68.8889145
  93.0362163  43.4807149  69.1896244  92.2953166  44.6285589  68.5373962
 100.2300486  52.3239632  70.4876646  99.7864340  51.5376011  70.1697550
 100.8917700  52.5118783  69.8220537  94.9887607  53.8535434  65.0137324
  95.5395032  53.7252497  64.2414318  94.1499083  54.1530323  64.6632217
 102.3281724  52.6042432  68.5158047 102.3100199  53.4251313  68.0238316
 103.2501644  52.4796508  68.7408188  98.7854778  50.1186562  69.3581555
  99.3183115  49.3574850  69.1280863  98.2568859  49.8260214  70.1005710
 101.9524473  35.2246628  64.8875197 101.6088743  36.1148269  64.8114308
 102.3203436  35.0348285  64.0244782 101.9174756  45.2155239  53.3947632
 101.4021379  45.9859843  53.6336020 101.6452064  44.5420375  54.0180694
  99.5021867  40.0604940  58.4532871  98.6463463  39.6711790  58.2738509
  99.9148819  40.1396900  57.5932656 101.0321014  37.5951283  62.8524430
 100.5285809  37.5581418  62.0392236 101.3251621  38.5044026  62.9121087
  97.2763900  37.6790013  61.8590612  98.1416896  37.4832821  61.4996502
  97.3441408  37.4500364  62.7859969 106.8909030  47.9687593  55.3300806
 106.1138473  47.6298753  54.8855968 107.5700511  47.9740217  54.6555771
 101.7061059  43.0882331  55.2207413 101.4011195  43.4028480  56.0717557
 102.6591501  43.1663751  55.2634746 100.1507491  49.2472554  56.8700367
  99.6228853  48.5125314  56.5573605  99.6494994  50.0247231  56.6240336
 105.1300337  47.4421575  61.9867414 104.4724011  48.1320836  62.0747542
 105.9340736  47.8318007  62.3301400  94.8826219  39.9092221  59.2306979
  95.4569971  39.6867402  58.4980172  95.4697201  39.9780915  59.9835580
 103.9405796  45.7965947  60.0371355 104.4537678  46.4295939  60.5393065
 104.5907020  45.1967143  59.6714715  95.2095806  41.9396682  53.2502864
  94.3733118  42.2771368  53.5712139  95.0700575  41.8045661  52.3130001
  97.1848886  36.7833469  57.9582048  96.5313299  36.4682487  57.3338663
  97.1429360  36.1609210  58.6841871  98.2960091  47.0652765  49.8735340
  97.3887153  46.8342018  50.0726489  98.7931123  46.2690384  50.0609322
 100.4186627  43.2715403  62.2829696  99.5009188  43.4930350  62.1251384
 100.8346770  43.3461713  61.4241403 101.2021674  44.6706819  57.4132376
 101.9493493  45.1828216  57.1039498 101.4713264  44.3490871  58.2736770
  99.4748325  47.1665359  54.3959331  98.5659544  46.8824392  54.4931800
  99.5043408  47.5864438  53.5362637 104.7067592  50.7771949  58.1650498
 104.2529919  49.9362859  58.2215689 104.0761559  51.4133347  58.5025278
 103.6500512  41.7063935  59.3951166 102.9123268  41.1941321  59.7261408
 103.9027285  41.2664317  58.5834442 103.1500531  52.6148446  59.1000316
 103.4423506  53.1753503  58.3812682 103.6599152  52.9077007  59.8553475
 103.7512139  34.4840187  59.9892935 104.0571016  33.6237550  59.7018850
 104.4764744  35.0757807  59.7891929  98.0233219  44.7793980  60.4969126
  98.0781828  43.8267816  60.4211602  97.2124421  44.9353419  60.9810424
  99.1724412  48.7074103  51.7347409  98.7343842  47.9909962  51.2753046
  99.9134853  48.9350218  51.1732500  95.9625579  43.3971040  58.2559505
  95.1493444  43.6965210  58.6624697  96.4584573  43.0026728  58.9733987
 101.5599790  43.8612864  67.0874399 101.9149178  44.0884337  67.9468864
 102.2071921  44.1931241  66.4651654 107.2897527  46.9831300  57.7923728
 107.1515426  47.1732896  56.8644917 106.9333746  47.7450683  58.2491779
  95.4539653  40.9689395  63.8720740  96.0939033  40.8278154  63.1743703
  94.6217184  40.6823909  63.4959342 107.3166907  49.0507827  62.8034999
 107.7503413  48.9583116  63.6518053 108.0298488  49.0265328  62.1655015
 101.0494802  52.6509921  64.3368100 101.1031824  53.2200858  65.1045816
 100.1809583  52.8211806  63.9722137  92.5382721  44.4134907  56.0615485
  91.6080309  44.3519363  56.2785447  92.6340193  43.8910860  55.2652126
  92.4568270  40.9389720  58.6493726  92.7175087  41.8535053  58.5402887
  93.2785442  40.4714163  58.7990339  93.9293195  42.3527477  65.8192551
  94.6016249  42.1444840  65.1705200  93.1022982  42.1549563  65.3797783
 108.1782456  49.0931528  65.3367885 108.3718346  49.9977338  65.5827159
 108.0783075  48.6338947  66.1706470  99.8318767  38.9789418  67.8358212
  99.1846682  39.6779368  67.7422688 100.6019783  39.4125562  68.2034460
 103.2397565  49.2438270  70.9108765 103.0883071  49.0148822  69.9938849
 103.2302245  50.2008872  70.9240110 100.0082901  46.8170183  65.8955032
 100.9374961  46.9681343  65.7223999  99.5873931  46.9054204  65.0403678
  98.8071233  50.8420848  63.6653569  98.6682319  50.4739632  64.5379507
  98.0185829  51.3568487  63.4937527  99.4019385  55.9429944  55.0079106
  99.5771141  55.4717987  55.8224728  98.7152173  56.5695710  55.2360366
 100.3576448  50.2202450  61.0542407 100.0226281  50.1803220  61.9500057
  99.8580394  49.5547166  60.5812817  94.3320692  45.6270080  66.5794988
  94.1940490  44.8950319  67.1806527  95.2425616  45.5378980  66.2979176
 103.2935640  47.5658485  51.3279467 102.6764811  46.8405313  51.2312519
 102.8252128  48.3267845  50.9846541  96.9602993  45.3390040  66.0678668
  97.6702612  44.6983232  66.0265286  96.9172301  45.5902935  66.9904849
 104.9489772  52.2757393  68.9885247 104.8902318  51.5916613  68.3215830
 105.3509290  53.0176383  68.5365873  95.6731927  42.3255258  67.8874307
  95.1369284  41.8745996  68.5395904  95.0848635  42.4601166  67.1444772
  95.0834186  41.7843909  50.4500771  94.2063652  41.6632710  50.0863018
  95.5591939  40.9929987  50.1979660 104.9507179  50.2396977  67.2199227
 104.0633958  49.9022899  67.3425626 105.5205730  49.5080008  67.4567992
  98.4808332  54.8998429  64.1860470  98.4078504  55.7053401  64.6979774
  98.0385725  55.0990395  63.3608491 101.5794762  39.9464829  60.3397497
 102.0763462  39.1934791  60.0198567 100.8081744  39.9829145  59.7740706
 109.4324519  45.6505194  61.9815788 109.4214396  46.5329910  61.6109721
 108.5641899  45.2976745  61.7870325 100.9407016  54.7985263  66.3418629
 101.6534988  55.4332728  66.2694530 100.4497045  54.8949129  65.5258630
 102.6624543  48.7036516  57.9135920 101.7280822  48.8237978  57.7440625
 102.8401211  47.8008983  57.6495930  98.1629731  42.0882212  60.0669181
  97.7927518  41.5353252  60.7550087  98.6588823  41.4840345  59.5144181
 106.0497094  44.5453835  58.4485954 106.5157546  45.3781827  58.3746257
 106.5004595  44.0798817  59.1531213  95.9918929  52.5479707  67.1624199
  96.6928389  53.1816190  67.3153594  95.5214044  52.8894438  66.4019839
 104.1173325  50.8897657  55.4472106 104.3933169  50.7754251  56.3565980
 103.2477824  50.4915141  55.4084280 104.0213757  36.9134422  62.4876856
 103.1076837  37.1438649  62.6559063 104.4506858  36.9972866  63.3390888
 103.7920215  45.1024314  64.9876750 103.1391666  45.3500222  64.3329202
 104.1700595  44.2888452  64.6539227 100.7527389  55.1384007  59.0904920
 100.9349784  54.3205663  59.5532672 101.5760375  55.3551700  58.6529810
 101.0869555  54.0652193  56.3519969 101.6157321  53.5544647  55.7390131
 101.3497774  53.7494723  57.2165502  99.8407788  45.8444125  71.4742787
  99.1648425  45.7438255  72.1445162 100.6635422  45.6883339  71.9378784
  98.5830571  57.1511053  65.7100403  99.1348879  57.3142674  66.4749488
  98.9236765  57.7415491  65.0380428  93.5595064  39.4986203  66.3122288
  93.6236391  40.3601033  65.8999685  93.4962185  38.8860204  65.5794646
  93.0347337  41.5709335  69.9595322  93.6619376  41.1886412  70.5732846
  92.1775256  41.3523537  70.3251014 103.4341446  51.9772310  71.5649057
 103.9781350  52.5902269  71.0704012 102.8528290  52.5351889  72.0816070
 101.7198959  55.0993028  62.6964085 101.5950098  54.2982768  62.1875030
 102.3778050  55.5939222  62.2078055  93.3407127  41.4541761  61.8741225
  92.6193713  42.0677729  61.7348699  94.1300383  41.9899526  61.7957871
 103.7833867  52.9002048  64.3243635 102.8364202  52.7807400  64.2521962
 104.1316640  52.0124546  64.4069897  96.1433440  38.7896187  68.1481877
  96.6667842  39.0358484  68.9108186  95.9245774  39.6216222  67.7285014
 100.7880300  52.6954765  60.5247987 100.6405263  51.7671472  60.7055557
 101.6133794  52.7174855  60.0405063  94.6542545  41.3472832  56.3828479
  94.9938617  41.8758753  55.6607088  95.1014665  41.6853238  57.1587046
 104.3914422  53.5183323  61.6112860 105.3160970  53.3126185  61.4737311
 104.2229725  53.2699725  62.5202202  97.3485985  39.7309882  65.8331547
  97.0082806  38.9317695  66.2352227  96.6424992  40.0311593  65.2608381
  98.0002457  36.8159195  64.2858871  98.8228526  36.3419673  64.1637761
  98.2440521  37.5949679  64.7857557  96.6410692  39.8447453  54.5821772
  97.3619054  40.2228706  54.0785489  96.0175996  40.5636330  54.6856750
 100.7841815  40.5492602  55.5180105 101.0005429  41.4317240  55.2168933
 100.3035882  40.1578816  54.7885747  95.5241036  43.5078315  62.0950849
  95.3785617  43.8218619  62.9875131  95.0466240  44.1263216  61.5421748
  97.3837419  40.4980863  62.1431739  97.3698988  39.6021957  61.8064037
  98.1009847  40.5051527  62.7770025  99.2363550  40.9318204  64.1884866
  98.9781327  41.8535274  64.1869197  98.7048590  40.5348638  64.8785330
 104.1809738  54.0368991  56.9674952 104.3546616  53.4715413  56.2148804
 104.6738630  54.8369886  56.7854441  96.7874315  39.3795244  57.4119309
  96.9090226  38.4511890  57.6110196  96.4976357  39.3933930  56.4997624
  99.6565505  37.0650154  60.5486029  99.6787202  37.1289487  59.5938008
 100.0733564  36.2254663  60.7426535 110.0349129  46.8005414  58.5865251
 110.4780275  46.0512739  58.1884375 109.1575640  46.7915550  58.2038983
 105.1684911  53.3535755  54.0671850 105.8635815  53.9742448  54.2859164
 105.5108061  52.5031106  54.3424228  90.7852720  45.1753556  67.9268667
  90.0434456  45.3236192  68.5133298  90.4645464  45.4361822  67.0635417
 107.0676334  50.8035461  55.5959181 107.5927658  51.1422733  54.8708501
 106.9798686  49.8682476  55.4122315  98.7296383  54.7169534  67.7249057
  99.0383509  54.4718681  68.5971757  99.5271865  54.9216173  67.2367927
  98.7516995  56.8707444  59.9554434  98.3121985  56.3783823  60.6487290
  99.5025112  56.3280412  59.7146509  96.2715394  40.8927241  71.6209241
  96.3203550  41.7689364  71.2387011  96.8137908  40.3504634  71.0480885
 106.7570240  51.4368364  70.9010379 105.9665784  51.4192503  70.3614878
 106.5203595  51.9756658  71.6559415 106.8768115  48.2860831  68.2143107
 106.9266120  48.1210838  69.1558630 106.7682038  47.4188090  67.8240988
 104.1671877  44.2691759  69.5302414 105.0681740  44.1298224  69.2386412
 104.2419852  44.4346214  70.4700591  98.5014683  41.6458614  68.3755600
  97.6317992  41.9392180  68.1038189  98.7374163  42.2299059  69.0962864
 108.3786312  50.7057772  68.4585129 108.0871120  51.0687753  69.2948590
 107.7658443  49.9924781  68.2798461 109.5781994  48.2710652  60.9787699
 110.4128886  48.7100456  61.1425259 109.7141123  47.7949305  60.1595945
 106.6273500  45.8290387  66.9265187 107.1027622  46.0218033  66.1184038
 105.7039065  45.8849573  66.6808570 101.2053717  37.8638230  65.8921020
 101.7235660  38.5999257  65.5667509 100.8508849  38.1702224  66.7267780
 101.4566311  34.2838513  61.4121917 101.7368065  33.6161702  62.0382344
 102.2416918  34.4767609  60.8996581 105.3275169  42.7056147  65.1593492
 106.2792592  42.8054245  65.1805716 105.1578620  41.9134416  65.6691577
 103.3489549  39.7911730  65.3452893 102.7539481  40.0716743  64.6499382
 103.0639245  40.2805631  66.1169634 102.4797039  53.7434657  54.1055526
 103.4127712  53.6780219  54.3088401 102.3920252  54.5790924  53.6470058
 105.1085056  53.0600527  51.0659473 105.0298687  52.7260391  51.9595231
 105.9294722  53.5522295  51.0650946 107.8063247  45.9262267  64.2735792
 107.7739567  44.9878267  64.4595476 108.4163871  46.0046303  63.5401617
  99.6446578  44.7958320  50.3162996 100.5905682  44.6664528  50.3851414
  99.2660823  44.0572982  50.7932424 107.9557735  42.7173310  64.3194075
 107.4396784  41.9331767  64.1324004 108.8397684  42.3892027  64.4840594
 105.6168462  36.4614326  60.2789888 105.4193283  36.1529414  61.1633220
 106.2268168  37.1875965  60.4087818 113.6239797  46.9878274  63.4141829
 114.3543185  46.7263562  63.9749532 113.0146742  46.2506995  63.4543897
 111.7055094  45.1286136  64.0116280 110.9788257  44.9942101  63.4032771
 111.2902381  45.4362965  64.8172998  99.5285270  48.8476066  71.7763653
 100.4488280  49.0254665  71.9703699  99.4934853  47.9032111  71.6243352
  97.8289495  42.7208296  50.2517881  96.9220950  42.4241409  50.3280595
  98.1065476  42.4238114  49.3852167  92.5247343  46.7577100  64.4186434
  92.7433353  47.6894208  64.4374468  92.9373117  46.3985075  65.2041238
  99.4451561  37.2645186  56.4062122  98.6352289  36.9192271  56.7817368
 100.1335978  36.9552729  56.9949734 101.3742109  36.3423233  58.0286419
 101.9273148  36.7618686  58.6876442 101.6112195  35.4158981  58.0709375
  97.3975208  42.3310306  73.8089183  97.2971935  43.2804663  73.7401274
  97.1796750  42.0028545  72.9365253 104.7520916  38.4523758  57.5365083
 104.1719585  39.1108562  57.1543136 104.4856849  37.6301102  57.1252501
 103.2024482  37.8528815  59.7386404 103.7024261  37.9645350  58.9300722
 103.8460090  37.5489868  60.3787212  97.2606478  45.7607445  72.6254245
  96.7773560  46.5607805  72.8318134  97.3467417  45.7715390  71.6721689
  93.7779198  48.2213096  67.2293476  94.5972087  48.7157174  67.2528313
  94.0516006  47.3045064  67.2011044 103.5345794  40.6123848  56.5921432
 102.6471649  40.8973499  56.3741626 103.9499783  40.4517611  55.7448708
 106.8860330  40.6370369  60.3075771 107.6620720  41.1266822  60.5800388
 106.1608464  41.0628423  60.7647640 109.3232889  41.3497988  61.3649711
 109.9177380  41.1093724  60.6543020 109.3959472  40.6305119  61.9923248
 102.6789007  50.3768523  50.6869452 103.3824858  50.5818525  51.3027107
 101.9551656  50.9445285  50.9518535 103.5086818  46.1278384  56.8071722
 103.4522019  46.5846935  55.9679354 104.0615160  45.3669069  56.6294564
 107.3191624  41.9168116  57.6321841 107.0628558  41.5164752  58.4630049
 106.6944492  42.6311910  57.5071980 111.6303962  44.6564189  60.1393133
 111.0703519  44.7257378  60.9124695 111.0247465  44.4805174  59.4192629
 104.5875705  50.8151052  52.7367912 105.4221309  50.3832250  52.5545386
 104.4260048  50.6433066  53.6644806 104.2421597  47.3183165  54.1024251
 104.1870401  47.1527437  53.1612695 103.6167652  48.0259198  54.2586441
  89.0314112  42.5551230  67.9285673  89.6772976  42.0450184  68.4172898
  88.8231263  43.2919911  68.5029098 101.5567504  49.6232077  73.4277814
 102.4258664  49.7972729  73.0664449 101.0774256  50.4426494  73.3053543
  95.7253684  56.7429178  65.1067247  96.6280931  56.7752788  65.4233742
  95.4991055  55.8129629  65.1213583 101.3669842  33.4134051  57.9355506
 100.6002238  32.8592538  58.0812188 101.7780547  33.4855920  58.7969658
  93.3711603  39.7018847  72.0260687  94.2343065  39.3455652  72.2364012
  92.7977014  39.3632742  72.7136092 113.2159980  61.3320703  62.8323088
 113.8538390  61.2127450  62.1286428 113.0980823  62.2801547  62.8911040
 110.0249686  61.2848131  62.7684613 109.6868198  61.1689196  61.8805148
 110.8939454  60.8839296  62.7485619 105.8836502  63.1383608  58.7581504
 105.3201367  63.0473545  57.9897792 105.7688897  62.3183512  59.2383997
 110.5069469  62.4382983  68.7270819 110.4958110  62.0435781  67.8551322
 110.6690109  61.7049056  69.3204590 103.4300934  64.6334799  61.5965724
 104.2222226  64.2925624  61.1812024 103.6697584  64.7429774  62.5167878
 111.4636061  66.8054575  54.0695969 110.8124040  67.3908656  53.6829983
 112.2580423  67.3360770  54.1291006 105.3891688  63.8943712  54.4683103
 106.1622564  63.3472700  54.3295979 105.7417087  64.7587962  54.6797565
 107.2276730  65.2220095  67.6750003 106.9366596  66.1265726  67.5596669
 107.8633715  65.2636622  68.3894072 108.1532937  62.5996943  64.2651362
 108.7496509  62.3752966  63.5508325 108.2107909  61.8581689  64.8676810
 107.7257966  60.0536379  52.1001553 107.9783486  59.5317900  51.3385016
 106.7882525  59.8902524  52.2028237 112.7701248  59.0572157  59.9076296
 113.5564338  58.6391580  59.5566713 113.0339953  59.9618249  60.0757945
 112.9411326  64.4945007  54.6064953 112.3057159  64.5679634  55.3185858
 112.6108732  65.0838606  53.9284032 118.1709676  58.9947390  60.8109275
 118.9034848  58.4246607  61.0447104 117.4149031  58.6068991  61.2515780
 107.4454254  61.9564485  54.3025928 107.3290512  61.2809388  54.9707012
 107.5556514  61.4696858  53.4858081 109.7885795  61.4174632  58.0072617
 109.4244003  60.8905253  58.7185539 110.6452911  61.0273101  57.8339103
 115.6935096  52.7068964  65.2703883 115.3618421  53.5764375  65.0465098
 115.0980709  52.3905248  65.9497914 109.4291282  56.4464531  53.0033966
 109.5965685  57.3144768  53.3704437 109.2388451  56.6091813  52.0795255
 112.1866615  64.9081510  64.6699796 111.8867339  65.8106549  64.5615603
 111.8417675  64.6413693  65.5220949 105.6379097  61.3595307  60.7036501
 104.7129593  61.2271521  60.9114192 105.8863510  62.1389526  61.2006443
 115.5863759  57.4264050  62.3497234 114.6780637  57.3579459  62.0555995
 115.5351355  57.9035995  63.1779059 109.4080503  58.9022189  53.9880633
 109.2880128  59.3479240  54.8266113 108.7133092  59.2507506  53.4294171
 102.9987908  61.0028581  61.5380290 103.1280289  61.2563060  62.4519701
 102.3185359  61.5956289  61.2184945 107.1687395  71.6725831  57.6370764
 107.0911425  72.6233656  57.7159244 106.5649039  71.3271703  58.2945690
 109.6604625  58.8453696  70.2932131 108.8837959  59.4047616  70.2834995
 110.2995188  59.3310479  70.8147001 117.4525406  55.6280489  64.1275107
 116.8099786  55.9213022  63.4814902 116.9480334  55.5133409  64.9328304
 115.1065569  59.3743662  54.8160967 116.0183425  59.6071049  54.6408664
 114.5975216  59.9580706  54.2536045 107.9150997  61.6539149  69.8550098
 108.6565682  62.1924193  69.5784921 107.2087983  62.2805438  70.0121650
 113.3906337  63.7968290  68.4522259 113.7989693  63.3550700  67.7076892
 112.6683598  63.2220917  68.7056452 109.7437407  58.7340897  65.8255816
 110.5898602  59.1580310  65.9690465 109.6836045  58.0774521  66.5194379
 113.7135152  64.3569480  62.2074548 113.0844014  64.5215195  61.5050616
 113.3260814  64.7711090  62.9785512 117.5924384  65.2923918  59.5618912
 116.9075422  65.6722820  59.0115945 117.6768233  65.9019245  60.2950860
 112.8936852  56.3945265  67.4836990 112.6497784  57.1487325  66.9471266
 113.1696783  56.7730613  68.3184237 114.8475315  62.9383877  66.1614255
 115.0592210  63.5815637  65.4848637 114.8005063  62.1046194  65.6936186
 112.4501544  55.5501698  63.0650828 111.5886023  55.8482952  63.3567565
 112.4763979  55.7672097  62.1331860 109.2663114  64.0943889  59.4724633
 109.7301459  64.3731592  58.6829256 109.0019912  63.1927333  59.2897724
 106.1587195  63.6415370  62.4104397 106.7288552  64.0702638  61.7721881
 106.7495306  63.3597955  63.1088582 108.2032000  60.2167041  56.2814198
 108.9056043  60.6688085  56.7488125 107.8712628  59.5750860  56.9094092
 106.6512361  58.8078798  70.6565408 106.0211022  59.4895078  70.8900805
 106.5448449  58.6961879  69.7118546 101.9457334  58.4750594  61.5831332
 101.1556388  58.7308122  61.1071443 102.4368581  59.2898931  61.6883373
 115.9621143  65.8155833  64.3336613 116.7838587  65.4136020  64.0519294
 115.9583546  65.7124067  65.2852729 103.8972079  58.8395173  58.5414809
 103.1003242  58.9513867  59.0598304 103.6697671  59.1781825  57.6755699
 109.7277747  65.3639876  66.4897323 109.7922179  65.8260283  67.3255495
 109.0188670  64.7337241  66.6179633 100.2295037  58.7281084  64.0146323
 100.4803075  59.6128094  64.2803899 100.7654585  58.5485686  63.2421415
 109.4425764  67.0307984  56.3576304 109.3071439  67.8759519  56.7861151
 109.9835577  67.2327261  55.5942237 105.9293104  53.1099563  73.0190659
 105.5360049  52.5565762  73.6938303 106.7459244  53.4210142  73.4097176
 102.8955162  64.5483422  56.9304229 103.4079682  65.3426672  57.0809793
 103.5477874  63.8509712  56.8637830 104.7050046  67.6649178  59.0126982
 104.8816675  68.5867143  58.8247966 105.5006880  67.3507597  59.4421362
 108.8461065  54.5257442  70.6110915 109.5870778  55.1264596  70.5315378
 109.0778988  53.7835080  70.0528958 103.9902403  59.7113810  68.8889145
 103.8755918  58.8099067  69.1896244 103.1346921  59.9577506  68.5373962
 111.0694241  67.6531550  70.4876646 110.6258095  66.8667929  70.1697550
 111.7311454  67.8410701  69.8220537 105.8281362  69.1827352  65.0137324
 106.3788787  69.0544415  64.2414318 104.9892838  69.4822241  64.6632217
 113.1675479  67.9334350  68.5158047 113.1493954  68.7543231  68.0238316
 114.0895399  67.8088425  68.7408188 109.6248533  65.4478479  69.3581555
 110.1576870  64.6866768  69.1280863 109.0962614  65.1552131  70.1005710
 112.7918228  50.5538545  64.8875197 112.4482497  51.4440187  64.8114308
 113.1597190  50.3640203  64.0244782 100.8604078  62.8772076  57.7063799
 101.6979300  63.2869084  57.4897507 101.0382346  61.9371518  57.6763993
 112.7568510  60.5447157  53.3947632 112.2415134  61.3151761  53.6336020
 112.4845819  59.8712293  54.0180694 110.3415622  55.3896857  58.4532871
 109.4857218  55.0003708  58.2738509 110.7542573  55.4688818  57.5932656
 111.8714768  52.9243201  62.8524430 111.3679564  52.8873336  62.0392236
 112.1645375  53.8335943  62.9121087 108.1157654  53.0081930  61.8590612
 108.9810651  52.8124739  61.4996502 108.1835163  52.7792282  62.7859969
 117.7302785  63.2979511  55.3300806 116.9532227  62.9590671  54.8855968
 118.4094266  63.3032134  54.6555771 112.5454814  58.4174249  55.2207413
 112.2404949  58.7320398  56.0717557 113.4985256  58.4955668  55.2634746
 110.9901245  64.5764472  56.8700367 110.4622607  63.8417232  56.5573605
 110.4888748  65.3539148  56.6240336 115.9694092  62.7713492  61.9867414
 115.3117766  63.4612754  62.0747542 116.7734491  63.1609924  62.3301400
 105.7219973  55.2384138  59.2306979 106.2963725  55.0159320  58.4980172
 106.3090956  55.3072833  59.9835580 114.7799550  61.1257865  60.0371355
 115.2931432  61.7587857  60.5393065 115.4300774  60.5259061  59.6714715
 106.0489560  57.2688599  53.2502864 105.2126872  57.6063286  53.5712139
 105.9094330  57.1337579  52.3130001 108.0242641  52.1125387  57.9582048
 107.3707053  51.7974404  57.3338663 107.9823115  51.4901128  58.6841871
 109.1353846  62.3944682  49.8735340 108.2280907  62.1633936  50.0726489
 109.6324878  61.5982301  50.0609322 112.0421925  71.1042189  52.7932027
 111.3683623  71.4073886  53.4016984 112.4287747  71.9071270  52.4437484
 111.2580381  58.6007321  62.2829696 110.3402943  58.8222268  62.1251384
 111.6740525  58.6753631  61.4241403 112.0415429  59.9998736  57.4132376
 112.7887248  60.5120134  57.1039498 112.3107018  59.6782789  58.2736770
 110.3142079  62.4957277  54.3959331 109.4053298  62.2116310  54.4931800
 110.3437163  62.9156356  53.5362637 115.5461347  66.1063867  58.1650498
 115.0923674  65.2654776  58.2215689 114.9155313  66.7425265  58.5025278
 114.4894266  57.0355853  59.3951166 113.7517023  56.5233239  59.7261408
 114.7421040  56.5956234  58.5834442 113.9894286  67.9440363  59.1000316
 114.2817260  68.5045420  58.3812682 114.4992906  68.2368924  59.8553475
 114.5905893  49.8132105  59.9892935 114.8964770  48.9529468  59.7018850
 115.3158498  50.4049725  59.7891929 100.8830249  60.2162791  58.3774533
 100.6854649  59.6232152  57.6525599 100.3276913  59.9115001  59.0950472
 108.8626973  60.1085898  60.4969126 108.9175583  59.1559734  60.4211602
 108.0518175  60.2645337  60.9810424 110.0118167  64.0366021  51.7347409
 109.5737597  63.3201880  51.2753046 110.7528608  64.2642136  51.1732500
 106.8019333  58.7262957  58.2559505 105.9887199  59.0257128  58.6624697
 107.2978327  58.3318646  58.9733987 108.9527911  68.7220714  60.1893769
 108.9104090  68.9481561  59.2602301 109.8690610  68.4884089  60.3379571
 112.3993545  59.1904782  67.0874399 112.7542932  59.4176255  67.9468864
 113.0465676  59.5223159  66.4651654 118.1291282  62.3123218  57.7923728
 117.9909180  62.5024814  56.8644917 117.7727501  63.0742601  58.2491779
 106.2933408  56.2981313  63.8720740 106.9332787  56.1570072  63.1743703
 105.4610938  56.0115826  63.4959342 118.1560661  64.3799745  62.8034999
 118.5897168  64.2875034  63.6518053 118.8692242  64.3557245  62.1655015
 107.0693712  65.5983743  59.9855732 107.8634310  65.1034063  59.7838307
 106.3585404  65.0701606  59.6223438 111.8888556  67.9801839  64.3368100
 111.9425578  68.5492775  65.1045816 111.0203338  68.1503724  63.9722137
 103.3776475  59.7426825  56.0615485 102.4474063  59.6811281  56.2785447
 103.4733947  59.2202778  55.2652126 103.2962024  56.2681638  58.6493726
 103.5568842  57.1826971  58.5402887 104.1179197  55.8006080  58.7990339
 104.7686950  57.6819395  65.8192551 105.4410003  57.4736757  65.1705200
 103.9416736  57.4841481  65.3797783 119.0176211  64.4223445  65.3367885
 119.2112101  65.3269256  65.5827159 118.9176829  63.9630864  66.1706470
 110.6712522  54.3081336  67.8358212 110.0240437  55.0071286  67.7422688
 111.4413537  54.7417480  68.2034460 114.0791320  64.5730188  70.9108765
 113.9276826  64.3440740  69.9938849 114.0695999  65.5300790  70.9240110
 110.8476656  62.1462101  65.8955032 111.7768716  62.2973261  65.7223999
 110.4267686  62.2346122  65.0403678 109.6464988  66.1712765  63.6653569
 109.5076073  65.8031550  64.5379507 108.8579584  66.6860405  63.4937527
 110.2413140  71.2721862  55.0079106 110.4164895  70.8009905  55.8224728
 109.5545928  71.8987628  55.2360366 111.1970203  65.5494368  61.0542407
 110.8620035  65.5095138  61.9500057 110.6974149  64.8839084  60.5812817
 105.1714447  60.9561998  66.5794988 105.0334245  60.2242237  67.1806527
 106.0819370  60.8670898  66.2979176 114.1329395  62.8950402  51.3279467
 113.5158565  62.1697231  51.2312519 113.6645883  63.6559763  50.9846541
 107.7996747  60.6681957  66.0678668 108.5096366  60.0275150  66.0265286
 107.7566056  60.9194852  66.9904849 115.7883526  67.6049311  68.9885247
 115.7296072  66.9208531  68.3215830 116.1903045  68.3468301  68.5365873
 106.5125681  57.6547175  67.8874307 105.9763038  57.2037914  68.5395904
 105.9242390  57.7893084  67.1444772 104.8074225  74.4211225  61.7818966
 105.0470823  75.0529749  62.4597984 103.9643421  74.0699265  62.0684325
 105.9227940  57.1135827  50.4500771 105.0457407  56.9924627  50.0863018
 106.3985693  56.3221905  50.1979660 115.7900933  65.5688895  67.2199227
 114.9027712  65.2314816  67.3425626 116.3599485  64.8371926  67.4567992
  97.4430081  61.9012986  60.5442278  98.1301120  61.5874716  59.9563293
  97.2878209  62.8054351  60.2709530 102.2464803  56.7903183  64.9727302
 102.1622991  56.1828853  64.2377712 101.4247509  57.2812201  64.9736798
 109.3202087  70.2290347  64.1860470 109.2472258  71.0345319  64.6979774
 108.8779480  70.4282313  63.3608491 109.1091866  69.4662117  57.6963291
 108.3259388  70.0083797  57.7901516 109.8084612  69.9836097  58.0957533
 112.4188517  55.2756746  60.3397497 112.9157216  54.5226709  60.0198567
 111.6475498  55.3121063  59.7740706 120.2718274  60.9797112  61.9815788
 120.2608150  61.8621827  61.6109721 119.4035653  60.6268663  61.7870325
 111.7800770  70.1277181  66.3418629 112.4928743  70.7624646  66.2694530
 111.2890799  70.2241047  65.5258630 113.5018297  64.0328434  57.9135920
 112.5674576  64.1529896  57.7440625 113.6794966  63.1300900  57.6495930
 109.0023485  57.4174129  60.0669181 108.6321273  56.8645170  60.7550087
 109.4982578  56.8132263  59.5144181 116.8890849  59.8745753  58.4485954
 117.3551301  60.7073745  58.3746257 117.3398349  59.4090735  59.1531213
 106.8312684  67.8771625  67.1624199 107.5322143  68.5108107  67.3153594
 106.3607799  68.2186356  66.4019839 114.9567080  66.2189574  55.4472106
 115.2326924  66.1046169  56.3565980 114.0871578  65.8207059  55.4084280
 114.8607511  52.2426340  62.4876856 113.9470591  52.4730567  62.6559063
 115.2900613  52.3264784  63.3390888 114.6313970  60.4316232  64.9876750
 113.9785420  60.6792139  64.3329202 115.0094350  59.6180370  64.6539227
 111.5921144  70.4675925  59.0904920 111.7743538  69.6497581  59.5532672
 112.4154130  70.6843617  58.6529810 111.9263309  69.3944110  56.3519969
 112.4551076  68.8836565  55.7390131 112.1891529  69.0786640  57.2165502
 110.6801543  61.1736043  71.4742787 110.0042180  61.0730172  72.1445162
 111.5029177  61.0175257  71.9378784 102.4280402  67.4107980  64.0955302
 103.0133839  66.6651667  64.2283206 102.2305240  67.7211936  64.9791966
 105.2819057  70.4459227  59.1117744 104.6129432  70.9305355  58.6281785
 105.1431927  70.6928447  60.0261123  97.0198057  59.9813580  62.8159745
  97.0582156  59.4477170  63.6096863  96.5138350  59.4548785  62.1970722
 109.4224326  72.4802970  65.7100403 109.9742634  72.6434592  66.4749488
 109.7630519  73.0707408  65.0380428 104.3988819  54.8278120  66.3122288
 104.4630145  55.6892951  65.8999685 104.3355939  54.2152122  65.5794646
 103.8741092  56.9001253  69.9595322 104.5013130  56.5178330  70.5732846
 103.0169010  56.6815455  70.3251014 114.2735200  67.3064228  71.5649057
 114.8175104  67.9194186  71.0704012 113.6922045  67.8643806  72.0816070
 100.6506634  58.7077682  55.8913677 100.9460075  57.7988360  55.8380730
  99.7494670  58.6865421  55.5694679 112.5592713  70.4284946  62.6964085
 112.4343852  69.6274686  62.1875030 113.2171804  70.9231139  62.2078055
 104.1800881  56.7833678  61.8741225 103.4587467  57.3969646  61.7348699
 104.9694137  57.3191443  61.7957871 114.6227621  68.2293966  64.3243635
 113.6757957  68.1099317  64.2521962 114.9710395  67.3416464  64.4069897
 106.9827195  54.1188105  68.1481877 107.5061597  54.3650402  68.9108186
 106.7639528  54.9508140  67.7285014 102.3794476  56.3891780  56.0153002
 102.0507182  55.5089158  55.8328108 102.7333847  56.3339448  56.9029391
 111.6274055  68.0246682  60.5247987 111.4799017  67.0963390  60.7055557
 112.4527548  68.0466773  60.0405063 105.4936299  56.6764749  56.3828479
 105.8332372  57.2050671  55.6607088 105.9408419  57.0145155  57.1587046
 115.2308177  68.8475241  61.6112860 116.1554724  68.6418102  61.4737311
 115.0623480  68.5991642  62.5202202 108.1879740  55.0601800  65.8331547
 107.8476560  54.2609613  66.2352227 107.4818746  55.3603511  65.2608381
 108.8396212  52.1451113  64.2858871 109.6622281  51.6711591  64.1637761
 109.0834275  52.9241596  64.7857557 107.4804446  55.1739371  54.5821772
 108.2012809  55.5520624  54.0785489 106.8569750  55.8928248  54.6856750
 111.6235569  55.8784520  55.5180105 111.8399183  56.7609158  55.2168933
 111.1429636  55.4870733  54.7885747 106.3634790  58.8370233  62.0950849
 106.2179371  59.1510536  62.9875131 105.8859994  59.4555133  61.5421748
 108.2231173  55.8272781  62.1431739 108.2092742  54.9313874  61.8064037
 108.9403601  55.8343445  62.7770025 110.0757304  56.2610121  64.1884866
 109.8175082  57.1827192  64.1869197 109.5442344  55.8640556  64.8785330
 115.0203493  69.3660908  56.9674952 115.1940370  68.8007331  56.2148804
 115.5132384  70.1661803  56.7854441 100.8380453  61.3775578  65.0338510
 100.2933921  62.1535386  65.1658785 101.7159802  61.7246382  64.8757632
 107.6268069  54.7087161  57.4119309 107.7483980  53.7803808  57.6110196
 107.3370112  54.7225847  56.4997624 110.4959260  52.3942072  60.5486029
 110.5180956  52.4581405  59.5938008 110.9127319  51.5546581  60.7426535
 120.8742884  62.1297331  58.5865251 121.3174030  61.3804657  58.1884375
 119.9969394  62.1207468  58.2038983 116.0078665  68.6827673  54.0671850
 116.7029570  69.3034366  54.2859164 116.3501815  67.8323024  54.3424228
 101.6246474  60.5045474  67.9268667 100.8828210  60.6528109  68.5133298
 101.3039219  60.7653739  67.0635417 117.9070088  66.1327378  55.5959181
 118.4321412  66.4714651  54.8708501 117.8192441  65.1974394  55.4122315
 109.5690137  70.0461452  67.7249057 109.8777264  69.8010599  68.5971757
 110.3665619  70.2508091  67.2367927 109.5910749  72.1999362  59.9554434
 109.1515739  71.7075740  60.6487290 110.3418866  71.6572329  59.7146509
 102.0703088  68.3910903  59.9579062 102.8961108  68.0914674  59.5777705
 101.7197140  67.6218525  60.4068850 107.0384621  67.7437371  62.0276735
 106.4164631  67.0808076  61.7278963 107.7089488  67.7698503  61.3450383
 100.2711693  66.3097229  60.9167995  99.4343601  65.8819403  60.7351997
 100.2435339  66.5029672  61.8538787 107.1109149  56.2219159  71.6209241
 107.1597304  57.0981282  71.2387011 107.6531663  55.6796552  71.0480885
 117.5963994  66.7660282  70.9010379 116.8059538  66.7484421  70.3614878
 117.3597349  67.3048576  71.6559415 117.7161870  63.6152748  68.2143107
 117.7659874  63.4502756  69.1558630 117.6075793  62.7480007  67.8240988
 106.5998128  66.2941294  55.5035196 106.7486249  66.9776758  54.8501869
 107.4064572  66.2746384  56.0184652 115.0065632  59.5983676  69.5302414
 115.9075495  59.4590141  69.2386412 115.0813606  59.7638131  70.4700591
 109.3408437  56.9750531  68.3755600 108.4711747  57.2684097  68.1038189
 109.5767918  57.5590976  69.0962864 119.2180066  66.0349690  68.4585129
 118.9264875  66.3979670  69.2948590 118.6052198  65.3216698  68.2798461
 120.4175749  63.6002570  60.9787699 121.2522640  64.0392374  61.1425259
 120.5534877  63.1241223  60.1595945 117.4667255  61.1582305  66.9265187
 117.9421376  61.3509951  66.1184038 116.5432820  61.2141490  66.6808570
 104.3550761  62.3206472  56.5096265 104.1096803  61.4168802  56.7076475
 104.5246676  62.3223622  55.5675743 112.0447471  53.1930148  65.8921020
 112.5629415  53.9291175  65.5667509 111.6902604  53.4994141  66.7267780
 103.6246409  58.0534829  54.0082426 102.9315654  58.1279184  53.3522462
 103.3798161  57.2895173  54.5303943 112.2960065  49.6130431  61.4121917
 112.5761819  48.9453620  62.0382344 113.0810672  49.8059526  60.8996581
 110.0993534  68.7889425  52.9746943 109.5267501  69.4079612  52.5217415
 110.6726327  69.3388786  53.5086865 116.1668924  58.0348065  65.1593492
 117.1186346  58.1346162  65.1805716 115.9972374  57.2426333  65.6691577
 114.1883303  55.1203648  65.3452893 113.5933235  55.4008661  64.6499382
 113.9033000  55.6097549  66.1169634 113.3190794  69.0726575  54.1055526
 114.2521467  69.0072136  54.3088401 113.2314006  69.9082842  53.6470058
 115.9478810  68.3892445  51.0659473 115.8692442  68.0552309  51.9595231
 116.7688477  68.8814213  51.0650946 118.6457001  61.2554184  64.2735792
 118.6133321  60.3170185  64.4595476 119.2557625  61.3338221  63.5401617
 110.4840332  60.1250237  50.3162996 111.4299437  59.9956445  50.3851414
 110.1054577  59.3864899  50.7932424 118.7951490  58.0465228  64.3194075
 118.2790538  57.2623684  64.1324004 119.6791438  57.7183944  64.4840594
 116.4562217  51.7906243  60.2789888 116.2587038  51.4821332  61.1633220
 117.0661922  52.5167882  60.4087818 110.3679025  64.1767983  71.7763653
 111.2882034  64.3546582  71.9703699 110.3328608  63.2324029  71.6243352
 108.6683249  58.0500214  50.2517881 107.7614705  57.7533326  50.3280595
 108.9459230  57.7530032  49.3852167  99.5861190  59.3706577  60.7016927
  99.2663974  58.5171885  60.4091301  99.0394618  59.5855155  61.4574895
 103.3641097  62.0869018  64.4186434 103.5827107  63.0186126  64.4374468
 103.7766871  61.7276993  65.2041238 110.2845315  52.5937103  56.4062122
 109.4746043  52.2484188  56.7817368 110.9729732  52.2844647  56.9949734
 112.2135863  51.6715150  58.0286419 112.7666902  52.0910604  58.6876442
 112.4505950  50.7450898  58.0709375 108.2368963  57.6602224  73.8089183
 108.1365690  58.6096581  73.7401274 108.0190505  57.3320463  72.9365253
 107.4382034  54.9087149  50.3929860 108.3001198  55.2342047  50.6525678
 107.6232378  54.1218645  49.8802926  99.4549450  62.9909489  62.6710049
  98.7612921  62.5763441  62.1580003 100.2022441  63.0330025  62.0743468
 115.5914670  53.7815675  57.5365083 115.0113340  54.4400479  57.1543136
 115.3250603  52.9593020  57.1252501 114.0418237  53.1820733  59.7386404
 114.5418015  53.2937268  58.9300722 114.6853845  52.8781786  60.3787212
 108.1000233  61.0899363  72.6254245 107.6167314  61.8899723  72.8318134
 108.1861172  61.1007308  71.6721689 101.3686192  62.9227742  60.5476064
 101.3456880  63.0215430  59.5957947 101.6786829  63.7692893  60.8693230
 104.0273570  64.9803897  64.6622678 104.9816824  64.9487840  64.5952610
 103.8286094  64.5194521  65.4772904 104.6172952  63.5505013  67.2293476
 105.4365841  64.0449092  67.2528313 104.8909760  62.6336982  67.2011044
 114.3739548  55.9415766  56.5921432 113.4865404  56.2265416  56.3741626
 114.7893538  55.7809529  55.7448708 117.7254085  55.9662287  60.3075771
 118.5014475  56.4558739  60.5800388 117.0002219  56.3920341  60.7647640
 120.1626643  56.6789906  61.3649711 120.7571134  56.4385642  60.6543020
 120.2353227  55.9597037  61.9923248 102.3823799  70.5223517  61.6792876
 102.2478267  69.7623918  61.1130874 101.9655861  71.2464417  61.2121665
 113.5182762  65.7060440  50.6869452 114.2218612  65.9110443  51.3027107
 112.7945411  66.2737202  50.9518535 114.3480572  61.4570302  56.8071722
 114.2915774  61.9138853  55.9679354 114.9008915  60.6960986  56.6294564
 118.1585378  57.2460034  57.6321841 117.9022312  56.8456669  58.4630049
 117.5338246  57.9603827  57.5071980 122.4697716  59.9856107  60.1393133
 121.9097274  60.0549296  60.9124695 121.8641219  59.8097091  59.4192629
 105.5392925  71.4192834  61.8911319 105.4225309  72.3638266  61.7890009
 104.7185371  71.1166395  62.2797118 115.4269459  66.1442970  52.7367912
 116.2615063  65.7124168  52.5545386 115.2653802  65.9724983  53.6644806
 115.0815352  62.6475083  54.1024251 115.0264155  62.4819354  53.1612695
 114.4561407  63.3551116  54.2586441  99.8707867  57.8843147  67.9285673
 100.5166730  57.3742101  68.4172898  99.6625018  58.6211829  68.5029098
 112.3961259  64.9523995  73.4277814 113.2652418  65.1264647  73.0664449
 111.9168010  65.7718412  73.3053543 108.3911477  52.1483192  53.6809569
 108.3790147  53.0925032  53.8377840 109.2834899  51.9653337  53.3869030
 106.5647439  72.0721096  65.1067247 107.4674686  72.1044706  65.4233742
 106.3384809  71.1421547  65.1213583 108.3201041  70.8252082  61.7677326
 107.3696672  70.8253944  61.6541698 108.6233527  70.0784817  61.2513361
 112.2063596  48.7425969  57.9355506 111.4395992  48.1884455  58.0812188
 112.6174301  48.8147837  58.7969658 104.2105358  55.0310764  72.0260687
 105.0736819  54.6747569  72.2364012 103.6370768  54.6924659  72.7136092
 120.8643441  76.6140049  62.7684613 120.5261952  76.4981114  61.8805148
 121.7333209  76.2131214  62.7485619 116.7230256  78.4675525  58.7581504
 116.1595122  78.3765462  57.9897792 116.6082651  77.6475430  59.2383997
 121.3463224  77.7674901  68.7270819 121.3351864  77.3727699  67.8551322
 121.5083863  77.0340973  69.3204590 114.2694688  79.9626717  61.5965724
 115.0615980  79.6217542  61.1812024 114.5091339  80.0721692  62.5167878
 116.2285442  79.2235630  54.4683103 117.0016318  78.6764617  54.3295979
 116.5810841  80.0879879  54.6797565 118.0670485  80.5512012  67.6750003
 117.7760351  81.4557643  67.5596669 118.7027469  80.5928540  68.3894072
 118.9926692  77.9288861  64.2651362 119.5890264  77.7044883  63.5508325
 119.0501663  77.1873606  64.8676810 118.5651720  75.3828296  52.1001553
 118.8177241  74.8609818  51.3385016 117.6276279  75.2194442  52.2028237
 118.2848009  77.2856402  54.3025928 118.1684267  76.6101306  54.9707012
 118.3950269  76.7988776  53.4858081 120.6279550  76.7466549  58.0072617
 120.2637757  76.2197170  58.7185539 121.4846666  76.3565018  57.8339103
 120.2685037  71.7756449  53.0033966 120.4359439  72.6436685  53.3704437
 120.0782206  71.9383731  52.0795255 116.4772851  76.6887225  60.7036501
 115.5523348  76.5563439  60.9114192 116.7257265  77.4681444  61.2006443
 120.2474258  74.2314106  53.9880633 120.1273883  74.6771157  54.8266113
 119.5526846  74.5799424  53.4294171 113.8381662  76.3320498  61.5380290
 113.9674044  76.5854977  62.4519701 113.1579114  76.9248206  61.2184945
 118.0081150  87.0017748  57.6370764 117.9305179  87.9525573  57.7159244
 117.4042793  86.6563621  58.2945690 120.4998380  74.1745614  70.2932131
 119.7231714  74.7339534  70.2834995 121.1388943  74.6602397  70.8147001
 118.7544752  76.9831067  69.8550098 119.4959436  77.5216111  69.5784921
 118.0481737  77.6097356  70.0121650 120.5831162  74.0632814  65.8255816
 121.4292357  74.4872228  65.9690465 120.5229799  73.4066439  66.5194379
 120.1056868  79.4235806  59.4724633 120.5695214  79.7023509  58.6829256
 119.8413666  78.5219251  59.2897724 116.9980949  78.9707288  62.4104397
 117.5682306  79.3994556  61.7721881 117.5889061  78.6889872  63.1088582
 119.0425754  75.5458959  56.2814198 119.7449797  75.9980002  56.7488125
 118.7106383  74.9042777  56.9094092 117.4906116  74.1370715  70.6565408
 116.8604776  74.8186996  70.8900805 117.3842203  74.0253797  69.7118546
 112.7851088  73.8042511  61.5831332 111.9950142  74.0600040  61.1071443
 113.2762335  74.6190849  61.6883373 114.7365833  74.1687090  58.5414809
 113.9396997  74.2805785  59.0598304 114.5091426  74.5073743  57.6755699
 120.5671501  80.6931794  66.4897323 120.6315934  81.1552201  67.3255495
 119.8582425  80.0629159  66.6179633 111.0688791  74.0573002  64.0146323
 111.3196829  74.9420012  64.2803899 111.6048339  73.8777603  63.2421415
 120.2819519  82.3599901  56.3576304 120.1465193  83.2051437  56.7861151
 120.8229331  82.5619179  55.5942237 116.7686858  68.4391481  73.0190659
 116.3753804  67.8857680  73.6938303 117.5852999  68.7502060  73.4097176
 113.7348916  79.8775339  56.9304229 114.2473437  80.6718589  57.0809793
 114.3871629  79.1801630  56.8637830 115.5443801  82.9941096  59.0126982
 115.7210429  83.9159060  58.8247966 116.3400634  82.6799515  59.4421362
 119.6854819  69.8549360  70.6110915 120.4264533  70.4556513  70.5315378
 119.9172742  69.1126998  70.0528958 114.8296157  75.0405727  68.8889145
 114.7149672  74.1390985  69.1896244 113.9740675  75.2869424  68.5373962
 116.6675116  84.5119269  65.0137324 117.2182541  84.3836333  64.2414318
 115.8286592  84.8114158  64.6632217 120.4642287  80.7770397  69.3581555
 120.9970624  80.0158685  69.1280863 119.9356368  80.4844049  70.1005710
 111.6997833  78.2063994  57.7063799 112.5373055  78.6161002  57.4897507
 111.8776101  77.2663436  57.6763993 121.1809376  70.7188775  58.4532871
 120.3250972  70.3295625  58.2738509 121.5936328  70.7980736  57.5932656
 118.9551409  68.3373848  61.8590612 119.8204405  68.1416657  61.4996502
 119.0228917  68.1084200  62.7859969 121.8295000  79.9056390  56.8700367
 121.3016362  79.1709149  56.5573605 121.3282503  80.6831066  56.6240336
 116.5613728  70.5676056  59.2306979 117.1357479  70.3451237  58.4980172
 117.1484710  70.6364750  59.9835580 116.8883315  72.5980517  53.2502864
 116.0520627  72.9355203  53.5712139 116.7488084  72.4629497  52.3130001
 118.8636395  67.4417305  57.9582048 118.2100808  67.1266322  57.3338663
 118.8216869  66.8193045  58.6841871 119.9747600  77.7236600  49.8735340
 119.0674662  77.4925853  50.0726489 120.4718632  76.9274219  50.0609322
 121.1535834  77.8249195  54.3959331 120.2447053  77.5408228  54.4931800
 121.1830917  78.2448273  53.5362637 111.7224004  75.5454709  58.3774533
 111.5248404  74.9524070  57.6525599 111.1670668  75.2406919  59.0950472
 119.7020728  75.4377815  60.4969126 119.7569337  74.4851652  60.4211602
 118.8911930  75.5937254  60.9810424 120.8511921  79.3657938  51.7347409
 120.4131351  78.6493797  51.2753046 121.5922362  79.5934053  51.1732500
 117.6413088  74.0554875  58.2559505 116.8280953  74.3549046  58.6624697
 118.1372082  73.6610564  58.9733987 119.7921665  84.0512632  60.1893769
 119.7497844  84.2773478  59.2602301 120.7084364  83.8176007  60.3379571
 117.1327162  71.6273231  63.8720740 117.7726542  71.4861990  63.1743703
 116.3004693  71.3407744  63.4959342 117.9087466  80.9275661  59.9855732
 118.7028065  80.4325981  59.7838307 117.1979159  80.3993524  59.6223438
 114.2170230  75.0718743  56.0615485 113.2867818  75.0103198  56.2785447
 114.3127702  74.5494696  55.2652126 114.1355779  71.5973556  58.6493726
 114.3962596  72.5118889  58.5402887 114.9572951  71.1297998  58.7990339
 115.6080704  73.0111313  65.8192551 116.2803757  72.8028675  65.1705200
 114.7810491  72.8133399  65.3797783 121.5106276  69.6373254  67.8358212
 120.8634191  70.3363203  67.7422688 122.2807291  70.0709398  68.2034460
 120.4858742  81.5004683  63.6653569 120.3469828  81.1323467  64.5379507
 119.6973338  82.0152322  63.4937527 121.0806894  86.6013779  55.0079106
 121.2558650  86.1301823  55.8224728 120.3939682  87.2279546  55.2360366
 122.0363957  80.8786286  61.0542407 121.7013790  80.8387056  61.9500057
 121.5367903  80.2131002  60.5812817 116.0108201  76.2853916  66.5794988
 115.8727999  75.5534155  67.1806527 116.9213125  76.1962816  66.2979176
 118.6390502  75.9973875  66.0678668 119.3490121  75.3567067  66.0265286
 118.5959810  76.2486770  66.9904849 117.3519436  72.9839093  67.8874307
 116.8156793  72.5329831  68.5395904 116.7636144  73.1185002  67.1444772
 115.6467979  89.7503142  61.7818966 115.8864578  90.3821666  62.4597984
 114.8037176  89.3991182  62.0684325 116.7621695  72.4427744  50.4500771
 115.8851161  72.3216545  50.0863018 117.2379448  71.6513823  50.1979660
 108.2823835  77.2304904  60.5442278 108.9694875  76.9166634  59.9563293
 108.1271964  78.1346269  60.2709530 113.0858557  72.1195101  64.9727302
 113.0016746  71.5120770  64.2377712 112.2641264  72.6104119  64.9736798
 120.1595841  85.5582265  64.1860470 120.0866013  86.3637236  64.6979774
 119.7173234  85.7574231  63.3608491 119.9485621  84.7954035  57.6963291
 119.1653143  85.3375715  57.7901516 120.6478366  85.3128014  58.0957533
 119.8417240  72.7466047  60.0669181 119.4715027  72.1937088  60.7550087
 120.3376332  72.1424181  59.5144181 117.6706438  83.2063542  67.1624199
 118.3715898  83.8400025  67.3153594 117.2001553  83.5478274  66.4019839
 121.5195297  76.5027961  71.4742787 120.8435934  76.4022090  72.1445162
 122.3422931  76.3467174  71.9378784 113.2674156  82.7399897  64.0955302
 113.8527593  81.9943585  64.2283206 113.0698995  83.0503854  64.9791966
 116.1212812  85.7751145  59.1117744 115.4523187  86.2597272  58.6281785
 115.9825681  86.0220365  60.0261123 107.8591811  75.3105497  62.8159745
 107.8975911  74.7769088  63.6096863 107.3532104  74.7840703  62.1970722
 120.2618080  87.8094888  65.7100403 120.8136388  87.9726510  66.4749488
 120.6024274  88.3999326  65.0380428 115.2382573  70.1570038  66.3122288
 115.3023900  71.0184869  65.8999685 115.1749694  69.5444040  65.5794646
 114.7134846  72.2293170  69.9595322 115.3406885  71.8470248  70.5732846
 113.8562765  72.0107372  70.3251014 111.4900389  74.0369600  55.8913677
 111.7853830  73.1280278  55.8380730 110.5888425  74.0157339  55.5694679
 115.0194636  72.1125596  61.8741225 114.2981222  72.7261564  61.7348699
 115.8087892  72.6483361  61.7957871 117.8220949  69.4480023  68.1481877
 118.3455351  69.6942319  68.9108186 117.6033283  70.2800057  67.7285014
 113.2188230  71.7183697  56.0153002 112.8900937  70.8381076  55.8328108
 113.5727601  71.6631366  56.9029391 116.3330054  72.0056667  56.3828479
 116.6726126  72.5342588  55.6607088 116.7802174  72.3437073  57.1587046
 119.0273494  70.3893718  65.8331547 118.6870315  69.5901531  66.2352227
 118.3212501  70.6895429  65.2608381 119.6789966  67.4743030  64.2858871
 120.5016035  67.0003508  64.1637761 119.9228030  68.2533514  64.7857557
 118.3198201  70.5031289  54.5821772 119.0406563  70.8812541  54.0785489
 117.6963505  71.2220165  54.6856750 117.2028545  74.1662151  62.0950849
 117.0573126  74.4802454  62.9875131 116.7253749  74.7847051  61.5421748
 119.0624928  71.1564699  62.1431739 119.0486497  70.2605792  61.8064037
 119.7797356  71.1635363  62.7770025 120.9151059  71.5902039  64.1884866
 120.6568836  72.5119110  64.1869197 120.3836099  71.1932474  64.8785330
 111.6774207  76.7067495  65.0338510 111.1327675  77.4827303  65.1658785
 112.5553557  77.0538300  64.8757632 118.4661824  70.0379079  57.4119309
 118.5877735  69.1095725  57.6110196 118.1763866  70.0517765  56.4997624
 121.3353014  67.7233990  60.5486029 121.3574711  67.7873323  59.5938008
 121.7521073  66.8838498  60.7426535 112.4640229  75.8337391  67.9268667
 111.7221965  75.9820027  68.5133298 112.1432973  76.0945657  67.0635417
 120.4083892  85.3753370  67.7249057 120.7171018  85.1302516  68.5971757
 121.2059374  85.5800008  67.2367927 120.4304504  87.5291279  59.9554434
 119.9909494  87.0367658  60.6487290 121.1812621  86.9864247  59.7146509
 112.9096843  83.7202820  59.9579062 113.7354863  83.4206592  59.5777705
 112.5590895  82.9510443  60.4068850 117.8778376  83.0729288  62.0276735
 117.2558385  82.4099993  61.7278963 118.5483243  83.0990420  61.3450383
 111.1105448  81.6389147  60.9167995 110.2737356  81.2111321  60.7351997
 111.0829093  81.8321590  61.8538787 117.9502903  71.5511076  71.6209241
 117.9991059  72.4273199  71.2387011 118.4925417  71.0088470  71.0480885
 117.4391883  81.6233212  55.5035196 117.5880003  82.3068676  54.8501869
 118.2458326  81.6038302  56.0184652 120.1802192  72.3042449  68.3755600
 119.3105501  72.5976015  68.1038189 120.4161672  72.8882894  69.0962864
 115.1944516  77.6498389  56.5096265 114.9490558  76.7460719  56.7076475
 115.3640430  77.6515540  55.5675743 114.4640163  73.3826747  54.0082426
 113.7709408  73.4571102  53.3522462 114.2191915  72.6187091  54.5303943
 120.9387288  84.1181342  52.9746943 120.3661255  84.7371529  52.5217415
 121.5120082  84.6680704  53.5086865 121.3234087  75.4542155  50.3162996
 122.2693191  75.3248363  50.3851414 120.9448332  74.7156817  50.7932424
 121.2072779  79.5059901  71.7763653 122.1275789  79.6838500  71.9703699
 121.1722362  78.5615946  71.6243352 119.5077004  73.3792131  50.2517881
 118.6008459  73.0825244  50.3280595 119.7852985  73.0821949  49.3852167
 110.4254944  74.6998495  60.7016927 110.1057729  73.8463803  60.4091301
 109.8788372  74.9147073  61.4574895 114.2034852  77.4160936  64.4186434
 114.4220862  78.3478044  64.4374468 114.6160626  77.0568910  65.2041238
 121.1239070  67.9229021  56.4062122 120.3139798  67.5776106  56.7817368
 121.8123487  67.6136565  56.9949734 119.0762717  72.9894142  73.8089183
 118.9759444  73.9388498  73.7401274 118.8584259  72.6612380  72.9365253
 118.2775788  70.2379067  50.3929860 119.1394952  70.5633965  50.6525678
 118.4626133  69.4510562  49.8802926 110.2943204  78.3201406  62.6710049
 109.6006676  77.9055359  62.1580003 111.0416195  78.3621943  62.0743468
 118.9393987  76.4191280  72.6254245 118.4561069  77.2191640  72.8318134
 119.0254926  76.4299225  71.6721689 112.2079947  78.2519660  60.5476064
 112.1850635  78.3507347  59.5957947 112.5180583  79.0984811  60.8693230
 114.8667325  80.3095815  64.6622678 115.8210578  80.2779757  64.5952610
 114.6679848  79.8486439  65.4772904 115.4566707  78.8796931  67.2293476
 116.2759596  79.3741010  67.2528313 115.7303514  77.9628899  67.2011044
 113.2217553  85.8515435  61.6792876 113.0872021  85.0915835  61.1130874
 112.8049616  86.5756334  61.2121665 116.3786679  86.7484752  61.8911319
 116.2619063  87.6930184  61.7890009 115.5579126  86.4458313  62.2797118
 110.7101621  73.2135065  67.9285673 111.3560485  72.7034019  68.4172898
 110.5018772  73.9503747  68.5029098 119.2305232  67.4775110  53.6809569
 119.2183901  68.4216950  53.8377840 120.1228653  67.2945255  53.3869030
 117.4041193  87.4013013  65.1067247 118.3068440  87.4336624  65.4233742
 117.1778564  86.4713464  65.1213583 119.1594795  86.1544000  61.7677326
 118.2090426  86.1545862  61.6541698 119.4627282  85.4076735  61.2513361
 115.0499112  70.3602682  72.0260687 115.9130574  70.0039487  72.2364012
 114.4764523  70.0216577  72.7136092 121.9082545  89.3864919  64.0146323
 122.1590584  90.2711929  64.2803899 122.4442094  89.2069521  63.2421415
 119.1217590  92.5596822  60.5442278 119.8088629  92.2458552  59.9563293
 118.9665718  93.4638186  60.2709530 118.6985566  90.6397415  62.8159745
 118.7369665  90.1061006  63.6096863 118.1925858  90.1132621  62.1970722
 121.9499202  96.9681064  60.9167995 121.1131110  96.5403239  60.7351997
 121.9222848  97.1613508  61.8538787 121.2648699  90.0290412  60.7016927
 120.9451483  89.1755721  60.4091301 120.7182127  90.2438991  61.4574895
 121.1336959  93.6493324  62.6710049 120.4400430  93.2347277  62.1580003
 121.8809950  93.6913860  62.0743468 121.5495376  88.5426983  67.9285673
 122.1954239  88.0325937  68.4172898 121.3412527  89.2795664  68.5029098
  74.6506133   2.6912200  44.3616071  74.5730163   3.6420025  44.4404551
  74.0467777   2.3458073  45.0190997  72.2892963   5.4397594  48.5064273
  72.5289561   6.0716118  49.1843291  71.4462159   5.0885634  48.7929632
  72.7637795   1.4645597  45.8363051  72.0948170   1.9491724  45.3527091
  72.6250665   1.7114817  46.7506430  76.9043064   3.4989340  52.4345709
  77.4561372   3.6620962  53.1994795  77.2449257   4.0893778  51.7625734
  77.0729487   3.2185731  46.6799740  76.6334477   2.7262110  47.3732597
  77.8237604   2.6758699  46.4391816  69.8642537   1.5409886  48.4038183
  69.7297005   0.7810287  47.8376181  69.4474599   2.2650786  47.9366972
  73.0211663   2.4379203  48.6156626  72.9044047   3.3824636  48.5135316
  72.2004109   2.1352765  49.0042425  74.0466177   3.0907465  51.8312554
  74.9493423   3.1231076  52.1479049  73.8203547   2.1607916  51.8458890
  88.3462179   7.6326418  49.4929920  88.0080690   7.5167483  48.6050455
  89.2151947   7.2317584  49.4730926  84.2048994   9.4861895  45.4826811
  83.6413859   9.3951832  44.7143098  84.0901389   8.6661799  45.9629303
  88.8281962   8.7861270  55.4516125  88.8170602   8.3914068  54.5796629
  88.9902601   8.0527343  56.0449897  81.7513426  10.9813086  48.3211031
  82.5434718  10.6403911  47.9057330  81.9910076  11.0908061  49.2413184
  89.7848553  13.1532863  40.7941276  89.1336533  13.7386943  40.4075289
  90.5792916  13.6839057  40.8536313  83.7104180  10.2422000  41.1928410
  84.4835056   9.6950987  41.0541286  84.0629579  11.1066249  41.4042871
  85.5489223  11.5698382  54.3995309  85.2579089  12.4744013  54.2841975
  86.1846207  11.6114910  55.1139379  86.4745430   8.9475230  50.9896669
  87.0709002   8.7231253  50.2753632  86.5320401   8.2059976  51.5922117
  86.0470458   6.4014666  38.8246860  86.2995979   5.8796187  38.0630323
  85.1095017   6.2380811  38.9273543  91.2623818  10.8423294  41.3310260
  90.6269651  10.9157921  42.0431164  90.9321224  11.4316893  40.6529339
  85.7666747   8.3042772  41.0271235  85.6503005   7.6287675  41.6952319
  85.8769007   7.8175146  40.2103388  88.1098288   7.7652919  44.7317924
  87.7456495   7.2383540  45.4430845  88.9665403   7.3751388  44.5584409
  90.5079108  11.2559797  51.3945103  90.2079831  12.1584836  51.2860910
  90.1630167  10.9891981  52.2466256  83.9591589   7.7073594  47.4281807
  83.0342086   7.5749808  47.6359499  84.2076002   8.4867814  47.9251750
  81.3200400   7.3506868  48.2625596  81.4492781   7.6041347  49.1765008
  80.6397852   7.9434576  47.9430251  85.4899888  18.0204118  44.3616071
  85.4123917  18.9711943  44.4404551  84.8861531  17.6749990  45.0190997
  86.2363490   8.0017437  56.5795404  86.9778174   8.5402481  56.3030228
  85.5300475   8.6283725  56.7366956  91.7118829  10.1446577  55.1767566
  92.1202185   9.7028988  54.4322198  90.9896091   9.5699205  55.4301759
  92.0347644  10.7047768  48.9319855  91.4056506  10.8693482  48.2295923
  91.6473306  11.1189377  49.7030819  95.9136876  11.6402206  46.2864219
  95.2287914  12.0201107  45.7361252  95.9980725  12.2497532  47.0196166
  93.1687807   9.2862165  52.8859562  93.3804703   9.9293924  52.2093943
  93.1217556   8.4524481  52.4181492  87.5875606  10.4422176  46.1969940
  88.0513951  10.7209879  45.4074562  87.3232404   9.5405620  46.0143031
  84.4799687   9.9893657  49.1349703  85.0501044  10.4180926  48.4967188
  85.0707799   9.7076242  49.8333889  86.5244492   6.5645328  43.0059505
  87.2268535   7.0166372  43.4733431  86.1925120   5.9229147  43.6339398
  84.9724853   5.1557085  57.3810714  84.3423514   5.8373366  57.6146111
  84.8660941   5.0440166  56.4363853  80.2669826   4.8228881  48.3076639
  79.4768880   5.0786409  47.8316749  80.7581073   5.6377219  48.4128679
  94.2833635  12.1634120  51.0581919  95.1051079  11.7614307  50.7764601
  94.2796038  12.0602354  52.0098035  82.2184571   5.1873460  45.2660115
  81.4215734   5.2992154  45.7843611  81.9910163   5.5260112  44.4001006
  88.0490239  11.7118163  53.2142630  88.1134671  12.1738571  54.0500802
  87.3401163  11.0815528  53.3424940  78.5507529   5.0759371  50.7391629
  78.8015567   5.9606381  51.0049205  79.0867077   4.8963973  49.9666721
  87.7638256  13.3786271  43.0821610  87.6283931  14.2237806  43.5106458
  88.3048069  13.5805548  42.3187544  81.2167654  10.8961709  43.6549535
  81.7292174  11.6904959  43.8055100  81.8690367  10.1987999  43.5883137
  83.0262539  14.0127465  45.7372289  83.2029167  14.9345430  45.5493272
  83.8219372  13.6985884  46.1666668  82.3114895   6.0592097  55.6134452
  82.1968410   5.1577354  55.9141551  81.4559413   6.3055794  55.2619268
  89.3906733  14.0009837  57.2121952  88.9470587  13.2146216  56.8942857
  90.0523946  14.1888988  56.5465843  84.1493854  15.5305639  51.7382631
  84.7001279  15.4022702  50.9659625  83.3105330  15.8300528  51.3877524
  91.4887971  14.2812637  55.2403354  91.4706446  15.1021518  54.7483623
  92.4107891  14.1566712  55.4653495  87.9461025  11.7956767  56.0826862
  88.4789362  11.0345055  55.8526170  87.4175106  11.5030418  56.8251016
  79.1816571   9.2250363  44.4309106  80.0191793   9.6347371  44.2142814
  79.3594838   8.2849805  44.4009300  96.0515277   9.6457798  42.0546112
  95.2744720   9.3068958  41.6101274  96.7306758   9.6510422  41.3801077
  89.3113738  10.9242759  43.5945674  88.7835099  10.1895519  43.2818911
  88.8101240  11.7017436  43.3485642  94.2906584   9.1191780  48.7112720
  93.6330258   9.8091041  48.7992849  95.0946983   9.5088212  49.0546707
  87.4566338   8.7422969  36.5980647  86.5493400   8.5112223  36.7971796
  87.9537370   7.9460589  36.7854629  90.3634417  17.4520477  39.5177333
  89.6896116  17.7552173  40.1262291  90.7500239  18.2549557  39.1682790
  88.6354571   8.8435564  41.1204637  87.7265791   8.5594597  41.2177107
  88.6649655   9.2634643  40.2607944  93.8673839  12.4542154  44.8895805
  93.4136166  11.6133064  44.9460995  93.2367806  13.0903552  45.2270585
  92.3106778  14.2918650  45.8245623  92.6029752  14.8523708  45.1057988
  92.8205399  14.5847211  46.5798782  79.2042742   6.5641078  45.1019839
  79.0067142   5.9710439  44.3770906  78.6489406   6.2593289  45.8195778
  88.3330659  10.3844308  38.4592716  87.8950089   9.6680167  37.9998353
  89.0741100  10.6120423  37.8977807  87.2740403  15.0699002  46.9139076
  87.2316582  15.2959848  45.9847608  88.1903102  14.8362376  47.0624877
  96.4773154  10.7278032  49.5280306  96.9109660  10.6353321  50.3763360
  97.1904734  10.7035532  48.8900322  85.3906204  11.9462031  46.7101039
  86.1846803  11.4512351  46.5083614  84.6797896  11.4179894  46.3468744
  90.2101048  14.3280126  51.0613406  90.2638071  14.8971062  51.8291122
  89.3415830  14.4982011  50.6967444  81.6988967   6.0905112  42.7860791
  80.7686556   6.0289568  43.0030754  81.7946439   5.5681065  41.9897433
  97.3388703  10.7701733  52.0613191  97.5324593  11.6747543  52.3072466
  97.2389321  10.3109152  52.8951776  92.4003812  10.9208475  57.6354072
  92.2489318  10.6919027  56.7184155  92.3908491  11.8779077  57.6485417
  89.1689148   8.4940388  52.6200338  90.0981208   8.6451548  52.4469306
  88.7480178   8.5824409  51.7648985  87.9677480  12.5191053  50.3898876
  87.8288566  12.1509837  51.2624814  87.1792076  13.0338692  50.2182834
  88.5625632  17.6200149  41.7324412  88.7377388  17.1488192  42.5470035
  87.8758420  18.2465915  41.9605673  89.5182695  11.8972655  47.7787714
  89.1832528  11.8573425  48.6745364  89.0186641  11.2317371  47.3058124
  83.4926939   7.3040285  53.3040295  83.3546737   6.5720524  53.9051834
  84.4031863   7.2149185  53.0224483  92.4541887   9.2428690  38.0524773
  91.8371057   8.5175518  37.9557826  91.9858375  10.0038050  37.7091848
  86.1209240   7.0160245  52.7923974  86.8308858   6.3753437  52.7510593
  86.0778548   7.2673139  53.7150155  94.1096018  13.9527598  55.7130554
  94.0508565  13.2686818  55.0461137  94.5115537  14.6946588  55.2611180
  83.1286717  20.7689512  48.5064273  83.3683315  21.4008036  49.1843291
  82.2855914  20.4177552  48.7929632  94.1113426  11.9167182  53.9444533
  93.2240204  11.5793104  54.0670932  94.6811977  11.1850213  54.1813299
  75.7642573   8.2491274  47.2687585  76.4513613   7.9353004  46.6808600
  75.6090702   9.1532638  46.9954836  87.6414579  16.5768634  50.9105777
  87.5684751  17.3823606  51.4225081  87.1991972  16.7760600  50.0853798
  87.4304359  15.8140404  44.4208598  86.6471881  16.3562084  44.5146823
  88.1297104  16.3314384  44.8202839  90.1013263  16.4755468  53.0663935
  90.8141235  17.1102933  52.9939837  89.6103291  16.5719334  52.2503937
  91.8230790  10.3806721  44.6381227  90.8887068  10.5008183  44.4685931
  92.0007458   9.4779188  44.3741237  85.1525176  14.2249912  53.8869506
  85.8534636  14.8586395  54.0398900  84.6820291  14.5664643  53.1265145
  93.2779572  12.5667862  42.1717413  93.5539416  12.4524456  43.0811287
  92.4084071  12.1685346  42.1329586  89.9133636  16.8154212  45.8150227
  90.0956031  15.9975868  46.2777979  90.7366622  17.0321905  45.3775117
  90.2475802  15.7422398  43.0765275  90.7763568  15.2314852  42.4635437
  90.5104021  15.4264928  43.9410808  89.0014035   7.5214330  58.1988093
  88.3254672   7.4208460  58.8690469  89.8241669   7.3653544  58.6624091
  80.7492894  13.7586267  50.8200609  81.3346331  13.0129955  50.9528513
  80.5517733  14.0690224  51.7037273  83.6031549  16.7937514  45.8363051
  82.9341925  17.2783642  45.3527091  83.4644419  17.0406735  46.7506430
  75.3410549   6.3291867  49.5405052  75.3794648   5.7955458  50.3342170
  74.8350842   5.8027073  48.9216029  87.7436818  18.8281258  52.4345709
  88.2955126  18.9912879  53.1994795  88.0843011  19.4185696  51.7625734
  92.5947692  13.6542515  58.2894364  93.1387596  14.2672473  57.7949319
  92.0134537  14.2122094  58.8061377  78.9719127   5.0555969  42.6158983
  79.2672568   4.1466648  42.5626037  78.0707162   5.0343709  42.2939986
  90.8805205  16.7763233  49.4209392  90.7556345  15.9752973  48.9120337
  91.5384296  17.2709427  48.9323362  92.9440114  14.5772253  51.0488942
  91.9970449  14.4577605  50.9767268  93.2922887  13.6894751  51.1315203
  89.9486547  14.3724970  47.2493294  89.8011509  13.4441677  47.4300864
  90.7740041  14.3945060  46.7650369  93.5520669  15.1953528  48.3358167
  94.4767216  14.9896390  48.1982618  93.3835972  14.9469929  49.2447508
  84.6847283   5.1848520  48.8196156  84.5391863   5.4988823  49.7120437
  84.2072486   5.8033421  48.2667054  93.3415985  15.7139196  43.6920258
  93.5152863  15.1485618  42.9394111  93.8344876  16.5140091  43.5099748
  79.1592945   7.7253865  51.7583817  78.6146413   8.5013673  51.8904091
  80.0372295   8.0724669  51.6002938  94.3291158  15.0305960  40.7917156
  95.0242062  15.6512653  41.0104471  94.6714308  14.1801311  41.0669534
  79.9458967   6.8523761  54.6513974  79.2040703   7.0006396  55.2378604
  79.6251711   7.1132027  53.7880723  96.2282581  12.4805666  42.3204487
  96.7533905  12.8192938  41.5953807  96.1404933  11.5452681  42.1367622
  87.8902629  16.3939739  54.4494364  88.1989756  16.1488886  55.3217063
  88.6878111  16.5986378  53.9613234  87.9123241  18.5477649  46.6799740
  87.4728232  18.0554028  47.3732597  88.6631358  18.0050617  46.4391816
  80.3915580  14.7389190  46.6824368  81.2173600  14.4392962  46.3023012
  80.0409632  13.9696812  47.1314157  85.3597114  14.0915658  48.7522042
  84.7377123  13.4286363  48.4524270  86.0301980  14.1176790  48.0695690
  78.5924185  12.6575516  47.6413302  77.7556094  12.2297691  47.4597303
  78.5647831  12.8507960  48.5784093  95.9176487  13.1138569  57.6255685
  95.1272030  13.0962708  57.0860185  95.6809841  13.6526863  58.3804722
  96.0374362   9.9631036  54.9388414  96.0872367   9.7981043  55.8803936
  95.9288285   9.0958295  54.5486294  84.9210620  12.6419581  42.2280503
  85.0698741  13.3255046  41.5747175  85.7277064  12.6224671  42.7429958
  97.5392559  12.3827977  55.1830435  97.2477367  12.7457958  56.0193896
  96.9264690  11.6694985  55.0043767  82.6763253   8.6684759  43.2341571
  82.4309295   7.7647089  43.4321782  82.8459168   8.6701909  42.2921049
  88.4206026  15.1367712  39.6992250  87.8479993  15.7557899  39.2462722
  88.9938820  15.6867073  40.2332172  91.6403286  15.4204862  40.8300832
  92.5733959  15.3550424  41.0333708  91.5526499  16.2561129  40.3715365
  94.2691302  14.7370732  37.7904780  94.1904934  14.4030596  38.6840538
  95.0900969  15.2292500  37.7896252  88.6891517  10.5246271  58.5008959
  89.6094526  10.7024870  58.6949006  88.6541100   9.5802316  58.3488659
  77.9073682   5.7184864  47.4262234  77.5876466   4.8650173  47.1336608
  77.3607110   5.9333442  48.1820201  81.6853590   8.4347305  51.1431741
  81.9039599   9.3664413  51.1619774  82.0979363   8.0755280  51.9286544
  77.7761942   9.3387776  49.3955356  77.0825413   8.9241729  48.8825310
  78.5234933   9.3808312  48.7988775  86.4212725   7.4377650  59.3499551
  85.9379807   8.2378010  59.5563440  86.5073664   7.4485595  58.3966995
  79.6898685   9.2706030  47.2721371  79.6669373   9.3693717  46.3203254
  79.9999321  10.1171180  47.5938537  82.3486062  11.3282185  51.3867985
  83.3029316  11.2966127  51.3197917  82.1498586  10.8672808  52.2018211
  82.9385445   9.8983301  53.9538783  83.7578334  10.3927379  53.9773620
  83.2122252   8.9815269  53.9256350  80.7036291  16.8701804  48.4038183
  80.5690759  16.1102205  47.8376181  80.2868353  17.5942704  47.9366972
  91.8395254  12.0538728  37.4114758  92.5431104  12.2588730  38.0272414
  91.1157903  12.6215490  37.6763842  83.8605417  17.7671121  48.6156626
  83.7437801  18.7116554  48.5135316  83.0397863  17.4644683  49.0042425
  93.7481952  12.4921257  39.4613218  94.5827556  12.0602455  39.2790693
  93.5866295  12.3203271  40.3890113  93.4027844   8.9953370  40.8269558
  93.3476648   8.8297642  39.8858002  92.7773899   9.7029403  40.9831747
  78.1920359   4.2321435  54.6530980  78.8379222   3.7220389  55.1418205
  77.9837510   4.9690116  55.2274405  90.7173751  11.3002282  60.1523120
  91.5864911  11.4742934  59.7909755  90.2380502  12.1196699  60.0298850
  84.8859931  18.4199383  51.8312554  85.7887178  18.4522993  52.1479049
  84.6597301  17.4899834  51.8458890  86.6413533  17.1730370  48.4922633
  85.6909164  17.1732231  48.3787005  86.9446019  16.4263104  47.9758667
 102.3766227  23.0090908  49.5568395 103.0144637  22.8897655  48.8531735
 102.2587070  23.9571752  49.6156347  99.1855933  22.9618336  49.4929920
  98.8474445  22.8459401  48.6050455 100.0545701  22.5609501  49.4730926
  95.0442749  24.8153813  45.4826811  94.4807614  24.7243749  44.7143098
  94.9295144  23.9953717  45.9629303  99.6675716  24.1153188  55.4516125
  99.6564357  23.7205986  54.5796629  99.8296355  23.3819260  56.0449897
  92.5907181  26.3105004  48.3211031  93.3828473  25.9695829  47.9057330
  92.8303831  26.4199979  49.2413184 100.6242307  28.4824780  40.7941276
  99.9730287  29.0678861  40.4075289 101.4186670  29.0130975  40.8536313
  94.5497935  25.5713917  41.1928410  95.3228811  25.0242904  41.0541286
  94.9023333  26.4358167  41.4042871  96.3882977  26.8990300  54.3995309
  96.0972843  27.8035930  54.2841975  97.0239962  26.9406827  55.1139379
  97.3139184  24.2767148  50.9896669  97.9102756  24.0523171  50.2753632
  97.3714156  23.5351894  51.5922117  96.8864212  21.7306583  38.8246860
  97.1389733  21.2088105  38.0630323  95.9488771  21.5672729  38.9273543
 101.9307495  20.7342362  46.6321603 102.7170584  20.3161785  46.2812020
 102.1946200  21.6388454  46.8003251 102.1017573  26.1715212  41.3310260
 101.4663406  26.2449839  42.0431164 101.7714979  26.7608811  40.6529339
 107.3315922  20.6717595  47.5354582 108.0641094  20.1016812  47.7692411
 106.5755278  20.2839195  47.9761087  96.6060501  23.6334689  41.0271235
  96.4896759  22.9579593  41.6952319  96.7162761  23.1467063  40.2103388
  98.9492042  23.0944837  44.7317924  98.5850249  22.5675458  45.4430845
  99.8059158  22.7043306  44.5584409 104.8541343  14.3839169  51.9949190
 104.5224667  15.2534580  51.7710405 104.2586956  14.0675453  52.6743221
  98.5897529  18.1234736  39.7279272  98.7571931  18.9914973  40.0949744
  98.3994698  18.2862018  38.8040562 101.3472862  26.5851715  51.3945103
 101.0473585  27.4876754  51.2860910 101.0023922  26.3183898  52.2466256
  94.7985344  23.0365512  47.4281807  93.8735840  22.9041726  47.6359499
  95.0469757  23.8159731  47.9251750 104.7470006  19.1034255  49.0742540
 103.8386883  19.0349664  48.7801301 104.6957602  19.5806200  49.9024366
  98.5686750  20.5792394  40.7125939  98.4486375  21.0249444  41.5511420
  97.8739338  20.9277711  40.1539477  92.1594155  22.6798786  48.2625596
  92.2886536  22.9333264  49.1765008  91.4791606  23.2726494  47.9430251
  96.3293642  33.3496035  44.3616071  96.2517672  34.3003861  44.4404551
  95.7255286  33.0041908  45.0190997  98.8210872  20.5223901  57.0177437
  98.0444206  21.0817821  57.0080302  99.4601435  21.0080684  57.5392308
 106.6131652  17.3050694  50.8520414 105.9706033  17.5983227  50.2060209
 106.1086581  17.1903614  51.6573611 104.2671816  21.0513867  41.5406273
 105.1789672  21.2841254  41.3653971 103.7581463  21.6350911  40.9781352
  97.0757244  23.3309354  56.5795404  97.8171928  23.8694398  56.3030228
  96.3694230  23.9575643  56.7366956 102.5512584  25.4738495  55.1767566
 102.9595940  25.0320905  54.4322198 101.8289845  24.8991122  55.4301759
  98.9043654  20.4111102  52.5501123  99.7504849  20.8350515  52.6935772
  98.8442291  19.7544726  53.2439686 102.8741398  26.0339685  48.9319855
 102.2450261  26.1985399  48.2295923 102.4867060  26.4481295  49.7030819
 106.7530630  26.9694123  46.2864219 106.0681668  27.3493025  45.7361252
 106.8374480  27.5789450  47.0196166 102.0543099  18.0715470  54.2082297
 101.8104031  18.8257530  53.6716572 102.3303030  18.4500817  55.0429544
 104.0081562  24.6154082  52.8859562 104.2198457  25.2585842  52.2093943
 103.9611310  23.7816399  52.4181492 101.6107791  17.2271903  49.7896134
 100.7492270  17.5253156  50.0812872 101.6370226  17.4442302  48.8577167
  98.4269360  25.7714093  46.1969940  98.8907706  26.0501796  45.4074562
  98.1626158  24.8697538  46.0143031  95.3193441  25.3185575  49.1349703
  95.8894798  25.7472843  48.4967188  95.9101553  25.0368160  49.8333889
  97.3638246  21.8937246  43.0059505  98.0662290  22.3458289  43.4733431
  97.0318875  21.2521065  43.6339398  95.8118608  20.4849002  57.3810714
  95.1817268  21.1665283  57.6146111  95.7054696  20.3732084  56.4363853
  91.1063580  20.1520798  48.3076639  90.3162634  20.4078327  47.8316749
  91.5974828  20.9669136  48.4128679 105.1227390  27.4926038  51.0581919
 105.9444834  27.0906225  50.7764601 105.1189793  27.3894272  52.0098035
  93.0578326  20.5165378  45.2660115  92.2609489  20.6284072  45.7843611
  92.8303918  20.8552030  44.4001006  98.8883993  27.0410081  53.2142630
  98.9528426  27.5030488  54.0500802  98.1794917  26.4107446  53.3424940
  89.3901283  20.4051289  50.7391629  89.6409322  21.2898299  51.0049205
  89.9260832  20.2255890  49.9666721 113.2133383  23.8364786  47.4066891
 112.4597091  23.2672184  47.2510895 113.3480924  23.8027451  48.3537526
  98.6032011  28.7078188  43.0821610  98.4677686  29.5529724  43.5106458
  99.1441823  28.9097466  42.3187544  95.0899351  14.7869768  59.7435966
  94.6966296  14.2335967  60.4183610  95.9065491  15.0980347  60.1342483
  92.0561408  26.2253626  43.6549535  92.5685929  27.0196877  43.8055100
  92.7084121  25.5279917  43.5883137  93.8656293  29.3419383  45.7372289
  94.0422921  30.2637347  45.5493272  94.6613127  29.0277802  46.1666668
  98.0067312  16.2027647  57.3356222  98.7477025  16.8034801  57.2560685
  98.2385234  15.4605285  56.7774265  93.1508650  21.3884015  55.6134452
  93.0362165  20.4869272  55.9141551  92.2953167  21.6347711  55.2619268
 100.2300487  29.3301755  57.2121952  99.7864342  28.5438134  56.8942857
 100.8917701  29.5180905  56.5465843  94.9887609  30.8597557  51.7382631
  95.5395034  30.7314620  50.9659625  94.1499084  31.1592446  51.3877524
 102.3281725  29.6104555  55.2403354 102.3100201  30.4313436  54.7483623
 103.2501645  29.4858630  55.4653495  98.7854780  27.1248684  56.0826862
  99.3183116  26.3636973  55.8526170  98.2568861  26.8322336  56.8251016
 101.9524475  12.2308750  51.6120504 101.6088744  13.1210392  51.5359614
 102.3203437  12.0410408  50.7490089  90.0210325  24.5542281  44.4309106
  90.8585547  24.9639289  44.2142814  90.1988593  23.6141723  44.4009300
 101.9174757  22.2217361  40.1192939 101.4021381  22.9921966  40.3581326
 101.6452066  21.5482498  40.7426000  99.5021868  17.0667062  45.1778177
  98.6463465  16.6773913  44.9983816  99.9148820  17.1459023  44.3177963
 101.0321015  14.6013405  49.5769737 100.5285810  14.5643541  48.7637542
 101.3251622  15.5106148  49.6366394  97.2763901  14.6852135  48.5835919
  98.1416898  14.4894944  48.2241808  97.3441410  14.4562487  49.5105275
 106.8909031  24.9749716  42.0546112 106.1138474  24.6360876  41.6101274
 107.5700512  24.9802339  41.3801077 101.7061060  20.0944454  41.9452720
 101.4011196  20.4090603  42.7962863 102.6591503  20.1725873  41.9880053
 100.1507492  26.2534677  43.5945674  99.6228854  25.5187436  43.2818911
  99.6494995  27.0309353  43.3485642 105.1300338  24.4483697  48.7112720
 104.4724013  25.1382959  48.7992849 105.9340737  24.8380129  49.0546707
  94.8826220  16.9154343  45.9552286  95.4569972  16.6929525  45.2225478
  95.4697202  16.9843038  46.7080887 103.9405797  22.8028070  46.7616662
 104.4537679  23.4358062  47.2638372 104.5907021  22.2029266  46.3960022
  95.2095807  18.9458804  39.9748171  94.3733119  19.2833491  40.2957446
  95.0700577  18.8107784  39.0375308  97.1848888  13.7895592  44.6827355
  96.5313300  13.4744609  44.0583970  97.1429362  13.1671332  45.4087178
  98.2960092  24.0714887  36.5980647  97.3887154  23.8404141  36.7971796
  98.7931124  23.2752506  36.7854629 101.2028171  32.7812394  39.5177333
 100.5289870  33.0844091  40.1262291 101.5893993  33.5841475  39.1682790
 100.4186628  20.2777526  49.0075003  99.5009189  20.4992473  48.8496691
 100.8346772  20.3523836  48.1486710 101.2021676  21.6768941  44.1377683
 101.9493495  22.1890338  43.8284805 101.4713265  21.3552994  44.9982076
  99.4748326  24.1727482  41.1204637  98.5659545  23.8886515  41.2177107
  99.5043410  24.5926561  40.2607944 104.7067593  27.7834071  44.8895805
 104.2529920  26.9424981  44.9460995 104.0761560  28.4195470  45.2270585
 103.6500513  18.7126058  46.1196472 102.9123270  18.2003444  46.4506715
 103.9027286  18.2726439  45.3079749 103.1500533  29.6210568  45.8245623
 103.4423507  30.1815625  45.1057988 103.6599153  29.9139129  46.5798782
  90.0436496  21.8932996  45.1019839  89.8460896  21.3002357  44.3770906
  89.4883160  21.5885206  45.8195778  98.0233220  21.7856103  47.2214433
  98.0781830  20.8329939  47.1456909  97.2124422  21.9415542  47.7055731
  99.1724414  25.7136226  38.4592716  98.7343844  24.9972085  37.9998353
  99.9134855  25.9412340  37.8977807  95.9625580  20.4033162  44.9804811
  95.1493445  20.7027333  45.3870004  96.4584574  20.0088851  45.6979294
  98.1134158  30.3990919  46.9139076  98.0710337  30.6251766  45.9847608
  99.0296857  30.1654294  47.0624877 101.5599792  20.8674987  53.8119705
 101.9149179  21.0946460  54.6714171 102.2071923  21.1993364  53.1896961
 107.2897528  23.9893423  44.5169034 107.1515427  24.1795019  43.5890224
 106.9333747  24.7512805  44.9737085  95.4539655  17.9751518  50.5966046
  96.0939034  17.8340277  49.8989010  94.6217185  17.6886031  50.2204648
 107.3166908  26.0569950  49.5280306 107.7503415  25.9645239  50.3763360
 108.0298489  26.0327450  48.8900322  96.2299958  27.2753948  46.7101039
  97.0240557  26.7804268  46.5083614  95.5191651  26.7471811  46.3468744
 101.0494803  29.6572044  51.0613406 101.1031825  30.2262980  51.8291122
 100.1809584  29.8273929  50.6967444  92.5382722  21.4197030  42.7860791
  91.6080310  21.3581485  43.0030754  92.6340194  20.8972983  41.9897433
  92.4568271  17.9451843  45.3739033  92.7175088  18.8597176  45.2648194
  93.2785443  17.4776285  45.5235646  93.9293196  19.3589600  52.5437858
  94.6016250  19.1506962  51.8950507  93.1022983  19.1611686  52.1043090
 108.1782458  26.0993650  52.0613191 108.3718348  27.0039461  52.3072466
 108.0783076  25.6401069  52.8951776  99.8318768  15.9851541  54.5603519
  99.1846683  16.6841491  54.4667995 100.6019784  16.4187685  54.9279767
 103.2397566  26.2500393  57.6354072 103.0883073  26.0210945  56.7184155
 103.2302246  27.2070995  57.6485417 100.0082903  23.8232306  52.6200338
 100.9374963  23.9743465  52.4469306  99.5873933  23.9116327  51.7648985
  98.8071234  27.8482970  50.3898876  98.6682320  27.4801755  51.2624814
  98.0185831  28.3630610  50.2182834  99.4019386  32.9492067  41.7324412
  99.5771142  32.4780110  42.5470035  98.7152174  33.5757833  41.9605673
 100.3576450  27.2264573  47.7787714 100.0226282  27.1865343  48.6745364
  99.8580395  26.5609289  47.3058124  94.3320694  22.6332203  53.3040295
  94.1940492  21.9012442  53.9051834  95.2425617  22.5441103  53.0224483
 103.2935641  24.5720607  38.0524773 102.6764812  23.8467435  37.9557826
 102.8252130  25.3329968  37.7091848  96.9602994  22.3452162  52.7923974
  97.6702613  21.7045354  52.7510593  96.9172302  22.5965057  53.7150155
 104.9489773  29.2819516  55.7130554 104.8902319  28.5978736  55.0461137
 105.3509291  30.0238506  55.2611180  95.6731928  19.3317380  54.6119614
  95.1369285  18.8808119  55.2641210  95.0848637  19.4663289  53.8690078
  95.0834187  18.7906032  37.1746078  94.2063654  18.6694832  36.8108324
  95.5591940  17.9992110  36.9224966 104.9507180  27.2459100  53.9444533
 104.0633959  26.9085021  54.0670932 105.5205731  26.5142131  54.1813299
  86.6036327  23.5783191  47.2687585  87.2907367  23.2644921  46.6808600
  86.4484456  24.4824556  46.9954836  91.4071049  18.4673388  51.6972608
  91.3229238  17.8599057  50.9623018  90.5853756  18.9582406  51.6982105
  98.4808334  31.9060552  50.9105777  98.4078505  32.7115523  51.4225081
  98.0385727  32.1052518  50.0853798  98.2698113  31.1432322  44.4208598
  97.4865635  31.6854002  44.5146823  98.9690858  31.6606302  44.8202839
 101.5794763  16.9526951  47.0642803 102.0763463  16.1996914  46.7443874
 100.8081745  16.9891268  46.4986013 109.4324521  22.6567317  48.7061095
 109.4214397  23.5392032  48.3355028 108.5641900  22.3038868  48.5115632
 100.9407017  31.8047386  53.0663935 101.6534989  32.4394851  52.9939837
 100.4497046  31.9011252  52.2503937 102.6624544  25.7098639  44.6381227
 101.7280823  25.8300101  44.4685931 102.8401213  24.8071105  44.3741237
  98.1629732  19.0944334  46.7914488  97.7927520  18.5415375  47.4795394
  98.6588825  18.4902468  46.2389488 106.0497095  21.5515958  45.1731261
 106.5157548  22.3843950  45.0991564 106.5004596  21.0860939  45.8776520
  95.9918931  29.5541829  53.8869506  96.6928390  30.1878312  54.0398900
  95.5214046  29.8956561  53.1265145 104.1173326  27.8959779  42.1717413
 104.3933170  27.7816374  43.0811287 103.2477825  27.4977264  42.1329586
 104.0213758  13.9196545  49.2122162 103.1076838  14.1500772  49.3804369
 104.4506860  14.0034989  50.0636195 103.7920217  22.1086437  51.7122056
 103.1391667  22.3562344  51.0574509 104.1700597  21.2950575  51.3784534
 100.7527391  32.1446130  45.8150227 100.9349785  31.3267786  46.2777979
 101.5760377  32.3613822  45.3775117 101.0869556  31.0714315  43.0765275
 101.6157322  30.5606770  42.4635437 101.3497776  30.7556845  43.9410808
  99.8407790  22.8506248  58.1988093  99.1648427  22.7500377  58.8690469
 100.6635424  22.6945462  58.6624091  91.5886649  29.0878184  50.8200609
  92.1740086  28.3421872  50.9528513  91.3911487  29.3982141  51.7037273
  86.1804303  21.6583785  49.5405052  86.2188403  21.1247375  50.3342170
  85.6744596  21.1318990  48.9216029  98.5830573  34.1573175  52.4345709
  99.1348881  34.3204797  53.1994795  98.9236766  34.7477613  51.7625734
  93.5595066  16.5048325  53.0367594  93.6236392  17.3663156  52.6244992
  93.4962186  15.8922327  52.3039953  93.0347338  18.5771458  56.6840628
  93.6619377  18.1948535  57.2978153  92.1775257  18.3585660  57.0496321
 103.4341447  28.9834433  58.2894364 103.9781351  29.5964391  57.7949319
 102.8528292  29.5414011  58.8061377  89.8112881  20.3847887  42.6158983
  90.1066322  19.4758565  42.5626037  88.9100917  20.3635626  42.2939986
 101.7198960  32.1055151  49.4209392 101.5950099  31.3044891  48.9120337
 102.3778051  32.6001344  48.9323362  93.3407128  18.4603883  48.5986532
  92.6193714  19.0739851  48.4594005  94.1300384  18.9961648  48.5203178
 103.7833868  29.9064171  51.0488942 102.8364204  29.7869522  50.9767268
 104.1316641  29.0186669  51.1315203  96.1433442  15.7958310  54.8727184
  96.6667843  16.0420606  55.6353493  95.9245775  16.6278345  54.4530321
  91.5400723  18.0661984  42.7398308  91.2113429  17.1859363  42.5573414
  91.8940093  18.0109653  43.6274698 100.7880302  29.7016887  47.2493294
 100.6405264  28.7733595  47.4300864 101.6133795  29.7236978  46.7650369
  94.6542546  18.3534954  43.1073786  94.9938618  18.8820876  42.3852394
  95.1014666  18.6915360  43.8832353 104.3914423  30.5245446  48.3358167
 105.3160971  30.3188307  48.1982618 104.2229727  30.2761847  49.2447508
  97.3485987  16.7372005  52.5576854  97.0082807  15.9379818  52.9597534
  96.6424993  17.0373716  51.9853687  98.0002458  13.8221317  51.0104177
  98.8228528  13.3481796  50.8883067  98.2440522  14.6011801  51.5102863
  96.6410693  16.8509576  41.3067079  97.3619055  17.2290829  40.8030796
  96.0175997  17.5698453  41.4102057 100.7841816  17.5554725  42.2425411
 101.0005430  18.4379363  41.9414239 100.3035883  17.1640938  41.5131053
  95.5241037  20.5140438  48.8196156  95.3785618  20.8280741  49.7120437
  95.0466241  21.1325338  48.2667054  97.3837420  17.5042986  48.8677045
  97.3698989  16.6084079  48.5309343  98.1009848  17.5113650  49.5015331
  99.2363551  17.9380326  50.9130173  98.9781329  18.8597397  50.9114503
  98.7048591  17.5410761  51.6030637 104.1809740  31.0431113  43.6920258
 104.3546617  30.4777536  42.9394111 104.6738631  31.8432008  43.5099748
  89.9986699  23.0545782  51.7583817  89.4540167  23.8305590  51.8904091
  90.8766049  23.4016587  51.6002938  96.7874316  16.3857366  44.1364615
  96.9090227  15.4574013  44.3355503  96.4976358  16.3996052  43.2242931
  99.6565506  14.0712277  47.2731335  99.6787203  14.1351610  46.3183315
 100.0733565  13.2316785  47.4671841 110.0349131  23.8067536  45.3110558
 110.4780277  23.0574862  44.9129681 109.1575641  23.7977673  44.9284290
 105.1684912  30.3597878  40.7917156 105.8635817  30.9804570  41.0104471
 105.5108062  29.5093229  41.0669534  90.7852721  22.1815679  54.6513974
  90.0434457  22.3298314  55.2378604  90.4645465  22.4423944  53.7880723
 107.0676335  27.8097583  42.3204487 107.5927659  28.1484856  41.5953807
 106.9798688  26.8744599  42.1367622  98.7296384  31.7231657  54.4494364
  99.0383510  31.4780804  55.3217063  99.5271866  31.9278295  53.9613234
  98.7516996  33.8769567  46.6799740  98.3121986  33.3845945  47.3732597
  99.5025113  33.3342534  46.4391816  96.1990868  29.4207576  48.7522042
  95.5770877  28.7578281  48.4524270  96.8695735  29.4468708  48.0695690
  89.4317940  27.9867434  47.6413302  88.5949848  27.5589608  47.4597303
  89.4041585  28.1799877  48.5784093  96.2715396  17.8989364  58.3454548
  96.3203551  18.7751487  57.9632318  96.8137910  17.3566757  57.7726191
 106.7570241  28.4430487  57.6255685 105.9665785  28.4254626  57.0860185
 106.5203596  28.9818781  58.3804722 106.8768116  25.2922953  54.9388414
 106.9266121  25.1272961  55.8803936 106.7682040  24.4250212  54.5486294
  95.7604375  27.9711499  42.2280503  95.9092495  28.6546963  41.5747175
  96.5670818  27.9516589  42.7429958 104.1671879  21.2753881  56.2547720
 105.0681741  21.1360346  55.9631718 104.2419853  21.4408336  57.1945898
  98.5014684  18.6520736  55.1000907  97.6317993  18.9454302  54.8283495
  98.7374164  19.2361181  55.8208170 108.3786313  27.7119895  55.1830435
 108.0871121  28.0749875  56.0193896 107.7658444  26.9986903  55.0043767
 109.5781995  25.2772775  47.7033005 110.4128887  25.7162579  47.8670566
 109.7141124  24.8011428  46.8841251 106.6273501  22.8352509  53.6510493
 107.1027623  23.0280156  52.8429345 105.7039067  22.8911695  53.4053877
  93.5157008  23.9976677  43.2341571  93.2703050  23.0939007  43.4321782
  93.6852922  23.9993827  42.2921049 101.2053718  14.8700353  52.6166327
 101.7235662  15.6061380  52.2912816 100.8508851  15.1764346  53.4513086
  92.7852655  19.7305034  40.7327733  92.0921900  19.8049389  40.0767769
  92.5404407  18.9665378  41.2549250  99.2599780  30.4659629  39.6992250
  98.6873748  31.0849817  39.2462722  99.8332574  31.0158991  40.2332172
 105.3275170  19.7118270  51.8838799 106.2792593  19.8116367  51.9051023
 105.1578621  18.9196538  52.3936883 103.3489550  16.7973853  52.0698200
 102.7539482  17.0778865  51.3744688 103.0639247  17.2867754  52.8414941
 102.4797040  30.7496780  40.8300832 103.4127713  30.6842341  41.0333708
 102.3920253  31.5853046  40.3715365 105.1085057  30.0662650  37.7904780
 105.0298688  29.7322514  38.6840538 105.9294724  30.5584418  37.7896252
 107.8063248  22.9324389  50.9981098 107.7739568  21.9940390  51.1840782
 108.4163872  23.0108426  50.2646923  99.6446579  21.8020442  37.0408302
 100.5905684  21.6726650  37.1096721  99.2660824  21.0635104  37.5177731
 107.9557737  19.7235433  51.0439382 107.4396785  18.9393889  50.8569311
 108.8397685  19.3954149  51.2085901 105.6168464  13.4676448  47.0035194
 105.4193285  13.1591536  47.8878526 106.2268169  14.1938087  47.1333124
 113.6239798  23.9940396  50.1387135 114.3543186  23.7325684  50.6994839
 113.0146743  23.2569118  50.1789203 111.7055095  22.1348259  50.7361586
 110.9788259  22.0004224  50.1278078 111.2902382  22.4425087  51.5418304
  99.5285272  25.8538188  58.5008959 100.4488281  26.0316787  58.6949006
  99.4934855  24.9094234  58.3488659  97.8289496  19.7270419  36.9763188
  96.9220952  19.4303531  37.0525901  98.1065477  19.4300237  36.1097474
  88.7467437  21.0476782  47.4262234  88.4270221  20.1942090  47.1336608
  88.2000865  21.2625360  48.1820201  92.5247344  23.7639223  51.1431741
  92.7433354  24.6956331  51.1619774  92.9373118  23.4047197  51.9286544
  99.4451562  14.2707308  43.1307429  98.6352290  13.9254393  43.5062675
 100.1335979  13.9614852  43.7195041 101.3742110  13.3485355  44.7531726
 101.9273149  13.7680809  45.4121749 101.6112197  12.4221103  44.7954682
  97.3975209  19.3372429  60.5334490  97.2971936  20.2866786  60.4646581
  97.1796751  19.0090668  59.6610560  96.5988281  16.5857354  37.1175167
  97.4607445  16.9112252  37.3770984  96.7838625  15.7988850  36.6048233
  88.6155697  24.6679694  49.3955356  87.9219168  24.2533646  48.8825310
  89.3628688  24.7100230  48.7988775 104.7520917  15.4585880  44.2610390
 104.1719586  16.1170684  43.8788442 104.4856850  14.6363225  43.8497807
 103.2024484  14.8590938  46.4631710 103.7024262  14.9707473  45.6546029
 103.8460092  14.5551991  47.1032519  97.2606479  22.7669568  59.3499551
  96.7773561  23.5669928  59.5563440  97.3467418  22.7777512  58.3966995
  90.5292439  24.5997947  47.2721371  90.5063127  24.6985635  46.3203254
  90.8393076  25.4463098  47.5938537  93.1879817  26.6574102  51.3867985
  94.1423070  26.6258045  51.3197917  92.9892341  26.1964726  52.2018211
  93.7779199  25.2275218  53.9538783  94.5972088  25.7219297  53.9773620
  94.0516007  24.3107187  53.9256350 103.5345795  17.6185971  43.3166738
 102.6471650  17.9035621  43.0986933 103.9499784  17.4579734  42.4694015
 106.8860331  17.6432492  47.0321077 107.6620722  18.1328944  47.3045694
 106.1608466  18.0690546  47.4892947 109.3232890  18.3560111  48.0895018
 109.9177381  18.1155847  47.3788326 109.3959474  17.6367241  48.7168554
 102.6789009  27.3830645  37.4114758 103.3824859  27.5880648  38.0272414
 101.9551657  27.9507407  37.6763842 103.5086819  23.1340507  43.5317028
 103.4522020  23.5909058  42.6924661 104.0615161  22.3731191  43.3539871
 107.3191625  18.9230238  44.3567148 107.0628559  18.5226874  45.1875356
 106.6944493  19.6374032  44.2317287 111.6303963  21.6626312  46.8638439
 111.0703521  21.7319501  47.6370001 111.0247466  21.4867296  46.1437935
 104.5875706  27.8213175  39.4613218 105.4221310  27.3894373  39.2790693
 104.4260049  27.6495188  40.3890113 104.2421598  24.3245288  40.8269558
 104.1870402  24.1589559  39.8858002 103.6167654  25.0321321  40.9831747
  89.0314113  19.5613352  54.6530980  89.6772977  19.0512306  55.1418205
  88.8231264  20.2982034  55.2274405 101.5567505  26.6294200  60.1523120
 102.4258665  26.8034852  59.7909755 101.0774257  27.4488617  60.0298850
  97.5517724  13.8253397  40.4054876  97.5396394  14.7695237  40.5623147
  98.4441146  13.6423542  40.1114337  97.4807288  32.5022287  48.4922633
  96.5302919  32.5024149  48.3787005  97.7839774  31.7555022  47.9758667
  93.3711604  16.7080969  58.7505994  94.2343066  16.3517774  58.9609319
  92.7977015  16.3694864  59.4381398 113.2159981  38.3382826  49.5568395
 113.8538391  38.2189573  48.8531735 113.0980824  39.2863670  49.6156347
 110.0249688  38.2910254  49.4929920 109.6868199  38.1751318  48.6050455
 110.8939456  37.8901419  49.4730926 105.8836503  40.1445730  45.4826811
 105.3201368  40.0535667  44.7143098 105.7688898  39.3245635  45.9629303
 110.5069471  39.4445105  55.4516125 110.4958111  39.0497904  54.5796629
 110.6690110  38.7111178  56.0449897 103.4300935  41.6396922  48.3211031
 104.2222227  41.2987746  47.9057330 103.6697585  41.7491897  49.2413184
 111.4636062  43.8116698  40.7941276 110.8124042  44.3970778  40.4075289
 112.2580425  44.3422893  40.8536313 105.3891689  40.9005835  41.1928410
 106.1622565  40.3534822  41.0541286 105.7417088  41.7650084  41.4042871
 107.2276732  42.2282217  54.3995309 106.9366598  43.1327848  54.2841975
 107.8633716  42.2698745  55.1139379 108.1532938  39.6059066  50.9896669
 108.7496511  39.3815088  50.2753632 108.2107910  38.8643811  51.5922117
 107.7257967  37.0598501  38.8246860 107.9783488  36.5380022  38.0630323
 106.7882526  36.8964647  38.9273543 112.7701250  36.0634280  46.6321603
 113.5564339  35.6453703  46.2812020 113.0339954  36.9680372  46.8003251
 112.9411327  41.5007130  41.3310260 112.3057160  41.5741756  42.0431164
 112.6108733  42.0900729  40.6529339 118.1709677  36.0009513  47.5354582
 118.9034849  35.4308730  47.7692411 117.4149033  35.6131113  47.9761087
 107.4454256  38.9626607  41.0271235 107.3290514  38.2871510  41.6952319
 107.5556516  38.4758981  40.2103388 109.7885797  38.4236754  44.7317924
 109.4244004  37.8967375  45.4430845 110.6452912  38.0335223  44.5584409
 115.6935097  29.7131087  51.9949190 115.3618422  30.5826498  51.7710405
 115.0980711  29.3967371  52.6743221 109.4291284  33.4526654  39.7279272
 109.5965686  34.3206890  40.0949744 109.2388453  33.6153936  38.8040562
 112.1866617  41.9143633  51.3945103 111.8867340  42.8168672  51.2860910
 111.8417676  41.6475816  52.2466256 105.6379098  38.3657430  47.4281807
 104.7129595  38.2333644  47.6359499 105.8863511  39.1451649  47.9251750
 115.5863761  34.4326173  49.0742540 114.6780638  34.3641581  48.7801301
 115.5351356  34.9098118  49.9024366 109.4080504  35.9084311  40.7125939
 109.2880130  36.3541362  41.5511420 108.7133093  36.2569629  40.1539477
 102.9987909  38.0090703  48.2625596 103.1280290  38.2625182  49.1765008
 102.3185361  38.6018411  47.9430251 107.1687397  48.6787953  44.3616071
 107.0911426  49.6295778  44.4404551 106.5649040  48.3333826  45.0190997
 109.6604626  35.8515819  57.0177437 108.8837960  36.4109739  57.0080302
 110.2995189  36.3372602  57.5392308 117.4525407  32.6342611  50.8520414
 116.8099787  32.9275145  50.2060209 116.9480335  32.5195532  51.6573611
 115.1065571  36.3805785  41.5406273 116.0183427  36.6133171  41.3653971
 114.5975218  36.9642829  40.9781352 107.9150999  38.6601272  56.5795404
 108.6565683  39.1986316  56.3030228 107.2087984  39.2867561  56.7366956
 113.3906338  40.8030412  55.1767566 113.7989694  40.3612823  54.4322198
 112.6683600  40.2283040  55.4301759 109.7437408  35.7403019  52.5501123
 110.5898603  36.1642433  52.6935772 109.6836046  35.0836643  53.2439686
 113.7135153  41.3631603  48.9319855 113.0844015  41.5277317  48.2295923
 113.3260815  41.7773213  49.7030819 117.5924385  42.2986041  46.2864219
 116.9075423  42.6784942  45.7361252 117.6768234  42.9081368  47.0196166
 112.8936854  33.4007388  54.2082297 112.6497785  34.1549448  53.6716572
 113.1696784  33.7792735  55.0429544 114.8475316  39.9446000  52.8859562
 115.0592212  40.5877760  52.2093943 114.8005065  39.1108316  52.4181492
 112.4501545  32.5563821  49.7896134 111.5886024  32.8545074  50.0812872
 112.4763980  32.7734219  48.8577167 109.2663115  41.1006011  46.1969940
 109.7301460  41.3793714  45.4074562 109.0019913  40.1989456  46.0143031
 106.1587196  40.6477493  49.1349703 106.7288553  41.0764761  48.4967188
 106.7495308  40.3660077  49.8333889 108.2032001  37.2229163  43.0059505
 108.9056044  37.6750207  43.4733431 107.8712629  36.5812982  43.6339398
 106.6512362  35.8140920  57.3810714 106.0211023  36.4957201  57.6146111
 106.5448450  35.7024002  56.4363853 101.9457335  35.4812716  48.3076639
 101.1556389  35.7370245  47.8316749 102.4368582  36.2961054  48.4128679
 115.9621144  42.8217955  51.0581919 116.7838588  42.4198143  50.7764601
 115.9583547  42.7186189  52.0098035 103.8972080  35.8457295  45.2660115
 103.1003243  35.9575990  45.7843611 103.6697672  36.1843948  44.4001006
 109.7277748  42.3701999  53.2142630 109.7922180  42.8322406  54.0500802
 109.0188672  41.7399364  53.3424940 100.2295038  35.7343207  50.7391629
 100.4803076  36.6190217  51.0049205 100.7654586  35.5547808  49.9666721
 109.4425765  44.0370106  43.0821610 109.3071440  44.8821642  43.5106458
 109.9835578  44.2389384  42.3187544 105.9293105  30.1161686  59.7435966
 105.5360051  29.5627885  60.4183610 106.7459245  30.4272264  60.1342483
 102.8955163  41.5545544  43.6549535 103.4079683  42.3488794  43.8055100
 103.5477876  40.8571835  43.5883137 104.7050048  44.6711300  45.7372289
 104.8816676  45.5929265  45.5493272 105.5006881  44.3569720  46.1666668
 108.8461066  31.5319565  57.3356222 109.5870779  32.1326718  57.2560685
 109.0778989  30.7897203  56.7774265 103.9902404  36.7175932  55.6134452
 103.8755919  35.8161190  55.9141551 103.1346922  36.9639629  55.2619268
 111.0694242  44.6593673  57.2121952 110.6258096  43.8730051  56.8942857
 111.7311455  44.8472823  56.5465843 105.8281363  46.1889474  51.7382631
 106.3788788  46.0606538  50.9659625 104.9892839  46.4884363  51.3877524
 113.1675480  44.9396473  55.2403354 113.1493955  45.7605354  54.7483623
 114.0895400  44.8150548  55.4653495 109.6248534  42.4540602  56.0826862
 110.1576871  41.6928890  55.8526170 109.0962615  42.1614254  56.8251016
 112.7918229  27.5600668  51.6120504 112.4482498  28.4502310  51.5359614
 113.1597192  27.3702326  50.7490089 100.8604080  39.8834198  44.4309106
 101.6979302  40.2931207  44.2142814 101.0382347  38.9433641  44.4009300
 112.7568512  37.5509279  40.1192939 112.2415135  38.3213884  40.3581326
 112.4845820  36.8774415  40.7426000 110.3415623  32.3958980  45.1778177
 109.4857219  32.0065830  44.9983816 110.7542575  32.4750941  44.3177963
 111.8714769  29.9305323  49.5769737 111.3679565  29.8935458  48.7637542
 112.1645376  30.8398066  49.6366394 108.1157655  30.0144053  48.5835919
 108.9810652  29.8186862  48.2241808 108.1835164  29.7854405  49.5105275
 117.7302786  40.3041634  42.0546112 116.9532229  39.9652793  41.6101274
 118.4094267  40.3094257  41.3801077 112.5454815  35.4236371  41.9452720
 112.2404950  35.7382520  42.7962863 113.4985257  35.5017791  41.9880053
 110.9901247  41.5826595  43.5945674 110.4622608  40.8479354  43.2818911
 110.4888749  42.3601271  43.3485642 115.9694093  39.7775615  48.7112720
 115.3117767  40.4674876  48.7992849 116.7734492  40.1672047  49.0546707
 105.7219974  32.2446261  45.9552286 106.2963726  32.0221442  45.2225478
 106.3090957  32.3134955  46.7080887 114.7799552  38.1319988  46.7616662
 115.2931433  38.7649980  47.2638372 115.4300775  37.5321183  46.3960022
 106.0489561  34.2750722  39.9748171 105.2126874  34.6125408  40.2957446
 105.9094331  34.1399702  39.0375308 108.0242642  29.1187510  44.6827355
 107.3707054  28.8036527  44.0583970 107.9823116  28.4963250  45.4087178
 109.1353847  39.4006805  36.5980647 108.2280909  39.1696058  36.7971796
 109.6324879  38.6044424  36.7854629 112.0421926  48.1104312  39.5177333
 111.3683625  48.4136009  40.1262291 112.4287748  48.9133392  39.1682790
 111.2580382  35.6069443  49.0075003 110.3402944  35.8284390  48.8496691
 111.6740526  35.6815754  48.1486710 112.0415430  37.0060859  44.1377683
 112.7887249  37.5182256  43.8284805 112.3107020  36.6844912  44.9982076
 110.3142080  39.5019400  41.1204637 109.4053300  39.2178432  41.2177107
 110.3437164  39.9218478  40.2607944 115.5461348  43.1125989  44.8895805
 115.0923675  42.2716899  44.9460995 114.9155314  43.7487388  45.2270585
 114.4894267  34.0417975  46.1196472 113.7517024  33.5295361  46.4506715
 114.7421041  33.6018357  45.3079749 113.9894287  44.9502486  45.8245623
 114.2817261  45.5107543  45.1057988 114.4992908  45.2431047  46.5798782
 114.5905895  26.8194227  46.7138241 114.8964771  25.9591591  46.4264157
 115.3158499  27.4111847  46.5137235 100.8830251  37.2224914  45.1019839
 100.6854651  36.6294274  44.3770906 100.3276915  36.9177124  45.8195778
 108.8626974  37.1148020  47.2214433 108.9175584  36.1621857  47.1456909
 108.0518176  37.2707459  47.7055731 110.0118168  41.0428143  38.4592716
 109.5737598  40.3264002  37.9998353 110.7528609  41.2704258  37.8977807
 106.8019334  35.7325080  44.9804811 105.9887200  36.0319251  45.3870004
 107.2978329  35.3380769  45.6979294 108.9527912  45.7282837  46.9139076
 108.9104091  45.9543683  45.9847608 109.8690611  45.4946212  47.0624877
 112.3993546  36.1966904  53.8119705 112.7542934  36.4238378  54.6714171
 113.0465677  36.5285281  53.1896961 118.1291283  39.3185340  44.5169034
 117.9909182  39.5086936  43.5890224 117.7727502  40.0804723  44.9737085
 106.2933409  33.3043436  50.5966046 106.9332788  33.1632195  49.8989010
 105.4610940  33.0177949  50.2204648 118.1560663  41.3861867  49.5280306
 118.5897169  41.2937156  50.3763360 118.8692243  41.3619368  48.8900322
 107.0693713  42.6045866  46.7101039 107.8634311  42.1096186  46.5083614
 106.3585405  42.0763729  46.3468744 111.8888557  44.9863961  51.0613406
 111.9425580  45.5554898  51.8291122 111.0203339  45.1565847  50.6967444
 103.3776476  36.7488948  42.7860791 102.4474065  36.6873403  43.0030754
 103.4733948  36.2264900  41.9897433 103.2962026  33.2743761  45.3739033
 103.5568843  34.1889094  45.2648194 104.1179198  32.8068203  45.5235646
 104.7686951  34.6881518  52.5437858 105.4410004  34.4798880  51.8950507
 103.9416737  34.4903604  52.1043090 119.0176212  41.4285568  52.0613191
 119.2112102  42.3331379  52.3072466 118.9176830  40.9692987  52.8951776
 110.6712523  31.3143459  54.5603519 110.0240438  32.0133408  54.4667995
 111.4413538  31.7479603  54.9279767 114.0791321  41.5792311  57.6354072
 113.9276827  41.3502862  56.7184155 114.0696000  42.5362912  57.6485417
 110.8476657  39.1524224  52.6200338 111.7768717  39.3035383  52.4469306
 110.4267687  39.2408244  51.7648985 109.6464989  43.1774888  50.3898876
 109.5076075  42.8093672  51.2624814 108.8579585  43.6922527  50.2182834
 110.2413141  48.2783984  41.7324412 110.4164897  47.8072028  42.5470035
 109.5545929  48.9049751  41.9605673 111.1970204  42.5556491  47.7787714
 110.8620037  42.5157261  48.6745364 110.6974150  41.8901207  47.3058124
 105.1714448  37.9624121  53.3040295 105.0334246  37.2304359  53.9051834
 106.0819372  37.8733021  53.0224483 114.1329396  39.9012525  38.0524773
 113.5158566  39.1759353  37.9557826 113.6645884  40.6621885  37.7091848
 107.7996749  37.6744080  52.7923974 108.5096367  37.0337272  52.7510593
 107.7566057  37.9256975  53.7150155 115.7883527  44.6111433  55.7130554
 115.7296074  43.9270653  55.0461137 116.1903046  45.3530423  55.2611180
 106.5125683  34.6609298  54.6119614 105.9763040  34.2100036  55.2641210
 105.9242391  34.7955207  53.8690078 104.8074226  51.4273347  48.5064273
 105.0470824  52.0591871  49.1843291 103.9643423  51.0761387  48.7929632
 105.9227942  34.1197949  37.1746078 105.0457408  33.9986750  36.8108324
 106.3985695  33.3284028  36.9224966 115.7900935  42.5751017  53.9444533
 114.9027713  42.2376939  54.0670932 116.3599486  41.8434048  54.1813299
  97.4430082  38.9075109  47.2687585  98.1301122  38.5936839  46.6808600
  97.2878211  39.8116474  46.9954836 102.2464804  33.7965306  51.6972608
 102.1622993  33.1890975  50.9623018 101.4247510  34.2874324  51.6982105
 109.3202088  47.2352470  50.9105777 109.2472260  48.0407441  51.4225081
 108.8779481  47.4344435  50.0853798 109.1091868  46.4724240  44.4208598
 108.3259390  47.0145920  44.5146823 109.8084613  46.9898219  44.8202839
 112.4188518  32.2818869  47.0642803 112.9157217  31.5288831  46.7443874
 111.6475499  32.3183186  46.4986013 120.2718275  37.9859235  48.7061095
 120.2608151  38.8683950  48.3355028 119.4035655  37.6330785  48.5115632
 111.7800772  47.1339304  53.0663935 112.4928744  47.7686768  52.9939837
 111.2890800  47.2303170  52.2503937 113.5018299  41.0390556  44.6381227
 112.5674577  41.1592019  44.4685931 113.6794967  40.1363023  44.3741237
 109.0023487  34.4236252  46.7914488 108.6321274  33.8707292  47.4795394
 109.4982579  33.8194386  46.2389488 116.8890850  36.8807876  45.1731261
 117.3551302  37.7135867  45.0991564 117.3398350  36.4152857  45.8776520
 106.8312685  44.8833747  53.8869506 107.5322145  45.5170230  54.0398900
 106.3607800  45.2248479  53.1265145 114.9567081  43.2251697  42.1717413
 115.2326925  43.1108291  43.0811287 114.0871580  42.8269182  42.1329586
 114.8607513  29.2488463  49.2122162 113.9470592  29.4792689  49.3804369
 115.2900614  29.3326907  50.0636195 114.6313971  37.4378355  51.7122056
 113.9785421  37.6854262  51.0574509 115.0094351  36.6242493  51.3784534
 111.5921145  47.4738048  45.8150227 111.7743540  46.6559704  46.2777979
 112.4154131  47.6905740  45.3775117 111.9263311  46.4006233  43.0765275
 112.4551077  45.8898687  42.4635437 112.1891530  46.0848763  43.9410808
 110.6801544  38.1798166  58.1988093 110.0042181  38.0792295  58.8690469
 111.5029178  38.0237379  58.6624091 102.4280403  44.4170102  50.8200609
 103.0133840  43.6713790  50.9528513 102.2305242  44.7274059  51.7037273
 105.2819058  47.4521350  45.8363051 104.6129434  47.9367477  45.3527091
 105.1431928  47.6990570  46.7506430 109.4224327  49.4865093  52.4345709
 109.9742635  49.6496715  53.1994795 109.7630520  50.0769531  51.7625734
 104.3988820  31.8340243  53.0367594 104.4630147  32.6955074  52.6244992
 104.3355940  31.2214245  52.3039953 103.8741093  33.9063375  56.6840628
 104.5013132  33.5240453  57.2978153 103.0169012  33.6877577  57.0496321
 114.2735201  44.3126351  58.2894364 114.8175105  44.9256309  57.7949319
 113.6922046  44.8705929  58.8061377 100.6506636  35.7139805  42.6158983
 100.9460077  34.8050483  42.5626037  99.7494671  35.6927544  42.2939986
 112.5592714  47.4347069  49.4209392 112.4343854  46.6336808  48.9120337
 113.2171805  47.9293262  48.9323362 104.1800883  33.7895801  48.5986532
 103.4587468  34.4031769  48.4594005 104.9694138  34.3253566  48.5203178
 114.6227623  45.2356089  51.0488942 113.6757958  45.1161440  50.9767268
 114.9710396  44.3478587  51.1315203 106.9827196  31.1250228  54.8727184
 107.5061598  31.3712524  55.6353493 106.7639529  31.9570262  54.4530321
 102.3794477  33.3953902  42.7398308 102.0507183  32.5151281  42.5573414
 102.7333848  33.3401571  43.6274698 111.6274056  45.0308805  47.2493294
 111.4799018  44.1025512  47.4300864 112.4527549  45.0528896  46.7650369
 105.4936300  33.6826872  43.1073786 105.8332373  34.2112793  42.3852394
 105.9408421  34.0207278  43.8832353 115.2308178  45.8537364  48.3358167
 116.1554725  45.6480225  48.1982618 115.0623481  45.6053765  49.2447508
 108.1879741  32.0663923  52.5576854 107.8476561  31.2671736  52.9597534
 107.4818747  32.3665634  51.9853687 108.8396213  29.1513235  51.0104177
 109.6622282  28.6773713  50.8883067 109.0834276  29.9303719  51.5102863
 107.4804447  32.1801494  41.3067079 108.2012810  32.5582746  40.8030796
 106.8569752  32.8990370  41.4102057 111.6235570  32.8846643  42.2425411
 111.8399185  33.7671280  41.9414239 111.1429637  32.4932856  41.5131053
 106.3634792  35.8432356  48.8196156 106.2179372  36.1572659  49.7120437
 105.8859995  36.4617256  48.2667054 108.2231175  32.8334904  48.8677045
 108.2092743  31.9375997  48.5309343 108.9403603  32.8405567  49.5015331
 110.0757305  33.2672244  50.9130173 109.8175083  34.1889315  50.9114503
 109.5442346  32.8702678  51.6030637 115.0203494  46.3723031  43.6920258
 115.1940372  45.8069454  42.9394111 115.5132385  47.1723926  43.5099748
 100.8380454  38.3837700  51.7583817 100.2933922  39.1597508  51.8904091
 101.7159804  38.7308505  51.6002938 107.6268070  31.7149284  44.1364615
 107.7483982  30.7865930  44.3355503 107.3370113  31.7287970  43.2242931
 110.4959261  29.4004194  47.2731335 110.5180958  29.4643528  46.3183315
 110.9127320  28.5608703  47.4671841 120.8742885  39.1359454  45.3110558
 121.3174031  38.3866779  44.9129681 119.9969395  39.1269590  44.9284290
 116.0078667  45.6889795  40.7917156 116.7029571  46.3096488  41.0104471
 116.3501817  44.8385147  41.0669534 101.6246476  37.5107596  54.6513974
 100.8828212  37.6590232  55.2378604 101.3039220  37.7715862  53.7880723
 117.9070090  43.1389501  42.3204487 118.4321414  43.4776774  41.5953807
 117.8192442  42.2036516  42.1367622 109.5690138  47.0523575  54.4494364
 109.8777265  46.8072721  55.3217063 110.3665620  47.2570213  53.9613234
 109.5910750  49.2061484  46.6799740 109.1515741  48.7137863  47.3732597
 110.3418867  48.6634452  46.4391816 102.0703089  45.3973025  46.6824368
 102.8961109  45.0976797  46.3023012 101.7197141  44.6280648  47.1314157
 107.0384623  44.7499493  48.7522042 106.4164632  44.0870198  48.4524270
 107.7089489  44.7760625  48.0695690 100.2711694  43.3159352  47.6413302
  99.4343603  42.8881526  47.4597303 100.2435340  43.5091795  48.5784093
 107.1109150  33.2281281  58.3454548 107.1597306  34.1043404  57.9632318
 107.6531664  32.6858674  57.7726191 117.5963996  43.7722405  57.6255685
 116.8059539  43.7546543  57.0860185 117.3597350  44.3110698  58.3804722
 117.7161871  40.6214871  54.9388414 117.7659876  40.4564878  55.8803936
 117.6075794  39.7542130  54.5486294 106.5998129  43.3003417  42.2280503
 106.7486250  43.9838881  41.5747175 107.4064573  43.2808507  42.7429958
 115.0065633  36.6045799  56.2547720 115.9075496  36.4652264  55.9631718
 115.0813608  36.7700254  57.1945898 109.3408438  33.9812654  55.1000907
 108.4711748  34.2746220  54.8283495 109.5767919  34.5653099  55.8208170
 119.2180068  43.0411813  55.1830435 118.9264876  43.4041793  56.0193896
 118.6052199  42.3278821  55.0043767 120.4175750  40.6064692  47.7033005
 121.2522641  41.0454496  47.8670566 120.5534879  40.1303346  46.8841251
 117.4667256  38.1644427  53.6510493 117.9421377  38.3572073  52.8429345
 116.5432821  38.2203613  53.4053877 104.3550762  39.3268594  43.2341571
 104.1096804  38.4230924  43.4321782 104.5246677  39.3285745  42.2921049
 112.0447472  30.1992271  52.6166327 112.5629416  30.9353298  52.2912816
 111.6902605  30.5056264  53.4513086 103.6246410  35.0596952  40.7327733
 102.9315655  35.1341307  40.0767769 103.3798162  34.2957296  41.2549250
 112.2960066  26.6192553  48.1367224 112.5761820  25.9515742  48.7627650
 113.0810673  26.8121649  47.6241888 110.0993535  45.7951547  39.6992250
 109.5267502  46.4141734  39.2462722 110.6726329  46.3450909  40.2332172
 116.1668925  35.0410187  51.8838799 117.1186348  35.1408285  51.9051023
 115.9972375  34.2488456  52.3936883 114.1883304  32.1265770  52.0698200
 113.5933236  32.4070783  51.3744688 113.9033001  32.6159671  52.8414941
 113.3190795  46.0788697  40.8300832 114.2521468  46.0134259  41.0333708
 113.2314008  46.9144964  40.3715365 115.9478811  45.3954568  37.7904780
 115.8692443  45.0614431  38.6840538 116.7688478  45.8876336  37.7896252
 118.6457003  38.2616307  50.9981098 118.6133323  37.3232308  51.1840782
 119.2557626  38.3400344  50.2646923 110.4840333  37.1312360  37.0408302
 111.4299438  37.0018568  37.1096721 110.1054578  36.3927022  37.5177731
 118.7951491  35.0527350  51.0439382 118.2790540  34.2685807  50.8569311
 119.6791440  34.7246067  51.2085901 116.4562218  28.7968366  47.0035194
 116.2587039  28.4883454  47.8878526 117.0661924  29.5230005  47.1333124
 110.3679026  41.1830106  58.5008959 111.2882035  41.3608705  58.6949006
 110.3328609  40.2386151  58.3488659 108.6683251  35.0562336  36.9763188
 107.7614706  34.7595449  37.0525901 108.9459232  34.7592154  36.1097474
  99.5861191  36.3768700  47.4262234  99.2663975  35.5234008  47.1336608
  99.0394619  36.5917278  48.1820201 103.3641099  39.0931141  51.1431741
 103.5827108  40.0248249  51.1619774 103.7766872  38.7339115  51.9286544
 110.2845316  29.5999226  43.1307429 109.4746045  29.2546311  43.5062675
 110.9729733  29.2906770  43.7195041 112.2135865  28.6777273  44.7531726
 112.7666903  29.0972726  45.4121749 112.4505951  27.7513021  44.7954682
 108.2368964  34.6664346  60.5334490 108.1365691  35.6158703  60.4646581
 108.0190506  34.3382585  59.6610560 107.4382035  31.9149272  37.1175167
 108.3001199  32.2404170  37.3770984 107.6232379  31.1280767  36.6048233
  99.4549451  39.9971611  49.3955356  98.7612922  39.5825564  48.8825310
 100.2022442  40.0392148  48.7988775 115.5914672  30.7877798  44.2610390
 115.0113341  31.4462602  43.8788442 115.3250604  29.9655143  43.8497807
 114.0418238  30.1882856  46.4631710 114.5418016  30.2999390  45.6546029
 114.6853846  29.8843909  47.1032519 108.1000234  38.0961485  59.3499551
 107.6167316  38.8961845  59.5563440 108.1861173  38.1069430  58.3966995
 101.3686194  39.9289865  47.2721371 101.3456882  40.0277552  46.3203254
 101.6786830  40.7755016  47.5938537 104.0273571  41.9866020  51.3867985
 104.9816825  41.9549962  51.3197917 103.8286095  41.5256644  52.2018211
 104.6172954  40.5567136  53.9538783 105.4365843  41.0511215  53.9773620
 104.8909761  39.6399104  53.9256350 114.3739550  32.9477888  43.3166738
 113.4865405  33.2327539  43.0986933 114.7893539  32.7871652  42.4694015
 117.7254086  32.9724409  47.0321077 118.5014476  33.4620862  47.3045694
 117.0002220  33.3982464  47.4892947 120.1626645  33.6852029  48.0895018
 120.7571135  33.4447765  47.3788326 120.2353228  32.9659159  48.7168554
 102.3823800  47.5285639  48.4038183 102.2478268  46.7686040  47.8376181
 101.9655862  48.2526539  47.9366972 113.5182763  42.7122563  37.4114758
 114.2218613  42.9172566  38.0272414 112.7945412  43.2799325  37.6763842
 114.3480573  38.4632424  43.5317028 114.2915775  38.9200976  42.6924661
 114.9008916  37.7023109  43.3539871 118.1585379  34.2522156  44.3567148
 117.9022314  33.8518792  45.1875356 117.5338247  34.9665950  44.2317287
 122.4697717  36.9918229  46.8638439 121.9097275  37.0611419  47.6370001
 121.8641221  36.8159214  46.1437935 105.5392926  48.4254957  48.6156626
 105.4225310  49.3700389  48.5135316 104.7185372  48.1228518  49.0042425
 115.4269461  43.1505092  39.4613218 116.2615065  42.7186291  39.2790693
 115.2653804  42.9787106  40.3890113 115.0815353  39.6537206  40.8269558
 115.0264157  39.4881477  39.8858002 114.4561408  40.3613238  40.9831747
  99.8707868  34.8905270  54.6530980 100.5166731  34.3804224  55.1418205
  99.6625019  35.6273952  55.2274405 112.3961260  41.9586117  60.1523120
 113.2652420  42.1326770  59.7909755 111.9168011  42.7780534  60.0298850
 108.3911478  29.1545315  40.4054876 108.3790148  30.0987154  40.5623147
 109.2834900  28.9715460  40.1114337 106.5647440  49.0783218  51.8312554
 107.4674687  49.1106829  52.1479049 106.3384810  48.1483669  51.8458890
 108.3201042  47.8314205  48.4922633 107.3696673  47.8316067  48.3787005
 108.6233528  47.0846940  47.9758667 112.2063598  25.7488091  44.6600813
 111.4395994  25.1946578  44.8057495 112.6174303  25.8209960  45.5214964
 104.2105359  32.0372887  58.7505994 105.0736820  31.6809692  58.9609319
 103.6370769  31.6986782  59.4381398 120.8643442  53.6202171  49.4929920
 120.5261954  53.5043236  48.6050455 121.7333210  53.2193337  49.4730926
 116.7230258  55.4737648  45.4826811 116.1595123  55.3827585  44.7143098
 116.6082653  54.6537552  45.9629303 121.3463225  54.7737023  55.4516125
 121.3351866  54.3789821  54.5796629 121.5083864  54.0403096  56.0449897
 114.2694690  56.9688839  48.3211031 115.0615982  56.6279664  47.9057330
 114.5091340  57.0783815  49.2413184 116.2285444  56.2297753  41.1928410
 117.0016320  55.6826740  41.0541286 116.5810842  57.0942002  41.4042871
 118.0670486  57.5574135  54.3995309 117.7760352  58.4619766  54.2841975
 118.7027470  57.5990663  55.1139379 118.9926693  54.9350983  50.9896669
 119.5890265  54.7107006  50.2753632 119.0501665  54.1935729  51.5922117
 118.5651721  52.3890419  38.8246860 118.8177242  51.8671940  38.0630323
 117.6276280  52.2256564  38.9273543 118.2848010  54.2918525  41.0271235
 118.1684268  53.6163428  41.6952319 118.3950270  53.8050899  40.2103388
 120.6279551  53.7528672  44.7317924 120.2637758  53.2259293  45.4430845
 121.4846667  53.3627141  44.5584409 120.2685038  48.7818572  39.7279272
 120.4359440  49.6498808  40.0949744 120.0782207  48.9445853  38.8040562
 116.4772853  53.6949347  47.4281807 115.5523349  53.5625561  47.6359499
 116.7257266  54.4743567  47.9251750 120.2474259  51.2376229  40.7125939
 120.1273884  51.6833280  41.5511420 119.5526847  51.5861547  40.1539477
 113.8381664  53.3382621  48.2625596 113.9674045  53.5917100  49.1765008
 113.1579115  53.9310329  47.9430251 118.0081151  64.0079871  44.3616071
 117.9305181  64.9587696  44.4404551 117.4042795  63.6625743  45.0190997
 120.4998381  51.1807736  57.0177437 119.7231715  51.7401656  57.0080302
 121.1388944  51.6664519  57.5392308 118.7544753  53.9893190  56.5795404
 119.4959437  54.5278234  56.3030228 118.0481739  54.6159478  56.7366956
 120.5831163  51.0694937  52.5501123 121.4292358  51.4934350  52.6935772
 120.5229800  50.4128561  53.2439686 120.1056869  56.4297929  46.1969940
 120.5695215  56.7085632  45.4074562 119.8413667  55.5281373  46.0143031
 116.9980950  55.9769410  49.1349703 117.5682307  56.4056679  48.4967188
 117.5889062  55.6951995  49.8333889 119.0425755  52.5521081  43.0059505
 119.7449799  53.0042125  43.4733431 118.7106384  51.9104900  43.6339398
 117.4906117  51.1432838  57.3810714 116.8604777  51.8249119  57.6146111
 117.3842205  51.0315919  56.4363853 112.7851089  50.8104634  48.3076639
 111.9950143  51.0662162  47.8316749 113.2762337  51.6252972  48.4128679
 114.7365835  51.1749213  45.2660115 113.9396998  51.2867907  45.7843611
 114.5091427  51.5135865  44.4001006 120.5671502  57.6993916  53.2142630
 120.6315935  58.1614324  54.0500802 119.8582426  57.0691281  53.3424940
 111.0688792  51.0635124  50.7391629 111.3196831  51.9482134  51.0049205
 111.6048341  50.8839726  49.9666721 120.2819520  59.3662024  43.0821610
 120.1465195  60.2113560  43.5106458 120.8229332  59.5681301  42.3187544
 116.7686860  45.4453604  59.7435966 116.3753805  44.8919802  60.4183610
 117.5853000  45.7564182  60.1342483 113.7348917  56.8837462  43.6549535
 114.2473438  57.6780712  43.8055100 114.3871630  56.1863752  43.5883137
 115.5443802  60.0003218  45.7372289 115.7210430  60.9221183  45.5493272
 116.3400636  59.6861637  46.1666668 119.6854821  46.8611483  57.3356222
 120.4264534  47.4618636  57.2560685 119.9172743  46.1189121  56.7774265
 114.8296159  52.0467850  55.6134452 114.7149674  51.1453107  55.9141551
 113.9740676  52.2931547  55.2619268 116.6675117  61.5181392  51.7382631
 117.2182543  61.3898455  50.9659625 115.8286593  61.8176281  51.3877524
 120.4642289  57.7832520  56.0826862 120.9970625  57.0220808  55.8526170
 119.9356370  57.4906172  56.8251016 111.6997834  55.2126116  44.4309106
 112.5373056  55.6223124  44.2142814 111.8776102  54.2725558  44.4009300
 121.1809377  47.7250898  45.1778177 120.3250974  47.3357748  44.9983816
 121.5936329  47.8042858  44.3177963 118.9551410  45.3435971  48.5835919
 119.8204407  45.1478779  48.2241808 119.0228919  45.1146322  49.5105275
 121.8295001  56.9118512  43.5945674 121.3016363  56.1771272  43.2818911
 121.3282504  57.6893189  43.3485642 116.5613729  47.5738178  45.9552286
 117.1357481  47.3513360  45.2225478 117.1484711  47.6426873  46.7080887
 116.8883316  49.6042640  39.9748171 116.0520628  49.9417326  40.2957446
 116.7488086  49.4691619  39.0375308 118.8636397  44.4479427  44.6827355
 118.2100809  44.1328445  44.0583970 118.8216871  43.8255168  45.4087178
 119.9747601  54.7298722  36.5980647 119.0674663  54.4987976  36.7971796
 120.4718633  53.9336342  36.7854629 121.1535835  54.8311317  41.1204637
 120.2447054  54.5470350  41.2177107 121.1830919  55.2510396  40.2607944
 111.7224005  52.5516831  45.1019839 111.5248405  51.9586192  44.3770906
 111.1670669  52.2469042  45.8195778 119.7020729  52.4439938  47.2214433
 119.7569339  51.4913774  47.1456909 118.8911931  52.5999377  47.7055731
 120.8511923  56.3720061  38.4592716 120.4131353  55.6555920  37.9998353
 121.5922364  56.5996176  37.8977807 117.6413089  51.0616998  44.9804811
 116.8280954  51.3611168  45.3870004 118.1372083  50.6672686  45.6979294
 119.7921667  61.0574755  46.9139076 119.7497845  61.2835601  45.9847608
 120.7084366  60.8238129  47.0624877 117.1327164  48.6335353  50.5966046
 117.7726543  48.4924112  49.8989010 116.3004694  48.3469867  50.2204648
 117.9087467  57.9337784  46.7101039 118.7028066  57.4388104  46.5083614
 117.1979160  57.4055647  46.3468744 114.2170231  52.0780865  42.7860791
 113.2867819  52.0165321  43.0030754 114.3127703  51.5556818  41.9897433
 114.1355780  48.6035678  45.3739033 114.3962597  49.5181011  45.2648194
 114.9572952  48.1360121  45.5235646 115.6080705  50.0173435  52.5437858
 116.2803759  49.8090797  51.8950507 114.7810492  49.8195521  52.1043090
 121.5106277  46.6435376  54.5603519 120.8634192  47.3425326  54.4667995
 122.2807293  47.0771520  54.9279767 120.4858743  58.5066806  50.3898876
 120.3469829  58.1385590  51.2624814 119.6973340  59.0214445  50.2182834
 121.0806895  63.6075902  41.7324412 121.2558651  63.1363945  42.5470035
 120.3939683  64.2341668  41.9605673 122.0363959  57.8848408  47.7787714
 121.7013791  57.8449178  48.6745364 121.5367904  57.2193124  47.3058124
 116.0108203  53.2916038  53.3040295 115.8728001  52.5596277  53.9051834
 116.9213126  53.2024938  53.0224483 118.6390503  53.0035998  52.7923974
 119.3490122  52.3629190  52.7510593 118.5959811  53.2548893  53.7150155
 117.3519437  49.9901216  54.6119614 116.8156794  49.5391954  55.2641210
 116.7636146  50.1247124  53.8690078 115.6467981  66.7565265  48.5064273
 115.8864579  67.3883789  49.1843291 114.8037177  66.4053305  48.7929632
 116.7621696  49.4489867  37.1746078 115.8851163  49.3278668  36.8108324
 117.2379449  48.6575945  36.9224966 108.2823836  54.2367027  47.2687585
 108.9694876  53.9228757  46.6808600 108.1271965  55.1408391  46.9954836
 113.0858558  49.1257223  51.6972608 113.0016747  48.5182893  50.9623018
 112.2641265  49.6166242  51.6982105 120.1595843  62.5644387  50.9105777
 120.0866014  63.3699359  51.4225081 119.7173236  62.7636353  50.0853798
 119.9485622  61.8016157  44.4208598 119.1653144  62.3437837  44.5146823
 120.6478367  62.3190137  44.8202839 119.8417241  49.7528170  46.7914488
 119.4715029  49.1999210  47.4795394 120.3376334  49.1486303  46.2389488
 117.6706440  60.2125665  53.8869506 118.3715899  60.8462148  54.0398900
 117.2001555  60.5540396  53.1265145 121.5195299  53.5090083  58.1988093
 120.8435936  53.4084213  58.8690469 122.3422933  53.3529297  58.6624091
 113.2674158  59.7462020  50.8200609 113.8527595  59.0005708  50.9528513
 113.0698996  60.0565977  51.7037273 116.1212813  62.7813267  45.8363051
 115.4523188  63.2659395  45.3527091 115.9825683  63.0282488  46.7506430
 107.8591812  52.3167620  49.5405052 107.8975912  51.7831211  50.3342170
 107.3532105  51.7902826  48.9216029 120.2618082  64.8157011  52.4345709
 120.8136390  64.9788632  53.1994795 120.6024275  65.4061449  51.7625734
 115.2382575  47.1632161  53.0367594 115.3023901  48.0246991  52.6244992
 115.1749695  46.5506162  52.3039953 114.7134847  49.2355293  56.6840628
 115.3406886  48.8532370  57.2978153 113.8562766  49.0169495  57.0496321
 111.4900390  51.0431722  42.6158983 111.7853831  50.1342401  42.5626037
 110.5888426  51.0219462  42.2939986 115.0194637  49.1187719  48.5986532
 114.2981223  49.7323686  48.4594005 115.8087893  49.6545484  48.5203178
 117.8220951  46.4542145  54.8727184 118.3455352  46.7004442  55.6353493
 117.6033284  47.2862180  54.4530321 113.2188232  48.7245820  42.7398308
 112.8900938  47.8443199  42.5573414 113.5727602  48.6693489  43.6274698
 116.3330055  49.0118790  43.1073786 116.6726127  49.5404711  42.3852394
 116.7802175  49.3499196  43.8832353 119.0273496  47.3955840  52.5576854
 118.6870316  46.5963653  52.9597534 118.3212502  47.6957551  51.9853687
 119.6789967  44.4805153  51.0104177 120.5016037  44.0065631  50.8883067
 119.9228031  45.2595637  51.5102863 118.3198202  47.5093411  41.3067079
 119.0406564  47.8874664  40.8030796 117.6963506  48.2282288  41.4102057
 117.2028546  51.1724273  48.8196156 117.0573127  51.4864576  49.7120437
 116.7253750  51.7909174  48.2667054 119.0624929  48.1626821  48.8677045
 119.0486498  47.2667915  48.5309343 119.7797357  48.1697485  49.5015331
 120.9151060  48.5964162  50.9130173 120.6568838  49.5181232  50.9114503
 120.3836100  48.1994596  51.6030637 111.6774208  53.7129618  51.7583817
 111.1327676  54.4889426  51.8904091 112.5553558  54.0600422  51.6002938
 118.4661825  47.0441202  44.1364615 118.5877736  46.1157848  44.3355503
 118.1763867  47.0579888  43.2242931 121.3353015  44.7296112  47.2731335
 121.3574712  44.7935445  46.3183315 121.7521074  43.8900621  47.4671841
 112.4640230  52.8399514  54.6513974 111.7221966  52.9882149  55.2378604
 112.1432974  53.1007780  53.7880723 120.4083893  62.3815492  54.4494364
 120.7171019  62.1364639  55.3217063 121.2059375  62.5862131  53.9613234
 120.4304505  64.5353402  46.6799740 119.9909495  64.0429781  47.3732597
 121.1812622  63.9926370  46.4391816 112.9096844  60.7264943  46.6824368
 113.7354864  60.4268715  46.3023012 112.5590896  59.9572565  47.1314157
 117.8778377  60.0791411  48.7522042 117.2558386  59.4162116  48.4524270
 118.5483244  60.1052543  48.0695690 111.1105449  58.6451269  47.6413302
 110.2737357  58.2173444  47.4597303 111.0829094  58.8383713  48.5784093
 117.9502905  48.5573199  58.3454548 117.9991060  49.4335322  57.9632318
 118.4925419  48.0150592  57.7726191 117.4391884  58.6295334  42.2280503
 117.5880004  59.3130799  41.5747175 118.2458327  58.6100424  42.7429958
 120.1802193  49.3104571  55.1000907 119.3105502  49.6038138  54.8283495
 120.4161673  49.8945016  55.8208170 115.1944517  54.6560512  43.2341571
 114.9490559  53.7522842  43.4321782 115.3640431  54.6577662  42.2921049
 114.4640164  50.3888870  40.7327733 113.7709409  50.4633225  40.0767769
 114.2191916  49.6249213  41.2549250 120.9387289  61.1243465  39.6992250
 120.3661257  61.7433652  39.2462722 121.5120083  61.6742827  40.2332172
 121.3234088  52.4604278  37.0408302 122.2693193  52.3310486  37.1096721
 120.9448333  51.7218939  37.5177731 121.2072781  56.5122024  58.5008959
 122.1275790  56.6900623  58.6949006 121.1722364  55.5678069  58.3488659
 119.5077005  50.3854254  36.9763188 118.6008461  50.0887367  37.0525901
 119.7852986  50.0884072  36.1097474 110.4254946  51.7060617  47.4262234
 110.1057730  50.8525926  47.1336608 109.8788374  51.9209196  48.1820201
 114.2034853  54.4223058  51.1431741 114.4220863  55.3540166  51.1619774
 114.6160627  54.0631033  51.9286544 121.1239071  44.9291144  43.1307429
 120.3139799  44.5838229  43.5062675 121.8123488  44.6198687  43.7195041
 119.0762718  49.9956264  60.5334490 118.9759445  50.9450621  60.4646581
 118.8584260  49.6674503  59.6610560 118.2775790  47.2441189  37.1175167
 119.1394954  47.5696088  37.3770984 118.4626134  46.4572685  36.6048233
 110.2943206  55.3263529  49.3955356 109.6006677  54.9117482  48.8825310
 111.0416197  55.3684065  48.7988775 118.9393988  53.4253403  59.3499551
 118.4561070  54.2253763  59.5563440 119.0254927  53.4361348  58.3966995
 112.2079948  55.2581783  47.2721371 112.1850636  55.3569470  46.3203254
 112.5180585  56.1046933  47.5938537 114.8667326  57.3157938  51.3867985
 115.8210579  57.2841880  51.3197917 114.6679849  56.8548561  52.2018211
 115.4566708  55.8859054  53.9538783 116.2759597  56.3803132  53.9773620
 115.7303516  54.9691022  53.9256350 113.2217555  62.8577557  48.4038183
 113.0872023  62.0977958  47.8376181 112.8049617  63.5818457  47.9366972
 116.3786681  63.7546874  48.6156626 116.2619065  64.6992307  48.5135316
 115.5579127  63.4520436  49.0042425 110.7101622  50.2197188  54.6530980
 111.3560486  49.7096142  55.1418205 110.5018773  50.9565869  55.2274405
 119.2305233  44.4837232  40.4054876 119.2183903  45.4279072  40.5623147
 120.1228655  44.3007378  40.1114337 117.4041195  64.4075136  51.8312554
 118.3068441  64.4398746  52.1479049 117.1778565  63.4775587  51.8458890
 119.1594797  63.1606123  48.4922633 118.2090428  63.1607984  48.3787005
 119.4627283  62.4138857  47.9758667 115.0499113  47.3664805  58.7505994
 115.9130575  47.0101610  58.9609319 114.4764524  47.0278699  59.4381398
 121.9082547  66.3927042  50.7391629 122.1590585  67.2774052  51.0049205
 122.4442095  66.2131643  49.9666721 119.1217591  69.5658944  47.2687585
 119.8088631  69.2520674  46.6808600 118.9665719  70.4700309  46.9954836
 118.6985567  67.6459538  49.5405052 118.7369666  67.1123128  50.3342170
 118.1925860  67.1194743  48.9216029 121.9499203  73.9743187  47.6413302
 121.1131112  73.5465361  47.4597303 121.9222849  74.1675630  48.5784093
 121.2648700  67.0352535  47.4262234 120.9451484  66.1817843  47.1336608
 120.7182128  67.2501113  48.1820201 121.1336960  70.6555447  49.3955356
 120.4400431  70.2409399  48.8825310 121.8809951  70.6975983  48.7988775
 121.5495377  65.5489105  54.6530980 122.1954240  65.0388059  55.1418205
 121.3412528  66.2857787  55.2274405  96.3293643  10.3558158  31.0861377
  96.2517673  11.3065983  31.1649858  95.7255287  10.0104031  31.7436304
  93.9680473  13.1043552  35.2309579  94.2077071  13.7362076  35.9088598
  93.1249669  12.7531592  35.5174938  94.4425305   9.1291554  32.5608358
  93.7735680   9.6137682  32.0772398  94.3038175   9.3760775  33.4751736
  98.5830574  11.1635298  39.1591016  99.1348882  11.3266919  39.9240101
  98.9236767  11.7539736  38.4871041  98.7516997  10.8831689  33.4045047
  98.3121987  10.3908068  34.0977904  99.5025114  10.3404657  33.1637122
  91.5430047   9.2055844  35.1283490  91.4084515   8.4456245  34.5621488
  91.1262109   9.9296744  34.6612278  94.6999173  10.1025161  35.3401932
  94.5831557  11.0470594  35.2380622  93.8791619   9.7998723  35.7287731
  95.7253687  10.7553423  38.5557861  96.6280934  10.7877034  38.8724356
  95.4991057   9.8253874  38.5704196 110.0249689  15.2972376  36.2175226
 109.6868200  15.1813441  35.3295761 110.8939457  14.8963541  36.1976232
 105.8836504  17.1507853  32.2072117 105.3201370  17.0597790  31.4388405
 105.7688900  16.3307757  32.6874610 110.5069472  16.4507228  42.1761432
 110.4958113  16.0560026  41.3041935 110.6690111  15.7173301  42.7695203
 103.4300936  18.6459044  35.0456338 104.2222228  18.3049869  34.6302637
 103.6697587  18.7554019  35.9658491 111.4636063  20.8178820  27.5186582
 110.8124043  21.4032901  27.1320596 112.2580426  21.3485015  27.5781620
 105.3891690  17.9067958  27.9173717 106.1622566  17.3596945  27.7786592
 105.7417089  18.7712207  28.1288178 107.2276733  19.2344340  41.1240616
 106.9366599  20.1389971  41.0087282 107.8633717  19.2760868  41.8384685
 108.1532940  16.6121188  37.7141975 108.7496512  16.3877211  36.9998938
 108.2107911  15.8705934  38.3167423 107.4454257  15.9688730  27.7516541
 107.3290515  15.2933633  28.4197626 107.5556517  15.4821104  26.9348694
 109.7885798  15.4298877  31.4563231 109.4244005  14.9029498  32.1676152
 110.6452914  15.0397346  31.2829716 112.1866618  18.9205755  38.1190410
 111.8867341  19.8230794  38.0106217 111.8417677  18.6537939  38.9711562
 105.6379099  15.3719552  34.1527114 104.7129596  15.2395766  34.3604806
 105.8863513  16.1513771  34.6497056 102.9987910  15.0152826  34.9870903
 103.1280292  15.2687305  35.9010315 102.3185362  15.6080534  34.6675558
 107.1687398  25.6850076  31.0861377 107.0911427  26.6357901  31.1649858
 106.5649041  25.3395948  31.7436304 107.9151000  15.6663395  43.3040711
 108.6565684  16.2048439  43.0275535 107.2087985  16.2929683  43.4612263
 113.3906339  17.8092535  41.9012873 113.7989696  17.3674946  41.1567505
 112.6683601  17.2345163  42.1547065 113.7135154  18.3693726  35.6565161
 113.0844017  18.5339440  34.9541229 113.3260816  18.7835335  36.4276125
 117.5924386  19.3048163  33.0109525 116.9075424  19.6847065  32.4606559
 117.6768235  19.9143490  33.7441473 114.8475318  16.9508123  39.6104869
 115.0592213  17.5939882  38.9339250 114.8005066  16.1170439  39.1426799
 109.2663116  18.1068134  32.9215247 109.7301462  18.3855837  32.1319869
 109.0019914  17.2051578  32.7388337 106.1587197  17.6539615  35.8595010
 106.7288554  18.0826884  35.2212494 106.7495309  17.3722200  36.5579195
 108.2032002  14.2291286  29.7304812 108.9056045  14.6812330  30.1978738
 107.8712631  13.5875105  30.3584705 106.6512364  12.8203043  44.1056021
 106.0211024  13.5019324  44.3391418 106.5448451  12.7086124  43.1609159
 101.9457336  12.4874839  35.0321945 101.1556390  12.7432367  34.5562056
 102.4368583  13.3023177  35.1373986 115.9621146  19.8280078  37.7827226
 116.7838589  19.4260265  37.5009908 115.9583548  19.7248312  38.7343342
 103.8972081  12.8519418  31.9905422 103.1003245  12.9638112  32.5088918
 103.6697674  13.1906070  31.1246312 109.7277749  19.3764121  39.9387937
 109.7922182  19.8384528  40.7746108 109.0188673  18.7461486  40.0670246
 100.2295039  12.7405329  37.4636936 100.4803077  13.6252339  37.7294512
 100.7654587  12.5609931  36.6912028 109.4425767  21.0432229  29.8066917
 109.3071441  21.8883764  30.2351765 109.9835579  21.2451506  29.0432851
 102.8955164  18.5607667  30.3794842 103.4079685  19.3550917  30.5300407
 103.5477877  17.8633957  30.3128443 104.7050049  21.6773423  32.4617595
 104.8816677  22.5991388  32.2738579 105.5006882  21.3631842  32.8911975
 103.9902405  13.7238055  42.3379758 103.8755920  12.8223312  42.6386857
 103.1346923  13.9701752  41.9864575 111.0694243  21.6655795  43.9367259
 110.6258097  20.8792174  43.6188163 111.7311457  21.8534946  43.2711150
 105.8281364  23.1951597  38.4627938 106.3788789  23.0668660  37.6904931
 104.9892840  23.4946486  38.1122830 113.1675481  21.9458595  41.9648660
 113.1493956  22.7667476  41.4728929 114.0895401  21.8212670  42.1898801
 109.6248535  19.4602725  42.8072169 110.1576872  18.6991013  42.5771477
 109.0962616  19.1676376  43.5496323 100.8604081  16.8896321  31.1554413
 101.6979303  17.2993329  30.9388120 101.0382349  15.9495763  31.1254606
 110.9901248  18.5888717  30.3190981 110.4622610  17.8541477  30.0064218
 110.4888751  19.3663393  30.0730949 115.9694094  16.7837738  35.4358027
 115.3117768  17.4736999  35.5238156 116.7734493  17.1734170  35.7792013
 112.0421927  25.1166435  26.2422640 111.3683626  25.4198131  26.8507598
 112.4287749  25.9195515  25.8928097 115.5461349  20.1188112  31.6141111
 115.0923676  19.2779022  31.6706302 114.9155316  20.7549510  31.9515892
 113.9894288  21.9564608  32.5490929 114.2817263  22.5169666  31.8303295
 114.4992909  22.2493169  33.3044089 100.8830252  14.2287036  31.8265146
 100.6854652  13.6356397  31.1016213 100.3276916  13.9239247  32.5441085
 108.9527913  22.7344960  33.6384383 108.9104092  22.9605806  32.7092915
 109.8690612  22.5008334  33.7870184 118.1560664  18.3923990  36.2525612
 118.5897170  18.2999279  37.1008666 118.8692245  18.3681490  35.6145628
 107.0693714  19.6107989  33.4346345 107.8634313  19.1158309  33.2328920
 106.3585407  19.0825852  33.0714051 111.8888559  21.9926084  37.7858713
 111.9425581  22.5617020  38.5536429 111.0203340  22.1627969  37.4212750
 103.3776478  13.7551070  29.5106098 102.4474066  13.6935526  29.7276060
 103.4733950  13.2327023  28.7142739 119.0176213  18.4347691  38.7858498
 119.2112103  19.3393501  39.0317773 118.9176832  17.9755110  39.6197083
 114.0791322  18.5854433  44.3599378 113.9276828  18.3564985  43.4429462
 114.0696002  19.5425035  44.3730723 110.8476658  16.1586346  39.3445645
 111.7768718  16.3097506  39.1714612 110.4267688  16.2470367  38.4894291
 109.6464990  20.1837011  37.1144183 109.5076076  19.8155795  37.9870121
 108.8579586  20.6984650  36.9428140 110.2413142  25.2846107  28.4569719
 110.4164898  24.8134150  29.2715342 109.5545930  25.9111873  28.6850980
 111.1970205  19.5618613  34.5033020 110.8620038  19.5219383  35.3990670
 110.6974151  18.8963329  34.0303431 105.1714449  14.9686243  40.0285601
 105.0334247  14.2366482  40.6297140 106.0819373  14.8795143  39.7469789
 107.7996750  14.6806203  39.5169281 108.5096369  14.0399395  39.4755900
 107.7566058  14.9319097  40.4395462 115.7883529  21.6173556  42.4375860
 115.7296075  20.9332776  41.7706443 116.1903047  22.3592546  41.9856486
 104.8074227  28.4335470  35.2309579 105.0470826  29.0653994  35.9088598
 103.9643424  28.0823510  35.5174938 115.7900936  19.5813140  40.6689840
 114.9027715  19.2439062  40.7916239 116.3599487  18.8496171  40.9058605
  97.4430083  15.9137232  33.9932891  98.1301123  15.5998962  33.4053907
  97.2878212  16.8178596  33.7200143 109.3202089  24.2414592  37.6351083
 109.2472261  25.0469564  38.1470388 108.8779482  24.4406558  36.8099105
 109.1091869  23.4786362  31.1453905 108.3259391  24.0208042  31.2392129
 109.8084614  23.9960342  31.5448146 111.7800773  24.1401426  39.7909242
 112.4928745  24.7748891  39.7185143 111.2890802  24.2365292  38.9749244
 113.5018300  18.0452679  31.3626534 112.5674579  18.1654141  31.1931238
 113.6794968  17.1425146  31.0986543 106.8312686  21.8895870  40.6114813
 107.5322146  22.5232353  40.7644207 106.3607801  22.2310601  39.8510452
 111.5921146  24.4800170  32.5395533 111.7743541  23.6621826  33.0023286
 112.4154132  24.6967863  32.1020423 111.9263312  23.4068355  29.8010582
 112.4551078  22.8960810  29.1880744 112.1891531  23.0910886  30.6656115
 110.6801545  15.1860288  44.9233400 110.0042182  15.0854418  45.5935775
 111.5029179  15.0299502  45.3869397 102.4280404  21.4232225  37.5445915
 103.0133841  20.6775913  37.6773820 102.2305243  21.7336181  38.4282579
 105.2819060  24.4583472  32.5608358 104.6129435  24.9429600  32.0772398
 105.1431929  24.7052693  33.4751736  97.0198059  13.9937825  36.2650359
  97.0582159  13.4601416  37.0587477  96.5138352  13.4673030  35.6461336
 109.4224328  26.4927216  39.1591016 109.9742636  26.6558837  39.9240101
 109.7630522  27.0831653  38.4871041 114.2735203  21.3188473  45.0139671
 114.8175107  21.9318431  44.5194625 113.6922047  21.8768052  45.5306684
 100.6506637  12.7201927  29.3404290 100.9460078  11.8112606  29.2871344
  99.7494673  12.6989667  29.0185292 112.5592716  24.4409191  36.1454698
 112.4343855  23.6398931  35.6365644 113.2171807  24.9355385  35.6568668
 114.6227624  22.2418211  37.7734248 113.6757959  22.1223562  37.7012575
 114.9710397  21.3540709  37.8560510 111.6274057  22.0370927  33.9738601
 111.4799020  21.1087635  34.1546171 112.4527551  22.0591018  33.4895676
 115.2308179  22.8599486  35.0603473 116.1554727  22.6542348  34.9227924
 115.0623482  22.6115887  35.9692815 106.3634793  12.8494478  35.5441462
 106.2179374  13.1634781  36.4365744 105.8859997  13.4679379  34.9912361
 115.0203495  23.3785154  30.4165565 115.1940373  22.8131576  29.6639417
 115.5132387  24.1786049  30.2345055 100.8380455  15.3899823  38.4829124
 100.2933923  16.1659631  38.6149398 101.7159805  15.7370627  38.3248245
 101.6246477  14.5169719  41.3759280 100.8828213  14.6652354  41.9623911
 101.3039221  14.7777985  40.5126030 109.5690140  24.0585697  41.1739670
 109.8777266  23.8134844  42.0462370 110.3665622  24.2632336  40.6858541
 109.5910752  26.2123607  33.4045047 109.1515742  25.7199986  34.0977904
 110.3418869  25.6696575  33.1637122 102.0703091  22.4035148  33.4069675
 102.8961111  22.1038920  33.0268319 101.7197143  21.6342770  33.8559464
 107.0384624  21.7561616  35.4767349 106.4164633  21.0932321  35.1769577
 107.7089491  21.7822748  34.7940996 100.2711696  20.3221474  34.3658609
  99.4343604  19.8943649  34.1842610 100.2435341  20.5153918  35.3029400
 117.5963997  20.7784527  44.3500992 116.8059541  20.7608666  43.8105491
 117.3597352  21.3172821  45.1050028 117.7161872  17.6276994  41.6633720
 117.7659877  17.4627001  42.6049243 117.6075795  16.7604253  41.2731601
 106.5998131  20.3065539  28.9525809 106.7486251  20.9901004  28.2992482
 107.4064574  20.2870629  29.4675265 119.2180069  20.0473935  41.9075742
 118.9264877  20.4103916  42.7439203 118.6052200  19.3340943  41.7289074
 104.3550764  16.3330717  29.9586878 104.1096806  15.4293047  30.1567088
 104.5246678  16.3347867  29.0166356 110.0993536  22.8013670  26.4237557
 109.5267503  23.4203857  25.9708029 110.6726330  23.3513031  26.9577479
 113.3190796  23.0850820  27.5546139 114.2521469  23.0196382  27.7579014
 113.2314009  23.9207087  27.0960672 110.3679027  18.1892229  45.2254266
 111.2882037  18.3670828  45.4194313 110.3328610  17.2448274  45.0733965
  99.5861192  13.3830822  34.1507541  99.2663977  12.5296130  33.8581915
  99.0394620  13.5979400  34.9065508 103.3641100  16.0993263  37.8677047
 103.5827110  17.0310371  37.8865081 103.7766874  15.7401238  38.6531851
  99.4549452  17.0033734  36.1200662  98.7612924  16.5887687  35.6070617
 100.2022443  17.0454270  35.5234081 108.1000235  15.1023608  46.0744858
 107.6167317  15.9023968  46.2808747 108.1861174  15.1131553  45.1212302
 101.3686195  16.9351988  33.9966677 101.3456883  17.0339675  33.0448560
 101.6786831  17.7817138  34.3183843 104.0273573  18.9928143  38.1113292
 104.9816826  18.9612085  38.0443223 103.8286096  18.5318766  38.9263518
 104.6172955  17.5629259  40.6784089 105.4365844  18.0573337  40.7018927
 104.8909763  16.6461227  40.6501657 102.3823801  24.5347762  35.1283490
 102.2478269  23.7748163  34.5621488 101.9655864  25.2588662  34.6612278
 105.5392927  25.4317079  35.3401932 105.4225311  26.3762512  35.2380622
 104.7185374  25.1290641  35.7287731  99.8707869  11.8967393  41.3776286
 100.5166733  11.3866346  41.8663512  99.6625020  12.6336074  41.9519712
 112.3961261  18.9648240  46.8768427 113.2652421  19.1388892  46.5155062
 111.9168013  19.7842657  46.7544156 106.5647441  26.0845341  38.5557861
 107.4674688  26.1168951  38.8724356 106.3384812  25.1545792  38.5704196
 108.3201043  24.8376328  35.2167939 107.3696674  24.8378189  35.1032312
 108.6233530  24.0909062  34.7003974 120.8643443  30.6264294  36.2175226
 120.5261955  30.5105359  35.3295761 121.7333211  30.2255459  36.1976232
 116.7230259  32.4799770  32.2072117 116.1595124  32.3889707  31.4388405
 116.6082654  31.6599675  32.6874610 121.3463226  31.7799146  42.1761432
 121.3351867  31.3851944  41.3041935 121.5083866  31.0465218  42.7695203
 114.2694691  33.9750962  35.0456338 115.0615983  33.6341787  34.6302637
 114.5091341  34.0845937  35.9658491 116.2285445  33.2359875  27.9173717
 117.0016321  32.6888862  27.7786592 116.5810844  34.1004125  28.1288178
 118.0670487  34.5636258  41.1240616 117.7760353  35.4681888  41.0087282
 118.7027472  34.6052785  41.8384685 118.9926694  31.9413106  37.7141975
 119.5890266  31.7169128  36.9998938 119.0501666  31.1997852  38.3167423
 118.2848011  31.2980647  27.7516541 118.1684269  30.6225551  28.4197626
 118.3950271  30.8113021  26.9348694 120.6279552  30.7590794  31.4563231
 120.2637760  30.2321415  32.1676152 121.4846668  30.3689264  31.2829716
 116.4772854  30.7011470  34.1527114 115.5523350  30.5687684  34.3604806
 116.7257267  31.4805689  34.6497056 113.8381665  30.3444743  34.9870903
 113.9674046  30.5979222  35.9010315 113.1579116  30.9372451  34.6675558
 118.0081152  41.0141993  31.0861377 117.9305182  41.9649819  31.1649858
 117.4042796  40.6687866  31.7436304 120.4998382  28.1869859  43.7422744
 119.7231716  28.7463779  43.7325609 121.1388945  28.6726642  44.2637614
 118.7544754  30.9955312  43.3040711 119.4959439  31.5340356  43.0275535
 118.0481740  31.6221601  43.4612263 120.5831164  28.0757059  39.2746430
 121.4292359  28.4996473  39.4181079 120.5229802  27.4190684  39.9684993
 120.1056871  33.4360051  32.9215247 120.5695216  33.7147754  32.1319869
 119.8413669  32.5343496  32.7388337 116.9980952  32.9831533  35.8595010
 117.5682309  33.4118801  35.2212494 117.5889063  32.7014118  36.5579195
 119.0425757  29.5583204  29.7304812 119.7449800  30.0104247  30.1978738
 118.7106385  28.9167023  30.3584705 117.4906118  28.1494960  44.1056021
 116.8604779  28.8311241  44.3391418 117.3842206  28.0378042  43.1609159
 112.7851091  27.8166756  35.0321945 111.9950145  28.0724285  34.5562056
 113.2762338  28.6315094  35.1373986 114.7365836  28.1811336  31.9905422
 113.9396999  28.2930030  32.5088918 114.5091428  28.5197988  31.1246312
 120.5671504  34.7056039  39.9387937 120.6315936  35.1676446  40.7746108
 119.8582427  34.0753404  40.0670246 111.0688794  28.0697247  37.4636936
 111.3196832  28.9544257  37.7294512 111.6048342  27.8901848  36.6912028
 120.2819521  36.3724146  29.8066917 120.1465196  37.2175682  30.2351765
 120.8229334  36.5743424  29.0432851 116.7686861  22.4515726  46.4681272
 116.3753806  21.8981925  47.1428916 117.5853001  22.7626305  46.8587790
 113.7348919  33.8899584  30.3794842 114.2473439  34.6842835  30.5300407
 114.3871631  33.1925875  30.3128443 115.5443803  37.0065341  32.4617595
 115.7210432  37.9283305  32.2738579 116.3400637  36.6923760  32.8911975
 119.6854822  23.8673605  44.0601529 120.4264535  24.4680758  43.9805991
 119.9172745  23.1251243  43.5019571 114.8296160  29.0529973  42.3379758
 114.7149675  28.1515230  42.6386857 113.9740678  29.2993669  41.9864575
 116.6675119  38.5243514  38.4627938 117.2182544  38.3960578  37.6904931
 115.8286595  38.8238404  38.1122830 120.4642290  34.7894642  42.8072169
 120.9970627  34.0282930  42.5771477 119.9356371  34.4968294  43.5496323
 111.6997835  32.2188239  31.1554413 112.5373057  32.6285247  30.9388120
 111.8776103  31.2787681  31.1254606 118.9551411  22.3498093  35.3081225
 119.8204408  22.1540902  34.9487115 119.0228920  22.1208445  36.2350582
 121.8295002  33.9180635  30.3190981 121.3016364  33.1833394  30.0064218
 121.3282505  34.6955311  30.0730949 116.5613730  24.5800301  32.6797592
 117.1357482  24.3575483  31.9470785 117.1484713  24.6488996  33.4326193
 111.7224006  29.5578954  31.8265146 111.5248406  28.9648315  31.1016213
 111.1670670  29.2531164  32.5441085 119.7020730  29.4502061  33.9459739
 119.7569340  28.4975897  33.8702216 118.8911932  29.6061500  34.4301038
 117.6413090  28.0679120  31.7050118 116.8280956  28.3673291  32.1115310
 118.1372084  27.6734809  32.4224600 119.7921668  38.0636877  33.6384383
 119.7497847  38.2897724  32.7092915 120.7084367  37.8300252  33.7870184
 117.1327165  25.6397476  37.3211353 117.7726544  25.4986235  36.6234316
 116.3004695  25.3531989  36.9449955 117.9087469  34.9399906  33.4346345
 118.7028067  34.4450226  33.2328920 117.1979161  34.4117769  33.0714051
 114.2170232  29.0842988  29.5106098 113.2867820  29.0227443  29.7276060
 114.3127704  28.5618941  28.7142739 114.1355781  25.6097801  32.0984340
 114.3962599  26.5243134  31.9893500 114.9572954  25.1422243  32.2480953
 115.6080707  27.0235558  39.2683164 116.2803760  26.8152920  38.6195813
 114.7810493  26.8257644  38.8288397 121.5106279  23.6497499  41.2848825
 120.8634194  24.3487449  41.1913302 122.2807294  24.0833643  41.6525073
 120.4858745  35.5128928  37.1144183 120.3469830  35.1447713  37.9870121
 119.6973341  36.0276568  36.9428140 121.0806897  40.6138025  28.4569719
 121.2558652  40.1426068  29.2715342 120.3939685  41.2403791  28.6850980
 122.0363960  34.8910531  34.5033020 121.7013792  34.8511301  35.3990670
 121.5367906  34.2255247  34.0303431 116.0108204  30.2978161  40.0285601
 115.8728002  29.5658400  40.6297140 116.9213127  30.2087061  39.7469789
 118.6390505  30.0098120  39.5169281 119.3490123  29.3691312  39.4755900
 118.5959813  30.2611015  40.4395462 117.3519438  26.9963338  41.3364921
 116.8156796  26.5454077  41.9886517 116.7636147  27.1309247  40.5935385
 115.6467982  43.7627387  35.2309579 115.8864580  44.3945912  35.9088598
 114.8037178  43.4115427  35.5174938 108.2823838  31.2429149  33.9932891
 108.9694877  30.9290879  33.4053907 108.1271966  32.1470514  33.7200143
 113.0858560  26.1319346  38.4217915 113.0016748  25.5245015  37.6868325
 112.2641266  26.6228364  38.4227411 120.1595844  39.5706510  37.6351083
 120.0866015  40.3761481  38.1470388 119.7173237  39.7698476  36.8099105
 119.9485623  38.8078280  31.1453905 119.1653145  39.3499960  31.2392129
 120.6478369  39.3252260  31.5448146 119.8417242  26.7590292  33.5159795
 119.4715030  26.2061333  34.2040700 120.3376335  26.1548426  32.9634795
 117.6706441  37.2187787  40.6114813 118.3715900  37.8524270  40.7644207
 117.2001556  37.5602519  39.8510452 121.5195300  30.5152206  44.9233400
 120.8435937  30.4146335  45.5935775 122.3422934  30.3591420  45.3869397
 113.2674159  36.7524142  37.5445915 113.8527596  36.0067830  37.6773820
 113.0698997  37.0628099  38.4282579 116.1212814  39.7875390  32.5608358
 115.4523189  40.2721517  32.0772398 115.9825684  40.0344610  33.4751736
 107.8591814  29.3229743  36.2650359 107.8975913  28.7893333  37.0587477
 107.3532107  28.7964948  35.6461336 120.2618083  41.8219133  39.1591016
 120.8136391  41.9850755  39.9240101 120.6024276  42.4123571  38.4871041
 115.2382576  24.1694283  39.7612901 115.3023902  25.0309114  39.3490298
 115.1749696  23.5568285  39.0285259 114.7134849  26.2417416  43.4085935
 115.3406887  25.8594493  44.0223459 113.8562767  26.0231618  43.7741628
 111.4900391  28.0493845  29.3404290 111.7853832  27.1404523  29.2871344
 110.5888427  28.0281584  29.0185292 115.0194638  26.1249841  35.3231838
 114.2981224  26.7385809  35.1839312 115.8087894  26.6607606  35.2448484
 117.8220952  23.4604268  41.5972490 118.3455354  23.7066564  42.3598800
 117.6033285  24.2924303  41.1775628 113.2188233  25.7307942  29.4643615
 112.8900939  24.8505321  29.2818721 113.5727604  25.6755611  30.3520004
 116.3330056  26.0180912  29.8319093 116.6726129  26.5466833  29.1097701
 116.7802176  26.3561318  30.6077659 119.0273497  24.4017963  39.2822161
 118.6870317  23.6025776  39.6842841 118.3212503  24.7019674  38.7098994
 119.6789969  21.4867275  37.7349484 120.5016038  21.0127754  37.6128374
 119.9228032  22.2657759  38.2348170 117.2028547  28.1786396  35.5441462
 117.0573128  28.4926699  36.4365744 116.7253751  28.7971296  34.9912361
 119.0624930  25.1688944  35.5922352 119.0486499  24.2730037  35.2554650
 119.7797358  25.1759608  36.2260638 120.9151061  25.6026284  37.6375479
 120.6568839  26.5243355  37.6359810 120.3836101  25.2056719  38.3275944
 111.6774210  30.7191740  38.4829124 111.1327678  31.4951548  38.6149398
 112.5553559  31.0662545  38.3248245 118.4661826  24.0503324  30.8609922
 118.5877737  23.1219970  31.0600810 118.1763869  24.0642010  29.9488238
 112.4640231  29.8461637  41.3759280 111.7221967  29.9944272  41.9623911
 112.1432976  30.1069902  40.5126030 120.4083894  39.3877615  41.1739670
 120.7171021  39.1426762  42.0462370 121.2059376  39.5924253  40.6858541
 120.4304506  41.5415525  33.4045047 119.9909496  41.0491903  34.0977904
 121.1812623  40.9988492  33.1637122 112.9096845  37.7327065  33.4069675
 113.7354865  37.4330837  33.0268319 112.5590897  36.9634688  33.8559464
 117.8778378  37.0853534  35.4767349 117.2558388  36.4224239  35.1769577
 118.5483245  37.1114666  34.7940996 111.1105450  35.6513392  34.3658609
 110.2737358  35.2235566  34.1842610 111.0829096  35.8445835  35.3029400
 117.9502906  25.5635322  45.0699855 117.9991061  26.4397444  44.6877624
 118.4925420  25.0212715  44.4971498 117.4391885  35.6357457  28.9525809
 117.5880006  36.3192921  28.2992482 118.2458329  35.6162547  29.4675265
 120.1802194  26.3166694  41.8246213 119.3105504  26.6100260  41.5528802
 120.4161675  26.9007139  42.5453477 115.1944518  31.6622635  29.9586878
 114.9490560  30.7584965  30.1567088 115.3640433  31.6639785  29.0166356
 114.4640166  27.3950992  27.4573040 113.7709411  27.4695347  26.8013076
 114.2191918  26.6311336  27.9794557 120.9387291  38.1305587  26.4237557
 120.3661258  38.7495775  25.9708029 121.5120084  38.6804949  26.9577479
 121.2072782  33.5184146  45.2254266 122.1275791  33.6962745  45.4194313
 121.1722365  32.5740192  45.0733965 110.4254947  28.7122740  34.1507541
 110.1057731  27.8588048  33.8581915 109.8788375  28.9271318  34.9065508
 114.2034854  31.4285181  37.8677047 114.4220864  32.3602289  37.8865081
 114.6160628  31.0693155  38.6531851 119.0762720  27.0018387  47.2579796
 118.9759447  27.9512744  47.1891887 118.8584262  26.6736626  46.3855866
 110.2943207  32.3325651  36.1200662 109.6006678  31.9179604  35.6070617
 111.0416198  32.3746188  35.5234081 118.9393990  30.4315526  46.0744858
 118.4561071  31.2315886  46.2808747 119.0254929  30.4423470  45.1212302
 112.2079949  32.2643905  33.9966677 112.1850637  32.3631593  33.0448560
 112.5180586  33.1109056  34.3183843 114.8667327  34.3220060  38.1113292
 115.8210581  34.2904003  38.0443223 114.6679851  33.8610684  38.9263518
 115.4566709  32.8921176  40.6784089 116.2759598  33.3865255  40.7018927
 115.7303517  31.9753144  40.6501657 113.2217556  39.8639680  35.1283490
 113.0872024  39.1040081  34.5621488 112.8049618  40.5880580  34.6612278
 116.3786682  40.7608997  35.3401932 116.2619066  41.7054429  35.2380622
 115.5579128  40.4582558  35.7287731 110.7101624  27.2259310  41.3776286
 111.3560487  26.7158264  41.8663512 110.5018775  27.9627992  41.9519712
 117.4041196  41.4137259  38.5557861 118.3068443  41.4460869  38.8724356
 117.1778566  40.4837710  38.5704196 119.1594798  40.1668245  35.2167939
 118.2090429  40.1670107  35.1032312 119.4627284  39.4200980  34.7003974
 115.0499115  24.3726927  45.4751301 115.9130576  24.0163732  45.6854625
 114.4764525  24.0340822  46.1626705 121.9082548  43.3989165  37.4636936
 122.1590586  44.2836174  37.7294512 122.4442096  43.2193766  36.6912028
 119.1217592  46.5721067  33.9932891 119.8088632  46.2582797  33.4053907
 118.9665721  47.4762432  33.7200143 118.6985568  44.6521660  36.2650359
 118.7369668  44.1185251  37.0587477 118.1925861  44.1256866  35.6461336
 121.9499205  50.9805310  34.3658609 121.1131113  50.5527484  34.1842610
 121.9222850  51.1737753  35.3029400 121.2648701  44.0414658  34.1507541
 120.9451486  43.1879966  33.8581915 120.7182129  44.2563236  34.9065508
 121.1336961  47.6617569  36.1200662 120.4400433  47.2471522  35.6070617
 121.8809952  47.7038106  35.5234081 121.5495378  42.5551228  41.3776286
 122.1954242  42.0450182  41.8663512 121.3412529  43.2919910  41.9519712
   3.6484375  55.7750275 105.8950797   2.9746073  56.0781972 106.5035755
   4.0350197  56.5779356 105.5456254   5.7391845  47.5658488 104.4298237
   5.1221015  46.8405316 104.3331290   5.2708333  48.3267849 104.0865311
   7.6141115  53.3535759 107.1690620   8.3092020  53.9742451 107.3877935
   7.9564265  52.5031110 107.4442998   1.7055984  53.4597510 106.0765714
   1.1329951  54.0787698 105.6236186   2.2788777  54.0096872 106.6105636
   4.9253244  53.7434661 107.2074296   5.8583917  53.6780222 107.4107172
   4.8376456  54.5790927 106.7488829   7.5541260  53.0600531 104.1678244
   7.4754892  52.7260395 105.0614001   8.3750927  53.5522299 104.1669716
   5.1245212  50.3768526 103.7888222   5.8281062  50.5818529 104.4045878
   4.4007861  50.9445288 104.0537305   7.0331909  50.8151056 105.8386682
   7.8677513  50.3832254 105.6564157   6.8716252  50.6433069 106.7663576
  15.6616185  61.3320707 115.9341859  16.2994594  61.2127454 115.2305199
  15.5437027  62.2801551 115.9929811  12.4705891  61.2848135 115.8703383
  12.1324402  61.1689199 114.9823918  13.3395659  60.8839300 115.8504390
   8.3292706  63.1383611 111.8600274   7.7657572  63.0473548 111.0916562
   8.2145102  62.3183516 112.3402767  13.9092265  66.8054579 107.1714739
  13.2580245  67.3908659 106.7848753  14.7036628  67.3360774 107.2309777
   7.8347892  63.8943716 107.5701874   8.6078768  63.3472703 107.4314749
   8.1873291  64.7587965 107.7816335  10.1714170  60.0536382 105.2020324
  10.4239691  59.5317903 104.4403787   9.2338729  59.8902528 105.3047007
  15.2157453  59.0572160 113.0095067  16.0020542  58.6391584 112.6585484
  15.4796157  59.9618253 113.1776715  15.3867530  64.4945011 107.7083724
  14.7513363  64.5679637 108.4204628  15.0564937  65.0838610 107.0302803
  20.6165880  58.9947394 113.9128045  21.3491052  58.4246610 114.1465875
  19.8605236  58.6068994 114.3534551   9.8910459  61.9564488 107.4044698
   9.7746717  61.2809391 108.0725783  10.0012719  61.4696862 106.5876852
  12.2342000  61.4174635 111.1091388  11.8700207  60.8905256 111.8204309
  13.0909116  61.0273104 110.9357873  11.8747487  56.4464535 106.1052736
  12.0421889  57.3144771 106.4723207  11.6844656  56.6091817 105.1814025
  14.6322820  64.9081514 117.7718567  14.3323543  65.8106553 117.6634374
  14.2873880  64.6413697 118.6239719  18.0319964  57.4264054 115.4516004
  17.1236841  57.3579462 115.1574765  17.9807560  57.9035999 116.2797829
  11.8536708  58.9022192 107.0899403  11.7336333  59.3479243 107.9284883
  11.1589296  59.2507510 106.5312941   9.6143600  71.6725834 110.7389534
   9.5367630  72.6233659 110.8178015   9.0105243  71.3271707 111.3964461
  17.5521774  59.3743666 107.9179737  18.4639630  59.6071052 107.7427435
  17.0431421  59.9580710 107.3554816  16.1591356  64.3569484 115.3093319
  15.5300219  64.5215198 114.6069386  15.7717018  64.7711094 116.0804283
  20.0380588  65.2923922 112.6637682  19.3531626  65.6722823 112.1134716
  20.1224437  65.9019249 113.3969630  11.7119318  64.0943892 112.5743404
  12.1757664  64.3731595 111.7848026  11.4476116  63.1927337 112.3916494
  10.6488204  60.2167044 109.3832969  11.3512247  60.6688088 109.8506895
  10.3168833  59.5750863 110.0112862  18.4077348  65.8155836 117.4355383
  19.2294791  65.4136024 117.1538065  18.4039750  65.7124070 118.3871499
  26.4983341  62.1594585 113.7840355  25.7447049  61.5901983 113.6284359
  26.6330882  62.1257249 114.7310989  11.8881969  67.0307987 109.4595074
  11.7527644  67.8759523 109.8879922  12.4291781  67.2327265 108.6961008
   5.3411366  64.5483425 110.0322999   5.8535887  65.3426675 110.1828564
   5.9934079  63.8509716 109.9656601   7.1506251  67.6649181 112.1145752
   7.3272879  68.5867146 111.9266736   7.9463084  67.3507601 112.5440132
   3.3060283  62.8772079 110.8082570   4.1435505  63.2869088 110.5916277
   3.4838551  61.9371522 110.7782764  15.2024715  60.5447160 106.4966403
  14.6871338  61.3151765 106.7354790  14.9302023  59.8712296 107.1199464
  12.7871826  55.3896861 111.5551641  11.9313422  55.0003711 111.3757280
  13.1998778  55.4688822 110.6951426  20.1758989  63.2979515 108.4319576
  19.3988432  62.9590674 107.9874738  20.8550470  63.3032138 107.7574541
  14.9911018  58.4174252 108.3226184  14.6861154  58.7320401 109.1736327
  15.9441460  58.4955672 108.3653517  13.4357450  64.5764475 109.9719138
  12.9078812  63.8417235 109.6592375  12.9344953  65.3539152 109.7259106
  18.4150296  62.7713496 115.0886184  17.7573970  63.4612757 115.1766313
  19.2190695  63.1609928 115.4320170  17.2255755  61.1257869 113.1390126
  17.7387637  61.7587860 113.6411836  17.8756979  60.5259064 112.7733486
   8.4945765  57.2688603 106.3521635   7.6583077  57.6063289 106.6730909
   8.3550534  57.1337583 105.4148772  11.5810050  62.3944686 102.9754111
  10.6737112  62.1633939 103.1745260  12.0781082  61.5982305 103.1628092
  14.4878129  71.1042193 105.8950797  13.8139828  71.4073890 106.5035755
  14.8743951  71.9071273 105.5456254  14.4871633  59.9998740 110.5151147
  15.2343452  60.5120137 110.2058269  14.7563223  59.6782793 111.3755540
  12.7598284  62.4957281 107.4978101  11.8509503  62.2116313 107.5950571
  12.7893367  62.9156359 106.6381408  17.9917551  66.1063870 111.2669268
  17.5379878  65.2654780 111.3234459  17.3611518  66.7425268 111.6044049
  16.9350471  57.0355856 112.4969936  16.1973227  56.5233242 112.8280178
  17.1877244  56.5956238 111.6853213  16.4350490  67.9440367 112.2019087
  16.7273465  68.5045424 111.4831452  16.9449111  68.2368928 112.9572246
  11.3083178  60.1085901 113.5987896  11.3631787  59.1559738 113.5230373
  10.4974380  60.2645340 114.0829195  12.4574371  64.0366024 104.8366179
  12.0193801  63.3201883 104.3771817  13.1984812  64.2642139 104.2751271
   9.2475538  58.7262961 111.3578275   8.4343403  59.0257132 111.7643467
   9.7434532  58.3318650 112.0752757  11.3984116  68.7220718 113.2912540
  11.3560294  68.9481564 112.3621072  12.3146814  68.4884092 113.4398341
  20.5747486  62.3123221 110.8942498  20.4365385  62.5024817 109.9663687
  20.2183705  63.0742604 111.3510549  20.6016866  64.3799748 115.9053770
  21.0353373  64.2875037 116.7536824  21.3148447  64.3557249 115.2673786
   9.5149916  65.5983747 113.0874503  10.3090515  65.1034067 112.8857077
   8.8041609  65.0701610 112.7242208  14.3344761  67.9801842 117.4386870
  14.3881783  68.5492779 118.2064586  13.4659542  68.1503727 117.0740907
   5.8232680  59.7426829 109.1634255   4.8930268  59.6811284 109.3804217
   5.9190152  59.2202781 108.3670896  21.4632415  64.4223449 118.4386655
  21.6568305  65.3269259 118.6845930  21.3633034  63.9630868 119.2725240
  12.0921192  66.1712769 116.7672340  11.9532278  65.8031553 117.6398278
  11.3035789  66.6860408 116.5956297  12.6869344  71.2721865 108.1097876
  12.8621100  70.8009909 108.9243499  12.0002132  71.8987632 108.3379137
  13.6426407  65.5494372 114.1561177  13.3076240  65.5095142 115.0518827
  13.1430353  64.8839088 113.6831588  16.5785599  62.8950406 104.4298237
  15.9614770  62.1697234 104.3331290  16.1102088  63.6559766 104.0865311
   8.3684145  57.1135830 103.5519541   7.4913611  56.9924631 103.1881788
   8.8441898  56.3221909 103.2998430  11.5548071  69.4662121 110.7982062
  10.7715593  70.0083801 110.8920286  12.2540816  69.9836100 111.1976303
  14.8644721  55.2756750 113.4416267  15.3613421  54.5226712 113.1217337
  14.0931703  55.3121067 112.8759477  22.7174479  60.9797116 115.0834559
  22.7064355  61.8621831 114.7128492  21.8491858  60.6268666 114.8889096
  15.9474502  64.0328437 111.0154691  15.0130781  64.1529900 110.8459395
  16.1251170  63.1300904 110.7514700  19.3347053  59.8745757 111.5504725
  19.8007505  60.7073748 111.4765027  19.7854554  59.4090738 112.2549983
  17.4023284  66.2189578 108.5490877  17.6783128  66.1046172 109.4584751
  16.5327783  65.8207063 108.5103050  14.0377348  70.4675929 112.1923690
  14.2199743  69.6497585 112.6551443  14.8610334  70.6843621 111.7548580
  14.3719514  69.3944114 109.4538739  14.9007280  68.8836568 108.8408901
  14.6347733  69.0786644 110.3184272   3.0962839  58.7077685 108.9932447
   3.3916280  57.7988364 108.9399501   2.1950875  58.6865425 108.6713449
  15.0048918  70.4284950 115.7982855  14.8800057  69.6274689 115.2893801
  15.6628009  70.9231143 115.3096825  17.0683826  68.2293970 117.4262405
  16.1214162  68.1099321 117.3540732  17.4166599  67.3416468 117.5088667
   4.8250680  56.3891783 109.1171772   4.4963387  55.5089162 108.9346878
   5.1790051  56.3339452 110.0048161  14.0730259  68.0246686 113.6266758
  13.9255222  67.0963393 113.8074328  14.8983753  68.0466777 113.1423833
   7.9392504  56.6764753 109.4847250   8.2788576  57.2050674 108.7625858
   8.3864624  57.0145159 110.2605816  17.6764381  68.8475245 114.7131630
  18.6010929  68.6418106 114.5756082  17.5079685  68.5991646 115.6220972
   9.9260651  55.1739375 107.6840543  10.6469013  55.5520627 107.1804259
   9.3025955  55.8928251 107.7875521  14.0691774  55.8784523 108.6198875
  14.2855388  56.7609161 108.3187703  13.5885841  55.4870737 107.8904517
  17.4659697  69.3660912 110.0693722  17.6396575  68.8007335 109.3167574
  17.9588589  70.1661807 109.8873212  10.0724274  54.7087165 110.5138079
  10.1940185  53.7803811 110.7128967   9.7826316  54.7225851 109.6016395
  23.3199089  62.1297335 111.6884022  23.7630235  61.3804660 111.2903145
  22.4425599  62.1207471 111.3057754  18.4534870  68.6827676 107.1690620
  19.1485774  69.3034369 107.3877935  18.7958020  67.8323028 107.4442998
  20.3526293  66.1327382 108.6977951  20.8777617  66.4714655 107.9727271
  20.2648646  65.1974397 108.5141086  12.0366954  72.1999365 113.0573204
  11.5971944  71.7075744 113.7506061  12.7875071  71.6572333 112.8165279
   9.0454333  66.2941298 108.6053966   9.1942453  66.9776762 107.9520639
   9.8520776  66.2746388 109.1203422  21.6636271  66.0349693 121.5603899
  21.3721079  66.3979674 122.3967360  21.0508402  65.3216702 121.3817231
  22.8631953  63.6002573 114.0806469  23.6978845  64.0392377 114.2444030
  22.9991082  63.1241226 113.2614715   6.8006966  62.3206475 109.6115035
   6.5553008  61.4168805 109.8095245   6.9702880  62.3223626 108.6694513
   6.0702613  58.0534833 107.1101197   5.3771858  58.1279188 106.4541233
   5.8254365  57.2895177 107.6322714  12.5449738  68.7889428 106.0765714
  11.9723705  69.4079615 105.6236186  13.1182532  69.3388790 106.6105636
  15.7646998  69.0726578 107.2074296  16.6977671  69.0072140 107.4107172
  15.6770211  69.9082845 106.7488829  18.3935015  68.3892449 104.1678244
  18.3148646  68.0552312 105.0614001  19.2144682  68.8814216 104.1669716
  21.0913206  61.2554188 117.3754562  21.0589526  60.3170189 117.5614246
  21.7013830  61.3338225 116.6420387  12.9296537  60.1250241 103.4181766
  13.8755642  59.9956449 103.4870184  12.5510782  59.3864903 103.8951194
  26.9089756  62.3170195 116.5160599  27.6393144  62.0555483 117.0768302
  26.2996701  61.5798917 116.5562667  24.9905053  60.4578057 117.1135050
  24.2638216  60.3234022 116.5051542  24.5752340  60.7654886 117.9191768
  11.1139454  58.0500217 103.3536651  10.2070909  57.7533330 103.4299365
  11.3915435  57.7530035 102.4870938  12.7301520  52.5937107 109.5080893
  11.9202248  52.2484192 109.8836139  13.4185937  52.2844651 110.0968504
   9.8838239  54.9087152 103.4948631  10.7457403  55.2342051 103.7544448
  10.0688583  54.1218648 102.9821696  18.0370875  53.7815679 110.6383854
  17.4569544  54.4400483 110.2561906  17.7706808  52.9593024 110.2271271
  16.8195753  55.9415769 109.6940202  15.9321608  56.2265420 109.4760397
  17.2349742  55.7809533 108.8467479  20.1710289  55.9662290 113.4094541
  20.9470679  56.4558743 113.6819158  19.4458423  56.3920344 113.8666411
  22.6082848  56.6789910 114.4668482  23.2027339  56.4385645 113.7561790
  22.6809432  55.9597040 115.0942018  15.9638967  65.7060444 103.7888222
  16.6674817  65.9110446 104.4045878  15.2401615  66.2737206 104.0537305
  16.7936777  61.4570305 109.9090492  16.7371978  61.9138857 109.0698124
  17.3465119  60.6960990 109.7313335  20.6041583  57.2460037 110.7340612
  20.3478517  56.8456673 111.5648819  19.9794451  57.9603831 110.6090751
  24.9153921  59.9856110 113.2411903  24.3553479  60.0549300 114.0143465
  24.3097424  59.8097095 112.5211399  17.8725664  66.1442973 105.8386682
  18.7071268  65.7124172 105.6564157  17.7110007  65.9724987 106.7663576
  17.5271556  62.6475086 107.2043021  17.4720360  62.4819358 106.2631465
  16.9017611  63.3551119 107.3605211  10.8367682  52.1483196 106.7828340
  10.8246351  53.0925035 106.9396611  11.7291103  51.9653341 106.4887801
  26.5009939  76.6612624 115.9341859  27.1388349  76.5419372 115.2305199
  26.3830782  77.6093468 115.9929811  23.3099645  76.6140052 115.8703383
  22.9718157  76.4981117 114.9823918  24.1789413  76.2131217 115.8504390
  19.1686461  78.4675529 111.8600274  18.6051326  78.3765466 111.0916562
  19.0538856  77.6475433 112.3402767  24.7486020  82.1346497 107.1714739
  24.0973999  82.7200577 106.7848753  25.5430383  82.6652691 107.2309777
  18.6741647  79.2235634 107.5701874  19.4472523  78.6764621 107.4314749
  19.0267046  80.0879883 107.7816335  21.4382896  77.9288864 117.3670133
  22.0346469  77.7044887 116.6527095  21.4957868  77.1873610 117.9695580
  21.0107925  75.3828300 105.2020324  21.2633445  74.8609821 104.4403787
  20.0732484  75.2194445 105.3047007  26.0551207  74.3864078 113.0095067
  26.8414297  73.9683501 112.6585484  26.3189912  75.2910170 113.1776715
  26.2261285  79.8236928 107.7083724  25.5907118  79.8971555 108.4204628
  25.8958691  80.4130527 107.0302803  31.4559635  74.3239311 113.9128045
  32.1884807  73.7538528 114.1465875  30.6998990  73.9360912 114.3534551
  20.7304213  77.2856406 107.4044698  20.6140472  76.6101309 108.0725783
  20.8406473  76.7988780 106.5876852  23.0735754  76.7466553 111.1091388
  22.7093962  76.2197174 111.8204309  23.9302870  76.3565022 110.9357873
  28.9785055  68.0360885 118.3722654  28.6468380  68.9056296 118.1483869
  28.3830668  67.7197169 119.0516684  22.7141241  71.7756453 106.1052736
  22.8815644  72.6436689 106.4723207  22.5238410  71.9383734 105.1814025
  25.4716575  80.2373431 117.7718567  25.1717298  81.1398470 117.6634374
  25.1267634  79.9705615 118.6239719  18.9229056  76.6887228 113.8055271
  17.9979552  76.5563442 114.0132963  19.1713469  77.4681448 114.3025213
  28.8713718  72.7555972 115.4516004  27.9630596  72.6871380 115.1574765
  28.8201314  73.2327917 116.2797829  22.6930462  74.2314110 107.0899403
  22.5730087  74.6771161 107.9284883  21.9983051  74.5799428 106.5312941
  20.4537354  87.0017752 110.7389534  20.3761384  87.9525577 110.8178015
  19.8498998  86.6563624 111.3964461  30.7375365  70.9572410 117.2293878
  30.0949745  71.2504943 116.5833672  30.2330293  70.8425330 118.0347074
  28.3915528  74.7035583 107.9179737  29.3033384  74.9362970 107.7427435
  27.8825175  75.2872627 107.3554816  26.6756296  79.1260211 121.5541030
  27.0839652  78.6842622 120.8095662  25.9533558  78.5512839 121.8075223
  23.0287366  74.0632818 118.9274587  23.8748561  74.4872231 119.0709236
  22.9686004  73.4066442 119.6213150  26.9985111  79.6861402 115.3093319
  26.3693973  79.8507116 114.6069386  26.6110773  80.1003011 116.0804283
  30.8774343  80.6215840 112.6637682  30.1925381  81.0014741 112.1134716
  30.9618192  81.2311166 113.3969630  26.1786811  71.7237186 120.5855760
  25.9347743  72.4779247 120.0490036  26.4546742  72.1022534 121.4203007
  28.1325274  78.2675799 119.2633026  28.3442169  78.9107558 118.5867407
  28.0855022  77.4338115 118.7954956  25.7351503  70.8793619 116.1669598
  24.8735982  71.1774873 116.4586336  25.7613938  71.0964018 115.2350631
  22.5513073  79.4235810 112.5743404  23.0151418  79.7023513 111.7848026
  22.2869871  78.5219254 112.3916494  19.4437154  78.9707291 115.5123167
  20.0138511  79.3994560 114.8740651  20.0345265  78.6889876 116.2107353
  21.4881959  75.5458962 109.3832969  22.1906002  75.9980006 109.8506895
  21.1562587  74.9042781 110.0112862  15.2307293  73.8042515 114.6850102
  14.4406347  74.0600043 114.2090213  15.7218540  74.6190853 114.7902143
  29.2471102  81.1447754 117.4355383  30.0688546  80.7427941 117.1538065
  29.2433505  81.0415988 118.3871499  17.1822038  74.1687094 111.6433579
  16.3853201  74.2805788 112.1617075  16.9547630  74.5073746 110.7774470
  37.3377095  77.4886502 113.7840355  36.5840804  76.9193901 113.6284359
  37.4724636  77.4549167 114.7310989  22.7275723  82.3599905 109.4595074
  22.5921398  83.2051440 109.8879922  23.2685536  82.5619182 108.6961008
  16.1805121  79.8775343 110.0322999  16.6929641  80.6718593 110.1828564
  16.8327833  79.1801633 109.9656601  17.9900005  82.9941099 112.1145752
  18.1666634  83.9159064 111.9266736  18.7856839  82.6799518 112.5440132
  22.1311024  69.8549364 123.7129686  22.8720737  70.4556517 123.6334148
  22.3628947  69.1127001 123.1547728  26.0768187  65.8830467 117.9893967
  25.7332456  66.7732108 117.9133078  26.4447149  65.6932124 117.1263552
  14.1454037  78.2063997 110.8082570  14.9829259  78.6161005 110.5916277
  14.3232305  77.2663439 110.7782764  26.0418470  75.8739078 106.4966403
  25.5265093  76.6443682 106.7354790  25.7695778  75.2004214 107.1199464
  23.6265581  70.7188779 111.5551641  22.7707177  70.3295629 111.3757280
  24.0392532  70.7980739 110.6951426  25.1564727  68.2535122 115.9543201
  24.6529523  68.2165257 115.1411006  25.4495334  69.1627865 116.0139857
  21.4007613  68.3373852 114.9609382  22.2660610  68.1416660 114.6015272
  21.4685122  68.1084203 115.8878739  31.0152744  78.6271432 108.4319576
  30.2382186  78.2882592 107.9874738  31.6944225  78.6324056 107.7574541
  25.8304773  73.7466170 108.3226184  25.5254908  74.0612319 109.1736327
  26.7835215  73.8247590 108.3653517  24.2751205  79.9056393 109.9719138
  23.7472566  79.1709153 109.6592375  23.7738707  80.6831070 109.7259106
  29.2544051  78.1005414 115.0886184  28.5967725  78.7904675 115.1766313
  30.0584450  78.4901846 115.4320170  19.0069932  70.5676059 112.3325749
  19.5813684  70.3451241 111.5998942  19.5940915  70.6364754 113.0854351
  28.0649509  76.4549786 113.1390126  28.5781391  77.0879778 113.6411836
  28.7150733  75.8550982 112.7733486  19.3339519  72.5980520 106.3521635
  18.4976832  72.9355207 106.6730909  19.1944289  72.4629500 105.4148772
  21.3092600  67.4417308 111.0600819  20.6557012  67.1266326 110.4357433
  21.2673074  66.8193049 111.7860642  22.4203805  77.7236603 102.9754111
  21.5130866  77.4925857 103.1745260  22.9174837  76.9274223 103.1628092
  25.3271884  86.4334111 105.8950797  24.6533582  86.7365807 106.5035755
  25.7137706  87.2363191 105.5456254  24.5430340  73.9299242 115.3848466
  23.6252902  74.1514189 115.2270154  24.9590484  74.0045552 114.5260174
  25.3265388  75.3290658 110.5151147  26.0737207  75.8412055 110.2058269
  25.5956978  75.0074710 111.3755540  23.5992038  77.8249198 107.4978101
  22.6903257  77.5408231 107.5950571  23.6287122  78.2448277 106.6381408
  28.8311306  81.4355788 111.2669268  28.3773633  80.5946698 111.3234459
  28.2005272  82.0717186 111.6044049  27.7744225  72.3647774 112.4969936
  27.0366982  71.8525160 112.8280178  28.0270999  71.9248155 111.6853213
  27.2744245  83.2732284 112.2019087  27.5667219  83.8337342 111.4831452
  27.7842865  83.5660845 112.9572246  27.8755852  65.1424026 113.0911705
  28.1814729  64.2821389 112.8037620  28.6008457  65.7341646 112.8910699
  14.1680209  75.5454712 111.4793303  13.9704608  74.9524073 110.7544370
  13.6126873  75.2406923 112.1969242  22.1476932  75.4377819 113.5987896
  22.2025542  74.4851655 113.5230373  21.3368134  75.5937258 114.0829195
  23.2968126  79.3657942 104.8366179  22.8587556  78.6493801 104.3771817
  24.0378567  79.5934057 104.2751271  20.0869292  74.0554879 111.3578275
  19.2737158  74.3549049 111.7643467  20.5828286  73.6610567 112.0752757
  22.2377870  84.0512636 113.2912540  22.1954049  84.2773482 112.3621072
  23.1540569  83.8176010 113.4398341  25.6843504  74.5196703 120.1893169
  26.0392892  74.7468176 121.0487635  26.3315635  74.8515080 119.5670424
  31.4141241  77.6415139 110.8942498  31.2759139  77.8316735 109.9663687
  31.0577460  78.4034522 111.3510549  19.5783367  71.6273234 116.9739510
  20.2182746  71.4861993 116.2762473  18.7460897  71.3407748 116.5978112
  31.4410620  79.7091666 115.9053770  31.8747127  79.6166955 116.7536824
  32.1542201  79.6849166 115.2673786  20.3543671  80.9275665 113.0874503
  21.1484269  80.4325985 112.8857077  19.6435363  80.3993528 112.7242208
  25.1738515  83.3093760 117.4386870  25.2275538  83.8784696 118.2064586
  24.3053297  83.4795645 117.0740907  16.6626434  75.0718746 109.1634255
  15.7324022  75.0103202 109.3804217  16.7583906  74.5494699 108.3670896
  16.5811983  71.5973559 111.7512497  16.8418801  72.5118892 111.6421657
  17.4029156  71.1298002 111.9009110  32.3026170  79.7515367 118.4386655
  32.4962060  80.6561177 118.6845930  32.2026788  79.2922786 119.2725240
  23.9562481  69.6373257 120.9376982  23.3090396  70.3363207 120.8441459
  24.7263496  70.0709401 121.3053230  24.1326615  77.4754022 118.9973802
  25.0618675  77.6265182 118.8242769  23.7117645  77.5638043 118.1422448
  22.9314947  81.5004687 116.7672340  22.7926032  81.1323471 117.6398278
  22.1429543  82.0152326 116.5956297  23.5263099  86.6013783 108.1097876
  23.7014854  86.1301826 108.9243499  22.8395887  87.2279549 108.3379137
  24.4820162  80.8786289 114.1561177  24.1469995  80.8387059 115.0518827
  23.9824108  80.2131005 113.6831588  27.4179354  78.2242324 104.4298237
  26.8008524  77.4989152 104.3331290  26.9495842  78.9851684 104.0865311
  29.0733485  82.9341232 122.0904017  29.0146031  82.2500452 121.4234600
  29.4753004  83.6760222 121.6384643  19.2077899  72.4427748 103.5519541
  18.3307366  72.3216549 103.1881788  19.6835653  71.6513826 103.2998430
  29.0750893  80.8980816 120.3217997  28.1877671  80.5606738 120.4444396
  29.6449444  80.1663847 120.5586762  22.3941826  84.7954038 110.7982062
  21.6109347  85.3375718 110.8920286  23.0934571  85.3128018 111.1976303
  25.7038476  70.6048668 113.4416267  26.2007175  69.8518630 113.1217337
  24.9325457  70.6412984 112.8759477  33.5568233  76.3089033 115.0834559
  33.5458109  77.1913749 114.7128492  32.6885612  75.9560584 114.8889096
  26.7868256  79.3620355 111.0154691  25.8524535  79.4821817 110.8459395
  26.9644925  78.4592822 110.7514700  22.2873444  72.7466051 113.1687952
  21.9171232  72.1937091 113.8568857  22.7832537  72.1424184 112.6162952
  30.1740808  75.2037674 111.5504725  30.6401260  76.0365666 111.4765027
  30.6248308  74.7382656 112.2549983  28.2417039  81.5481496 108.5490877
  28.5176883  81.4338090 109.4584751  27.3721538  81.1498980 108.5103050
  28.1457470  67.5718261 115.5895626  27.2320550  67.8022488 115.7577833
  28.5750572  67.6556705 116.4409658  27.9163929  75.7608153 118.0895520
  27.2635379  76.0084061 117.4347973  28.2944309  74.9472291 117.7557997
  24.8771103  85.7967846 112.1923690  25.0593497  84.9789502 112.6551443
  25.7004089  86.0135539 111.7548580  25.2113268  84.7236031 109.4538739
  25.7401035  84.2128486 108.8408901  25.4741488  84.4078562 110.3184272
  17.6838778  70.1570041 119.4141058  17.7480105  71.0184872 119.0018456
  17.6205898  69.5444043 118.6813416  13.9356593  74.0369603 108.9932447
  14.2310034  73.1280282 108.9399501  13.0344629  74.0157343 108.6713449
  25.8442672  85.7576867 115.7982855  25.7193812  84.9566607 115.2893801
  26.5021763  86.2523061 115.3096825  17.4650840  72.1125600 114.9759996
  16.7437426  72.7261567 114.8367469  18.2544096  72.6483365 114.8976642
  27.9077580  83.5585887 117.4262405  26.9607916  83.4391238 117.3540732
  28.2560354  82.6708385 117.5088667  20.2677154  69.4480026 121.2500647
  20.7911556  69.6942323 122.0126957  20.0489487  70.2800061 120.8303785
  15.6644435  71.7183701 109.1171772  15.3357141  70.8381080 108.9346878
  16.0183806  71.6631369 110.0048161  24.9124014  83.3538604 113.6266758
  24.7648976  82.4255311 113.8074328  25.7377507  83.3758694 113.1423833
  18.7786258  72.0056671 109.4847250  19.1182331  72.5342592 108.7625858
  19.2258379  72.3437077 110.2605816  28.5158136  84.1767162 114.7131630
  29.4404683  83.9710024 114.5756082  28.3473439  83.9283563 115.6220972
  21.4729699  70.3893721 118.9350318  21.1326519  69.5901534 119.3370998
  20.7668705  70.6895432 118.3627151  22.1246171  67.4743034 117.3877641
  22.9472240  67.0003512 117.2656531  22.3684234  68.2533518 117.8876327
  20.7654405  70.5031292 107.6840543  21.4862768  70.8812545 107.1804259
  20.1419709  71.2220169 107.7875521  24.9085528  71.2076441 108.6198875
  25.1249142  72.0901079 108.3187703  24.4279595  70.8162655 107.8904517
  19.6484749  74.1662154 115.1969619  19.5029330  74.4802457 116.0893901
  19.1709953  74.7847055 114.6440518  21.5081132  71.1564702 115.2450509
  21.4942701  70.2605796 114.9082807  22.2253560  71.1635366 115.8788795
  23.3607263  71.5902043 117.2903636  23.1025041  72.5119113 117.2887967
  22.8292303  71.1932477 117.9804101  28.3053452  84.6952830 110.0693722
  28.4790329  84.1299252 109.3167574  28.7982343  85.4953725 109.8873212
  20.9118028  70.0379083 110.5138079  21.0333939  69.1095729 110.7128967
  20.6220071  70.0517769 109.6016395  23.7809219  67.7233993 113.6504799
  23.8030915  67.7873326 112.6956779  24.1977278  66.8838502 113.8445305
  34.1592843  77.4589253 111.6884022  34.6023989  76.7096578 111.2903145
  33.2819353  77.4499389 111.3057754  29.2928624  84.0119594 107.1690620
  29.9879529  84.6326287 107.3877935  29.6351774  83.1614945 107.4442998
  31.1920047  81.4619300 108.6977951  31.7171372  81.8006572 107.9727271
  31.1042400  80.5266315 108.5141086  22.8760708  87.5291283 113.0573204
  22.4365698  87.0367662 113.7506061  23.6268825  86.9864251 112.8165279
  31.0011829  78.9444670 121.3161877  31.0509833  78.7794677 122.2577400
  30.8925752  78.0771929 120.9259758  19.8848087  81.6233215 108.6053966
  20.0336208  82.3068680 107.9520639  20.6914531  81.6038305 109.1203422
  28.2915591  74.9275598 122.6321184  29.1925454  74.7882063 122.3405182
  28.3663565  75.0930053 123.5719362  22.6258396  72.3042452 121.4774370
  21.7561706  72.5976018 121.2056959  22.8617877  72.8882897 122.1981634
  32.5030025  81.3641611 121.5603899  32.2114834  81.7271592 122.3967360
  31.8902157  80.6508619 121.3817231  33.7025708  78.9294491 114.0806469
  34.5372599  79.3684295 114.2444030  33.8384836  78.4533144 113.2614715
  30.7517214  76.4874226 120.0283957  31.2271335  76.6801872 119.2202808
  29.8282779  76.5433412 119.7827341  17.6400720  77.6498393 109.6115035
  17.3946762  76.7460723 109.8095245  17.8096635  77.6515543 108.6694513
  25.3297430  68.5222069 118.9939791  25.8479374  69.2583096 118.6686279
  24.9752563  68.8286063 119.8286550  16.9096368  73.3826751 107.1101197
  16.2165613  73.4571106 106.4541233  16.6648120  72.6187094 107.6322714
  25.5810024  64.9422352 114.5140687  25.8611778  64.2745541 115.1401114
  26.3660631  65.1351448 114.0015351  23.3843493  84.1181346 106.0765714
  22.8117460  84.7371533 105.6236186  23.9576286  84.6680707 106.6105636
  29.4518883  73.3639986 118.2612263  30.4036306  73.4638084 118.2824487
  29.2822333  72.5718254 118.7710347  27.4733262  70.4495569 118.4471663
  26.8783194  70.7300582 117.7518152  27.1882959  70.9389470 119.2188405
  26.6040753  84.4018496 107.2074296  27.5371426  84.3364058 107.4107172
  26.5163965  85.2374763 106.7488829  29.2328769  83.7184366 104.1678244
  29.1542401  83.3844230 105.0614001  30.0538436  84.2106134 104.1669716
  31.9306960  76.5846106 117.3754562  31.8983281  75.6462106 117.5614246
  32.5407584  76.6630142 116.6420387  23.7690291  75.4542159 103.4181766
  24.7149396  75.3248367 103.4870184  23.3904536  74.7156820 103.8951194
  32.0801449  73.3757149 117.4212845  31.5640498  72.5915606 117.2342774
  32.9641397  73.0475866 117.5859365  29.7412176  67.1198165 113.3808658
  29.5436997  66.8113253 114.2651990  30.3511881  67.8459803 113.5106588
  37.7483510  77.6462112 116.5160599  38.4786899  77.3847401 117.0768302
  37.1390456  76.9090834 116.5562667  35.8298807  75.7869975 117.1135050
  35.1031971  75.6525940 116.5051542  35.4146094  76.0946804 117.9191768
  21.9533208  73.3792135 103.3536651  21.0464664  73.0825248 103.4299365
  22.2309189  73.0821953 102.4870938  23.5695274  67.9229025 109.5080893
  22.7596002  67.5776110 109.8836139  24.2579691  67.6136568 110.0968504
  25.4985822  67.0007071 111.1305189  26.0516861  67.4202525 111.7895212
  25.7355909  66.0742820 111.1728145  20.7231993  70.2379070 103.4948631
  21.5851157  70.5633968 103.7544448  20.9082337  69.4510566 102.9821696
  28.8764630  69.1107597 110.6383854  28.2963299  69.7692401 110.2561906
  28.6100562  68.2884941 110.2271271  27.3268196  68.5112654 112.8405174
  27.8267974  68.6229189 112.0319493  27.9703804  68.2073707 113.4805982
  27.6589508  71.2707687 109.6940202  26.7715363  71.5557338 109.4760397
  28.0743497  71.1101450 108.8467479  31.0104044  71.2954208 113.4094541
  31.7864434  71.7850660 113.6819158  30.2852178  71.7212262 113.8666411
  33.4476602  72.0081827 114.4668482  34.0421093  71.7677563 113.7561790
  33.5203186  71.2888958 115.0942018  26.8032721  81.0352362 103.7888222
  27.5068571  81.2402364 104.4045878  26.0795370  81.6029124 104.0537305
  27.6330531  76.7862223 109.9090492  27.5765733  77.2430774 109.0698124
  28.1858874  76.0252908 109.7313335  31.4435337  72.5751955 110.7340612
  31.1872271  72.1748590 111.5648819  30.8188205  73.2895749 110.6090751
  35.7547675  75.3148028 113.2411903  35.1947233  75.3841217 114.0143465
  35.1491178  75.1389013 112.5211399  28.7119418  81.4734891 105.8386682
  29.5465022  81.0416089 105.6564157  28.5503761  81.3016905 106.7663576
  28.3665311  77.9767004 107.2043021  28.3114114  77.8111276 106.2631465
  27.7411366  78.6843037 107.3605211  21.6761436  67.4775113 106.7828340
  21.6640106  68.4216953 106.9396611  22.5684858  67.2945259 106.4887801
  25.4913556  64.0717890 111.0374276  24.7245951  63.5176377 111.1830959
  25.9024260  64.1439759 111.8988428  37.3403694  91.9904542 115.9341859
  37.9782103  91.8711289 115.2305199  37.2224536  92.9385386 115.9929811
  34.1493400  91.9431970 115.8703383  33.8111911  91.8273035 114.9823918
  35.0183168  91.5423135 115.8504390  30.0080215  93.7967446 111.8600274
  29.4445081  93.7057383 111.0916562  29.8932611  92.9767351 112.3402767
  35.5879774  97.4638414 107.1714739  34.9367754  98.0492495 106.7848753
  36.3824137  97.9944609 107.2309777  29.5135401  94.5527551 107.5701874
  30.2866277  94.0056538 107.4314749  29.8660800  95.4171801 107.7816335
  32.2776651  93.2580782 117.3670133  32.8740223  93.0336805 116.6527095
  32.3351622  92.5165528 117.9695580  31.8501679  90.7120217 105.2020324
  32.1027200  90.1901739 104.4403787  30.9126238  90.5486363 105.3047007
  36.8944962  89.7155996 113.0095067  37.6808051  89.2975419 112.6585484
  37.1583666  90.6202088 113.1776715  37.0655039  95.1528846 107.7083724
  36.4300872  95.2263473 108.4204628  36.7352446  95.7422445 107.0302803
  42.2953389  89.6531229 113.9128045  43.0278561  89.0830446 114.1465875
  41.5392745  89.2652829 114.3534551  31.5697968  92.6148323 107.4044698
  31.4534226  91.9393227 108.0725783  31.6800228  92.1280697 106.5876852
  33.9129509  92.0758471 111.1091388  33.5487716  91.5489091 111.8204309
  34.7696625  91.6856940 110.9357873  39.8178809  83.3652803 118.3722654
  39.4862134  84.2348214 118.1483869  39.2224423  83.0489087 119.0516684
  33.5534996  87.1048370 106.1052736  33.7209398  87.9728607 106.4723207
  33.3632165  87.2675652 105.1814025  36.3110329  95.5665349 117.7718567
  36.0111052  96.4690388 117.6634374  35.9661389  95.2997532 118.6239719
  29.7622810  92.0179146 113.8055271  28.8373307  91.8855360 114.0132963
  30.0107224  92.7973365 114.3025213  39.7107473  88.0847889 115.4516004
  38.8024350  88.0163298 115.1574765  39.6595069  88.5619834 116.2797829
  33.5324217  89.5606028 107.0899403  33.4123842  90.0063078 107.9284883
  32.8376805  89.9091345 106.5312941  31.2931109 102.3309669 110.7389534
  31.2155138 103.2817495 110.8178015  30.6892752 101.9855542 111.3964461
  41.5769119  86.2864328 117.2293878  40.9343499  86.5796861 116.5833672
  41.0724048  86.1717248 118.0347074  39.2309283  90.0327501 107.9179737
  40.1427139  90.2654888 107.7427435  38.7218930  90.6164545 107.3554816
  37.5150051  94.4552129 121.5541030  37.9233407  94.0134539 120.8095662
  36.7927312  93.8804756 121.8075223  33.8681121  89.3924735 118.9274587
  34.7142316  89.8164149 119.0709236  33.8079758  88.7358360 119.6213150
  37.8378865  95.0153319 115.3093319  37.2087728  95.1799033 114.6069386
  37.4504527  95.4294929 116.0804283  41.7168097  95.9507757 112.6637682
  41.0319135  96.3306659 112.1134716  41.8011946  96.5603084 113.3969630
  37.0180566  87.0529104 120.5855760  36.7741498  87.8071164 120.0490036
  37.2940496  87.4314451 121.4203007  38.9719029  93.5967716 119.2633026
  39.1835924  94.2399476 118.5867407  38.9248777  92.7630033 118.7954956
  36.5745258  86.2085537 116.1669598  35.7129737  86.5066790 116.4586336
  36.6007692  86.4255936 115.2350631  33.3906827  94.7527727 112.5743404
  33.8545173  95.0315430 111.7848026  33.1263625  93.8511172 112.3916494
  30.2830908  94.2999209 115.5123167  30.8532265  94.7286477 114.8740651
  30.8739020  94.0181794 116.2107353  32.3275713  90.8750880 109.3832969
  33.0299756  91.3271923 109.8506895  31.9956342  90.2334699 110.0112862
  26.0701047  89.1334432 114.6850102  25.2800101  89.3891961 114.2090213
  26.5612294  89.9482770 114.7902143  40.0864857  96.4739672 117.4355383
  40.9082300  96.0719859 117.1538065  40.0827259  96.3707906 118.3871499
  28.0215792  89.4979012 111.6433579  27.2246956  89.6097706 112.1617075
  27.7941385  89.8365664 110.7774470  48.1770850  92.8178420 113.7840355
  47.4234558  92.2485818 113.6284359  48.3118391  92.7841085 114.7310989
  33.5669478  97.6891822 109.4595074  33.4315153  98.5343358 109.8879922
  34.1079290  97.8911100 108.6961008  27.0198875  95.2067260 110.0322999
  27.5323396  96.0010511 110.1828564  27.6721588  94.5093551 109.9656601
  28.8293760  98.3233017 112.1145752  29.0060388  99.2450981 111.9266736
  29.6250593  98.0091436 112.5440132  32.9704778  85.1841281 123.7129686
  33.7114492  85.7848435 123.6334148  33.2022701  84.4418919 123.1547728
  36.9161941  81.2122384 117.9893967  36.5726211  82.1024026 117.9133078
  37.2840904  81.0224042 117.1263552  24.9847792  93.5355915 110.8082570
  25.8223014  93.9452923 110.5916277  25.1626060  92.5955357 110.7782764
  36.8812224  91.2030995 106.4966403  36.3658847  91.9735600 106.7354790
  36.6089532  90.5296132 107.1199464  34.4659335  86.0480696 111.5551641
  33.6100931  85.6587547 111.3757280  34.8786287  86.1272657 110.6951426
  35.9958482  83.5827039 115.9543201  35.4923277  83.5457175 115.1411006
  36.2889089  84.4919782 116.0139857  32.2401368  83.6665769 114.9609382
  33.1054364  83.4708578 114.6015272  32.3078876  83.4376121 115.8878739
  41.8546498  93.9563350 108.4319576  41.0775941  93.6174510 107.9874738
  42.5337979  93.9615973 107.7574541  36.6698527  89.0758088 108.3226184
  36.3648663  89.3904237 109.1736327  37.6228969  89.1539507 108.3653517
  35.1144959  95.2348311 109.9719138  34.5866321  94.5001070 109.6592375
  34.6132462  96.0122987 109.7259106  40.0937805  93.4297331 115.0886184
  39.4361479  94.1196593 115.1766313  40.8978204  93.8193763 115.4320170
  29.8463687  85.8967977 112.3325749  30.4207439  85.6743159 111.5998942
  30.4334669  85.9656672 113.0854351  38.9043264  91.7841704 113.1390126
  39.4175146  92.4171696 113.6411836  39.5544488  91.1842900 112.7733486
  30.1733274  87.9272438 106.3521635  29.3370586  88.2647125 106.6730909
  30.0338043  87.7921418 105.4148772  32.1486354  82.7709226 111.0600819
  31.4950767  82.4558243 110.4357433  32.1066828  82.1484966 111.7860642
  33.2597559  93.0528521 102.9754111  32.3524621  92.8217775 103.1745260
  33.7568591  92.2566140 103.1628092  36.1665638 101.7626028 105.8950797
  35.4927337 102.0657725 106.5035755  36.5531460 102.5655109 105.5456254
  35.3824095  89.2591160 115.3848466  34.4646656  89.4806107 115.2270154
  35.7984238  89.3337470 114.5260174  36.1659142  90.6582575 110.5151147
  36.9130961  91.1703972 110.2058269  36.4350732  90.3366628 111.3755540
  34.4385793  93.1541116 107.4978101  33.5297012  92.8700149 107.5950571
  34.4680876  93.5740195 106.6381408  39.6705060  96.7647705 111.2669268
  39.2167387  95.9238615 111.3234459  39.0399027  97.4009104 111.6044049
  38.6137980  87.6939691 112.4969936  37.8760736  87.1817078 112.8280178
  38.8664753  87.2540073 111.6853213  38.1137999  98.6024202 112.2019087
  38.4060974  99.1629259 111.4831452  38.6236620  98.8952763 112.9572246
  38.7149607  80.4715943 113.0911705  39.0208484  79.6113307 112.8037620
  39.4402212  81.0633564 112.8910699  25.0073963  90.8746630 111.4793303
  24.8098363  90.2815991 110.7544370  24.4520627  90.5698840 112.1969242
  32.9870687  90.7669737 113.5987896  33.0419296  89.8143573 113.5230373
  32.1761889  90.9229176 114.0829195  34.1361880  94.6949860 104.8366179
  33.6981310  93.9785719 104.3771817  34.8772321  94.9225974 104.2751271
  30.9263047  89.3846796 111.3578275  30.1130912  89.6840967 111.7643467
  31.4222041  88.9902485 112.0752757  33.0771624  99.3804553 113.2912540
  33.0347803  99.6065400 112.3621072  33.9934323  99.1467928 113.4398341
  36.5237258  89.8488621 120.1893169  36.8786646  90.0760094 121.0487635
  37.1709390  90.1806998 119.5670424  42.2534995  92.9707057 110.8942498
  42.1152894  93.1608653 109.9663687  41.8971214  93.7326439 111.3510549
  30.4177121  86.9565152 116.9739510  31.0576501  86.8153911 116.2762473
  29.5854652  86.6699665 116.5978112  42.2804375  95.0383584 115.9053770
  42.7140881  94.9458873 116.7536824  42.9935956  95.0141084 115.2673786
  31.1937425  96.2567582 113.0874503  31.9878024  95.7617902 112.8857077
  30.4829118  95.7285445 112.7242208  36.0132270  98.6385678 117.4386870
  36.0669292  99.2076614 118.2064586  35.1447051  98.8087563 117.0740907
  27.5020189  90.4010664 109.1634255  26.5717777  90.3395119 109.3804217
  27.5977661  89.8786617 108.3670896  27.4205738  86.9265477 111.7512497
  27.6812555  87.8410810 111.6421657  28.2422910  86.4589919 111.9009110
  43.1419924  95.0807284 118.4386655  43.3355814  95.9853095 118.6845930
  43.0420543  94.6214703 119.2725240  34.7956235  84.9665175 120.9376982
  34.1484150  85.6655125 120.8441459  35.5657251  85.4001319 121.3053230
  34.9720369  92.8045940 118.9973802  35.9012429  92.9557099 118.8242769
  34.5511399  92.8929961 118.1422448  33.7708701  96.8296604 116.7672340
  33.6319787  96.4615389 117.6398278  32.9823297  97.3444244 116.5956297
  34.3656853 101.9305701 108.1097876  34.5408609 101.4593744 108.9243499
  33.6789641 102.5571467 108.3379137  35.3213916  96.2078207 114.1561177
  34.9863749  96.1678977 115.0518827  34.8217862  95.5422923 113.6831588
  38.2573108  93.5534241 104.4298237  37.6402279  92.8281069 104.3331290
  37.7889597  94.3143602 104.0865311  39.9127240  98.2633150 122.0904017
  39.8539786  97.5792370 121.4234600  40.3146758  99.0052140 121.6384643
  30.0471654  87.7719666 103.5519541  29.1701120  87.6508466 103.1881788
  30.5229407  86.9805744 103.2998430  39.9144647  96.2272734 120.3217997
  39.0271426  95.8898655 120.4444396  40.4843198  95.4955765 120.5586762
  33.2335580 100.1245956 110.7982062  32.4503102 100.6667636 110.8920286
  33.9328325 100.6419936 111.1976303  36.5432230  85.9340585 113.4416267
  37.0400930  85.1810548 113.1217337  35.7719212  85.9704902 112.8759477
  44.3961988  91.6380951 115.0834559  44.3851864  92.5205666 114.7128492
  43.5279367  91.2852502 114.8889096  37.6262011  94.6912273 111.0154691
  36.6918290  94.8113735 110.8459395  37.8038679  93.7884739 110.7514700
  33.1267199  88.0757968 113.1687952  32.7564986  87.5229009 113.8568857
  33.6226291  87.4716102 112.6162952  41.0134562  90.5329592 111.5504725
  41.4795014  91.3657583 111.4765027  41.4642063  90.0674573 112.2549983
  39.0810793  96.8773413 108.5490877  39.3570637  96.7630008 109.4584751
  38.2115292  96.4790898 108.5103050  38.9851225  82.9010179 115.5895626
  38.0714305  83.1314406 115.7577833  39.4144326  82.9848623 116.4409658
  38.7557683  91.0900071 118.0895520  38.1029134  91.3375978 117.4347973
  39.1338063  90.2764209 117.7557997  35.7164857 101.1259764 112.1923690
  35.8987252 100.3081420 112.6551443  36.5397843 101.3427456 111.7548580
  36.0507023 100.0527949 109.4538739  36.5794789  99.5420404 108.8408901
  36.3135242  99.7370479 110.3184272  28.5232533  85.4861959 119.4141058
  28.5873859  86.3476790 119.0018456  28.4599653  84.8735961 118.6813416
  24.7750348  89.3661521 108.9932447  25.0703789  88.4572199 108.9399501
  23.8738384  89.3449260 108.6713449  36.6836427 101.0868785 115.7982855
  36.5587566 100.2858525 115.2893801  37.3415518 101.5814978 115.3096825
  28.3044595  87.4417517 114.9759996  27.5831181  88.0553485 114.8367469
  29.0937851  87.9775282 114.8976642  38.7471335  98.8877805 117.4262405
  37.8001670  98.7683156 117.3540732  39.0954108  98.0000303 117.5088667
  31.1070908  84.7771944 121.2500647  31.6305310  85.0234240 122.0126957
  30.8883242  85.6091979 120.8303785  26.5038189  87.0475618 109.1171772
  26.1750896  86.1672997 108.9346878  26.8577560  86.9923287 110.0048161
  35.7517768  98.6830521 113.6266758  35.6042731  97.7547229 113.8074328
  36.5771262  98.7050612 113.1423833  29.6180013  87.3348588 109.4847250
  29.9576085  87.8634510 108.7625858  30.0652133  87.6728994 110.2605816
  39.3551890  99.5059080 114.7131630  40.2798438  99.3001941 114.5756082
  39.1867193  99.2575481 115.6220972  32.3123453  85.7185639 118.9350318
  31.9720274  84.9193452 119.3370998  31.6062460  86.0187350 118.3627151
  32.9639925  82.8034951 117.3877641  33.7865995  82.3295430 117.2656531
  33.2077989  83.5825435 117.8876327  31.6048160  85.8323210 107.6840543
  32.3256522  86.2104463 107.1804259  30.9813464  86.5512087 107.7875521
  35.7479283  86.5368359 108.6198875  35.9642897  87.4192997 108.3187703
  35.2673350  86.1454572 107.8904517  30.4878504  89.4954072 115.1969619
  30.3423085  89.8094375 116.0893901  30.0103708  90.1138972 114.6440518
  32.3474887  86.4856620 115.2450509  32.3336456  85.5897713 114.9082807
  33.0647315  86.4927284 115.8788795  34.2001018  86.9193960 117.2903636
  33.9418795  87.8411031 117.2887967  33.6686058  86.5224395 117.9804101
  39.1447206 100.0244747 110.0693722  39.3184084  99.4591170 109.3167574
  39.6376098 100.8245642 109.8873212  31.7511783  85.3671000 110.5138079
  31.8727694  84.4387647 110.7128967  31.4613825  85.3809686 109.6016395
  34.6202973  83.0525911 113.6504799  34.6424670  83.1165244 112.6956779
  35.0371032  82.2130419 113.8445305  44.9986597  92.7881170 111.6884022
  45.4417744  92.0388496 111.2903145  44.1213108  92.7791307 111.3057754
  40.1322379  99.3411512 107.1690620  40.8273283  99.9618204 107.3877935
  40.4745529  98.4906863 107.4442998  42.0313802  96.7911217 108.6977951
  42.5565126  97.1298490 107.9727271  41.9436154  95.8558233 108.5141086
  33.7154463 102.8583201 113.0573204  33.2759453 102.3659579 113.7506061
  34.4662580 102.3156168 112.8165279  41.8405583  94.2736587 121.3161877
  41.8903588  94.1086595 122.2577400  41.7319506  93.4063846 120.9259758
  30.7241842  96.9525133 108.6053966  30.8729962  97.6360597 107.9520639
  31.5308285  96.9330223 109.1203422  39.1309345  90.2567515 122.6321184
  40.0319208  90.1173980 122.3405182  39.2057320  90.4221970 123.5719362
  33.4652151  87.6334370 121.4774370  32.5955460  87.9267936 121.2056959
  33.7011631  88.2174815 122.1981634  43.3423780  96.6933529 121.5603899
  43.0508588  97.0563509 122.3967360  42.7295911  95.9800537 121.3817231
  44.5419462  94.2586409 114.0806469  45.3766354  94.6976213 114.2444030
  44.6778591  93.7825062 113.2614715  41.5910968  91.8166143 120.0283957
  42.0665090  92.0093790 119.2202808  40.6676533  91.8725329 119.7827341
  28.4794475  92.9790311 109.6115035  28.2340517  92.0752641 109.8095245
  28.6490389  92.9807461 108.6694513  36.1691185  83.8513987 118.9939791
  36.6873128  84.5875014 118.6686279  35.8146317  84.1577980 119.8286550
  27.7490122  88.7118668 107.1101197  27.0559367  88.7863023 106.4541233
  27.5041874  87.9479012 107.6322714  36.4203779  80.2714270 114.5140687
  36.7005533  79.6037459 115.1401114  37.2054386  80.4643365 114.0015351
  34.2237247  99.4473263 106.0765714  33.6511214 100.0663451 105.6236186
  34.7970041  99.9972625 106.6105636  40.2912637  88.6931904 118.2612263
  41.2430060  88.7930001 118.2824487  40.1216088  87.9010172 118.7710347
  38.3127017  85.7787487 118.4471663  37.7176949  86.0592499 117.7518152
  38.0276713  86.2681388 119.2188405  37.4434507  99.7310414 107.2074296
  38.3765180  99.6655975 107.4107172  37.3557720 100.5666680 106.7488829
  40.0722524  99.0476284 104.1678244  39.9936155  98.7136148 105.0614001
  40.8932191  99.5398052 104.1669716  42.7700715  91.9138023 117.3754562
  42.7377035  90.9754024 117.5614246  43.3801339  91.9922060 116.6420387
  34.6084046  90.7834076 103.4181766  35.5543150  90.6540284 103.4870184
  34.2298291  90.0448738 103.8951194  42.9195203  88.7049067 117.4212845
  42.4034252  87.9207523 117.2342774  43.8035152  88.3767783 117.5859365
  40.5805930  82.4490082 113.3808658  40.3830751  82.1405170 114.2651990
  41.1905636  83.1751721 113.5106588  48.5877265  92.9754030 116.5160599
  49.3180653  92.7139318 117.0768302  47.9784210  92.2382752 116.5562667
  46.6692562  91.1161893 117.1135050  45.9425725  90.9817858 116.5051542
  46.2539849  91.4238721 117.9191768  32.7926963  88.7084053 103.3536651
  31.8858418  88.4117165 103.4299365  33.0702944  88.4113871 102.4870938
  34.4089029  83.2520942 109.5080893  33.5989757  82.9068027 109.8836139
  35.0973446  82.9428486 110.0968504  36.3379577  82.3298989 111.1305189
  36.8910616  82.7494443 111.7895212  36.5749663  81.4034737 111.1728145
  31.5625748  85.5670988 103.4948631  32.4244912  85.8925886 103.7544448
  31.7476092  84.7802484 102.9821696  39.7158384  84.4399514 110.6383854
  39.1357053  85.0984318 110.2561906  39.4494317  83.6176859 110.2271271
  38.1661950  83.8404572 112.8405174  38.6661729  83.9521107 112.0319493
  38.8097558  83.5365625 113.4805982  38.4983262  86.5999605 109.6940202
  37.6109117  86.8849255 109.4760397  38.9137251  86.4393368 108.8467479
  41.8497798  86.6246126 113.4094541  42.6258188  87.1142578 113.6819158
  41.1245932  87.0504180 113.8666411  44.2870357  87.3373745 114.4668482
  44.8814848  87.0969481 113.7561790  44.3596940  86.6180875 115.0942018
  37.6426475  96.3644279 103.7888222  38.3462326  96.5694282 104.4045878
  36.9189124  96.9321041 104.0537305  38.4724286  92.1154141 109.9090492
  38.4159487  92.5722692 109.0698124  39.0252628  91.3544825 109.7313335
  42.2829092  87.9043872 110.7340612  42.0266026  87.5040508 111.5648819
  41.6581960  88.6187666 110.6090751  46.5941430  90.6439946 113.2411903
  46.0340988  90.7133135 114.0143465  45.9884933  90.4680930 112.5211399
  39.5513173  96.8026809 105.8386682  40.3858777  96.3708007 105.6564157
  39.3897516  96.6308822 106.7663576  39.2059065  93.3058922 107.2043021
  39.1507869  93.1403193 106.2631465  38.5805120  94.0134955 107.3605211
  32.5155191  82.8067031 106.7828340  32.5033860  83.7508871 106.9396611
  33.4078612  82.6237176 106.4887801  36.3307310  79.4009807 111.0374276
  35.5639706  78.8468294 111.1830959  36.7418015  79.4731676 111.8988428
  44.9887154 107.2723888 115.8703383  44.6505666 107.1564952 114.9823918
  45.8576922 106.8715053 115.8504390  40.8473970 109.1259364 111.8600274
  40.2838835 109.0349301 111.0916562  40.7326365 108.3059269 112.3402767
  46.4273529 112.7930332 107.1714739  45.7761508 113.3784412 106.7848753
  47.2217891 113.3236527 107.2309777  40.3529156 109.8819469 107.5701874
  41.1260032 109.3348456 107.4314749  40.7054555 110.7463718 107.7816335
  42.6895434 106.0412135 105.2020324  42.9420954 105.5193656 104.4403787
  41.7519993 105.8778281 105.3047007  47.7338716 105.0447913 113.0095067
  48.5201806 104.6267337 112.6585484  47.9977421 105.9494006 113.1776715
  47.9048794 110.4820764 107.7083724  47.2694627 110.5555390 108.4204628
  47.5746200 111.0714363 107.0302803  53.1347144 104.9823147 113.9128045
  53.8672316 104.4122364 114.1465875  52.3786499 104.5944747 114.3534551
  42.4091722 107.9440241 107.4044698  42.2927981 107.2685144 108.0725783
  42.5193982 107.4572615 106.5876852  44.7523263 107.4050388 111.1091388
  44.3881471 106.8781009 111.8204309  45.6090379 107.0148857 110.9357873
  50.6572564  98.6944721 118.3722654  50.3255889  99.5640132 118.1483869
  50.0618177  98.3781005 119.0516684  44.3928750 102.4340288 106.1052736
  44.5603153 103.3020524 106.4723207  44.2025919 102.5967570 105.1814025
  40.6016565 107.3471064 113.8055271  39.6767061 107.2147278 114.0132963
  40.8500978 108.1265283 114.3025213  44.3717971 104.8897945 107.0899403
  44.2517596 105.3354996 107.9284883  43.6770560 105.2383263 106.5312941
  42.1324863 117.6601587 110.7389534  42.0548893 118.6109412 110.8178015
  41.5286507 117.3147460 111.3964461  50.0703037 105.3619419 107.9179737
  50.9820893 105.5946805 107.7427435  49.5612684 105.9456463 107.3554816
  47.4139012 101.5377455 116.1669598  46.5523491 101.8358708 116.4586336
  47.4401447 101.7547853 115.2350631  44.2300582 110.0819645 112.5743404
  44.6938927 110.3607348 111.7848026  43.9657380 109.1803090 112.3916494
  41.1224663 109.6291127 115.5123167  41.6926020 110.0578395 114.8740651
  41.7132774 109.3473711 116.2107353  43.1669468 106.2042797 109.3832969
  43.8693511 106.6563841 109.8506895  42.8350096 105.5626616 110.0112862
  36.9094802 104.4626350 114.6850102  36.1193856 104.7183879 114.2090213
  37.4006049 105.2774688 114.7902143  38.8609547 104.8270929 111.6433579
  38.0640710 104.9389624 112.1617075  38.6335139 105.1657582 110.7774470
  44.4063232 113.0183740 109.4595074  44.2708907 113.8635276 109.8879922
  44.9473045 113.2203018 108.6961008  37.8592630 110.5359178 110.0322999
  38.3717150 111.3302428 110.1828564  38.5115342 109.8385469 109.9656601
  39.6687514 113.6524934 112.1145752  39.8454143 114.5742899 111.9266736
  40.4644348 113.3383354 112.5440132  47.7555696  96.5414302 117.9893967
  47.4119965  97.4315944 117.9133078  48.1234658  96.3515960 117.1263552
  35.8241546 108.8647832 110.8082570  36.6616768 109.2744841 110.5916277
  36.0019814 107.9247275 110.7782764  47.7205978 106.5322913 106.4966403
  47.2052602 107.3027518 106.7354790  47.4483287 105.8588049 107.1199464
  45.3053090 101.3772614 111.5551641  44.4494686 100.9879464 111.3757280
  45.7180041 101.4564575 110.6951426  46.8352236  98.9118957 115.9543201
  46.3317032  98.8749092 115.1411006  47.1282843  99.8211700 116.0139857
  43.0795122  98.9957687 114.9609382  43.9448119  98.8000496 114.6015272
  43.1472631  98.7668039 115.8878739  52.6940253 109.2855268 108.4319576
  51.9169695 108.9466427 107.9874738  53.3731734 109.2907891 107.7574541
  47.5092282 104.4050005 108.3226184  47.2042417 104.7196154 109.1736327
  48.4622724 104.4831425 108.3653517  45.9538714 110.5640229 109.9719138
  45.4260075 109.8292988 109.6592375  45.4526216 111.3414905 109.7259106
  40.6857441 101.2259895 112.3325749  41.2601193 101.0035076 111.5998942
  41.2728424 101.2948589 113.0854351  49.7437018 107.1133622 113.1390126
  50.2568900 107.7463614 113.6411836  50.3938242 106.5134817 112.7733486
  41.0127028 103.2564356 106.3521635  40.1764340 103.5939042 106.6730909
  40.8731798 103.1213336 105.4148772  42.9880109  98.1001144 111.0600819
  42.3344521  97.7850161 110.4357433  42.9460583  97.4776884 111.7860642
  44.0991314 108.3820439 102.9754111  43.1918375 108.1509692 103.1745260
  44.5962346 107.5858058 103.1628092  47.0059393 117.0917946 105.8950797
  46.3321091 117.3949643 106.5035755  47.3925215 117.8947026 105.5456254
  46.2217849 104.5883077 115.3848466  45.3040411 104.8098024 115.2270154
  46.6377993 104.6629388 114.5260174  47.0052897 105.9874493 110.5151147
  47.7524716 106.4995890 110.2058269  47.2744487 105.6658546 111.3755540
  45.2779547 108.4833034 107.4978101  44.3690766 108.1992066 107.5950571
  45.3074631 108.9032112 106.6381408  49.4531734 103.0231609 112.4969936
  48.7154491 102.5108995 112.8280178  49.7058508 102.5831991 111.6853213
  49.5543361  95.8007861 113.0911705  49.8602238  94.9405225 112.8037620
  50.2795966  96.3925481 112.8910699  35.8467718 106.2038548 111.4793303
  35.6492117 105.6107908 110.7544370  35.2914382 105.8990758 112.1969242
  43.8264441 106.0961654 113.5987896  43.8813051 105.1435491 113.5230373
  43.0155643 106.2521093 114.0829195  44.9755635 110.0241777 104.8366179
  44.5375065 109.3077636 104.3771817  45.7166076 110.2517892 104.2751271
  41.7656801 104.7138714 111.3578275  40.9524667 105.0132885 111.7643467
  42.2615795 104.3194403 112.0752757  53.0928750 108.2998974 110.8942498
  52.9546648 108.4900570 109.9663687  52.7364969 109.0618357 111.3510549
  41.2570876 102.2857070 116.9739510  41.8970255 102.1445829 116.2762473
  40.4248406 101.9991583 116.5978112  42.0331180 111.5859500 113.0874503
  42.8271778 111.0909820 112.8857077  41.3222872 111.0577363 112.7242208
  38.3413943 105.7302582 109.1634255  37.4111531 105.6687037 109.3804217
  38.4371415 105.2078534 108.3670896  38.2599492 102.2557394 111.7512497
  38.5206310 103.1702728 111.6421657  39.0816665 101.7881837 111.9009110
  45.2050608 117.2597618 108.1097876  45.3802363 116.7885662 108.9243499
  44.5183396 117.8863385 108.3379137  49.0966863 108.8826159 104.4298237
  48.4796033 108.1572987 104.3331290  48.6283351 109.6435519 104.0865311
  40.8865408 103.1011583 103.5519541  40.0094875 102.9800384 103.1881788
  41.3623162 102.3097662 103.2998430  44.0729334 115.4537874 110.7982062
  43.2896856 115.9959554 110.8920286  44.7722080 115.9711853 111.1976303
  47.3825985 101.2632503 113.4416267  47.8794684 100.5102465 113.1217337
  46.6112966 101.2996820 112.8759477  48.4655765 110.0204190 111.0154691
  47.5312044 110.1405653 110.8459395  48.6432434 109.1176657 110.7514700
  43.9660953 103.4049886 113.1687952  43.5958741 102.8520926 113.8568857
  44.4620046 102.8008020 112.6162952  51.8528317 105.8621510 111.5504725
  52.3188769 106.6949501 111.4765027  52.3035817 105.3966491 112.2549983
  49.9204548 112.2065331 108.5490877  50.1964392 112.0921925 109.4584751
  49.0509046 111.8082816 108.5103050  49.8244979  98.2302097 115.5895626
  48.9108059  98.4606323 115.7577833  50.2538081  98.3140541 116.4409658
  46.8900777 115.3819867 109.4538739  47.4188544 114.8712321 108.8408901
  47.1528997 115.0662397 110.3184272  39.3626287 100.8153877 119.4141058
  39.4267614 101.6768708 119.0018456  39.2993407 100.2027879 118.6813416
  35.6144102 104.6953439 108.9932447  35.9097543 103.7864117 108.9399501
  34.7132138 104.6741178 108.6713449  39.1438349 102.7709435 114.9759996
  38.4224935 103.3845403 114.8367469  39.9331605 103.3067200 114.8976642
  37.3431944 102.3767536 109.1171772  37.0144650 101.4964915 108.9346878
  37.6971315 102.3215205 110.0048161  40.4573767 102.6640506 109.4847250
  40.7969840 103.1926427 108.7625858  40.9045888 103.0020912 110.2605816
  43.1517208 101.0477557 118.9350318  42.8114028 100.2485370 119.3370998
  42.4456214 101.3479268 118.3627151  43.8033680  98.1326869 117.3877641
  44.6259749  97.6587347 117.2656531  44.0471743  98.9117353 117.8876327
  42.4441914 101.1615128 107.6840543  43.1650277 101.5396380 107.1804259
  41.8207218 101.8804004 107.7875521  46.5873037 101.8660277 108.6198875
  46.8036651 102.7484914 108.3187703  46.1067104 101.4746490 107.8904517
  41.3272258 104.8245990 115.1969619  41.1816839 105.1386293 116.0893901
  40.8497462 105.4430890 114.6440518  43.1868641 101.8148538 115.2450509
  43.1730210 100.9189631 114.9082807  43.9041069 101.8219201 115.8788795
  45.0394772 102.2485878 117.2903636  44.7812550 103.1702949 117.2887967
  44.5079812 101.8516312 117.9804101  42.5905537 100.6962918 110.5138079
  42.7121448  99.7679564 110.7128967  42.3007580 100.7101604 109.6016395
  45.4596728  98.3817828 113.6504799  45.4818424  98.4457162 112.6956779
  45.8764787  97.5422337 113.8445305  50.9716133 114.6703429 107.1690620
  51.6667038 115.2910122 107.3877935  51.3139283 113.8198781 107.4442998
  52.8707556 112.1203135 108.6977951  53.3958881 112.4590408 107.9727271
  52.7829909 111.1850150 108.5141086  41.5635596 112.2817051 108.6053966
  41.7123717 112.9652515 107.9520639  42.3702040 112.2622141 109.1203422
  39.3188229 108.3082228 109.6115035  39.0734271 107.4044558 109.8095245
  39.4884144 108.3099379 108.6694513  47.0084939  99.1805905 118.9939791
  47.5266883  99.9166932 118.6686279  46.6540072  99.4869898 119.8286550
  38.5883877 104.0410586 107.1101197  37.8953122 104.1154941 106.4541233
  38.3435629 103.2770930 107.6322714  47.2597533  95.6006187 114.5140687
  47.5399287  94.9329376 115.1401114  48.0448140  95.7935283 114.0015351
  45.0631002 114.7765181 106.0765714  44.4904969 115.3955368 105.6236186
  45.6363795 115.3264543 106.6105636  48.2828262 115.0602331 107.2074296
  49.2158935 114.9947893 107.4107172  48.1951474 115.8958598 106.7488829
  50.9116278 114.3768202 104.1678244  50.8329910 114.0428065 105.0614001
  51.7325945 114.8689970 104.1669716  45.4477800 106.1125994 103.4181766
  46.3936905 105.9832202 103.4870184  45.0692045 105.3740656 103.8951194
  51.4199685  97.7782000 113.3808658  51.2224506  97.4697088 114.2651990
  52.0299390  98.5043639 113.5106588  43.6320717 104.0375970 103.3536651
  42.7252173 103.7409083 103.4299365  43.9096698 103.7405788 102.4870938
  45.2482783  98.5812860 109.5080893  44.4383511  98.2359945 109.8836139
  45.9367200  98.2720404 110.0968504  47.1773331  97.6590907 111.1305189
  47.7304370  98.0786360 111.7895212  47.4143418  96.7326655 111.1728145
  42.4019502 100.8962906 103.4948631  43.2638666 101.2217804 103.7544448
  42.5869846 100.1094401 102.9821696  50.5552138  99.7691432 110.6383854
  49.9750808 100.4276236 110.2561906  50.2888071  98.9468777 110.2271271
  49.0055705  99.1696490 112.8405174  49.5055483  99.2813024 112.0319493
  49.6491313  98.8657543 113.4805982  49.3377017 101.9291522 109.6940202
  48.4502872 102.2141173 109.4760397  49.7531006 101.7685286 108.8467479
  52.6891553 101.9538043 113.4094541  53.4651943 102.4434496 113.6819158
  51.9639687 102.3796098 113.8666411  55.1264111 102.6665663 114.4668482
  55.7208602 102.4261399 113.7561790  55.1990695 101.9472793 115.0942018
  48.4820230 111.6936197 103.7888222  49.1856080 111.8986200 104.4045878
  47.7582879 112.2612959 104.0537305  49.3118040 107.4446058 109.9090492
  49.2553242 107.9014610 109.0698124  49.8646383 106.6836743 109.7313335
  53.1222846 103.2335790 110.7340612  52.8659780 102.8332426 111.5648819
  52.4975714 103.9479584 110.6090751  50.3906927 112.1318726 105.8386682
  51.2252531 111.6999925 105.6564157  50.2291270 111.9600740 106.7663576
  50.0452820 108.6350840 107.2043021  49.9901623 108.4695111 106.2631465
  49.4198875 109.3426872 107.3605211  43.3548945  98.1358949 106.7828340
  43.3427615  99.0800788 106.9396611  44.2472367  97.9529094 106.4887801
  47.1701064  94.7301725 111.0374276  46.4033460  94.1760212 111.1830959
  47.5811769  94.8023594 111.8988428  51.8520783 118.5856273 106.3521635
  51.0158095 118.9230960 106.6730909  51.7125552 118.4505253 105.4148772
  51.7259163 118.4303501 103.5519541  50.8488629 118.3092302 103.1881788
  52.2016916 117.6389579 103.2998430  49.4277631 119.3702504 107.1101197
  48.7346876 119.4446859 106.4541233  49.1829383 118.6062847 107.6322714
  54.4714472 119.3667888 103.3536651  53.5645927 119.0701001 103.4299365
  54.7490453 119.0697706 102.4870938  53.2413257 116.2254823 103.4948631
  54.1032421 116.5509721 103.7544448  53.4263601 115.4386319 102.9821696
  54.1942700 113.4650866 106.7828340  54.1821369 114.4092706 106.9396611
  55.0866121 113.2821012 106.4887801   3.6484376  32.7812398  92.6196104
   2.9746075  33.0844095  93.2281061   4.0350198  33.5841478  92.2701561
   5.7391846  24.5720611  91.1543544   5.1221016  23.8467439  91.0576596
   5.2708334  25.3329971  90.8110618   7.6141117  30.3597881  93.8935927
   8.3092021  30.9804574  94.1123241   7.9564267  29.5093233  94.1688305
   1.7055985  30.4659633  92.8011020   1.1329952  31.0849820  92.3481492
   2.2788779  31.0158995  93.3350942   4.9253245  30.7496783  93.9319603
   5.8583918  30.6842345  94.1352478   4.8376458  31.5853050  93.4734135
   7.5541262  30.0662654  90.8923550   7.4754893  29.7322517  91.7859308
   8.3750928  30.5584421  90.8915023   5.1245213  27.3830649  90.5133529
   5.8281063  27.5880651  91.1291184   4.4007862  27.9507411  90.7782612
   7.0331911  27.8213178  92.5631989   7.8677515  27.3894377  92.3809463
   6.8716254  27.6495192  93.4908883  15.6616186  38.3382829 102.6587165
  16.2994596  38.2189577 101.9550505  15.5437029  39.2863673 102.7175117
  12.4705892  38.2910257 102.5948690  12.1324404  38.1751322 101.7069225
  13.3395660  37.8901422 102.5749696   8.3292708  40.1445734  98.5845581
   7.7657573  40.0535671  97.8161869   8.2145103  39.3245638  99.0648074
  13.9092266  43.8116701  93.8960046  13.2580246  44.3970782  93.5094060
  14.7036629  44.3422896  93.9555083   7.8347894  40.9005839  94.2947180
   8.6078770  40.3534826  94.1560056   8.1873293  41.7650088  94.5061642
  10.1714171  37.0598505  91.9265630  10.4239692  36.5380026  91.1649093
   9.2338731  36.8964650  92.0292314  15.2157454  36.0634283  99.7340373
  16.0020543  35.6453706  99.3830790  15.4796159  36.9680375  99.9022022
  15.3867532  41.5007133  94.4329030  14.7513365  41.5741760  95.1449935
  15.0564938  42.0900732  93.7548109  20.6165881  36.0009516 100.6373352
  21.3491053  35.4308733 100.8711181  19.8605237  35.6131117 101.0779857
   9.8910460  38.9626611  94.1290005   9.7746718  38.2871514  94.7971089
  10.0012720  38.4758985  93.3122158  12.2342001  38.4236758  97.8336694
  11.8700208  37.8967379  98.5449616  13.0909117  38.0335227  97.6603180
  11.8747488  33.4526657  92.8298043  12.0421890  34.3206894  93.1968514
  11.6844657  33.6153939  91.9059332  14.6322821  41.9143636 104.4963873
  14.3323544  42.8168675 104.3879680  14.2873881  41.6475820 105.3485026
  18.0319965  34.4326177 102.1761311  17.1236842  34.3641585 101.8820072
  17.9807561  34.9098121 103.0043136  11.8536709  35.9084315  93.8144710
  11.7336334  36.3541366  94.6530190  11.1589297  36.2569633  93.2558248
   9.6143601  48.6787957  97.4634841   9.5367631  49.6295782  97.5423321
   9.0105245  48.3333829  98.1209767  17.5521775  36.3805788  94.6425044
  18.4639631  36.6133175  94.4672741  17.0431422  36.9642832  94.0800122
  16.1591357  41.3631607 102.0338625  15.5300220  41.5277321 101.3314693
  15.7717020  41.7773216 102.8049589  20.0380589  42.2986044  99.3882989
  19.3531627  42.6784946  98.8380022  20.1224439  42.9081371 100.1214937
  11.7119319  41.1006015  99.2988710  12.1757665  41.3793718  98.5093333
  11.4476117  40.1989459  99.1161801  10.6488205  37.2229167  96.1078275
  11.3512249  37.6750211  96.5752202  10.3168834  36.5812986  96.7358169
  18.4077349  42.8217959 104.1600690  19.2294793  42.4198146 103.8783371
  18.4039752  42.7186193 105.1116806  26.4983342  39.1656707 100.5085661
  25.7447050  38.5964105 100.3529666  26.6330883  39.1319372 101.4556296
  11.8881970  44.0370110  96.1840381  11.7527645  44.8821645  96.6125228
  12.4291782  44.2389387  95.4206314   5.3411367  41.5545548  96.7568306
   5.8535888  42.3488798  96.9073870   5.9934080  40.8571838  96.6901907
   7.1506252  44.6711304  98.8391059   7.3272880  45.5929269  98.6512043
   7.9463086  44.3569723  99.2685439   8.2737568  46.1889478 104.8401401
   8.8244993  46.0606541 104.0678395   7.4349043  46.4884367 104.4896294
   3.3060284  39.8834202  97.5327876   4.1435506  40.2931210  97.3161584
   3.4838552  38.9433644  97.5028070  15.2024716  37.5509283  93.2211709
  14.6871340  38.3213887  93.4600097  14.9302025  36.8774419  93.8444771
  12.7871827  32.3958983  98.2796948  11.9313424  32.0065834  98.1002586
  13.1998779  32.4750944  97.4196733  20.1758990  40.3041637  95.1564883
  19.3988433  39.9652797  94.7120045  20.8550471  40.3094260  94.4819848
  14.9911019  35.4236375  95.0471490  14.6861155  35.7382524  95.8981634
  15.9441462  35.5017795  95.0898823  13.4357451  41.5826598  96.6964444
  12.9078813  40.8479358  96.3837682  12.9344954  42.3601274  96.4504413
  18.4150297  39.7775619 101.8131491  17.7573972  40.4674880 101.9011619
  19.2190697  40.1672050 102.1565477  17.2255756  38.1319991  99.8635432
  17.7387638  38.7649983 100.3657142  17.8756980  37.5321187  99.4978792
   8.4945766  34.2750725  93.0766941   7.6583078  34.6125412  93.3976216
   8.3550536  34.1399705  92.1394078  11.5810051  39.4006808  89.6999417
  10.6737113  39.1696062  89.8990566  12.0781083  38.6044428  89.8873399
  14.4878130  48.1104316  92.6196104  13.8139829  48.4136012  93.2281061
  14.8743952  48.9133396  92.2701561  14.4871635  37.0060862  97.2396453
  15.2343454  37.5182260  96.9303575  14.7563224  36.6844915  98.1000847
  12.7598285  39.5019403  94.2223408  11.8509504  39.2178436  94.3195877
  12.7893369  39.9218482  93.3626714  17.9917552  43.1125993  97.9914575
  17.5379879  42.2716903  98.0479766  17.3611519  43.7487391  98.3289355
  16.9350472  34.0417979  99.2215243  16.1973229  33.5295365  99.5525485
  17.1877245  33.6018360  98.4098519  16.4350492  44.9502489  98.9264393
  16.7273466  45.5107546  98.2076759  16.9449112  45.2431050  99.6817552
  11.3083179  37.1148024 100.3233203  11.3631789  36.1621860 100.2475679
  10.4974381  37.2707463 100.8074501  12.4574373  41.0428147  91.5611486
  12.0193803  40.3264006  91.1017123  13.1984814  41.2704262  90.9996577
   9.2475539  35.7325084  98.0823582   8.4343404  36.0319254  98.4888774
   9.7434533  35.3380772  98.7998064  11.3984117  45.7282840 100.0157846
  11.3560296  45.9543687  99.0866378  12.3146816  45.4946215 100.1643648
  20.5747488  39.3185344  97.6187805  20.4365386  39.5086940  96.6908994
  20.2183706  40.0804727  98.0755856  20.6016867  41.3861871 102.6299076
  21.0353374  41.2937160 103.4782130  21.3148448  41.3619371 101.9919092
   9.5149918  42.6045869  99.8119809  10.3090516  42.1096190  99.6102384
   8.8041610  42.0763733  99.4487515  14.3344762  44.9863965 104.1632177
  14.3881784  45.5554901 104.9309893  13.4659543  45.1565850 103.7986214
   5.8232681  36.7488951  95.8879562   4.8930269  36.6873407  96.1049524
   5.9190153  36.2264904  95.0916203  21.4632417  41.4285572 105.1631962
  21.6568307  42.3331382 105.4091236  21.3633035  40.9692991 105.9970547
  12.0921194  43.1774891 103.4917646  11.9532279  42.8093676 104.3643584
  11.3035790  43.6922531 103.3201604  12.6869346  48.2783988  94.8343183
  12.8621101  47.8072031  95.6488805  12.0002134  48.9049754  95.0624443
  13.6426409  42.5556494 100.8806484  13.3076241  42.5157264 101.7764134
  13.1430354  41.8901210 100.4076894  16.5785600  39.9012529  91.1543544
  15.9614771  39.1759357  91.0576596  16.1102089  40.6621889  90.8110618
   7.2530431  51.4273351 101.6083043   7.4927029  52.0591875 102.2862061
   6.4099627  51.0761391 101.8948402   8.3684146  34.1197953  90.2764848
   7.4913613  33.9986754  89.9127095   8.8441899  33.3284031  90.0243737
  11.7658293  47.2352473 104.0124547  11.6928464  48.0407445 104.5243851
  11.3235686  47.4344439 103.1872568  11.5548072  46.4724243  97.5227368
  10.7715594  47.0145923  97.6165593  12.2540817  46.9898223  97.9221610
  14.8644722  32.2818873 100.1661574  15.3613422  31.5288835  99.8462644
  14.0931704  32.3183189  99.6004783  22.7174480  37.9859238 101.8079865
  22.7064356  38.8683954 101.4373798  21.8491859  37.6330789 101.6134402
  14.2256976  47.1339307 106.1682706  14.9384948  47.7686772 106.0958607
  13.7347005  47.2303173 105.3522707  15.9474503  41.0390560  97.7399997
  15.0130782  41.1592022  97.5704702  16.1251172  40.1363027  97.4760007
  19.3347054  36.8807879  98.2750031  19.8007507  37.7135871  98.2010334
  19.7854555  36.4152861  98.9795290  17.4023286  43.2251700  95.2736183
  17.6783129  43.1108295  96.1830057  16.5327784  42.8269185  95.2348357
  14.0377350  47.4738051  98.9168997  14.2199744  46.6559707  99.3796749
  14.8610336  47.6905744  98.4793887  14.3719515  46.4006236  96.1784046
  14.9007281  45.8898691  95.5654208  14.6347735  46.0848767  97.0429579
   7.7275263  47.4521353  98.9381821   7.0585638  47.9367481  98.4545862
   7.5888133  47.6990574  99.8525200  11.8680532  49.4865097 105.5364480
  12.4198840  49.6496718 106.3013565  12.2086725  50.0769534 104.8644505
   3.0962840  35.7139808  95.7177754   3.3916281  34.8050486  95.6644807
   2.1950876  35.6927548  95.3958756  15.0048919  47.4347072 102.5228162
  14.8800058  46.6336812 102.0139107  15.6628010  47.9293266 102.0342132
  17.0683827  45.2356092 104.1507712  16.1214163  45.1161443 104.0786039
  17.4166600  44.3478590 104.2333974   4.8250682  33.3953906  95.8417079
   4.4963388  32.5151285  95.6592185   5.1790052  33.3401574  96.7293468
  14.0730261  45.0308808 100.3512064  13.9255223  44.1025516 100.5319634
  14.8983754  45.0528899  99.8669140   7.9392505  33.6826876  96.2092556
   8.2788577  34.2112797  95.4871165   8.3864625  34.0207282  96.9851123
  17.6764382  45.8537367 101.4376937  18.6010930  45.6480229 101.3001388
  17.5079686  45.6053768 102.3466279   9.9260652  32.1801497  94.4085849
  10.6469014  32.5582750  93.9049566   9.3025956  32.8990374  94.5120827
  14.0691775  32.8846646  95.3444182  14.2855389  33.7671284  95.0433010
  13.5885842  32.4932859  94.6149824  17.4659699  46.3723035  96.7939029
  17.6396576  45.8069457  96.0412881  17.9588590  47.1723930  96.6118518
  10.0724275  31.7149288  97.2383386  10.1940186  30.7865934  97.4374273
   9.7826317  31.7287974  96.3261701  23.3199090  39.1359458  98.4129328
  23.7630236  38.3866783  98.0148452  22.4425600  39.1269594  98.0303060
  18.4534871  45.6889799  93.8935927  19.1485776  46.3096492  94.1123241
  18.7958021  44.8385150  94.1688305  20.3526294  43.1389505  95.4223258
  20.8777618  43.4776777  94.6972578  20.2648647  42.2036520  95.2386392
  12.0366955  49.2061488  99.7818511  11.5971945  48.7137867 100.4751367
  12.7875072  48.6634455  99.5410586   4.5159294  45.3973029  99.7843139
   5.3417314  45.0976801  99.4041782   4.1653346  44.6280651 100.2332927
   9.4840827  44.7499497 101.8540812   8.8620836  44.0870202 101.5543040
  10.1545694  44.7760629 101.1714460   2.7167899  43.3159355 100.7432072
   1.8799807  42.8881530 100.5616074   2.6891544  43.5091798 101.6802864
   9.0454334  43.3003420  95.3299273   9.1942454  43.9838885  94.6765946
   9.8520777  43.2808510  95.8448729  21.6636272  43.0411816 108.2849206
  21.3721080  43.4041797 109.1212667  21.0508403  42.3278824 108.1062538
  22.8631954  40.6064696 100.8051776  23.6978846  41.0454500 100.9689336
  22.9991083  40.1303349  99.9860022   6.8006967  39.3268598  96.3360342
   6.5553009  38.4230928  96.5340552   6.9702882  39.3285748  95.3939820
   6.0702615  35.0596955  93.8346503   5.3771859  35.1341310  93.1786539
   5.8254366  34.2957299  94.3568020  12.5449740  45.7951551  92.8011020
  11.9723707  46.4141738  92.3481492  13.1182533  46.3450912  93.3350942
  15.7646999  46.0788701  93.9319603  16.6977672  46.0134263  94.1352478
  15.6770212  46.9144968  93.4734135  18.3935016  45.3954571  90.8923550
  18.3148648  45.0614435  91.7859308  19.2144683  45.8876339  90.8915023
  21.0913207  38.2616310 104.0999869  21.0589527  37.3232311 104.2859553
  21.7013831  38.3400347 103.3665694  12.9296538  37.1312363  90.1427073
  13.8755643  37.0018572  90.2115491  12.5510783  36.3927025  90.6196501
  26.9089757  39.3232317 103.2405906  27.6393146  39.0617605 103.8013609
  26.2996703  38.5861039 103.2807974  24.9905054  37.4640180 103.8380357
  24.2638218  37.3296145 103.2296848  24.5752341  37.7717009 104.6437075
  11.1139455  35.0562340  90.0781958  10.2070911  34.7595453  90.1544672
  11.3915436  34.7592158  89.2116244  12.7301521  29.5999230  96.2326199
  11.9202249  29.2546315  96.6081445  13.4185938  29.2906773  96.8213811
   9.8838240  31.9149275  90.2193937  10.7457404  32.2404173  90.4789755
  10.0688584  31.1280771  89.7067003  18.0370876  30.7877802  97.3629160
  17.4569545  31.4462606  96.9807213  17.7706809  29.9655146  96.9516578
  16.8195754  32.9477892  96.4185509  15.9321609  33.2327543  96.2005703
  17.2349743  32.7871655  95.5712785  20.1710290  32.9724413 100.1339848
  20.9470681  33.4620865 100.4064465  19.4458425  33.3982467 100.5911717
  22.6082849  33.6852032 101.1913788  23.2027340  33.4447768 100.4807097
  22.6809433  32.9659163 101.8187325   4.8280005  47.5285643 101.5056953
   4.6934473  46.7686044 100.9394951   4.4112067  48.2526543 101.0385742
  15.9638968  42.7122567  90.5133529  16.6674818  42.9172569  91.1291184
  15.2401617  43.2799328  90.7782612  16.7936778  38.4632428  96.6335799
  16.7371979  38.9200979  95.7943431  17.3465121  37.7023112  96.4558641
  20.6041584  34.2522160  97.4585918  20.3478518  33.8518795  98.2894126
  19.9794452  34.9665954  97.3336057  24.9153922  36.9918233  99.9657210
  24.3553480  37.0611422 100.7388772  24.3097425  36.8159218  99.2456706
   7.9849131  48.4254960 101.7175396   7.8681515  49.3700393 101.6154086
   7.1641577  48.1228522 102.1061195  17.8725665  43.1505096  92.5631989
  18.7071269  42.7186294  92.3809463  17.7110008  42.9787109  93.4908883
  17.5271557  39.6537209  93.9288328  17.4720361  39.4881481  92.9876772
  16.9017613  40.3613242  94.0850518  10.8367683  29.1545318  93.5073646
  10.8246353  30.0987158  93.6641917  11.7291105  28.9715464  93.2133107
   9.0103645  49.0783222 104.9331324   9.9130891  49.1106832 105.2497819
   8.7841015  48.1483673 104.9477660  10.7657247  47.8314209 101.5941403
   9.8152878  47.8316070 101.4805775  11.0689733  47.0846943 101.0777438
  26.5009940  53.6674747 102.6587165  27.1388350  53.5481494 101.9550505
  26.3830783  54.6155591 102.7175117  23.3099647  53.6202175 102.5948690
  22.9718158  53.5043240 101.7069225  24.1789415  53.2193340 102.5749696
  19.1686462  55.4737651  98.5845581  18.6051327  55.3827588  97.8161869
  19.0538857  54.6537556  99.0648074  23.7919430  54.7737027 108.5534896
  23.7808070  54.3789825 107.6815399  23.9540069  54.0403099 109.1468667
  16.7150894  56.9688843 101.4229801  17.5072186  56.6279668 101.0076101
  16.9547544  57.0783818 102.3431955  24.7486021  59.1408619  93.8960046
  24.0974001  59.7262700  93.5094060  25.5430384  59.6714814  93.9555083
  18.6741648  56.2297756  94.2947180  19.4472524  55.6826743  94.1560056
  19.0267047  57.0942006  94.5061642  20.5126691  57.5574139 107.5014080
  20.2216557  58.4619769 107.3860746  21.1483675  57.5990666 108.2158149
  21.4382898  54.9350987 104.0915439  22.0346470  54.7107009 103.3772402
  21.4957869  54.1935733 104.6940887  21.0107926  52.3890422  91.9265630
  21.2633447  51.8671944  91.1649093  20.0732485  52.2256568  92.0292314
  26.0551209  51.3926201  99.7340373  26.8414298  50.9745624  99.3830790
  26.3189913  52.2972293  99.9022022  31.4559636  51.3301434 100.6373352
  32.1884808  50.7600651 100.8711181  30.6998992  50.9423034 101.0779857
  20.7304215  54.2918528  94.1290005  20.6140473  53.6163432  94.7971089
  20.8406475  53.8050902  93.3122158  23.0735756  53.7528675  97.8336694
  22.7093963  53.2259296  98.5449616  23.9302872  53.3627144  97.6603180
  28.9785056  45.0423008 105.0967960  28.6468381  45.9118419 104.8729175
  28.3830670  44.7259292 105.7761991  22.7141243  48.7818575  92.8298043
  22.8815645  49.6498812  93.1968514  22.5238412  48.9445857  91.9059332
  25.4716576  57.2435554 104.4963873  25.1717299  58.1460593 104.3879680
  25.1267635  56.9767737 105.3485026  18.9229057  53.6949351 100.5300578
  17.9979554  53.5625565 100.7378269  19.1713470  54.4743570 101.0270520
  28.8713720  49.7618094 102.1761311  27.9630597  49.6933503 101.8820072
  28.8201315  50.2390039 103.0043136  22.6930463  51.2376233  93.8144710
  22.5730089  51.6833283  94.6530190  21.9983052  51.5861550  93.2558248
  16.2837868  53.3382624 101.3644367  16.4130249  53.5917103 102.2783778
  15.6035320  53.9310332 101.0449022  20.4537356  64.0079874  97.4634841
  20.3761385  64.9587699  97.5423321  19.8498999  63.6625747  98.1209767
  22.9454585  51.1807740 110.1196208  22.1687919  51.7401660 110.1099072
  23.5845148  51.6664523 110.6411078  30.7375366  47.9634533 103.9539184
  30.0949746  48.2567066 103.3078979  30.2330294  47.8487453 104.7592381
  28.3915530  51.7097706  94.6425044  29.3033386  51.9425093  94.4672741
  27.8825177  52.2934750  94.0800122  21.2000958  53.9893193 109.6814175
  21.9415642  54.5278237 109.4048998  20.4937943  54.6159482 109.8385727
  26.6756297  56.1322334 108.2786336  27.0839653  55.6904744 107.5340969
  25.9533559  55.5574961 108.5320529  23.0287367  51.0694940 105.6519893
  23.8748563  51.4934354 105.7954542  22.9686005  50.4128565 106.3458456
  26.9985112  56.6923524 102.0338625  26.3693974  56.8569238 101.3314693
  26.6110774  57.1065134 102.8049589  26.1786813  48.7299309 107.3101067
  25.9347745  49.4841369 106.7735343  26.4546743  49.1084656 108.1448314
  28.1325275  55.2737921 105.9878332  28.3442171  55.9169681 105.3112714
  28.0855024  54.4400238 105.5200263  25.7351504  47.8855742 102.8914905
  24.8735983  48.1836995 103.1831642  25.7613939  48.1026141 101.9595937
  22.5513074  56.4297932  99.2988710  23.0151419  56.7085635  98.5093333
  22.2869872  55.5281377  99.1161801  19.4437155  55.9769414 102.2368474
  20.0138512  56.4056682 101.5985958  20.0345267  55.6951999 102.9352659
  21.4881960  52.5521085  96.1078275  22.1906003  53.0042128  96.5752202
  21.1562588  51.9104904  96.7358169  19.9362321  51.1432841 110.4829485
  19.3060982  51.8249122 110.7164882  19.8298409  51.0315923 109.5382623
  15.2307294  50.8104637 101.4095409  14.4406348  51.0662166 100.9335520
  15.7218541  51.6252975 101.5147450  29.2471103  58.1509877 104.1600690
  30.0688547  57.7490064 103.8783371  29.2433506  58.0478111 105.1116806
  17.1822039  51.1749217  98.3678886  16.3853202  51.2867911  98.8862381
  16.9547631  51.5135869  97.5019776  23.0127707  57.6993920 106.3161400
  23.0772139  58.1614327 107.1519572  22.3038631  57.0691285 106.4443710
  13.5144997  51.0635128 103.8410400  13.7653035  51.9482138 104.1067976
  14.0504545  50.8839729 103.0685492  22.7275724  59.3662027  96.1840381
  22.5921399  60.2113563  96.6125228  23.2685537  59.5681305  95.4206314
  16.1805122  56.8837465  96.7568306  16.6929642  57.6780716  96.9073870
  16.8327835  56.1863756  96.6901907  17.9900007  60.0003222  98.8391059
  18.1666635  60.9221186  98.6512043  18.7856840  59.6861641  99.2685439
  22.1311025  46.8611486 110.4374992  22.8720738  47.4618639 110.3579455
  22.3628948  46.1189124 109.8793035  17.2752363  52.0467854 108.7153222
  17.1605878  51.1453111 109.0160321  16.4196881  52.2931550 108.3638039
  24.3544201  59.9885594 110.3140723  23.9108055  59.2021972 109.9961627
  25.0161414  60.1764744 109.6484614  19.1131322  61.5181395 104.8401401
  19.6638747  61.3898459 104.0678395  18.2742798  61.8176284 104.4896294
  26.4525439  60.2688394 108.3422124  26.4343914  61.0897275 107.8502393
  27.3745359  60.1442469 108.5672265  22.9098493  57.7832523 109.1845632
  23.4426830  57.0220811 108.9544940  22.3812574  57.4906175 109.9269787
  26.0768188  42.8892589 104.7139274  25.7332457  43.7794231 104.6378385
  26.4447151  42.6994247 103.8508859  14.1454039  55.2126120  97.5327876
  14.9829261  55.6223128  97.3161584  14.3232306  54.2725562  97.5028070
  26.0418471  52.8801200  93.2211709  25.5265094  53.6505805  93.4600097
  25.7695779  52.2066336  93.8444771  23.6265582  47.7250901  98.2796948
  22.7707178  47.3357752  98.1002586  24.0392534  47.8042862  97.4196733
  25.1564728  45.2597244 102.6788507  24.6529524  45.2227380 101.8656313
  25.4495335  46.1689987 102.7385164  21.4007614  45.3435974 101.6854689
  22.2660611  45.1478783 101.3260579  21.4685123  45.1146326 102.6124046
  25.8304774  50.7528292  95.0471490  25.5254910  51.0674442  95.8981634
  26.7835216  50.8309712  95.0898823  24.2751206  56.9118516  96.6964444
  23.7472567  56.1771275  96.3837682  23.7738709  57.6893192  96.4504413
  29.2544052  55.1067536 101.8131491  28.5967726  55.7966798 101.9011619
  30.0584451  55.4963968 102.1565477  19.0069933  47.5738182  99.0571056
  19.5813685  47.3513364  98.3244249  19.5940916  47.6426877  99.8099657
  28.0649511  53.4611909  99.8635432  28.5781392  54.0941901 100.3657142
  28.7150734  52.8613104  99.4978792  19.3339521  49.6042643  93.0766941
  18.4976833  49.9417330  93.3976216  19.1944290  49.4691623  92.1394078
  21.3092601  44.4479431  97.7846125  20.6557013  44.1328448  97.1602740
  21.2673075  43.8255171  98.5105948  22.4203806  54.7298726  89.6999417
  21.5130868  54.4987979  89.8990566  22.9174838  53.9336345  89.8873399
  25.3271885  63.4396233  92.6196104  24.6533584  63.7427930  93.2281061
  25.7137707  64.2425314  92.2701561  24.5430341  50.9361364 102.1093773
  23.6252903  51.1576311 101.9515461  24.9590485  51.0107675 101.2505480
  25.3265389  52.3352780  97.2396453  26.0737208  52.8474177  96.9303575
  25.5956979  52.0136833  98.1000847  23.5992039  54.8311321  94.2223408
  22.6903259  54.5470354  94.3195877  23.6287123  55.2510399  93.3626714
  27.7744226  49.3709896  99.2215243  27.0366983  48.8587283  99.5525485
  28.0271000  48.9310278  98.4098519  27.2744246  60.2794407  98.9264393
  27.5667220  60.8399464  98.2076759  27.7842867  60.5722968  99.6817552
  27.8755854  42.1486148  99.8157012  28.1814731  41.2883512  99.5282927
  28.6008459  42.7403769  99.6156006  14.1680210  52.5516835  98.2038610
  13.9704610  51.9586196  97.4789676  13.6126874  52.2469045  98.9214549
  22.1476933  52.4439941 100.3233203  22.2025543  51.4913778 100.2475679
  21.3368135  52.5999381 100.8074501  23.2968127  56.3720065  91.5611486
  22.8587557  55.6555923  91.1017123  24.0378568  56.5996179  90.9996577
  20.0869293  51.0617001  98.0823582  19.2737159  51.3611172  98.4888774
  20.5828288  50.6672690  98.7998064  22.2377871  61.0574758 100.0157846
  22.1954050  61.2835604  99.0866378  23.1540570  60.8238133 100.1643648
  25.6843505  51.5258826 106.9138476  26.0392893  51.7530299 107.7732941
  26.3315636  51.8577202 106.2915731  19.5783368  48.6335357 103.6984817
  20.2182747  48.4924116 103.0007780  18.7460899  48.3469870 103.3223419
  20.3543672  57.9337787  99.8119809  21.1484271  57.4388107  99.6102384
  19.6435364  57.4055650  99.4487515  25.1738517  60.3155883 104.1632177
  25.2275539  60.8846819 104.9309893  24.3053298  60.4857768 103.7986214
  16.6626435  52.0780869  95.8879562  15.7324024  52.0165324  96.1049524
  16.7583907  51.5556822  95.0916203  16.5811985  48.6035682  98.4757803
  16.8418802  49.5181015  98.3666964  17.4029157  48.1360124  98.6254416
  18.0536910  50.0173439 105.6456628  18.7259963  49.8090801 104.9969277
  17.2266696  49.8195525 105.2061860  32.3026171  56.7577489 105.1631962
  32.4962061  57.6623300 105.4091236  32.2026789  56.2984908 105.9970547
  23.9562482  46.6435380 107.6622289  23.3090397  47.3425329 107.5686765
  24.7263497  47.0771524 108.0298537  27.3641280  56.9084232 110.7372842
  27.2126786  56.6794784 109.8202926  27.3545959  57.8654833 110.7504187
  24.1326616  54.4816145 105.7219109  25.0618676  54.6327304 105.5488076
  23.7117646  54.5700166 104.8667755  22.9314948  58.5066809 103.4917646
  22.7926034  58.1385594 104.3643584  22.1429544  59.0214449 103.3201604
  23.5263100  63.6075906  94.8343183  23.7014856  63.1363949  95.6488805
  22.8395888  64.2341672  95.0624443  24.4820163  57.8848412 100.8806484
  24.1469996  57.8449182 101.7764134  23.9824109  57.2193128 100.4076894
  18.4564407  53.2916042 106.4059065  18.3184205  52.5596281 107.0070604
  19.3669331  53.2024942 106.1243253  27.4179355  55.2304446  91.1543544
  26.8008525  54.5051274  91.0576596  26.9495843  55.9913806  90.8110618
  21.0846708  53.0036001 105.8942745  21.7946326  52.3629193 105.8529363
  21.0416016  53.2548896 106.8168926  29.0733486  59.9403355 108.8149324
  29.0146033  59.2562575 108.1479907  29.4753005  60.6822345 108.3629950
  19.7975642  49.9901219 107.7138384  19.2612999  49.5391958 108.3659981
  19.2092350  50.1247128 106.9708849  18.0924185  66.7565268 101.6083043
  18.3320784  67.3883793 102.2862061  17.2493382  66.4053308 101.8948402
  19.2077901  49.4489871  90.2764848  18.3307367  49.3278671  89.9127095
  19.6835654  48.6575949  90.0243737  29.0750894  57.9042938 107.0463304
  28.1877673  57.5668860 107.1689703  29.6449445  57.1725970 107.2832069
  10.7280041  54.2367030 100.3706355  11.4151081  53.9228760  99.7827370
  10.5728170  55.1408395 100.0973607  15.5314763  49.1257227 104.7991379
  15.4472952  48.5182896 104.0641789  14.7097469  49.6166245 104.8000875
  22.6052047  62.5644391 104.0124547  22.5322219  63.3699362 104.5243851
  22.1629440  62.7636357 103.1872568  22.3941827  61.8016161  97.5227368
  21.6109349  62.3437841  97.6165593  23.0934572  62.3190141  97.9221610
  25.7038477  47.6110790 100.1661574  26.2007176  46.8580753  99.8462644
  24.9325458  47.6475107  99.6004783  25.0650731  62.4631225 106.1682706
  25.7778703  63.0978690 106.0958607  24.5740759  62.5595091 105.3522707
  26.7868258  56.3682478  97.7399997  25.8524536  56.4883940  97.5704702
  26.9644926  55.4654944  97.4760007  22.2873446  49.7528173  99.8933258
  21.9171233  49.1999214 100.5814164  22.7832538  49.1486307  99.3408258
  30.1740809  52.2099797  98.2750031  30.6401261  53.0427788  98.2010334
  30.6248309  51.7444778  98.9795290  20.1162644  60.2125668 106.9888276
  20.8172104  60.8462151 107.1417671  19.6457759  60.5540400 106.2283916
  28.1457472  44.5780384 102.3140933  27.2320551  44.8084611 102.4823140
  28.5750573  44.6618828 103.1654965  27.9163930  52.7670276 104.8140827
  27.2635380  53.0146183 104.1593280  28.2944310  51.9534414 104.4803304
  24.8771104  62.8029969  98.9168997  25.0593499  61.9851625  99.3796749
  25.7004090  63.0197661  98.4793887  25.2113270  61.7298154  96.1784046
  25.7401036  61.2190609  95.5654208  25.4741489  61.4140684  97.0429579
  23.9651503  53.5090087 111.3006864  23.2892140  53.4084216 111.9709239
  24.7879137  53.3529301 111.7642861  15.7130362  59.7462023 103.9219379
  16.2983799  59.0005711 104.0547283  15.5155201  60.0565980 104.8056043
  18.5669017  62.7813271  98.9381821  17.8979393  63.2659398  98.4545862
  18.4281887  63.0282491  99.8525200  10.3048017  52.3167624 102.6423822
  10.3432117  51.7831214 103.4360940   9.7988310  51.7902829 102.0234799
  22.7074286  64.8157014 105.5364480  23.2592594  64.9788636 106.3013565
  23.0480480  65.4061452 104.8644505  17.6838779  47.1632164 106.1386365
  17.7480106  48.0246995 105.7263762  17.6205900  46.5506166 105.4058723
  17.1591052  49.2355297 109.7859399  17.7863091  48.8532374 110.3996923
  16.3018971  49.0169499 110.1515091  27.5585160  59.6418272 111.3913134
  28.1025064  60.2548230 110.8968089  26.9772005  60.1997850 111.9080147
  13.9356595  51.0431726  95.7177754  14.2310036  50.1342404  95.6644807
  13.0344630  51.0219465  95.3958756  25.8442673  62.7638990 102.5228162
  25.7193813  61.9628730 102.0139107  26.5021764  63.2585183 102.0342132
  17.4650842  49.1187722 101.7005302  16.7437427  49.7323690 101.5612776
  18.2544097  49.6545487 101.6221948  27.9077582  60.5648010 104.1507712
  26.9607917  60.4453361 104.0786039  28.2560355  59.6770508 104.2333974
  20.2677155  46.4542149 107.9745954  20.7911557  46.7004445 108.7372263
  20.0489488  47.2862184 107.5549091  15.6644436  48.7245823  95.8417079
  15.3357142  47.8443202  95.6592185  16.0183807  48.6693492  96.7293468
  24.9124015  60.3600726 100.3512064  24.7648977  59.4317434 100.5319634
  25.7377509  60.3820817  99.8669140  18.7786259  49.0118793  96.2092556
  19.1182332  49.5404714  95.4871165  19.2258380  49.3499199  96.9851123
  21.4729700  47.3955844 105.6595624  21.1326521  46.5963657 106.0616304
  20.7668706  47.6957555 105.0872458  22.1246172  44.4805156 104.1122948
  22.9472241  44.0065635 103.9901838  22.3684235  45.2595640 104.6121634
  20.7654406  47.5093415  94.4085849  21.4862769  47.8874668  93.9049566
  20.1419711  48.2282292  94.5120827  24.9085529  48.2138564  95.3444182
  25.1249144  49.0963202  95.0433010  24.4279596  47.8224777  94.6149824
  19.6484751  51.1724277 101.9214926  19.5029331  51.4864580 102.8139208
  19.1709954  51.7909177 101.3685825  21.5081134  48.1626825 101.9695816
  21.4942702  47.2667918 101.6328114  22.2253562  48.1697489 102.6034102
  23.3607264  48.5964165 104.0148943  23.1025042  49.5181236 104.0133274
  22.8292305  48.1994600 104.7049407  14.1230413  53.7129621 104.8602587
  13.5783881  54.4889429 104.9922862  15.0009763  54.0600426 104.7021709
  20.9118030  47.0441205  97.2383386  21.0333941  46.1157851  97.4374273
  20.6220072  47.0579891  96.3261701  23.7809220  44.7296116 100.3750106
  23.8030917  44.7935449  99.4202085  24.1977279  43.8900624 100.5690612
  14.9096435  52.8399518 107.7532744  14.1678171  52.9882153 108.3397375
  14.5889179  53.1007783 106.8899494  22.8540097  62.3815496 107.5513134
  23.1627224  62.1364643 108.4235834  23.6515579  62.5862134 107.0632004
  22.8760709  64.5353406  99.7818511  22.4365700  64.0429784 100.4751367
  23.6268826  63.9926373  99.5410586  15.3553048  60.7264946  99.7843139
  16.1811068  60.4268718  99.4041782  15.0047100  59.9572569 100.2332927
  20.3234582  60.0791415 101.8540812  19.7014591  59.4162120 101.5543040
  20.9939448  60.1052546 101.1714460  13.5561653  58.6451273 100.7432072
  12.7193562  58.2173447 100.5616074  13.5285299  58.8383716 101.6802864
  20.3959109  48.5573203 111.4473318  20.4447265  49.4335325 111.0651088
  20.9381623  48.0150596 110.8744962  30.8813955  59.1014326 110.7274456
  30.0909498  59.0838465 110.1878955  30.6447309  59.6402620 111.4823492
  31.0011830  55.9506792 108.0407184  31.0509835  55.7856800 108.9822707
  30.8925753  55.0834051 107.6505065  19.8848088  58.6295338  95.3299273
  20.0336209  59.3130802  94.6765946  20.6914532  58.6100428  95.8448729
  28.2915592  51.9337720 109.3566491  29.1925455  51.7944185 109.0650489
  28.3663567  52.0992175 110.2964668  22.6258398  49.3104575 108.2019677
  21.7561707  49.6038141 107.9302266  22.8617878  49.8945020 108.9226941
  32.5030027  58.3703734 108.2849206  32.2114835  58.7333714 109.1212667
  31.8902158  57.6570742 108.1062538  30.7517215  53.4936348 106.7529264
  31.2271336  53.6863995 105.9448115  29.8282780  53.5495534 106.5072647
  17.6400721  54.6560516  96.3360342  17.3946763  53.7522846  96.5340552
  17.8096636  54.6577666  95.3939820  25.3297431  45.5284192 105.7185097
  25.8479375  46.2645219 105.3931586  24.9752564  45.8348185 106.5531857
  16.9096369  50.3888873  93.8346503  16.2165614  50.4633228  93.1786539
  16.6648121  49.6249217  94.3568020  25.5810026  41.9484474 101.2385994
  25.8611779  41.2807664 101.8646421  26.3660632  42.1413570 100.7260658
  23.3843494  61.1243468  92.8011020  22.8117461  61.7433656  92.3481492
  23.9576288  61.6742830  93.3350942  29.4518884  50.3702108 104.9857569
  30.4036307  50.4700206 105.0069793  29.2822334  49.5780377 105.4955654
  27.4733263  47.4557692 105.1716970  26.8783195  47.7362704 104.4763459
  27.1882960  47.9451593 105.9433711  31.9306962  53.5908228 104.0999869
  31.8983282  52.6524229 104.2859553  32.5407585  53.6692265 103.3665694
  23.7690293  52.4604281  90.1427073  24.7149397  52.3310489  90.2115491
  23.3904537  51.7218943  90.6196501  32.0801450  50.3819272 104.1458152
  31.5640499  49.5977728 103.9588081  32.9641399  50.0537988 104.3104671
  29.7412177  44.1260287 100.1053965  29.5436998  43.8175375 100.9897297
  30.3511883  44.8521926 100.2351895  23.6528985  56.5122027 111.6027730
  24.5731995  56.6900626 111.7967776  23.6178568  55.5678073 111.4507429
  21.9533210  50.3854258  90.0781958  21.0464665  50.0887370  90.1544672
  22.2309191  50.0884076  89.2116244  12.8711150  51.7060621 100.5281004
  12.5513934  50.8525929 100.2355378  12.3244578  51.9209199 101.2838972
  16.6491058  54.4223062 104.2450511  16.8677067  55.3540170 104.2638545
  17.0616831  54.0631036 105.0305315  23.5695275  44.9291147  96.2326199
  22.7596004  44.5838232  96.6081445  24.2579692  44.6198691  96.8213811
  25.4985824  44.0069194  97.8550496  26.0516862  44.4264647  98.5140519
  25.7355910  43.0804942  97.8973452  20.7231994  47.2441193  90.2193937
  21.5851158  47.5696091  90.4789755  20.9082338  46.4572689  89.7067003
  12.7399410  55.3263532 102.4974126  12.0462881  54.9117485 101.9844080
  13.4872401  55.3684069 101.9007545  28.8764631  46.1169719  97.3629160
  28.2963300  46.7754523  96.9807213  28.6100563  45.2947064  96.9516578
  27.3268197  45.5174777  99.5650481  27.8267976  45.6291311  98.7564799
  27.9703805  45.2135830 100.2051289  21.3850193  53.4253407 112.4518322
  20.9017275  54.2253767 112.6582211  21.4711132  53.4361351 111.4985766
  14.6536153  55.2581786 100.3740141  14.6306841  55.3569473  99.4222024
  14.9636789  56.1046937 100.6957307  17.3123530  57.3157941 104.4886755
  18.2666784  57.2841884 104.4216687  17.1136054  56.8548565 105.3036981
  17.9022913  55.8859057 107.0557553  18.7215802  56.3803136 107.0792390
  18.1759720  54.9691025 107.0275121  27.6589509  48.2769810  96.4185509
  26.7715364  48.5619460  96.2005703  28.0743498  48.1163573  95.5712785
  31.0104045  48.3016331 100.1339848  31.7864435  48.7912783 100.4064465
  30.2852179  48.7274385 100.5911717  33.4476604  49.0143950 101.1913788
  34.0421094  48.7739686 100.4807097  33.5203187  48.2951080 101.8187325
  15.6673759  62.8577561 101.5056953  15.5328227  62.0977962 100.9394951
  15.2505822  63.5818461 101.0385742  26.8032722  58.0414484  90.5133529
  27.5068572  58.2464487  91.1291184  26.0795371  58.6091246  90.7782612
  27.6330533  53.7924346  96.6335799  27.5765734  54.2492897  95.7943431
  28.1858875  53.0315030  96.4558641  31.4435338  49.5814077  97.4585918
  31.1872273  49.1810713  98.2894126  30.8188206  50.2957871  97.3336057
  18.8242885  63.7546878 101.7175396  18.7075269  64.6992310 101.6154086
  18.0035331  63.4520439 102.1061195  13.1557827  50.2197191 107.7549750
  13.8016690  49.7096145 108.2436975  12.9474978  50.9565873 108.3293175
  25.6811219  57.2878039 113.2541891  26.5502379  57.4618691 112.8928526
  25.2017971  58.1072455 113.1317620  21.6761437  44.4837236  93.5073646
  21.6640107  45.4279076  93.6641917  22.5684859  44.3007381  93.2133107
  19.8497399  64.4075140 104.9331324  20.7524646  64.4398750 105.2497819
  19.6234769  63.4775591 104.9477660  21.6051001  63.1606126 101.5941403
  20.6546632  63.1607988 101.4805775  21.9083487  62.4138861 101.0777438
  25.4913557  41.0780012  97.7619583  24.7245953  40.5238499  97.9076265
  25.9024262  41.1501881  98.6233735  34.6313184  70.1028944 108.5534896
  34.6201825  69.7081743 107.6815399  34.7933824  69.3695017 109.1468667
  27.5544649  72.2980761 101.4229801  28.3465941  71.9571585 101.0076101
  27.7941299  72.4075736 102.3431955  31.3520445  72.8866056 107.5014080
  31.0610311  73.7911687 107.3860746  31.9877430  72.9282584 108.2158149
  32.2776652  70.2642905 104.0915439  32.8740224  70.0398927 103.3772402
  32.3351624  69.5227650 104.6940887  27.1231623  68.6674542 101.3644367
  27.2524004  68.9209021 102.2783778  26.4429074  69.2602250 101.0449022
  31.2931110  79.3371792  97.4634841  31.2155140  80.2879617  97.5423321
  30.6892754  78.9917665  98.1209767  33.7848340  66.5099657 110.1196208
  33.0081674  67.0693578 110.1099072  34.4238903  66.9956440 110.6411078
  32.0394712  69.3185111 109.6814175  32.7809397  69.8570155 109.4048998
  31.3331698  69.9451400 109.8385727  37.5150052  71.4614251 108.2786336
  37.9233408  71.0196662 107.5340969  36.7927313  70.8866879 108.5320529
  33.8681122  66.3986858 105.6519893  34.7142317  66.8226272 105.7954542
  33.8079759  65.7420482 106.3458456  38.9719030  70.6029839 105.9878332
  39.1835925  71.2461599 105.3112714  38.9248778  69.7692155 105.5200263
  30.7756076  66.4724759 110.4829485  30.1454736  67.1541040 110.7164882
  30.6692164  66.3607841 109.5382623  26.0701048  66.1396555 101.4095409
  25.2800102  66.3954084 100.9335520  26.5612296  66.9544893 101.5147450
  28.0215794  66.5041134  98.3678886  27.2246957  66.6159829  98.8862381
  27.7941386  66.8427787  97.5019776  33.8521461  73.0285838 106.3161400
  33.9165894  73.4906245 107.1519572  33.1432385  72.3983202 106.4443710
  24.3538751  66.3927046 103.8410400  24.6046790  67.2774055 104.1067976
  24.8898300  66.2131647 103.0685492  30.0536819  60.7745525 112.8454736
  29.6603764  60.2211723 113.5202380  30.8702959  61.0856103 113.2361253
  27.0198876  72.2129383  96.7568306  27.5323397  73.0072633  96.9073870
  27.6721589  71.5155674  96.6901907  28.8293761  75.3295139  98.8391059
  29.0060389  76.2513104  98.6512043  29.6250595  75.0153559  99.2685439
  32.9704780  62.1903404 110.4374992  33.7114493  62.7910557 110.3579455
  33.2022702  61.4481042 109.8793035  28.1146118  67.3759771 108.7153222
  27.9999633  66.4745028 109.0160321  27.2590635  67.6223468 108.3638039
  35.1937955  75.3177512 110.3140723  34.7501810  74.5313890 109.9961627
  35.8555169  75.5056662 109.6484614  29.9525077  76.8473313 104.8401401
  30.5032502  76.7190376 104.0678395  29.1136552  77.1468202 104.4896294
  37.2919193  75.5980311 108.3422124  37.2737669  76.4189193 107.8502393
  38.2139113  75.4734387 108.5672265  33.7492248  73.1124441 109.1845632
  34.2820584  72.3512729 108.9544940  33.2206329  72.8198093 109.9269787
  24.9847793  70.5418037  97.5327876  25.8223015  70.9515046  97.3161584
  25.1626061  69.6017480  97.5028070  30.1733275  64.9334561  93.0766941
  29.3370587  65.2709247  93.3976216  30.0338045  64.7983541  92.1394078
  25.0073964  67.8808753  98.2038610  24.8098364  67.2878113  97.4789676
  24.4520628  67.5760963  98.9214549  36.5237260  66.8550743 106.9138476
  36.8786647  67.0822217 107.7732941  37.1709391  67.1869120 106.2915731
  30.4177123  63.9627274 103.6984817  31.0576502  63.8216034 103.0007780
  29.5854653  63.6761788 103.3223419  27.5020190  67.4072787  95.8879562
  26.5717778  67.3457242  96.1049524  27.5977662  66.8848739  95.0916203
  28.8930664  65.3465357 105.6456628  29.5653718  65.1382719 104.9969277
  28.0660451  65.1487443 105.2061860  34.7956236  61.9727298 107.6622289
  34.1484151  62.6717247 107.5686765  35.5657252  62.4063441 108.0298537
  38.2035034  72.2376150 110.7372842  38.0520541  72.0086701 109.8202926
  38.1939714  73.1946751 110.7504187  34.9720371  69.8108062 105.7219109
  35.9012431  69.9619222 105.5488076  34.5511401  69.8992083 104.8667755
  34.3656854  78.9367823  94.8343183  34.5408610  78.4655866  95.6488805
  33.6789643  79.5633590  95.0624443  29.2958162  68.6207960 106.4059065
  29.1577960  67.8888198 107.0070604  30.2063085  68.5316860 106.1243253
  31.9240462  68.3327919 105.8942745  32.6340081  67.6921111 105.8529363
  31.8809770  68.5840814 106.8168926  39.9127241  75.2695272 108.8149324
  39.8539787  74.5854492 108.1479907  40.3146759  76.0114262 108.3629950
  30.6369396  65.3193137 107.7138384  30.1006753  64.8683875 108.3659981
  30.0486105  65.4539046 106.9708849  28.9317940  82.0857186 101.6083043
  29.1714538  82.7175710 102.2862061  28.0887136  81.7345226 101.8948402
  30.0471655  64.7781788  90.2764848  29.1701122  64.6570589  89.9127095
  30.5229408  63.9867866  90.0243737  21.5673795  69.5658948 100.3706355
  22.2544835  69.2520678  99.7827370  21.4121924  70.4700313 100.0973607
  26.3708518  64.4549144 104.7991379  26.2866706  63.8474814 104.0641789
  25.5491224  64.9458163 104.8000875  33.4445802  77.8936309 104.0124547
  33.3715973  78.6991280 104.5243851  33.0023195  78.0928274 103.1872568
  35.9044485  77.7923143 106.1682706  36.6172457  78.4270607 106.0958607
  35.4134514  77.8887009 105.3522707  30.9556399  75.5417586 106.9888276
  31.6565858  76.1754069 107.1417671  30.4851514  75.8832318 106.2283916
  38.7557685  68.0962193 104.8140827  38.1029135  68.3438101 104.1593280
  39.1338065  67.2826332 104.4803304  34.8045258  68.8382005 111.3006864
  34.1285895  68.7376134 111.9709239  35.6272892  68.6821218 111.7642861
  26.5524117  75.0753941 103.9219379  27.1377554  74.3297629 104.0547283
  26.3548955  75.3857898 104.8056043  29.4062772  78.1105188  98.9381821
  28.7373147  78.5951316  98.4545862  29.2675642  78.3574409  99.8525200
  21.1441771  67.6459541 102.6423822  21.1825871  67.1123132 103.4360940
  20.6382064  67.1194747 102.0234799  33.5468041  80.1448932 105.5364480
  34.0986349  80.3080553 106.3013565  33.8874234  80.7353370 104.8644505
  28.5232534  62.4924082 106.1386365  28.5873860  63.3538913 105.7263762
  28.4599654  61.8798083 105.4058723  27.9984806  64.5647214 109.7859399
  28.6256845  64.1824292 110.3996923  27.1412725  64.3461416 110.1515091
  38.3978915  74.9710189 111.3913134  38.9418819  75.5840148 110.8968089
  37.8165760  75.5289768 111.9080147  24.7750349  66.3723643  95.7177754
  25.0703790  65.4634322  95.6644807  23.8738385  66.3511383  95.3958756
  28.3044596  64.4479640 101.7005302  27.5831182  65.0615608 101.5612776
  29.0937852  64.9837405 101.6221948  31.1070910  61.7834066 107.9745954
  31.6305311  62.0296363 108.7372263  30.8883243  62.6154101 107.5549091
  26.5038191  64.0537741  95.8417079  26.1750897  63.1735120  95.6592185
  26.8577561  63.9985410  96.7293468  32.3123455  62.7247762 105.6595624
  31.9720275  61.9255575 106.0616304  31.6062461  63.0249472 105.0872458
  32.9639926  59.8097074 104.1122948  33.7865996  59.3357552 103.9901838
  33.2077990  60.5887558 104.6121634  24.9624167  69.0421539 104.8602587
  24.4177635  69.8181347 104.9922862  25.8403517  69.3892344 104.7021709
  25.7490189  68.1691435 107.7532744  25.0071925  68.3174071 108.3397375
  25.4282934  68.4299701 106.8899494  33.6933852  77.7107414 107.5513134
  34.0020978  77.4656560 108.4235834  34.4909334  77.9154052 107.0632004
  33.7154464  79.8645323  99.7818511  33.2759454  79.3721702 100.4751367
  34.4662581  79.3218291  99.5410586  26.1946803  76.0556864  99.7843139
  27.0204823  75.7560636  99.4041782  25.8440855  75.2864486 100.2332927
  31.1628336  75.4083332 101.8540812  30.5408345  74.7454037 101.5543040
  31.8333203  75.4344464 101.1714460  24.3955408  73.9743191 100.7432072
  23.5587316  73.5465365 100.5616074  24.3679053  74.1675634 101.6802864
  31.2352864  63.8865120 111.4473318  31.2841019  64.7627243 111.0651088
  31.7775378  63.3442513 110.8744962  41.7207709  74.4306244 110.7274456
  40.9303253  74.4130382 110.1878955  41.4841064  74.9694537 111.4823492
  41.8405584  71.2798710 108.0407184  41.8903589  71.1148717 108.9822707
  41.7319508  70.4125969 107.6505065  39.1309347  67.2629638 109.3566491
  40.0319209  67.1236103 109.0650489  39.2057321  67.4284093 110.2964668
  33.4652152  64.6396493 108.2019677  32.5955461  64.9330059 107.9302266
  33.7011632  65.2236938 108.9226941  43.3423781  73.6995651 108.2849206
  43.0508589  74.0625632 109.1212667  42.7295912  72.9862660 108.1062538
  41.5910969  68.8228266 106.7529264  42.0665091  69.0155912 105.9448115
  40.6676535  68.8787452 106.5072647  28.4794476  69.9852433  96.3360342
  28.2340518  69.0814763  96.5340552  28.6490391  69.9869584  95.3939820
  27.7490124  65.7180791  93.8346503  27.0559368  65.7925146  93.1786539
  27.5041875  64.9541134  94.3568020  34.4922740  71.8413945 111.6027730
  35.4125749  72.0192544 111.7967776  34.4572323  70.8969990 111.4507429
  23.7104905  67.0352539 100.5281004  23.3907689  66.1817847 100.2355378
  23.1638333  67.2501117 101.2838972  27.4884812  69.7514980 104.2450511
  27.7070822  70.6832087 104.2638545  27.9010586  69.3922954 105.0305315
  32.3612677  65.3248185 113.6353260  32.2609404  66.2742542 113.5665351
  32.1434219  64.9966424 112.7629330  31.5625749  62.5733110  90.2193937
  32.4244913  62.8988009  90.4789755  31.7476093  61.7864606  89.7067003
  23.5793165  70.6555450 102.4974126  22.8856636  70.2409403 101.9844080
  24.3266156  70.6975987 101.9007545  32.2243947  68.7545324 112.4518322
  31.7411029  69.5545684 112.6582211  32.3104887  68.7653269 111.4985766
  25.4929907  70.5873704 100.3740141  25.4700595  70.6861391  99.4222024
  25.8030544  71.4338855 100.6957307  28.1517285  72.6449859 104.4886755
  29.1060539  72.6133801 104.4216687  27.9529809  72.1840483 105.3036981
  28.7416667  71.2150975 107.0557553  29.5609556  71.7095054 107.0792390
  29.0153475  70.2982943 107.0275121  26.5067514  78.1869478 101.5056953
  26.3721982  77.4269879 100.9394951  26.0899576  78.9110378 101.0385742
  29.6636640  79.0838795 101.7175396  29.5469024  80.0284228 101.6154086
  28.8429086  78.7812357 102.1061195  23.9951581  65.5489109 107.7549750
  24.6410445  65.0388063 108.2436975  23.7868732  66.2857790 108.3293175
  36.5204974  72.6169956 113.2541891  37.3896133  72.7910609 112.8928526
  36.0411725  73.4364373 113.1317620  30.6891154  79.7367057 104.9331324
  31.5918400  79.7690668 105.2497819  30.4628524  78.8067508 104.9477660
  32.4444756  78.4898044 101.5941403  31.4940387  78.4899905 101.4805775
  32.7477242  77.7430778 101.0777438  28.3349072  62.6956726 111.8524764
  29.1980534  62.3393531 112.0628089  27.7614483  62.3570621 112.5400169
  45.4706939  85.4320862 108.5534896  45.4595579  85.0373660 107.6815399
  45.6327578  84.6986935 109.1468667  38.3938403  87.6272678 101.4229801
  39.1859695  87.2863503 101.0076101  38.6335053  87.7367653 102.3431955
  42.1914200  88.2157974 107.5014080  41.9004066  89.1203605 107.3860746
  42.8271184  88.2574501 108.2158149  43.1170407  85.5934822 104.0915439
  43.7133979  85.3690845 103.3772402  43.1745378  84.8519568 104.6940887
  50.6572565  75.7006843 105.0967960  50.3255890  76.5702254 104.8729175
  50.0618179  75.3843127 105.7761991  47.1504085  87.9019389 104.4963873
  46.8504808  88.8044428 104.3879680  46.8055144  87.6351573 105.3485026
  42.1324865  94.6663710  97.4634841  42.0548894  95.6171535  97.5423321
  41.5286508  94.3209582  98.1209767  44.6242094  81.8391575 110.1196208
  43.8475428  82.3985495 110.1099072  45.2632657  82.3248358 110.6411078
  52.4162875  78.6218368 103.9539184  51.7737255  78.9150901 103.3078979
  51.9117803  78.5071288 104.7592381  42.8788467  84.6477029 109.6814175
  43.6203151  85.1862072 109.4048998  42.1725452  85.2743317 109.8385727
  48.3543806  86.7906169 108.2786336  48.7627162  86.3488580 107.5340969
  47.6321068  86.2158797 108.5320529  48.6772621  87.3507360 102.0338625
  48.0481483  87.5153074 101.3314693  48.2898283  87.7648969 102.8049589
  52.5561853  88.2861797  99.3882989  51.8712891  88.6660699  98.8380022
  52.6405702  88.8957124 100.1214937  47.8574322  79.3883144 107.3101067
  47.6135254  80.1425205 106.7735343  48.1334252  79.7668492 108.1448314
  41.6149830  81.8016677 110.4829485  40.9848491  82.4832958 110.7164882
  41.5085918  81.6899758 109.5382623  50.9258612  88.8093712 104.1600690
  51.7476056  88.4073899 103.8783371  50.9221015  88.7061946 105.1116806
  44.6915216  88.3577755 106.3161400  44.7559648  88.8198162 107.1519572
  43.9826140  87.7275120 106.4443710  35.1932506  81.7218963 103.8410400
  35.4440544  82.6065973 104.1067976  35.7292054  81.5423565 103.0685492
  59.0164605  85.1532460 100.5085661  58.2628314  84.5839858 100.3529666
  59.1512147  85.1195125 101.4556296  40.8930573  76.1037443 112.8454736
  40.4997519  75.5503641 113.5202380  41.7096713  76.4148021 113.2361253
  37.8592631  87.5421301  96.7568306  38.3717151  88.3364551  96.9073870
  38.5115344  86.8447591  96.6901907  39.6687516  90.6587057  98.8391059
  39.8454144  91.5805022  98.6512043  40.4644349  90.3445476  99.2685439
  43.8098534  77.5195322 110.4374992  44.5508247  78.1202475 110.3579455
  44.0416457  76.7772959 109.8793035  38.9539872  82.7051689 108.7153222
  38.8393387  81.8036946 109.0160321  38.0984390  82.9515386 108.3638039
  46.0331710  90.6469429 110.3140723  45.5895564  89.8605808 109.9961627
  46.6948923  90.8348580 109.6484614  40.7918831  92.1765231 104.8401401
  41.3426256  92.0482294 104.0678395  39.9530307  92.4760120 104.4896294
  48.1312948  90.9272229 108.3422124  48.1131423  91.7481110 107.8502393
  49.0532868  90.8026304 108.5672265  44.5886002  88.4416359 109.1845632
  45.1214339  87.6804647 108.9544940  44.0600083  88.1490010 109.9269787
  47.7555697  73.5476425 104.7139274  47.4119966  74.4378066 104.6378385
  48.1234660  73.3578082 103.8508859  35.8241548  85.8709955  97.5327876
  36.6616770  86.2806963  97.3161584  36.0019815  84.9309397  97.5028070
  48.9531755  90.9378242  98.9264393  49.2454729  91.4983300  98.2076759
  49.4630376  91.2306803  99.6817552  35.8467719  83.2100670  98.2038610
  35.6492119  82.6170031  97.4789676  35.2914383  82.9052881  98.9214549
  43.9165380  91.7158594 100.0157846  43.8741559  91.9419440  99.0866378
  44.8328079  91.4821968 100.1643648  53.1198131  87.3737624 102.6299076
  53.5534637  87.2812913 103.4782130  53.8329711  87.3495124 101.9919092
  46.8526025  90.9739718 104.1632177  46.9063048  91.5430654 104.9309893
  45.9840807  91.1441603 103.7986214  53.9813680  87.4161325 105.1631962
  54.1749570  88.3207135 105.4091236  53.8814298  86.9568744 105.9970547
  45.6349991  77.3019215 107.6622289  44.9877906  78.0009165 107.5686765
  46.4051006  77.7355359 108.0298537  49.0428789  87.5668067 110.7372842
  48.8914295  87.3378619 109.8202926  49.0333468  88.5238669 110.7504187
  45.8114125  85.1399980 105.7219109  46.7406185  85.2911140 105.5488076
  45.3905155  85.2284001 104.8667755  44.6102457  89.1650645 103.4917646
  44.4713543  88.7969429 104.3643584  43.8217053  89.6798284 103.3201604
  45.2050609  94.2659741  94.8343183  45.3802365  93.7947784  95.6488805
  44.5183397  94.8925507  95.0624443  40.1351916  83.9499877 106.4059065
  39.9971714  83.2180116 107.0070604  41.0456840  83.8608777 106.1243253
  50.7520995  90.5987190 108.8149324  50.6933542  89.9146410 108.1479907
  51.1540514  91.3406180 108.3629950  41.4763151  80.6485054 107.7138384
  40.9400508  80.1975793 108.3659981  40.8879859  80.7830963 106.9708849
  39.7711694  97.4149104 101.6083043  40.0108292  98.0467628 102.2862061
  38.9280891  97.0637144 101.8948402  50.7538403  88.5626774 107.0463304
  49.8665181  88.2252696 107.1689703  51.3236954  87.8309805 107.2832069
  32.4067550  84.8950866 100.3706355  33.0938590  84.5812596  99.7827370
  32.2515679  85.7992230 100.0973607  37.2102272  79.7841062 104.7991379
  37.1260461  79.1766732 104.0641789  36.3884978  80.2750080 104.8000875
  44.2839556  93.2228226 104.0124547  44.2109728  94.0283198 104.5243851
  43.8416949  93.4220192 103.1872568  44.0729336  92.4599996  97.5227368
  43.2896858  93.0021676  97.6165593  44.7722081  92.9773976  97.9221610
  46.7438240  93.1215060 106.1682706  47.4566212  93.7562525 106.0958607
  46.2528268  93.2178926 105.3522707  41.7950153  90.8709504 106.9888276
  42.4959613  91.5045987 107.1417671  41.3245268  91.2124235 106.2283916
  46.5558613  93.4613804  98.9168997  46.7381008  92.6435460  99.3796749
  47.3791599  93.6781497  98.4793887  46.8900779  92.3881989  96.1784046
  47.4188545  91.8774444  95.5654208  47.1528998  92.0724520  97.0429579
  45.6439012  84.1673922 111.3006864  44.9679649  84.0668052 111.9709239
  46.4666646  84.0113136 111.7642861  37.3917871  90.4045859 103.9219379
  37.9771308  89.6589547 104.0547283  37.1942710  90.7149815 104.8056043
  40.2456526  93.4397106  98.9381821  39.5766902  93.9243234  98.4545862
  40.1069396  93.6866327  99.8525200  31.9835526  82.9751459 102.6423822
  32.0219625  82.4415050 103.4360940  31.4775819  82.4486664 102.0234799
  44.3861795  95.4740850 105.5364480  44.9380103  95.6372471 106.3013565
  44.7267989  96.0645287 104.8644505  39.3626288  77.8215999 106.1386365
  39.4267615  78.6830830 105.7263762  39.2993409  77.2090001 105.4058723
  38.8378561  79.8939132 109.7859399  39.4650600  79.5116209 110.3996923
  37.9806480  79.6753334 110.1515091  49.2372669  90.3002107 111.3913134
  49.7812573  90.9132065 110.8968089  48.6559514  90.8581686 111.9080147
  47.5230182  93.4222825 102.5228162  47.3981322  92.6212565 102.0139107
  48.1809273  93.9169019 102.0342132  49.5865091  91.2231845 104.1507712
  48.6395426  91.1037196 104.0786039  49.9347864  90.3354343 104.2333974
  41.9464664  77.1125984 107.9745954  42.4699066  77.3588281 108.7372263
  41.7276997  77.9446019 107.5549091  46.5911524  91.0184561 100.3512064
  46.4436486  90.0901269 100.5319634  47.4165018  91.0404652  99.8669140
  50.1945646  91.8413120 101.4376937  51.1192193  91.6355982 101.3001388
  50.0260949  91.5929521 102.3466279  35.8017922  84.3713457 104.8602587
  35.2571390  85.1473265 104.9922862  36.6797272  84.7184261 104.7021709
  36.5883944  83.4983353 107.7532744  35.8465680  83.6465988 108.3397375
  36.2676688  83.7591619 106.8899494  44.5327606  93.0399331 107.5513134
  44.8414733  92.7948478 108.4235834  45.3303088  93.2445970 107.0632004
  44.5548218  95.1937241  99.7818511  44.1153209  94.7013620 100.4751367
  45.3056335  94.6510209  99.5410586  37.0340557  91.3848782  99.7843139
  37.8598577  91.0852554  99.4041782  36.6834609  90.6156404 100.2332927
  42.0022091  90.7375250 101.8540812  41.3802100  90.0745955 101.5543040
  42.6726957  90.7636382 101.1714460  35.2349162  89.3035108 100.7432072
  34.3981071  88.8757283 100.5616074  35.2072808  89.4967552 101.6802864
  42.0746618  79.2157038 111.4473318  42.1234774  80.0919161 111.0651088
  42.6169132  78.6734431 110.8744962  52.5601464  89.7598161 110.7274456
  51.7697007  89.7422300 110.1878955  52.3234818  90.2986455 111.4823492
  52.6799339  86.6090628 108.0407184  52.7297344  86.4440635 108.9822707
  52.5713262  85.7417887 107.6505065  44.3045907  79.9688410 108.2019677
  43.4349216  80.2621976 107.9302266  44.5405387  80.5528855 108.9226941
  54.1817536  89.0287569 108.2849206  53.8902344  89.3917550 109.1212667
  53.5689667  88.3154577 108.1062538  47.0084940  76.1868027 105.7185097
  47.5266884  76.9229054 105.3931586  46.6540073  76.4932021 106.5531857
  49.1520772  78.1141527 105.1716970  48.5570704  78.3946540 104.4763459
  48.8670469  78.6035428 105.9433711  59.4271020  85.3108070 103.2405906
  60.1574409  85.0493358 103.8013609  58.8177966  84.5736792 103.2807974
  57.5086318  83.4515933 103.8380357  56.7819481  83.3171898 103.2296848
  57.0933604  83.7592762 104.6437075  45.3316494  87.1705863 111.6027730
  46.2519504  87.3484462 111.7967776  45.2966077  86.2261908 111.4507429
  34.5498659  82.3644456 100.5281004  34.2301443  81.5109764 100.2355378
  34.0032087  82.5793034 101.2838972  38.3278567  85.0806897 104.2450511
  38.5464576  86.0124005 104.2638545  38.7404340  84.7214872 105.0305315
  43.2006432  80.6540103 113.6353260  43.1003159  81.6034460 113.5665351
  42.9827974  80.3258342 112.7629330  34.4186919  85.9847368 102.4974126
  33.7250390  85.5701321 101.9844080  35.1659910  86.0267904 101.9007545
  43.0637702  84.0837242 112.4518322  42.5804784  84.8837602 112.6582211
  43.1498641  84.0945187 111.4985766  36.3323662  85.9165622 100.3740141
  36.3094350  86.0153309  99.4222024  36.6424298  86.7630772 100.6957307
  38.9911039  87.9741777 104.4886755  39.9454293  87.9425719 104.4216687
  38.7923563  87.5132400 105.3036981  39.5810422  86.5442893 107.0557553
  40.4003311  87.0386971 107.0792390  39.8547229  85.6274861 107.0275121
  37.3461268  93.5161396 101.5056953  37.2115736  92.7561797 100.9394951
  36.9293331  94.2402296 101.0385742  40.5030394  94.4130713 101.7175396
  40.3862778  95.3576146 101.6154086  39.6822840  94.1104275 102.1061195
  34.8345336  80.8781027 107.7549750  35.4804199  80.3679980 108.2436975
  34.6262487  81.6149708 108.3293175  47.3598728  87.9461874 113.2541891
  48.2289888  88.1202526 112.8928526  46.8805479  88.7656291 113.1317620
  41.5284908  95.0658975 104.9331324  42.4312155  95.0982585 105.2497819
  41.3022278  94.1359426 104.9477660  43.2838510  93.8189962 101.5941403
  42.3334141  93.8191823 101.4805775  43.5870996  93.0722696 101.0777438
  39.1742827  78.0248644 111.8524764  40.0374288  77.6685448 112.0628089
  38.6008237  77.6862538 112.5400169  59.0191204  99.6550500 102.6587165
  59.6569614  99.5357247 101.9550505  58.9012047 100.6031344 102.7175117
  55.8280910  99.6077928 102.5948690  55.4899422  99.4918993 101.7069225
  56.6970678  99.2069093 102.5749696  51.6867726 101.4613404  98.5845581
  51.1232591 101.3703341  97.8161869  51.5720121 100.6413309  99.0648074
  56.3100693 100.7612780 108.5534896  56.2989334 100.3665578 107.6815399
  56.4721332 100.0278852 109.1468667  49.2332158 102.9564596 101.4229801
  50.0253450 102.6155421 101.0076101  49.4728808 103.0659571 102.3431955
  57.2667284 105.1284372  93.8960046  56.6155264 105.7138453  93.5094060
  58.0611647 105.6590567  93.9555083  51.1922912 102.2173509  94.2947180
  51.9653788 101.6702496  94.1560056  51.5448310 103.0817759  94.5061642
  53.0307954 103.5449892 107.5014080  52.7397820 104.4495522 107.3860746
  53.6664939 103.5866419 108.2158149  53.9564161 100.9226740 104.0915439
  54.5527733 100.6982762 103.3772402  54.0139133 100.1811486 104.6940887
  53.5289189  98.3766175  91.9265630  53.7814710  97.8547697  91.1649093
  52.5913749  98.2132321  92.0292314  58.5732472  97.3801954  99.7340373
  59.3595561  96.9621377  99.3830790  58.8371177  98.2848046  99.9022022
  58.7442550 102.8174804  94.4329030  58.1088383 102.8909431  95.1449935
  58.4139956 103.4068403  93.7548109  63.9740899  97.3177187 100.6373352
  64.7066071  96.7476404 100.8711181  63.2180255  96.9298787 101.0779857
  53.2485478 100.2794281  94.1290005  53.1321736  99.6039185  94.7971089
  53.3587738  99.7926655  93.3122158  55.5917019  99.7404428  97.8336694
  55.2275226  99.2135049  98.5449616  56.4484135  99.3502898  97.6603180
  61.4966320  91.0298761 105.0967960  61.1649644  91.8994172 104.8729175
  60.9011933  90.7135045 105.7761991  55.2322506  94.7694328  92.8298043
  55.3996908  95.6374565  93.1968514  55.0419675  94.9321610  91.9059332
  57.9897839 103.2311307 104.4963873  57.6898562 104.1336346 104.3879680
  57.6448899 102.9643490 105.3485026  51.4410321  99.6825104 100.5300578
  50.5160817  99.5501318 100.7378269  51.6894734 100.4619323 101.0270520
  61.3894983  95.7493847 102.1761311  60.4811860  95.6809256 101.8820072
  61.3382579  96.2265792 103.0043136  55.2111727  97.2251986  93.8144710
  55.0911352  97.6709036  94.6530190  54.5164315  97.5737303  93.2558248
  48.8019132  99.3258377 101.3644367  48.9311513  99.5792856 102.2783778
  48.1216583  99.9186085 101.0449022  52.9718619 109.9955627  97.4634841
  52.8942649 110.9463453  97.5423321  52.3680263 109.6501500  98.1209767
  55.4635849  97.1683493 110.1196208  54.6869183  97.7277413 110.1099072
  56.1026412  97.6540276 110.6411078  63.2556629  93.9510286 103.9539184
  62.6131010  94.2442819 103.3078979  62.7511558  93.8363206 104.7592381
  60.9096793  97.6973459  94.6425044  61.8214649  97.9300846  94.4672741
  60.4006440  98.2810503  94.0800122  53.7182221  99.9768946 109.6814175
  54.4596905 100.5153990 109.4048998  53.0119207 100.6035235 109.8385727
  59.1937561 102.1198087 108.2786336  59.6020917 101.6780497 107.5340969
  58.4714822 101.5450714 108.5320529  55.5468631  97.0570693 105.6519893
  56.3929826  97.4810107 105.7954542  55.4867268  96.4004318 106.3458456
  59.5166375 102.6799277 102.0338625  58.8875238 102.8444991 101.3314693
  59.1292037 103.0940887 102.8049589  63.3955607 103.6153715  99.3882989
  62.7106645 103.9952617  98.8380022  63.4799457 104.2249042 100.1214937
  58.6968076  94.7175062 107.3101067  58.4529008  95.4717122 106.7735343
  58.9728007  95.0960409 108.1448314  60.6506539 101.2613674 105.9878332
  60.8623434 101.9045434 105.3112714  60.6036287 100.4275991 105.5200263
  58.2532768  93.8731495 102.8914905  57.3917247  94.1712748 103.1831642
  58.2795203  94.0901894 101.9595937  55.0694337 102.4173685  99.2988710
  55.5332683 102.6961388  98.5093333  54.8051135 101.5157130  99.1161801
  51.9618418 101.9645167 102.2368474  52.5319775 102.3932435 101.5985958
  52.5526530 101.6827752 102.9352659  54.0063223  98.5396838  96.1078275
  54.7087267  98.9917881  96.5752202  53.6743852  97.8980657  96.7358169
  52.4543585  97.1308594 110.4829485  51.8242245  97.8124875 110.7164882
  52.3479673  97.0191676 109.5382623  47.7488557  96.7980390 101.4095409
  46.9587611  97.0537919 100.9335520  48.2399805  97.6128728 101.5147450
  61.7652367 104.1385630 104.1600690  62.5869811 103.7365817 103.8783371
  61.7614770 104.0353864 105.1116806  49.7003303  97.1624970  98.3678886
  48.9034466  97.2743664  98.8862381  49.4728895  97.5011622  97.5019776
  55.5308970 103.6869673 106.3161400  55.5953403 104.1490080 107.1519572
  54.8219894 103.0567038 106.4443710  46.0326260  97.0510881 103.8410400
  46.2834299  97.9357891 104.1067976  46.5685809  96.8715482 103.0685492
  69.8558360 100.4824378 100.5085661  69.1022068  99.9131776 100.3529666
  69.9905901 100.4487043 101.4556296  55.2456988 105.3537780  96.1840381
  55.1102663 106.1989316  96.6125228  55.7866800 105.5557058  95.4206314
  51.7324328  91.4329360 112.8454736  51.3391273  90.8795559 113.5202380
  52.5490468  91.7439939 113.2361253  48.6986385 102.8713218  96.7568306
  49.2110906 103.6656469  96.9073870  49.3509098 102.1739509  96.6901907
  50.5081270 105.9878975  98.8391059  50.6847898 106.9096939  98.6512043
  51.3038104 105.6737394  99.2685439  54.6492289  92.8487239 110.4374992
  55.3902002  93.4494392 110.3579455  54.8810211  92.1064877 109.8793035
  49.7933627  98.0343607 108.7153222  49.6787142  97.1328864 109.0160321
  48.9378144  98.2807303 108.3638039  56.8725464 105.9761347 110.3140723
  56.4289319 105.1897725 109.9961627  57.5342678 106.1640497 109.6484614
  51.6312586 107.5057148 104.8401401  52.1820011 107.3774212 104.0678395
  50.7924061 107.8052037 104.4896294  58.9706702 106.2564147 108.3422124
  58.9525178 107.0773028 107.8502393  59.8926622 106.1318222 108.5672265
  55.4279757 103.7708276 109.1845632  55.9608093 103.0096564 108.9544940
  54.8993838 103.4781928 109.9269787  58.5949452  88.8768342 104.7139274
  58.2513721  89.7669984 104.6378385  58.9628414  88.6870000 103.8508859
  46.6635302 101.2001873  97.5327876  47.5010524 101.6098881  97.3161584
  46.8413570 100.2601315  97.5028070  58.5599734  98.8676953  93.2211709
  58.0446358  99.6381558  93.4600097  58.2877043  98.1942090  93.8444771
  56.1446845  93.7126654  98.2796948  55.2888442  93.3233505  98.1002586
  56.5573797  93.7918615  97.4196733  57.6745992  91.2472997 102.6788507
  57.1710788  91.2103133 101.8656313  57.9676599  92.1565740 102.7385164
  53.9188878  91.3311727 101.6854689  54.7841875  91.1354536 101.3260579
  53.9866387  91.1022079 102.6124046  63.5334008 101.6209308  95.1564883
  62.7563451 101.2820468  94.7120045  64.2125489 101.6261931  94.4819848
  58.3486037  96.7404045  95.0471490  58.0436173  97.0550195  95.8981634
  59.3016480  96.8185465  95.0898823  56.7932469 102.8994269  96.6964444
  56.2653831 102.1647028  96.3837682  56.2919972 103.6768945  96.4504413
  61.7725315 101.0943289 101.8131491  61.1148990 101.7842551 101.9011619
  62.5765714 101.4839721 102.1565477  51.5251197  93.5613935  99.0571056
  52.0994949  93.3389117  98.3244249  52.1122179  93.6302630  99.8099657
  60.5830774  99.4487662  99.8635432  61.0962656 100.0817654 100.3657142
  61.2331998  98.8488857  99.4978792  51.8520784  95.5918396  93.0766941
  51.0158096  95.9293083  93.3976216  51.7125554  95.4567376  92.1394078
  54.9385069 100.7174479  89.6999417  54.0312131 100.4863732  89.8990566
  55.4356101  99.9212098  89.8873399  57.8453148 109.4271986  92.6196104
  57.1714847 109.7303683  93.2281061  58.2318970 110.2301067  92.2701561
  57.0611605  96.9237118 102.1093773  56.1434166  97.1452065 101.9515461
  57.4771749  96.9983428 101.2505480  57.8446653  98.3228533  97.2396453
  58.5918472  98.8349930  96.9303575  58.1138242  98.0012586  98.1000847
  56.1173303 100.8187074  94.2223408  55.2084522 100.5346107  94.3195877
  56.1468387 101.2386152  93.3626714  61.3492570 104.4293663  97.9914575
  60.8954897 103.5884573  98.0479766  60.7186537 105.0655062  98.3289355
  60.2925490  95.3585649  99.2215243  59.5548247  94.8463036  99.5525485
  60.5452263  94.9186031  98.4098519  59.7925510 106.2670160  98.9264393
  60.0848484 106.8275217  98.2076759  60.3024130 106.5598721  99.6817552
  60.3937117  88.1361901  99.8157012  60.6995994  87.2759265  99.5282927
  61.1189722  88.7279522  99.6156006  46.6861473  98.5392588  98.2038610
  46.4885873  97.9461949  97.4789676  46.1308137  98.2344798  98.9214549
  54.6658197  98.4315695 100.3233203  54.7206807  97.4789531 100.2475679
  53.8549399  98.5875134 100.8074501  55.8149391 102.3595818  91.5611486
  55.3768821 101.6431677  91.1017123  56.5559832 102.5871932  90.9996577
  52.6050557  97.0492754  98.0823582  51.7918422  97.3486925  98.4888774
  53.1009551  96.6548443  98.7998064  54.7559135 107.0450511 100.0157846
  54.7135314 107.2711357  99.0866378  55.6721834 106.8113886 100.1643648
  58.2024769  97.5134579 106.9138476  58.5574156  97.7406052 107.7732941
  58.8496900  97.8452956 106.2915731  63.9322505 100.6353015  97.6187805
  63.7940404 100.8254611  96.6908994  63.5758724 101.3972397  98.0755856
  52.0964632  94.6211110 103.6984817  52.7364011  94.4799869 103.0007780
  51.2642162  94.3345623 103.3223419  63.9591885 102.7029542 102.6299076
  64.3928392 102.6104831 103.4782130  64.6723466 102.6787042 101.9919092
  52.8724936 103.9213540  99.8119809  53.6665534 103.4263860  99.6102384
  52.1616628 103.3931403  99.4487515  57.6919780 106.3031636 104.1632177
  57.7456802 106.8722572 104.9309893  56.8234561 106.4733521 103.7986214
  49.1807699  98.0656622  95.8879562  48.2505287  98.0041077  96.1049524
  49.2765171  97.5432575  95.0916203  49.0993248  94.5911435  98.4757803
  49.3600065  95.5056768  98.3666964  49.9210420  94.1235877  98.6254416
  50.5718173  96.0049192 105.6456628  51.2441227  95.7966554 104.9969277
  49.7447960  95.8071278 105.2061860  64.8207435 102.7453242 105.1631962
  65.0143325 103.6499053 105.4091236  64.7208053 102.2860661 105.9970547
  56.4743745  92.6311133 107.6622289  55.8271660  93.3301083 107.5686765
  57.2444761  93.0647277 108.0298537  59.8822543 102.8959985 110.7372842
  59.7308050 102.6670537 109.8202926  59.8727223 103.8530586 110.7504187
  56.6507880 100.4691898 105.7219109  57.5799940 100.6203057 105.5488076
  56.2298910 100.5575919 104.8667755  55.4496211 104.4942562 103.4917646
  55.3107297 104.1261347 104.3643584  54.6610808 105.0090202 103.3201604
  56.0444363 109.5951659  94.8343183  56.2196119 109.1239702  95.6488805
  55.3577151 110.2217425  95.0624443  57.0001427 103.8724165 100.8806484
  56.6651259 103.8324935 101.7764134  56.5005372 103.2068881 100.4076894
  50.9745671  99.2791795 106.4059065  50.8365469  98.5472034 107.0070604
  51.8850594  99.1900695 106.1243253  59.9360618 101.2180199  91.1543544
  59.3189789 100.4927027  91.0576596  59.4677107 101.9789560  90.8110618
  53.6027971  98.9911754 105.8942745  54.3127590  98.3504946 105.8529363
  53.5597279  99.2424649 106.8168926  61.5914750 105.9279108 108.8149324
  61.5327296 105.2438328 108.1479907  61.9934268 106.6698098 108.3629950
  52.3156905  95.9776972 107.7138384  51.7794262  95.5267711 108.3659981
  51.7273614  96.1122881 106.9708849  50.6105449 112.7441021 101.6083043
  50.8502047 113.3759546 102.2862061  49.7674645 112.3929061 101.8948402
  51.7259164  95.4365624  90.2764848  50.8488631  95.3154424  89.9127095
  52.2016917  94.6451702  90.0243737  61.5932157 103.8918692 107.0463304
  60.7058936 103.5544613 107.1689703  62.1630708 103.1601723 107.2832069
  43.2461304 100.2242783 100.3706355  43.9332344  99.9104513  99.7827370
  43.0909433 101.1284148 100.0973607  48.0496026  95.1132980 104.7991379
  47.9654215  94.5058649 104.0641789  47.2278733  95.6041998 104.8000875
  55.1233311 108.5520144 104.0124547  55.0503482 109.3575115 104.5243851
  54.6810704 108.7512110 103.1872568  54.9123090 107.7891914  97.5227368
  54.1290612 108.3313594  97.6165593  55.6115835 108.3065894  97.9221610
  58.2219740  93.5986543 100.1661574  58.7188440  92.8456506  99.8462644
  57.4506722  93.6350860  99.6004783  66.0749498  99.3026909 101.8079865
  66.0639374 100.1851624 101.4373798  65.2066877  98.9498460 101.6134402
  57.5831994 108.4506978 106.1682706  58.2959966 109.0854443 106.0958607
  57.0922023 108.5470844 105.3522707  59.3049521 102.3558231  97.7399997
  58.3705800 102.4759693  97.5704702  59.4826190 101.4530697  97.4760007
  54.8054709  95.7403926  99.8933258  54.4352497  95.1874967 100.5814164
  55.3013802  95.1362060  99.3408258  62.6922072  98.1975550  98.2750031
  63.1582525  99.0303541  98.2010334  63.1429573  97.7320531  98.9795290
  52.6343908 106.2001421 106.9888276  53.3353367 106.8337904 107.1417671
  52.1639023 106.5416153 106.2283916  60.7598304 104.5419371  95.2736183
  61.0358147 104.4275966  96.1830057  59.8902802 104.1436856  95.2348357
  60.6638735  90.5656137 102.3140933  59.7501815  90.7960364 102.4823140
  61.0931837  90.6494581 103.1654965  60.4345194  98.7546029 104.8140827
  59.7816644  99.0021936 104.1593280  60.8125574  97.9410167 104.4803304
  57.3952368 108.7905722  98.9168997  57.5774762 107.9727378  99.3796749
  58.2185354 109.0073414  98.4793887  57.7294533 107.7173907  96.1784046
  58.2582299 107.2066362  95.5654208  57.9922753 107.4016437  97.0429579
  56.4832767  99.4965840 111.3006864  55.8073404  99.3959969 111.9709239
  57.3060401  99.3405054 111.7642861  48.2311626 105.7337776 103.9219379
  48.8165063 104.9881464 104.0547283  48.0336464 106.0441733 104.8056043
  51.0850281 108.7689024  98.9381821  50.4160656 109.2535151  98.4545862
  50.9463151 109.0158244  99.8525200  42.8229280  98.3043377 102.6423822
  42.8613380  97.7706967 103.4360940  42.3169573  97.7778582 102.0234799
  55.2255550 110.8032767 105.5364480  55.7773858 110.9664389 106.3013565
  55.5661743 111.3937205 104.8644505  50.2020043  93.1507917 106.1386365
  50.2661369  94.0122748 105.7263762  50.1387163  92.5381919 105.4058723
  49.6772315  95.2231050 109.7859399  50.3044354  94.8408127 110.3996923
  48.8200234  95.0045252 110.1515091  46.4537858  97.0307479  95.7177754
  46.7491299  96.1218157  95.6644807  45.5525894  97.0095218  95.3958756
  58.3623937 108.7514743 102.5228162  58.2375076 107.9504483 102.0139107
  59.0203028 109.2460936 102.0342132  49.9832105  95.1063475 101.7005302
  49.2618691  95.7199443 101.5612776  50.7725361  95.6421240 101.6221948
  60.4258845 106.5523763 104.1507712  59.4789181 106.4329114 104.0786039
  60.7741618 105.6646261 104.2333974  52.7858419  92.4417902 107.9745954
  53.3092820  92.6880198 108.7372263  52.5670752  93.2737937 107.5549091
  48.1825700  94.7121576  95.8417079  47.8538406  93.8318955  95.6592185
  48.5365070  94.6569245  96.7293468  57.4305279 106.3476479 100.3512064
  57.2830241 105.4193187 100.5319634  58.2558772 106.3696570  99.8669140
  51.2967523  94.9994546  96.2092556  51.6363595  95.5280467  95.4871165
  51.7439643  95.3374952  96.9851123  61.0339400 107.1705038 101.4376937
  61.9585948 106.9647899 101.3001388  60.8654704 106.9221439 102.3466279
  53.9910964  93.3831597 105.6595624  53.6507784  92.5839410 106.0616304
  53.2849970  93.6833308 105.0872458  54.6427435  90.4680909 104.1122948
  55.4653505  89.9941388 103.9901838  54.8865499  91.2471393 104.6121634
  53.2835670  93.4969168  94.4085849  54.0044032  93.8750421  93.9049566
  52.6600974  94.2158045  94.5120827  57.4266793  94.2014317  95.3444182
  57.6430407  95.0838955  95.0433010  56.9460860  93.8100530  94.6149824
  52.1666014  97.1600030 101.9214926  52.0210595  97.4740333 102.8139208
  51.6891218  97.7784930 101.3685825  54.0262397  94.1502578 101.9695816
  54.0123966  93.2543671 101.6328114  54.7434825  94.1573242 102.6034102
  55.8788528  94.5839918 104.0148943  55.6206306  95.5056989 104.0133274
  55.3473568  94.1870353 104.7049407  60.8234717 107.6890705  96.7939029
  60.9971594 107.1237128  96.0412881  61.3163608 108.4891600  96.6118518
  46.6411676  99.7005374 104.8602587  46.0965144 100.4765182 104.9922862
  47.5191026 100.0476179 104.7021709  53.4299293  93.0316958  97.2383386
  53.5515204  92.1033604  97.4374273  53.1401335  93.0455644  96.3261701
  56.2990483  90.7171869 100.3750106  56.3212180  90.7811202  99.4202085
  56.7158542  89.8776377 100.5690612  66.6774108 100.4527128  98.4129328
  67.1205254  99.7034453  98.0148452  65.8000618 100.4437265  98.0303060
  61.8109889 107.0057470  93.8935927  62.5060794 107.6264162  94.1123241
  62.1533039 106.1552821  94.1688305  47.4277698  98.8275271 107.7532744
  46.6859434  98.9757906 108.3397375  47.1070443  99.0883536 106.8899494
  63.7101312 104.4557175  95.4223258  64.2352636 104.7944448  94.6972578
  63.6223665 103.5204191  95.2386392  55.3721361 108.3691249 107.5513134
  55.6808487 108.1240396 108.4235834  56.1696843 108.5737887 107.0632004
  55.3941973 110.5229159  99.7818511  54.9546963 110.0305537 100.4751367
  56.1450090 109.9802126  99.5410586  47.8734312 106.7140699  99.7843139
  48.6992332 106.4144471  99.4041782  47.5228364 105.9448322 100.2332927
  52.8415845 106.0667168 101.8540812  52.2195854 105.4037873 101.5543040
  53.5120712 106.0928300 101.1714460  46.0742917 104.6327026 100.7432072
  45.2374825 104.2049200 100.5616074  46.0466562 104.8259469 101.6802864
  52.9140373  94.5448956 111.4473318  52.9628528  95.4211078 111.0651088
  53.4562887  94.0026349 110.8744962  63.5193093 101.9382545 108.0407184
  63.5691098 101.7732553 108.9822707  63.4107017 101.0709804 107.6505065
  52.4029352 104.6171091  95.3299273  52.5517472 105.3006555  94.6765946
  53.2095795 104.5976181  95.8448729  60.8096856  97.9213473 109.3566491
  61.7106718  97.7819938 109.0650489  60.8844830  98.0867928 110.2964668
  55.1439661  95.2980328 108.2019677  54.2742970  95.5913894 107.9302266
  55.3799141  95.8820773 108.9226941  65.0211290 104.3579487 108.2849206
  64.7296098 104.7209467 109.1212667  64.4083421 103.6446495 108.1062538
  66.2206972 101.9232367 100.8051776  67.0553864 102.3622171 100.9689336
  66.3566101 101.4471020  99.9860022  63.2698478  99.4812101 106.7529264
  63.7452600  99.6739748 105.9448115  62.3464044  99.5371287 106.5072647
  50.1581985 100.6436269  96.3360342  49.9128027  99.7398599  96.5340552
  50.3277899 100.6453419  95.3939820  57.8478695  91.5159945 105.7185097
  58.3660639  92.2520972 105.3931586  57.4933828  91.8223938 106.5531857
  49.4277632  96.3764626  93.8346503  48.7346877  96.4508981  93.1786539
  49.1829384  95.6124970  94.3568020  58.0991289  87.9360228 101.2385994
  58.3793043  87.2683417 101.8646421  58.8841896  88.1289323 100.7260658
  55.9024757 107.1119221  92.8011020  55.3298725 107.7309409  92.3481492
  56.4757551 107.6618583  93.3350942  61.9700147  96.3577862 104.9857569
  62.9217570  96.4575959 105.0069793  61.8003598  95.5656130 105.4955654
  59.9914527  93.4433445 105.1716970  59.3964459  93.7238457 104.4763459
  59.7064224  93.9327346 105.9433711  59.1222017 107.3956372  93.9319603
  60.0552690 107.3301933  94.1352478  59.0345230 108.2312638  93.4734135
  61.7510034 106.7122242  90.8923550  61.6723665 106.3782105  91.7859308
  62.5719701 107.2044010  90.8915023  64.4488225  99.5783981 104.0999869
  64.4164545  98.6399982 104.2859553  65.0588849  99.6568018 103.3665694
  56.2871556  98.4480034  90.1427073  57.2330661  98.3186242  90.2115491
  55.9085801  97.7094696  90.6196501  64.5982714  96.3695025 104.1458152
  64.0821762  95.5853481 103.9588081  65.4822662  96.0413741 104.3104671
  62.2593441  90.1136040 100.1053965  62.0618262  89.8051128 100.9897297
  62.8693146  90.8397679 100.2351895  70.2664775 100.6399988 103.2405906
  70.9968163 100.3785276 103.8013609  69.6571720  99.9028710 103.2807974
  68.3480072  98.7807851 103.8380357  67.6213236  98.6463816 103.2296848
  67.9327359  99.0884679 104.6437075  56.1710249 102.4997780 111.6027730
  57.0913258 102.6776379 111.7967776  56.1359832 101.5553826 111.4507429
  54.4714473  96.3730011  90.0781958  53.5645929  96.0763123  90.1544672
  54.7490454  96.0759829  89.2116244  45.3892414  97.6936374 100.5281004
  45.0695198  96.8401682 100.2355378  44.8425842  97.9084952 101.2838972
  49.1672321 100.4098815 104.2450511  49.3858331 101.3415923 104.2638545
  49.5798095 100.0506789 105.0305315  56.0876539  90.9166900  96.2326199
  55.2777267  90.5713985  96.6081445  56.7760956  90.6074444  96.8213811
  58.0167087  89.9944947  97.8550496  58.5698126  90.4140401  98.5140519
  58.2537174  89.0680695  97.8973452  54.0400186  95.9832021 113.6353260
  53.9396913  96.9326378 113.5665351  53.8221728  95.6550260 112.7629330
  45.2580674 101.3139285 102.4974126  44.5644145 100.8993238 101.9844080
  46.0053665 101.3559822 101.9007545  61.3945894  92.1045472  97.3629160
  60.8144563  92.7630276  96.9807213  61.1281827  91.2822817  96.9516578
  59.8449461  91.5050530  99.5650481  60.3449239  91.6167064  98.7564799
  60.4885069  91.2011583 100.2051289  53.9031456  99.4129160 112.4518322
  53.4198538 100.2129520 112.6582211  53.9892395  99.4237104 111.4985766
  47.1717416 101.2457539 100.3740141  47.1488104 101.3445227  99.4222024
  47.4818053 102.0922690 100.6957307  49.8304794 103.3033694 104.4886755
  50.7848047 103.2717637 104.4216687  49.6317318 102.8424318 105.3036981
  50.4204176 101.8734810 107.0557553  51.2397065 102.3678889 107.0792390
  50.6940984 100.9566778 107.0275121  60.1770772  94.2645563  96.4185509
  59.2896627  94.5495213  96.2005703  60.5924761  94.1039326  95.5712785
  63.5285308  94.2892084 100.1339848  64.3045699  94.7788536 100.4064465
  62.8033443  94.7150138 100.5911717  65.9657867  95.0019703 101.1913788
  66.5602358  94.7615439 100.4807097  66.0384451  94.2826833 101.8187325
  48.1855023 108.8453314 101.5056953  48.0509491 108.0853715 100.9394951
  47.7687085 109.5694214 101.0385742  59.3213986 104.0290237  90.5133529
  60.0249836 104.2340240  91.1291184  58.5976635 104.5966999  90.7782612
  60.1511796  99.7800099  96.6335799  60.0946997 100.2368650  95.7943431
  60.7040138  99.0190783  96.4558641  63.9616602  95.5689830  97.4585918
  63.7053536  95.1686466  98.2894126  63.3369470  96.2833624  97.3336057
  68.2728940  98.3085904  99.9657210  67.7128498  98.3779093 100.7388772
  67.6672443  98.1326888  99.2456706  51.3424149 109.7422631 101.7175396
  51.2256533 110.6868063 101.6154086  50.5216595 109.4396192 102.1061195
  61.2300683 104.4672766  92.5631989  62.0646287 104.0353965  92.3809463
  61.0685026 104.2954780  93.4908883  60.8846575 100.9704880  93.9288328
  60.8295379 100.8049151  92.9876772  60.2592631 101.6780913  94.0850518
  45.6739090  96.2072944 107.7549750  46.3197954  95.6971898 108.2436975
  45.4656241  96.9441626 108.3293175  52.3678663 110.3950893 104.9331324
  53.2705909 110.4274503 105.2497819  52.1416033 109.4651344 104.9477660
  54.1232265 109.1481879 101.5941403  53.1727896 109.1483741 101.4805775
  54.4264751 108.4014614 101.0777438  50.0136581  93.3540561 111.8524764
  50.8768043  92.9977366 112.0628089  49.4401992  93.0154456 112.5400169
  66.6674665 114.9369846 102.5948690  66.3293176 114.8210910 101.7069225
  67.5364433 114.5361011 102.5749696  62.5261480 116.7905322  98.5845581
  61.9626345 116.6995259  97.8161869  62.4113875 115.9705227  99.0648074
  60.0725912 118.2856514 101.4229801  60.8647204 117.9447338 101.0076101
  60.3122562 118.3951489 102.3431955  68.1061039 120.4576290  93.8960046
  67.4549019 121.0430370  93.5094060  68.9005402 120.9882485  93.9555083
  62.0316666 117.5465427  94.2947180  62.8047542 116.9994414  94.1560056
  62.3842065 118.4109676  94.5061642  64.3682944 113.7058093  91.9265630
  64.6208465 113.1839614  91.1649093  63.4307503 113.5424239  92.0292314
  69.4126227 112.7093871  99.7340373  70.1989316 112.2913295  99.3830790
  69.6764931 113.6139964  99.9022022  69.5836304 118.1466722  94.4329030
  68.9482137 118.2201348  95.1449935  69.2533710 118.7360321  93.7548109
  74.8134654 112.6469105 100.6373352  75.5459826 112.0768321 100.8711181
  74.0574010 112.2590705 101.0779857  64.0879233 115.6086199  94.1290005
  63.9715491 114.9331102  94.7971089  64.1981493 115.1218573  93.3122158
  66.4310774 115.0696346  97.8336694  66.0668981 114.5426967  98.5449616
  67.2877889 114.6794815  97.6603180  72.3360074 106.3590679 105.0967960
  72.0043399 107.2286090 104.8729175  71.7405688 106.0426963 105.7761991
  66.0716261 110.0986246  92.8298043  66.2390663 110.9666482  93.1968514
  65.8813430 110.2613528  91.9059332  62.2804075 115.0117022 100.5300578
  61.3554572 114.8793236 100.7378269  62.5288488 115.7911241 101.0270520
  66.0505481 112.5543903  93.8144710  65.9305107 113.0000954  94.6530190
  65.3558070 112.9029221  93.2558248  59.6412886 114.6550295 101.3644367
  59.7705267 114.9084774 102.2783778  58.9610338 115.2478003 101.0449022
  63.8112374 125.3247545  97.4634841  63.7336403 126.2755370  97.5423321
  63.2074017 124.9793418  98.1209767  71.7490548 113.0265377  94.6425044
  72.6608404 113.2592763  94.4672741  71.2400195 113.6102421  94.0800122
  69.0926522 109.2023412 102.8914905  68.2311001 109.5004666 103.1831642
  69.1188957 109.4193811 101.9595937  65.9088092 117.7465603  99.2988710
  66.3726437 118.0253306  98.5093333  65.6444890 116.8449048  99.1161801
  62.8012173 117.2937085 102.2368474  63.3713530 117.7224353 101.5985958
  63.3920285 117.0119669 102.9352659  64.8456978 113.8688755  96.1078275
  65.5481021 114.3209799  96.5752202  64.5137606 113.2272574  96.7358169
  58.5882312 112.1272308 101.4095409  57.7981366 112.3829837 100.9335520
  59.0793559 112.9420646 101.5147450  60.5397057 112.4916887  98.3678886
  59.7428220 112.6035582  98.8862381  60.3122649 112.8303540  97.5019776
  56.8720015 112.3802799 103.8410400  57.1228053 113.2649808 104.1067976
  57.4079563 112.2007400 103.0685492  66.0850742 120.6829698  96.1840381
  65.9496417 121.5281234  96.6125228  66.6260555 120.8848976  95.4206314
  59.5380140 118.2005136  96.7568306  60.0504660 118.9948386  96.9073870
  60.1902853 117.5031427  96.6901907  61.3475025 121.3170892  98.8391059
  61.5241653 122.2388857  98.6512043  62.1431858 121.0029312  99.2685439
  69.4343206 104.2060260 104.7139274  69.0907475 105.0961902 104.6378385
  69.8022169 104.0161918 103.8508859  57.5029057 116.5293790  97.5327876
  58.3404279 116.9390799  97.3161584  57.6807324 115.5893233  97.5028070
  69.3993489 114.1968871  93.2211709  68.8840112 114.9673476  93.4600097
  69.1270797 113.5234007  93.8444771  66.9840600 109.0418572  98.2796948
  66.1282196 108.6525422  98.1002586  67.3967552 109.1210533  97.4196733
  68.5139746 106.5764915 102.6788507  68.0104542 106.5395050 101.8656313
  68.8070353 107.4857658 102.7385164  64.7582632 106.6603645 101.6854689
  65.6235629 106.4646453 101.3260579  64.8260141 106.4313997 102.6124046
  74.3727763 116.9501226  95.1564883  73.5957206 116.6112385  94.7120045
  75.0519244 116.9553849  94.4819848  69.1879792 112.0695963  95.0471490
  68.8829927 112.3842112  95.8981634  70.1410234 112.1477383  95.0898823
  67.6326224 118.2286186  96.6964444  67.1047585 117.4938946  96.3837682
  67.1313726 119.0060863  96.4504413  62.3644951 108.8905853  99.0571056
  62.9388703 108.6681034  98.3244249  62.9515934 108.9594547  99.8099657
  71.4224529 114.7779580  99.8635432  71.9356410 115.4109571 100.3657142
  72.0725752 114.1780775  99.4978792  62.6914538 110.9210314  93.0766941
  61.8551851 111.2585000  93.3976216  62.5519308 110.7859294  92.1394078
  64.6667619 105.7647102  97.7846125  64.0132031 105.4496119  97.1602740
  64.6248093 105.1422842  98.5105948  65.7778824 116.0466397  89.6999417
  64.8705886 115.8155650  89.8990566  66.2749856 115.2504016  89.8873399
  68.6846903 124.7563904  92.6196104  68.0108602 125.0595601  93.2281061
  69.0712725 125.5592984  92.2701561  67.9005359 112.2529035 102.1093773
  66.9827921 112.4743982 101.9515461  68.3165503 112.3275346 101.2505480
  68.6840407 113.6520451  97.2396453  69.4312226 114.1641848  96.9303575
  68.9531997 113.3304504  98.1000847  66.9567057 116.1478992  94.2223408
  66.0478277 115.8638024  94.3195877  66.9862141 116.5678070  93.3626714
  71.1319244 110.6877567  99.2215243  70.3942001 110.1754953  99.5525485
  71.3846018 110.2477949  98.4098519  71.2330872 103.4653819  99.8157012
  71.5389748 102.6051183  99.5282927  71.9583476 104.0571439  99.6156006
  57.5255228 113.8684506  98.2038610  57.3279628 113.2753866  97.4789676
  56.9701892 113.5636716  98.9214549  65.5051951 113.7607612 100.3233203
  65.5600561 112.8081449 100.2475679  64.6943153 113.9167051 100.8074501
  66.6543145 117.6887735  91.5611486  66.2162575 116.9723594  91.1017123
  67.3953586 117.9163850  90.9996577  63.4444311 112.3784672  98.0823582
  62.6312177 112.6778842  98.4888774  63.9403306 111.9840361  98.7998064
  74.7716260 115.9644932  97.6187805  74.6334159 116.1546528  96.6908994
  74.4152479 116.7264315  98.0755856  62.9358386 109.9503027 103.6984817
  63.5757765 109.8091787 103.0007780  62.1035917 109.6637541 103.3223419
  63.7118690 119.2505458  99.8119809  64.5059288 118.7555778  99.6102384
  63.0010382 118.7223321  99.4487515  60.0201453 113.3948540  95.8879562
  59.0899042 113.3332995  96.1049524  60.1158925 112.8724492  95.0916203
  59.9387003 109.9203352  98.4757803  60.1993820 110.8348686  98.3666964
  60.7604175 109.4527795  98.6254416  61.4111928 111.3341110 105.6456628
  62.0834981 111.1258472 104.9969277  60.5841714 111.1363196 105.2061860
  66.8838118 124.9243576  94.8343183  67.0589874 124.4531620  95.6488805
  66.1970906 125.5509343  95.0624443  70.7754373 116.5472117  91.1543544
  70.1583543 115.8218945  91.0576596  70.3070861 117.3081477  90.8110618
  62.5652919 110.7657541  90.2764848  61.6882385 110.6446342  89.9127095
  63.0410672 109.9743620  90.0243737  54.0855059 115.5534701 100.3706355
  54.7726099 115.2396431  99.7827370  53.9303188 116.4576066 100.0973607
  58.8889781 110.4424897 104.7991379  58.8047970 109.8350567 104.0641789
  58.0672487 110.9333916 104.8000875  65.7516845 123.1183832  97.5227368
  64.9684367 123.6605512  97.6165593  66.4509590 123.6357811  97.9221610
  69.0613495 108.9278461 100.1661574  69.5582194 108.1748423  99.8462644
  68.2900476 108.9642778  99.6004783  70.1443276 117.6850148  97.7399997
  69.2099554 117.8051611  97.5704702  70.3219944 116.7822615  97.4760007
  65.6448464 111.0695844  99.8933258  65.2746251 110.5166884 100.5814164
  66.1407556 110.4653977  99.3408258  73.5315827 113.5267468  98.2750031
  73.9976279 114.3595459  98.2010334  73.9823327 113.0612449  98.9795290
  71.5992058 119.8711289  95.2736183  71.8751902 119.7567883  96.1830057
  70.7296557 119.4728774  95.2348357  71.5032490 105.8948055 102.3140933
  70.5895569 106.1252281 102.4823140  71.9325591 105.9786499 103.1654965
  68.5688288 123.0465825  96.1784046  69.0976054 122.5358279  95.5654208
  68.8316507 122.7308355  97.0429579  53.6623035 113.6335294 102.6423822
  53.7007134 113.0998885 103.4360940  53.1563328 113.1070500 102.0234799
  61.0413797 108.4799835 106.1386365  61.1055124 109.3414666 105.7263762
  60.9780918 107.8673836 105.4058723  57.2931613 112.3599396  95.7177754
  57.5885054 111.4510075  95.6644807  56.3919648 112.3387136  95.3958756
  60.8225860 110.4355393 101.7005302  60.1012445 111.0491361 101.5612776
  61.6119115 110.9713158 101.6221948  59.0219454 110.0413494  95.8417079
  58.6932160 109.1610873  95.6592185  59.3758825 109.9861163  96.7293468
  62.1361277 110.3286464  96.2092556  62.4757350 110.8572385  95.4871165
  62.5833398 110.6666870  96.9851123  64.8304718 108.7123515 105.6595624
  64.4901538 107.9131328 106.0616304  64.1243724 109.0125225 105.0872458
  65.4821190 105.7972827 104.1122948  66.3047259 105.3233305 103.9901838
  65.7259253 106.5763311 104.6121634  64.1229424 108.8261085  94.4085849
  64.8437787 109.2042338  93.9049566  63.4994729 109.5449962  94.5120827
  68.2660547 109.5306234  95.3444182  68.4824162 110.4130872  95.0433010
  67.7854614 109.1392448  94.6149824  63.0059769 112.4891948 101.9214926
  62.8604349 112.8032251 102.8139208  62.5284972 113.1076848 101.3685825
  64.8656152 109.4794496 101.9695816  64.8517720 108.5835589 101.6328114
  65.5828580 109.4865159 102.6034102  66.7182282 109.9131836 104.0148943
  66.4600060 110.8348907 104.0133274  66.1867323 109.5162270 104.7049407
  57.4805431 115.0297292 104.8602587  56.9358899 115.8057100 104.9922862
  58.3584781 115.3768097 104.7021709  64.2693048 108.3608876  97.2383386
  64.3908959 107.4325522  97.4374273  63.9795090 108.3747562  96.3261701
  67.1384238 106.0463786 100.3750106  67.1605935 106.1103119  99.4202085
  67.5552297 105.2068295 100.5690612  72.6503644 122.3349387  93.8935927
  73.3454548 122.9556080  94.1123241  72.9926794 121.4844739  94.1688305
  74.5495067 119.7849093  95.4223258  75.0746391 120.1236366  94.6972578
  74.4617419 118.8496108  95.2386392  58.7128066 122.0432617  99.7843139
  59.5386086 121.7436389  99.4041782  58.3622118 121.2740240 100.2332927
  56.9136671 119.9618944 100.7432072  56.0768580 119.5341118 100.5616074
  56.8860317 120.1551387 101.6802864  63.2423106 119.9463009  95.3299273
  63.3911227 120.6298473  94.6765946  64.0489550 119.9268099  95.8448729
  60.9975739 115.9728186  96.3360342  60.7521781 115.0690516  96.5340552
  61.1671654 115.9745337  95.3939820  68.6872449 106.8451863 105.7185097
  69.2054393 107.5812890 105.3931586  68.3327582 107.1515856 106.5531857
  60.2671387 111.7056544  93.8346503  59.5740632 111.7800899  93.1786539
  60.0223139 110.9416887  94.3568020  68.9385043 103.2652145 101.2385994
  69.2186797 102.5975334 101.8646421  69.7235650 103.4581241 100.7260658
  66.7418512 122.4411139  92.8011020  66.1692479 123.0601326  92.3481492
  67.3151306 122.9910501  93.3350942  69.9615772 122.7248289  93.9319603
  70.8946445 122.6593851  94.1352478  69.8738985 123.5604556  93.4734135
  72.5903788 122.0414160  90.8923550  72.5117420 121.7074023  91.7859308
  73.4113455 122.5335927  90.8915023  67.1265310 113.7771952  90.1427073
  68.0724415 113.6478160  90.2115491  66.7479555 113.0386614  90.6196501
  73.0987195 105.4427958 100.1053965  72.9012016 105.1343046 100.9897297
  73.7086901 106.1689597 100.2351895  65.3108228 111.7021928  90.0781958
  64.4039683 111.4055041  90.1544672  65.5884209 111.4051746  89.2116244
  56.2286168 113.0228292 100.5281004  55.9088952 112.1693600 100.2355378
  55.6819596 113.2376870 101.2838972  60.0066076 115.7390733 104.2450511
  60.2252085 116.6707840 104.2638545  60.4191849 115.3798707 105.0305315
  66.9270293 106.2458818  96.2326199  66.1171022 105.9005903  96.6081445
  67.6154710 105.9366362  96.8213811  68.8560842 105.3236865  97.8550496
  69.4091880 105.7432318  98.5140519  69.0930928 104.3972613  97.8973452
  64.0807012 108.5608863  90.2193937  64.9426176 108.8863762  90.4789755
  64.2657356 107.7740359  89.7067003  56.0974428 116.6431203 102.4974126
  55.4037899 116.2285156 101.9844080  56.8447419 116.6851740 101.9007545
  72.2339649 107.4337390  97.3629160  71.6538318 108.0922194  96.9807213
  71.9675581 106.6114735  96.9516578  70.6843215 106.8342448  99.5650481
  71.1842993 106.9458982  98.7564799  71.3278823 106.5303500 100.2051289
  58.0111171 116.5749457 100.3740141  57.9881859 116.6737144  99.4222024
  58.3211807 117.4214608 100.6957307  71.0164527 109.5937480  96.4185509
  70.1290382 109.8787131  96.2005703  71.4318516 109.4331244  95.5712785
  74.3679063 109.6184001 100.1339848  75.1439453 110.1080454 100.4064465
  73.6427197 110.0442055 100.5911717  76.8051622 110.3311620 101.1913788
  77.3996112 110.0907356 100.4807097  76.8778205 109.6118751 101.8187325
  70.1607740 119.3582155  90.5133529  70.8643590 119.5632157  91.1291184
  69.4370389 119.9258917  90.7782612  70.9905551 115.1092016  96.6335799
  70.9340752 115.5660568  95.7943431  71.5433893 114.3482701  96.4558641
  74.8010356 110.8981748  97.4585918  74.5447291 110.4978384  98.2894126
  74.1763224 111.6125542  97.3336057  72.0694438 119.7964684  92.5631989
  72.9040042 119.3645883  92.3809463  71.9078781 119.6246698  93.4908883
  71.7240330 116.2996797  93.9288328  71.6689134 116.1341069  92.9876772
  71.0986385 117.0072830  94.0850518  56.5132845 111.5364862 107.7549750
  57.1591708 111.0263816 108.2436975  56.3049996 112.2733543 108.3293175
  65.0336455 105.8004906  93.5073646  65.0215125 106.7446746  93.6641917
  65.9259877 105.6175052  93.2133107  68.8488575 102.3947683  97.7619583
  68.0820971 101.8406170  97.9076265  69.2599280 102.4669552  98.6233735
  73.5308293 126.2502231  93.0766941  72.6945605 126.5876918  93.3976216
  73.3913063 126.1151211  92.1394078  73.4046673 126.0949459  90.2764848
  72.5276140 125.9738260  89.9127095  73.8804426 125.3035537  90.0243737
  71.1065141 127.0348462  93.8346503  70.4134386 127.1092817  93.1786539
  70.8616893 126.2708805  94.3568020  76.1501982 127.0313846  90.0781958
  75.2433438 126.7346959  90.1544672  76.4277963 126.7343664  89.2116244
  74.9200767 123.8900781  90.2193937  75.7819931 124.2155679  90.4789755
  75.1051111 123.1032277  89.7067003  75.8730210 121.1296824  93.5073646
  75.8608880 122.0738664  93.6641917  76.7653632 120.9466970  93.2133107
  15.6616187  15.3444952  89.3832472  16.2994597  15.2251699  88.6795812
  15.5437030  16.2925796  89.4420424  12.4705893  15.2972380  89.3193997
  12.1324405  15.1813445  88.4314532  13.3395662  14.8963545  89.2995003
   8.3292709  17.1507856  85.3090888   7.7657574  17.0597793  84.5407175
   8.2145104  16.3307761  85.7893380  13.9092268  20.8178824  80.6205353
  13.2580247  21.4032904  80.2339366  14.7036631  21.3485019  80.6800390
   7.8347895  17.9067961  81.0192487   8.6078771  17.3596948  80.8805363
   8.1873294  18.7712211  81.2306948  10.1714173  14.0660627  78.6510937
  10.4239693  13.5442149  77.8894400   9.2338732  13.9026773  78.7537620
  15.2157456  13.0696406  86.4585680  16.0020545  12.6515829  86.1076097
  15.4796160  13.9742498  86.6267328  15.3867533  18.5069256  81.1574337
  14.7513366  18.5803882  81.8695241  15.0564939  19.0962855  80.4793416
  20.6165883  13.0071639  87.3618659  21.3491055  12.4370856  87.5956488
  19.8605238  12.6193239  87.8025164   9.8910461  15.9688733  80.8535312
   9.7746720  15.2933637  81.5216396  10.0012721  15.4821107  80.0367465
  12.2342002  15.4298880  84.5582001  11.8700210  14.9029501  85.2694922
  13.0909118  15.0397349  84.3848486  11.8747489  10.4588780  79.5543350
  12.0421892  11.3269016  79.9213821  11.6844658  10.6216062  78.6304639
  14.6322823  18.9205759  91.2209180  14.3323546  19.8230798  91.1124987
  14.2873882  18.6537942  92.0730333  18.0319966  11.4388299  88.9006617
  17.1236844  11.3703708  88.6065378  17.9807562  11.9160244  89.7288443
  11.8536710  12.9146438  80.5390016  11.7336335  13.3603488  81.3775497
  11.1589299  13.2631755  79.9803554   9.6143602  25.6850079  84.1880148
   9.5367632  26.6357904  84.2668628   9.0105246  25.3395952  84.8455074
  17.5521776  13.3867911  81.3670350  18.4639632  13.6195297  81.1918048
  17.0431423  13.9704955  80.8045429  16.1591359  18.3693729  88.7583932
  15.5300221  18.5339443  88.0560000  15.7717021  18.7835339  89.5294896
  20.0380591  19.3048167  86.1128296  19.3531629  19.6847068  85.5625329
  20.1224440  19.9143494  86.8460243  11.7119321  18.1068137  86.0234017
  12.1757666  18.3855840  85.2338639  11.4476119  17.2051582  85.8407108
  10.6488207  14.2291290  82.8323582  11.3512250  14.6812333  83.2997508
  10.3168835  13.5875109  83.4603475  18.4077350  19.8280081  90.8845996
  19.2294794  19.4260269  90.6028678  18.4039753  19.7248316  91.8362112
  26.4983343  16.1718830  87.2330968  25.7447052  15.6026228  87.0774972
  26.6330884  16.1381494  88.1801603  11.8881971  21.0432232  82.9085687
  11.7527646  21.8883768  83.3370535  12.4291784  21.2451510  82.1451621
   5.3411369  18.5607670  83.4813612   5.8535889  19.3550921  83.6319177
   5.9934081  17.8633961  83.4147214   7.1506253  21.6773427  85.5636366
   7.3272882  22.5991391  85.3757349   7.9463087  21.3631846  85.9930745
   8.2737569  23.1951600  91.5646708   8.8244994  23.0668664  90.7923702
   7.4349045  23.4946489  91.2141601  15.2024718  14.5571405  79.9457016
  14.6871341  15.3276010  80.1845403  14.9302026  13.8836541  80.5690077
  20.1758992  17.3103760  81.8810189  19.3988434  16.9714919  81.4365351
  20.8550473  17.3156383  81.2065154  14.9911021  12.4298497  81.7716797
  14.6861156  12.7444647  82.6226940  15.9441463  12.5079917  81.8144130
  13.4357453  18.5888721  83.4209751  12.9078814  17.8541480  83.1082988
  12.9344955  19.3663397  83.1749719  18.4150299  16.7837741  88.5376797
  17.7573973  17.4737003  88.6256926  19.2190698  17.1734173  88.8810784
  17.2255757  15.1382114  86.5880739  17.7387639  15.7712106  87.0902449
  17.8756981  14.5383309  86.2224099  11.5810053  16.4068931  76.4244724
  10.6737114  16.1758184  76.6235873  12.0781085  15.6106550  76.6118706
  14.4878132  25.1166438  79.3441410  13.8139830  25.4198135  79.9526368
  14.8743954  25.9195518  78.9946867  14.4871636  14.0122985  83.9641760
  15.2343455  14.5244382  83.6548882  14.7563226  13.6907038  84.8246153
  12.7598286  16.5081526  80.9468714  11.8509505  16.2240559  81.0441184
  12.7893370  16.9280604  80.0872021  17.9917554  20.1188115  84.7159882
  17.5379881  19.2779025  84.7725072  17.3611520  20.7549514  85.0534662
  16.9350473  11.0480101  85.9460549  16.1973230  10.5357488  86.2770792
  17.1877247  10.6080483  85.1343826  16.4350493  21.9564612  85.6509700
  16.7273467  22.5169669  84.9322065  16.9449113  22.2493173  86.4062859
  11.3083180  14.1210146  87.0478510  11.3631790  13.1683983  86.9720986
  10.4974382  14.2769585  87.5319808  12.4574374  18.0490269  78.2856793
  12.0193804  17.3326128  77.8262430  13.1984815  18.2766384  77.7241884
   9.2475540  12.7387206  84.8068888   8.4343406  13.0381377  85.2134081
   9.7434534  12.3442895  85.5243371  11.3984118  22.7344963  86.7403153
  11.3560297  22.9605809  85.8111685  12.3146817  22.5008338  86.8888954
  20.5747489  16.3247467  84.3433111  20.4365387  16.5149062  83.4154301
  20.2183708  17.0866849  84.8001162  20.6016868  18.3923994  89.3544383
  21.0353375  18.2999283  90.2027437  21.3148449  18.3681494  88.7164399
   9.5149919  19.6107992  86.5365116  10.3090517  19.1158312  86.3347691
   8.8041611  19.0825855  86.1732821  14.3344763  21.9926088  90.8877483
  14.3881786  22.5617024  91.6555199  13.4659545  22.1627973  90.5231521
  21.4632418  18.4347694  91.8877268  21.6568308  19.3393505  92.1336543
  21.3633036  17.9755113  92.7215853  12.0921195  20.1837014  90.2162953
  11.9532280  19.8155798  91.0888891  11.3035791  20.6984654  90.0446911
  12.6869347  25.2846111  81.5588489  12.8621102  24.8134154  82.3734112
  12.0002135  25.9111877  81.7869750  13.6426410  19.5618617  87.6051791
  13.3076243  19.5219387  88.5009441  13.1430356  18.8963333  87.1322201
  16.5785602  16.9074651  77.8788850  15.9614772  16.1821479  77.7821903
  16.1102090  17.6684011  77.5355925   7.2530432  28.4335473  88.3328350
   7.4927030  29.0653997  89.0107368   6.4099629  28.0823513  88.6193709
  11.7658294  24.2414596  90.7369854  11.6928465  25.0469567  91.2489158
  11.3235687  24.4406562  89.9117875  11.5548074  23.4786366  84.2472675
  10.7715595  24.0208046  84.3410900  12.2540819  23.9960345  84.6466916
  14.8644724   9.2880995  86.8906880  15.3613423   8.5350958  86.5707951
  14.0931705   9.3245312  86.3250090  22.7174481  14.9921361  88.5325172
  22.7064357  15.8746076  88.1619105  21.8491860  14.6392912  88.3379709
  14.2256977  24.1401430  92.8928012  14.9384950  24.7748895  92.8203914
  13.7347006  24.2365296  92.0768014  15.9474504  18.0452682  84.4645304
  15.0130783  18.1654145  84.2950008  16.1251173  17.1425149  84.2005314
  19.3347056  13.8870002  84.9995338  19.8007508  14.7197993  84.9255641
  19.7854556  13.4214983  85.7040597  17.4023287  20.2313823  81.9981490
  17.6783131  20.1170418  82.9075364  16.5327786  19.8331308  81.9593663
  14.0377351  24.4800174  85.6414304  14.2199745  23.6621830  86.1042056
  14.8610337  24.6967866  85.2039194  14.3719516  23.4068359  82.9029352
  14.9007283  22.8960814  82.2899514  14.6347736  23.0910889  83.7674885
   7.7275264  24.4583476  85.6627128   7.0585640  24.9429603  85.1791168
   7.5888134  24.7052696  86.5770507  11.8680533  26.4927219  92.2609786
  12.4198841  26.6558841  93.0258872  12.2086726  27.0831657  91.5889811
  15.0048920  24.4409195  89.2473469  14.8800060  23.6398935  88.7384414
  15.6628011  24.9355388  88.7587439  17.0683828  22.2418215  90.8753019
  16.1214164  22.1223566  90.8031345  17.4166602  21.3540713  90.9579280
  14.0730262  22.0370931  87.0757371  13.9255224  21.1087638  87.2564941
  14.8983755  22.0591022  86.5914446  17.6764384  22.8599490  88.1622244
  18.6010931  22.6542351  88.0246695  17.5079687  22.6115891  89.0711585
  14.0691776   9.8908769  82.0689488  14.2855391  10.7733407  81.7678316
  13.5885843   9.4994982  81.3395130  17.4659700  23.3785157  83.5184335
  17.6396577  22.8131580  82.7658188  17.9588591  24.1786052  83.3363825
  23.3199091  16.1421580  85.1374635  23.7630237  15.3928905  84.7393758
  22.4425601  16.1331717  84.7548367  18.4534872  22.6951922  80.6181233
  19.1485777  23.3158614  80.8368548  18.7958022  21.8447273  80.8933611
  20.3526295  20.1451627  82.1468564  20.8777620  20.4838900  81.4217884
  20.2648648  19.2098642  81.9631699  12.0366956  26.2123610  86.5063817
  11.5971947  25.7199989  87.1996674  12.7875073  25.6696578  86.2655893
   4.5159295  22.4035151  86.5088445   5.3417315  22.1038923  86.1287089
   4.1653347  21.6342774  86.9578234   9.4840828  21.7561620  88.5786119
   8.8620838  21.0932325  88.2788347  10.1545695  21.7822751  87.8959767
   2.7167900  20.3221478  87.4677379   1.8799809  19.8943652  87.2861380
   2.6891546  20.5153921  88.4048170   9.0454335  20.3065543  82.0544580
   9.1942456  20.9901007  81.4011252   9.8520779  20.2870633  82.5694035
  21.6636273  20.0473939  95.0094512  21.3721082  20.4103919  95.8457973
  21.0508405  19.3340947  94.8307844  22.8631956  17.6126818  87.5297082
  23.6978847  18.0516623  87.6934643  22.9991085  17.1365472  86.7105328
   6.8006968  16.3330720  83.0605648   6.5553010  15.4293050  83.2585859
   6.9702883  16.3347871  82.1185126  12.5449741  22.8013673  79.5256327
  11.9723708  23.4203860  79.0726799  13.1182534  23.3513035  80.0596249
  15.7647001  23.0850823  80.6564909  16.6977674  23.0196385  80.8597785
  15.6770213  23.9207090  80.1979442  18.3935017  22.4016694  77.6168857
  18.3148649  22.0676557  78.5104615  19.2144684  22.8938462  77.6160329
  21.0913208  15.2678433  90.8245175  21.0589529  14.3294434  91.0104859
  21.7013832  15.3462470  90.0911000  12.9296539  14.1374486  76.8672380
  13.8755644  14.0080694  76.9360798  12.5510784  13.3989148  77.3441808
  26.9089758  16.3294440  89.9651212  27.6393147  16.0679728  90.5258916
  26.2996704  15.5923162  90.0053280  24.9905055  14.4702303  90.5625663
  24.2638219  14.3358267  89.9542155  24.5752342  14.7779131  91.3682381
  11.1139456  12.0624462  76.8027265  10.2070912  11.7657575  76.8789978
  11.3915437  11.7654281  75.9361551  18.0370878   7.7939924  84.0874467
  17.4569547   8.4524728  83.7052519  17.7706810   6.9717269  83.6761884
  16.8195756   9.9540015  83.1430815  15.9321611  10.2389665  82.9251010
  17.2349745   9.7933778  82.2958092  20.1710292   9.9786535  86.8585154
  20.9470682  10.4682988  87.1309771  19.4458426  10.4044590  87.3157024
  22.6082850  10.6914155  87.9159095  23.2027341  10.4509891  87.2052403
  22.6809434   9.9721285  88.5432631   4.8280006  24.5347766  88.2302260
   4.6934474  23.7748167  87.6640258   4.4112068  25.2588666  87.7631049
  15.9638969  19.7184689  77.2378835  16.6674819  19.9234692  77.8536491
  15.2401618  20.2861451  77.5027919  16.7936779  15.4694550  83.3581105
  16.7371981  15.9263102  82.5188738  17.3465122  14.7085235  83.1803948
  20.6041585  11.2584282  84.1831225  20.3478519  10.8580918  85.0139433
  19.9794453  11.9728076  84.0581364  24.9153923  13.9980356  86.6902516
  24.3553481  14.0673545  87.4634078  24.3097426  13.8221340  85.9702012
   7.9849132  25.4317083  88.4420703   7.8681516  26.3762515  88.3399393
   7.1641578  25.1290644  88.8306502  17.8725666  20.1567218  79.2877295
  18.7071270  19.7248417  79.1054770  17.7110009  19.9849232  80.2154190
  17.5271559  16.6599332  80.6533635  17.4720362  16.4943603  79.7122079
  16.9017614  17.3675365  80.8095824   9.0103646  26.0845345  91.6576631
   9.9130893  26.1168955  91.9743126   8.7841016  25.1545796  91.6722967
  10.7657248  24.8376331  88.3186710   9.8152879  24.8378193  88.2051082
  11.0689734  24.0909066  87.8022744  26.5009942  30.6736869  89.3832472
  27.1388351  30.5543617  88.6795812  26.3830784  31.6217713  89.4420424
  23.3099648  30.6264298  89.3193997  22.9718159  30.5105362  88.4314532
  24.1789416  30.2255463  89.2995003  19.1686463  32.4799774  85.3090888
  18.6051329  32.3889711  84.5407175  19.0538859  31.6599678  85.7893380
  23.7919431  31.7799149  95.2780202  23.7808072  31.3851948  94.4060706
  23.9540070  31.0465222  95.8713974  16.7150895  33.9750966  88.1475108
  17.5072187  33.6341790  87.7321407  16.9547546  34.0845941  89.0677261
  24.7486022  36.1470742  80.6205353  24.0974002  36.7324822  80.2339366
  25.5430385  36.6776937  80.6800390  18.6741649  33.2359879  81.0192487
  19.4472525  32.6888866  80.8805363  19.0267048  34.1004128  81.2306948
  20.5126692  34.5636261  94.2259386  20.2216558  35.4681892  94.1106052
  21.1483676  34.6052789  94.9403456  21.4382899  31.9413110  90.8160746
  22.0346471  31.7169132  90.1017709  21.4957870  31.1997855  91.4186194
  21.0107927  29.3952545  78.6510937  21.2633448  28.8734066  77.8894400
  20.0732486  29.2318690  78.7537620  26.0551210  28.3988323  86.4585680
  26.8414299  27.9807747  86.1076097  26.3189914  29.3034416  86.6267328
  26.2261287  33.8361174  81.1574337  25.5907120  33.9095800  81.8695241
  25.8958694  34.4254772  80.4793416  31.4559637  28.3363557  87.3618659
  32.1884809  27.7662773  87.5956488  30.6998993  27.9485157  87.8025164
  20.7304216  31.2980651  80.8535312  20.6140474  30.6225554  81.5216396
  20.8406476  30.8113025  80.0367465  23.0735757  30.7590798  84.5582001
  22.7093964  30.2321419  85.2694922  23.9302873  30.3689267  84.3848486
  28.9785057  22.0485131  91.8213267  28.6468382  22.9180542  91.5974482
  28.3830671  21.7321415  92.5007298  22.7141244  25.7880698  79.5543350
  22.8815646  26.6560934  79.9213821  22.5238413  25.9507979  78.6304639
  25.4716577  34.2497677  91.2209180  25.1717300  35.1522715  91.1124987
  25.1267637  33.9829860  92.0730333  18.9229058  30.7011473  87.2545884
  17.9979555  30.5687688  87.4623576  19.1713472  31.4805693  87.7515827
  28.8713721  26.7680217  88.9006617  27.9630598  26.6995625  88.6065378
  28.8201317  27.2452162  89.7288443  22.6930465  28.2438355  80.5390016
  22.5730090  28.6895406  81.3775497  21.9983053  28.5923673  79.9803554
  16.2837870  30.3444747  88.0889673  16.4130251  30.5979226  89.0029085
  15.6035321  30.9372455  87.7694328  20.4537357  41.0141997  84.1880148
  20.3761387  41.9649822  84.2668628  19.8499000  40.6687869  84.8455074
  22.9454587  28.1869862  96.8441514  22.1687921  28.7463783  96.8344379
  23.5845150  28.6726645  97.3656385  30.7375367  24.9696655  90.6784491
  30.0949747  25.2629188  90.0324286  30.2330296  24.8549576  91.4837688
  28.3915531  28.7159828  81.3670350  29.3033387  28.9487215  81.1918048
  27.8825178  29.2996873  80.8045429  21.2000959  30.9955316  96.4059481
  21.9415643  31.5340360  96.1294305  20.4937944  31.6221605  96.5631033
  26.6756299  33.1384456  95.0031643  27.0839655  32.6966867  94.2586275
  25.9533560  32.5637084  95.2565836  23.0287369  28.0757063  92.3765200
  23.8748564  28.4996477  92.5199849  22.9686006  27.4190687  93.0703763
  26.9985113  33.6985647  88.7583932  26.3693976  33.8631361  88.0560000
  26.6110775  34.1127256  89.5294896  30.8774345  34.6340085  86.1128296
  30.1925383  35.0138986  85.5625329  30.9618194  35.2435411  86.8460243
  26.1786814  25.7361431  94.0346374  25.9347746  26.4903492  93.4980649
  26.4546744  26.1146779  94.8693621  28.1325277  32.2800044  92.7123639
  28.3442172  32.9231804  92.0358020  28.0855025  31.4462360  92.2445569
  25.7351506  24.8917864  89.6160211  24.8735985  25.1899118  89.9076949
  25.7613940  25.1088263  88.6841244  22.5513075  33.4360055  86.0234017
  23.0151421  33.7147758  85.2338639  22.2869873  32.5343500  85.8407108
  19.4437156  32.9831536  88.9613780  20.0138513  33.4118805  88.3231265
  20.0345268  32.7014121  89.6597966  21.4881961  29.5583207  82.8323582
  22.1906004  30.0104251  83.2997508  21.1562590  28.9167026  83.4603475
  19.9362323  28.1494964  97.2074791  19.3060983  28.8311245  97.4410188
  19.8298411  28.0378046  96.2627930  15.2307295  27.8166760  88.1340716
  14.4406349  28.0724289  87.6580826  15.7218542  28.6315098  88.2392756
  29.2471105  35.1571999  90.8845996  30.0688548  34.7552186  90.6028678
  29.2433508  35.0540233  91.8362112  17.1822040  28.1811339  85.0924192
  16.3853204  28.2930033  85.6107688  16.9547633  28.5197991  84.2265083
  23.0127708  34.7056042  93.0406707  23.0772141  35.1676450  93.8764879
  22.3038632  34.0753407  93.1689017  13.5144998  28.0697250  90.5655706
  13.7653036  28.9544260  90.8313282  14.0504546  27.8901852  89.7930798
  37.3377098  31.5010748  87.2330968  36.5840806  30.9318146  87.0774972
  37.4724639  31.4673412  88.1801603  22.7275726  36.3724150  82.9085687
  22.5921401  37.2175686  83.3370535  23.2685538  36.5743428  82.1451621
  16.1805123  33.8899588  83.4813612  16.6929644  34.6842838  83.6319177
  16.8327836  33.1925878  83.4147214  17.9900008  37.0065344  85.5636366
  18.1666636  37.9283309  85.3757349  18.7856841  36.6923763  85.9930745
  22.1311026  23.8673609  97.1620299  22.8720740  24.4680762  97.0824762
  22.3628949  23.1251247  96.6038342  17.2752364  29.0529976  95.4398529
  17.1605880  28.1515233  95.7405628  16.4196882  29.2993673  95.0883345
  24.3544202  36.9947716  97.0386029  23.9108056  36.2084095  96.7206934
  25.0161416  37.1826867  96.3729920  19.1131323  38.5243518  91.5646708
  19.6638748  38.3960581  90.7923702  18.2742799  38.8238407  91.2141601
  26.4525440  37.2750516  95.0667431  26.4343916  38.0959397  94.5747700
  27.3745360  37.1504592  95.2917572  22.9098494  34.7894646  95.9090939
  23.4426831  34.0282934  95.6790247  22.3812575  34.4968298  96.6515093
  26.0768189  19.8954712  91.4384581  25.7332459  20.7856354  91.3623691
  26.4447152  19.7056369  90.5754166  14.1454040  32.2188242  84.2573183
  14.9829262  32.6285251  84.0406891  14.3232308  31.2787684  84.2273377
  26.0418472  29.8863323  79.9457016  25.5265095  30.6567928  80.1845403
  25.7695780  29.2128459  80.5690077  23.6265583  24.7313024  85.0042254
  22.7707179  24.3419874  84.8247893  24.0392535  24.8104985  84.1442040
  25.1564730  22.2659367  89.4033814  24.6529525  22.2289502  88.5901619
  25.4495337  23.1752110  89.4630471  21.4007616  22.3498097  88.4099996
  22.2660612  22.1540905  88.0505885  21.4685124  22.1208448  89.3369352
  31.0152746  32.6395678  81.8810189  30.2382189  32.3006837  81.4365351
  31.6944227  32.6448301  81.2065154  25.8304775  27.7590415  81.7716797
  25.5254911  28.0736564  82.6226940  26.7835217  27.8371835  81.8144130
  24.2751207  33.9180638  83.4209751  23.7472569  33.1833398  83.1082988
  23.7738710  34.6955315  83.1749719  29.2544053  32.1129659  88.5376797
  28.5967728  32.8028920  88.6256926  30.0584452  32.5026091  88.8810784
  19.0069935  24.5800305  85.7816363  19.5813687  24.3575486  85.0489555
  19.5940917  24.6488999  86.5344964  28.0649512  30.4674032  86.5880739
  28.5781394  31.1004023  87.0902449  28.7150736  29.8675227  86.2224099
  19.3339522  26.6104766  79.8012248  18.4976834  26.9479452  80.1221523
  19.1944291  26.4753745  78.8639385  21.3092602  21.4541554  84.5091432
  20.6557015  21.1390571  83.8848047  21.2673077  20.8317294  85.2351255
  22.4203807  31.7360849  76.4244724  21.5130869  31.5050102  76.6235873
  22.9174839  30.9398468  76.6118706  25.3271886  40.4458356  79.3441410
  24.6533585  40.7490053  79.9526368  25.7137708  41.2487436  78.9946867
  24.5430343  27.9423487  88.8339080  23.6252904  28.1638434  88.6760768
  24.9590486  28.0169798  87.9750787  25.3265390  29.3414903  83.9641760
  26.0737209  29.8536300  83.6548882  25.5956980  29.0198955  84.8246153
  23.5992041  31.8373443  80.9468714  22.6903260  31.5532476  81.0441184
  23.6287124  32.2572522  80.0872021  28.8311308  35.4480033  84.7159882
  28.3773635  34.6070943  84.7725072  28.2005275  36.0841431  85.0534662
  27.7744228  26.3772019  85.9460549  27.0366984  25.8649405  86.2770792
  28.0271001  25.9372401  85.1343826  27.2744247  37.2856530  85.6509700
  27.5667222  37.8461587  84.9322065  27.7842868  37.5785091  86.4062859
  27.8755855  19.1548271  86.5402318  28.1814732  18.2945634  86.2528234
  28.6008460  19.7465891  86.3401312  14.1680211  29.5578958  84.9283916
  13.9704611  28.9648318  84.2034983  13.6126875  29.2531168  85.6459855
  22.1476935  29.4502064  87.0478510  22.2025544  28.4975900  86.9720986
  21.3368137  29.6061503  87.5319808  23.2968128  33.3782187  78.2856793
  22.8587558  32.6618046  77.8262430  24.0378569  33.6058302  77.7241884
  20.0869295  28.0679124  84.8068888  19.2737160  28.3673294  85.2134081
  20.5828289  27.6734813  85.5243371  22.2377873  38.0636881  86.7403153
  22.1954051  38.2897727  85.8111685  23.1540571  37.8300255  86.8888954
  25.6843506  28.5320948  93.6383782  26.0392894  28.7592421  94.4978248
  26.3315638  28.8639325  93.0161038  31.4141243  31.6539384  84.3433111
  31.2759142  31.8440980  83.4154301  31.0577462  32.4158767  84.8001162
  19.5783369  25.6397479  90.4230123  20.2182749  25.4986238  89.7253087
  18.7460900  25.3531993  90.0468725  31.4410623  33.7215911  89.3544383
  31.8747130  33.6291200  90.2027437  32.1542204  33.6973412  88.7164399
  20.3543673  34.9399910  86.5365116  21.1484272  34.4450230  86.3347691
  19.6435366  34.4117773  86.1732821  25.1738518  37.3218005  90.8877483
  25.2275540  37.8908942  91.6555199  24.3053299  37.4919890  90.5231521
  16.6626437  29.0842992  82.6124868  15.7324025  29.0227447  82.8294831
  16.7583909  28.5618944  81.8161510  16.5811986  25.6097804  85.2003110
  16.8418803  26.5243138  85.0912271  17.4029158  25.1422247  85.3499723
  18.0536911  27.0235562  92.3701935  18.7259965  26.8152924  91.7214584
  17.2266698  26.8257648  91.9307167  32.3026172  33.7639612  91.8877268
  32.4962063  34.6685422  92.1336543  32.2026791  33.3047031  92.7215853
  23.9562483  23.6497502  94.3867596  23.3090398  24.3487452  94.2932072
  24.7263499  24.0833646  94.7543844  27.3641281  33.9146355  97.4618149
  27.2126788  33.6856906  96.5448233  27.3545961  34.8716956  97.4749494
  24.1326618  31.4878267  92.4464415  25.0618678  31.6389427  92.2733383
  23.7117648  31.5762288  91.5913062  22.9314949  35.5128932  90.2162953
  22.7926035  35.1447716  91.0888891  22.1429546  36.0276571  90.0446911
  23.5263101  40.6138028  81.5588489  23.7014857  40.1426071  82.3734112
  22.8395889  41.2403794  81.7869750  24.4820164  34.8910534  87.6051791
  24.1469997  34.8511304  88.5009441  23.9824110  34.2255250  87.1322201
  18.4564408  30.2978164  93.1304372  18.3184206  29.5658403  93.7315911
  19.3669332  30.2087065  92.8488560  27.4179356  32.2366569  77.8788850
  26.8008527  31.5113397  77.7821903  26.9495845  32.9975929  77.5355925
  21.0846709  30.0098124  92.6188051  21.7946328  29.3691316  92.5774670
  21.0416017  30.2611019  93.5414232  29.0733488  36.9465477  95.5394631
  29.0146034  36.2624697  94.8725214  29.4753006  37.6884467  95.0875257
  19.7975643  26.9963342  94.4383691  19.2613000  26.5454080  95.0905287
  19.2092351  27.1309251  93.6954155  18.0924187  43.7627391  88.3328350
  18.3320785  44.3945915  89.0107368  17.2493383  43.4115431  88.6193709
  19.2077902  26.4551993  77.0010155  18.3307368  26.3340794  76.6372401
  19.6835655  25.6638071  76.7489043  29.0750895  34.9105061  93.7708610
  28.1877674  34.5730983  93.8935009  29.6449446  34.1788092  94.0077376
  10.7280042  31.2429153  87.0951662  11.4151082  30.9290883  86.5072677
  10.5728171  32.1470517  86.8218913  15.5314764  26.1319349  91.5236685
  15.4472953  25.5245019  90.7887095  14.7097471  26.6228368  91.5246182
  22.6052048  39.5706513  90.7369854  22.5322220  40.3761485  91.2489158
  22.1629442  39.7698479  89.9117875  22.3941828  38.8078283  84.2472675
  21.6109350  39.3499964  84.3410900  23.0934573  39.3252263  84.6466916
  25.7038478  24.6172913  86.8906880  26.2007178  23.8642875  86.5707951
  24.9325460  24.6537230  86.3250090  33.5568236  30.3213278  88.5325172
  33.5458112  31.2037994  88.1619105  32.6885615  29.9684829  88.3379709
  25.0650732  39.4693347  92.8928012  25.7778704  40.1040812  92.8203914
  24.5740761  39.5657213  92.0768014  26.7868259  33.3744600  84.4645304
  25.8524538  33.4946063  84.2950008  26.9644927  32.4717067  84.2005314
  22.2873447  26.7590296  86.6178565  21.9171234  26.2061336  87.3059471
  22.7832539  26.1548429  86.0653565  30.1740810  29.2161919  84.9995338
  30.6401262  30.0489911  84.9255641  30.6248311  28.7506901  85.7040597
  20.1162645  37.2187791  93.7133583  20.8172105  37.8524274  93.8662977
  19.6457760  37.5602522  92.9529222  28.2417041  35.5605741  81.9981490
  28.5176885  35.4462335  82.9075364  27.3721540  35.1623226  81.9593663
  28.1457473  21.5842506  89.0386239  27.2320553  21.8146733  89.2068446
  28.5750574  21.6680950  89.8900272  27.9163931  29.7732398  91.5386133
  27.2635382  30.0208306  90.8838586  28.2944311  28.9596537  91.2048611
  24.8771105  39.8092092  85.6414304  25.0593500  38.9913747  86.1042056
  25.7004091  40.0259784  85.2039194  25.2113271  38.7360277  82.9029352
  25.7401037  38.2252731  82.2899514  25.4741490  38.4202807  83.7674885
  23.9651504  30.5152209  98.0252170  23.2892141  30.4146339  98.6954546
  24.7879138  30.3591423  98.4888168  15.7130364  36.7524146  90.6464686
  16.2983800  36.0067834  90.7792590  15.5155202  37.0628103  91.5301350
  18.5669019  39.7875393  85.6627128  17.8979394  40.2721521  85.1791168
  18.4281888  40.0344614  86.5770507  10.3048018  29.3229746  89.3669129
  10.3432118  28.7893337  90.1606247   9.7988311  28.7964952  88.7480106
  22.7074287  41.8219137  92.2609786  23.2592595  41.9850758  93.0258872
  23.0480481  42.4123575  91.5889811  17.6838781  24.1694287  92.8631671
  17.7480107  25.0309118  92.4509069  17.6205901  23.5568288  92.1304030
  17.1591053  26.2417419  96.5104705  17.7863092  25.8594497  97.1242230
  16.3018972  26.0231621  96.8760398  27.5585162  36.6480394  98.1158441
  28.1025066  37.2610353  97.6213396  26.9772007  37.2059973  98.6325454
  13.9356596  28.0493848  82.4423060  14.2310037  27.1404527  82.3890114
  13.0344632  28.0281588  82.1204063  25.8442675  39.7701112  89.2473469
  25.7193814  38.9690852  88.7384414  26.5021766  40.2647306  88.7587439
  17.4650843  26.1249845  88.4250609  16.7437429  26.7385813  88.2858082
  18.2544099  26.6607610  88.3467255  27.9077583  37.5710132  90.8753019
  26.9607919  37.4515484  90.8031345  28.2560356  36.6832631  90.9579280
  20.2677156  23.4604271  94.6991261  20.7911558  23.7066568  95.4617570
  20.0489490  24.2924306  94.2794398  15.6644437  25.7307946  82.5662385
  15.3357144  24.8505325  82.3837491  16.0183808  25.6755615  83.4538775
  24.9124016  37.3662849  87.0757371  24.7648979  36.4379556  87.2564941
  25.7377510  37.3882939  86.5914446  18.7786261  26.0180916  82.9337863
  19.1182333  26.5466837  82.2116471  19.2258381  26.3561322  83.7096430
  28.5158138  38.1891407  88.1622244  29.4404686  37.9834269  88.0246695
  28.3473442  37.9407809  89.0711585  21.4729701  24.4017967  92.3840931
  21.1326522  23.6025780  92.7861611  20.7668708  24.7019677  91.8117764
  22.1246173  21.4867279  90.8368254  22.9472243  21.0127757  90.7147144
  22.3684237  22.2657763  91.3366940  20.7654408  24.5155537  81.1331156
  21.4862770  24.8936790  80.6294873  20.1419712  25.2344414  81.2366134
  24.9085531  25.2200686  82.0689488  25.1249145  26.1025324  81.7678316
  24.4279598  24.8286900  81.3395130  19.6484752  28.1786400  88.6460233
  19.5029333  28.4926703  89.5384514  19.1709956  28.7971300  88.0931131
  21.5081135  25.1688948  88.6941122  21.4942704  24.2730041  88.3573420
  22.2253563  25.1759611  89.3279408  23.3607266  25.6026288  90.7394250
  23.1025043  26.5243358  90.7378580  22.8292306  25.2056722  91.4294714
  28.3053454  38.7077075  83.5184335  28.4790332  38.1423497  82.7658188
  28.7982346  39.5077970  83.3363825  14.1230414  30.7191744  91.5847894
  13.5783882  31.4951552  91.7168168  15.0009764  31.0662548  91.4267015
  20.9118031  24.0503328  83.9628692  21.0333942  23.1219974  84.1619580
  20.6220073  24.0642014  83.0507008  23.7809221  21.7358238  87.0995412
  23.8030918  21.7997571  86.1447392  24.1977280  20.8962747  87.2935918
  34.1592846  31.4713498  85.1374635  34.6023992  30.7220823  84.7393758
  33.2819356  31.4623634  84.7548367  29.2928627  38.0243839  80.6181233
  29.9879531  38.6450532  80.8368548  29.6351777  37.1739191  80.8933611
  14.9096436  29.8461640  94.4778051  14.1678172  29.9944276  95.0642681
  14.5889180  30.1069906  93.6144800  31.1920050  35.4743545  82.1468564
  31.7171374  35.8130818  81.4217884  31.1042403  34.5390560  81.9631699
  22.8540099  39.3877618  94.2758441  23.1627225  39.1426765  95.1481140
  23.6515581  39.5924257  93.7877311  22.8760711  41.5415528  86.5063817
  22.4365701  41.0491907  87.1996674  23.6268828  40.9988496  86.2655893
  15.3553050  37.7327069  86.5088445  16.1811070  37.4330841  86.1287089
  15.0047102  36.9634691  86.9578234  20.3234583  37.0853537  88.5786119
  19.7014592  36.4224242  88.2788347  20.9939450  37.1114669  87.8959767
  13.5561655  35.6513395  87.4677379  12.7193563  35.2235570  87.2861380
  13.5285300  35.8445839  88.4048170  20.3959110  25.5635325  98.1718625
  20.4447266  26.4397448  97.7896395  20.9381625  25.0212718  97.5990268
  30.8813956  36.1076448  97.4519762  30.0909500  36.0900587  96.9124262
  30.6447311  36.6464742  98.2068799  31.0011831  32.9568915  94.7652491
  31.0509836  32.7918922  95.7068013  30.8925754  32.0896174  94.3750371
  19.8848090  35.6357461  82.0544580  20.0336210  36.3192925  81.4011252
  20.6914533  35.6162551  82.5694035  28.2915593  28.9399843  96.0811797
  29.1925456  28.8006308  95.7895795  28.3663568  29.1054298  97.0209975
  22.6258399  26.3166698  94.9264984  21.7561708  26.6100264  94.6547572
  22.8617879  26.9007143  95.6472247  32.5030028  35.3765856  95.0094512
  32.2114836  35.7395837  95.8457973  31.8902159  34.6632865  94.8307844
  33.7025710  32.9418736  87.5297082  34.5372602  33.3808540  87.6934643
  33.8384839  32.4657389  86.7105328  30.7517216  30.4998471  93.4774570
  31.2271338  30.6926117  92.6693422  29.8282782  30.5557657  93.2317954
  17.6400723  31.6622638  83.0605648  17.3946765  30.7584968  83.2585859
  17.8096637  31.6639789  82.1185126  25.3297433  22.5346315  92.4430404
  25.8479376  23.2707341  92.1176893  24.9752565  22.8410308  93.2777163
  16.9096370  27.3950996  80.5591810  16.2165615  27.4695351  79.9031846
  16.6648122  26.6311339  81.0813327  25.5810027  18.9546597  87.9631301
  25.8611781  18.2869786  88.5891727  26.3660634  19.1475693  87.4505965
  23.3843495  38.1305591  79.5256327  22.8117462  38.7495778  79.0726799
  23.9576289  38.6804953  80.0596249  29.4518885  27.3764231  91.7102876
  30.4036308  27.4762329  91.7315100  29.2822336  26.5842500  92.2200960
  27.4733265  24.4619814  91.8962277  26.8783197  24.7424827  91.2008765
  27.1882961  24.9513715  92.6679018  26.6040755  38.4142741  80.6564909
  27.5371428  38.3488303  80.8597785  26.5163968  39.2499008  80.1979442
  29.2328772  37.7308611  77.6168857  29.1542403  37.3968475  78.5104615
  30.0538439  38.2230379  77.6160329  31.9306963  30.5970351  90.8245175
  31.8983283  29.6586351  91.0104859  32.5407587  30.6754387  90.0911000
  23.7690294  29.4666404  76.8672380  24.7149399  29.3372612  76.9360798
  23.3904539  28.7281066  77.3441808  32.0801451  27.3881394  90.8703459
  31.5640500  26.6039851  90.6833388  32.9641400  27.0600111  91.0349978
  29.7412178  21.1322410  86.8299271  29.5436999  20.8237498  87.7142603
  30.3511884  21.8584049  86.9597201  37.7483513  31.6586358  89.9651212
  38.4786901  31.3971646  90.5258916  37.1390458  30.9215080  90.0053280
  35.8298810  29.7994220  90.5625663  35.1031973  29.6650185  89.9542155
  35.4146097  30.1071049  91.3682381  23.6528986  33.5184150  98.3273036
  24.5731996  33.6962749  98.5213083  23.6178569  32.5740195  98.1752736
  21.9533211  27.3916380  76.8027265  21.0464666  27.0949493  76.8789978
  22.2309192  27.0946198  75.9361551  12.8711151  28.7122744  87.2526311
  12.5513936  27.8588052  86.9600685  12.3244580  28.9271322  88.0084278
  16.6491059  31.4285185  90.9695818  16.8677069  32.3602292  90.9883851
  17.0616833  31.0693159  91.7550621  23.5695277  21.9353270  82.9571506
  22.7596005  21.5900355  83.3326752  24.2579694  21.6260814  83.5459118
  25.4985825  21.0131317  84.5795803  26.0516864  21.4326770  85.2385826
  25.7355911  20.0867065  84.6218759  20.7231996  24.2503315  76.9439244
  21.5851160  24.5758214  77.2035061  20.9082340  23.4634811  76.4312310
  12.7399411  32.3325655  89.2219433  12.0462883  31.9179608  88.7089387
  13.4872402  32.3746192  88.6252852  28.8764632  23.1231842  84.0874467
  28.2963301  23.7816646  83.7052519  28.6100565  22.3009186  83.6761884
  27.3268198  22.5236900  86.2895787  27.8267977  22.6353434  85.4810106
  27.9703806  22.2197952  86.9296596  21.3850194  30.4315529  99.1763628
  20.9017276  31.2315889  99.3827517  21.4711133  30.4423474  98.2231072
  14.6536154  32.2643909  87.0985448  14.6306842  32.3631596  86.1467331
  14.9636790  33.1109060  87.4202614  17.3123532  34.3220064  91.2132062
  18.2666785  34.2904006  91.1461994  17.1136055  33.8610688  92.0282288
  17.9022914  32.8921180  93.7802860  18.7215803  33.3865259  93.8037697
  18.1759722  31.9753148  93.7520427  27.6589510  25.2831932  83.1430815
  26.7715365  25.5681583  82.9251010  28.0743499  25.1225696  82.2958092
  31.0104046  25.3078453  86.8585154  31.7864436  25.7974906  87.1309771
  30.2852180  25.7336507  87.3157024  33.4476605  26.0206072  87.9159095
  34.0421096  25.7801808  87.2052403  33.5203189  25.3013203  88.5432631
  15.6673761  39.8639683  88.2302260  15.5328228  39.1040084  87.6640258
  15.2505823  40.5880583  87.7631049  26.8032724  35.0476607  77.2378835
  27.5068574  35.2526609  77.8536491  26.0795372  35.6153369  77.5027919
  27.6330534  30.7986468  83.3581105  27.5765735  31.2555020  82.5188738
  28.1858876  30.0377153  83.1803948  31.4435340  26.5876200  84.1831225
  31.1872274  26.1872836  85.0139433  30.8188208  27.3019994  84.0581364
  35.7547678  29.3272273  86.6902516  35.1947236  29.3965463  87.4634078
  35.1491181  29.1513258  85.9702012  18.8242886  40.7609000  88.4420703
  18.7075271  41.7054433  88.3399393  18.0035333  40.4582562  88.8306502
  28.7119421  35.4859136  79.2877295  29.5465025  35.0540335  79.1054770
  28.5503764  35.3141150  80.2154190  28.3665313  31.9891249  80.6533635
  28.3114117  31.8235521  79.7122079  27.7411368  32.6967282  80.8095824
  13.1557828  27.2259314  94.4795057  13.8016692  26.7158268  94.9682282
  12.9474979  27.9627995  95.0538482  25.6811220  34.2940161  99.9787197
  26.5502380  34.4680814  99.6173832  25.2017972  35.1134578  99.8562927
  21.6761439  21.4899358  80.2318953  21.6640108  22.4341198  80.3887224
  22.5684860  21.3069504  79.9378414  19.8497401  41.4137262  91.6576631
  20.7524647  41.4460873  91.9743126  19.6234771  40.4837713  91.6722967
  21.6051003  40.1668249  88.3186710  20.6546634  40.1670110  88.2051082
  21.9083489  39.4200983  87.8022744  25.4913558  18.0842135  84.4864890
  24.7245954  17.5300622  84.6321572  25.9024263  18.1564004  85.3479041
  37.3403696  46.0028787  89.3832472  37.9782106  45.8835535  88.6795812
  37.2224539  46.9509631  89.4420424  34.1493402  45.9556215  89.3193997
  33.8111914  45.8397280  88.4314532  35.0183170  45.5547380  89.2995003
  30.0080218  47.8091692  85.3090888  29.4445083  47.7181629  84.5407175
  29.8932613  46.9891596  85.7893380  34.6313185  47.1091067  95.2780202
  34.6201826  46.7143865  94.4060706  34.7933825  46.3757140  95.8713974
  27.5544650  49.3042883  88.1475108  28.3465942  48.9633708  87.7321407
  27.7941300  49.4137858  89.0677261  29.5135404  48.5651797  81.0192487
  30.2866280  48.0180784  80.8805363  29.8660803  49.4296046  81.2306948
  31.3520446  49.8928179  94.2259386  31.0610312  50.7973810  94.1106052
  31.9877431  49.9344706  94.9403456  32.2776653  47.2705027  90.8160746
  32.8740226  47.0461050  90.1017709  32.3351625  46.5289773  91.4186194
  31.8501682  44.7244463  78.6510937  32.1027202  44.2025984  77.8894400
  30.9126241  44.5610608  78.7537620  36.8944965  43.7280241  86.4585680
  37.6808054  43.3099664  86.1076097  37.1583669  44.6326333  86.6267328
  42.2953392  43.6655474  87.3618659  43.0278564  43.0954691  87.5956488
  41.5392747  43.2777075  87.8025164  31.5697970  46.6272569  80.8535312
  31.4534229  45.9517472  81.5216396  31.6800230  46.1404943  80.0367465
  33.9129511  46.0882716  84.5582001  33.5487719  45.5613337  85.2694922
  34.7696627  45.6981185  84.3848486  39.8178812  37.3777048  91.8213267
  39.4862137  38.2472459  91.5974482  39.2224425  37.0613332  92.5007298
  33.5534998  41.1172615  79.5543350  33.7209401  41.9852852  79.9213821
  33.3632167  41.2799897  78.6304639  36.3110332  49.5789594  91.2209180
  36.0111055  50.4814633  91.1124987  35.9661391  49.3121778  92.0730333
  29.7622813  46.0303391  87.2545884  28.8373309  45.8979605  87.4623576
  30.0107226  46.8097610  87.7515827  39.7107475  42.0972135  88.9006617
  38.8024353  42.0287543  88.6065378  39.6595071  42.5744079  89.7288443
  33.5324219  43.5730273  80.5390016  33.4123844  44.0187324  81.3775497
  32.8376808  43.9215591  79.9803554  27.1231624  45.6736665  88.0889673
  27.2524005  45.9271144  89.0029085  26.4429075  46.2664373  87.7694328
  31.2931111  56.3433915  84.1880148  31.2155141  57.2941740  84.2668628
  30.6892755  55.9979787  84.8455074  33.7848341  43.5161780  96.8441514
  33.0081675  44.0755700  96.8344379  34.4238904  44.0018563  97.3656385
  41.5769122  40.2988573  90.6784491  40.9343502  40.5921106  90.0324286
  41.0724050  40.1841493  91.4837688  39.2309285  44.0451746  81.3670350
  40.1427141  44.2779133  81.1918048  38.7218932  44.6288790  80.8045429
  32.0394713  46.3247233  96.4059481  32.7809398  46.8632277  96.1294305
  31.3331699  46.9513522  96.5631033  37.5150053  48.4676374  95.0031643
  37.9233409  48.0258784  94.2586275  36.7927315  47.8929001  95.2565836
  33.8681123  43.4048981  92.3765200  34.7142318  43.8288394  92.5199849
  33.8079761  42.7482605  93.0703763  37.8378868  49.0277565  88.7583932
  37.2087730  49.1923279  88.0560000  37.4504530  49.4419174  89.5294896
  41.7168100  49.9632002  86.1128296  41.0319138  50.3430904  85.5625329
  41.8011949  50.5727329  86.8460243  37.0180568  41.0653349  94.0346374
  36.7741500  41.8195410  93.4980649  37.2940499  41.4438697  94.8693621
  38.9719031  47.6091961  92.7123639  39.1835926  48.2523721  92.0358020
  38.9248779  46.7754278  92.2445569  36.5745260  40.2209782  89.6160211
  35.7129739  40.5191036  89.9076949  36.6007695  40.4380181  88.6841244
  33.3906830  48.7651973  86.0234017  33.8545175  49.0439676  85.2338639
  33.1263628  47.8635417  85.8407108  30.2830911  48.3123454  88.9613780
  30.8532268  48.7410723  88.3231265  30.8739022  48.0306039  89.6597966
  32.3275716  44.8875125  82.8323582  33.0299759  45.3396169  83.2997508
  31.9956344  44.2458944  83.4603475  30.7756077  43.4786882  97.2074791
  30.1454738  44.1603162  97.4410188  30.6692165  43.3669963  96.2627930
  26.0701050  43.1458678  88.1340716  25.2800104  43.4016206  87.6580826
  26.5612297  43.9607016  88.2392756  40.0864859  50.4863917  90.8845996
  40.9082303  50.0844104  90.6028678  40.0827262  50.3832151  91.8362112
  28.0215795  43.5103257  85.0924192  27.2246958  43.6221951  85.6107688
  27.7941387  43.8489909  84.2265083  33.8521463  50.0347960  93.0406707
  33.9165895  50.4968367  93.8764879  33.1432386  49.4045325  93.1689017
  24.3538753  43.3989168  90.5655706  24.6046791  44.2836178  90.8313282
  24.8898301  43.2193770  89.7930798  48.1770852  46.8302665  87.2330968
  47.4234561  46.2610063  87.0774972  48.3118393  46.7965330  88.1801603
  33.5669480  51.7016068  82.9085687  33.4315155  52.5467603  83.3370535
  34.1079293  51.9035345  82.1451621  30.0536820  37.7807647  99.5700043
  29.6603765  37.2273846 100.2447687  30.8702960  38.0918226  99.9606560
  27.0198878  49.2191506  83.4813612  27.5323398  50.0134756  83.6319177
  27.6721590  48.5217796  83.4147214  28.8293762  52.3357262  85.5636366
  29.0060391  53.2575227  85.3757349  29.6250596  52.0215681  85.9930745
  32.9704781  39.1965527  97.1620299  33.7114494  39.7972680  97.0824762
  33.2022704  38.4543164  96.6038342  28.1146119  44.3821894  95.4398529
  27.9999634  43.4807151  95.7405628  27.2590637  44.6285591  95.0883345
  29.9525078  53.8535436  91.5646708  30.5032503  53.7252499  90.7923702
  29.1136554  54.1530325  91.2141601  33.7492249  50.1186564  95.9090939
  34.2820586  49.3574852  95.6790247  33.2206330  49.8260215  96.6515093
  36.9161944  35.2246630  91.4384581  36.5726213  36.1148271  91.3623691
  37.2840906  35.0348287  90.5754166  24.9847794  47.5480160  84.2573183
  25.8223016  47.9577168  84.0406891  25.1626062  46.6079602  84.2273377
  34.4659338  40.0604941  85.0042254  33.6100934  39.6711792  84.8247893
  34.8786289  40.1396902  84.1442040  35.9958484  37.5951285  89.4033814
  35.4923280  37.5581420  88.5901619  36.2889091  38.5044027  89.4630471
  32.2401370  37.6790014  88.4099996  33.1054367  37.4832823  88.0505885
  32.3078879  37.4500366  89.3369352  36.6698530  43.0882333  81.7716797
  36.3648665  43.4028482  82.6226940  37.6228972  43.1663753  81.8144130
  40.0937808  47.4421577  88.5376797  39.4361482  48.1320838  88.6256926
  40.8978207  47.8318008  88.8810784  29.8463689  39.9092222  85.7816363
  30.4207441  39.6867404  85.0489555  30.4334672  39.9780917  86.5344964
  38.9043266  45.7965949  86.5880739  39.4175148  46.4295941  87.0902449
  39.5544490  45.1967145  86.2224099  30.1733276  41.9396683  79.8012248
  29.3370589  42.2771370  80.1221523  30.0338046  41.8045663  78.8639385
  32.1486357  36.7833471  84.5091432  31.4950769  36.4682488  83.8848047
  32.1066831  36.1609212  85.2351255  36.1665641  55.7750273  79.3441410
  35.4927339  56.0781970  79.9526368  36.5531463  56.5779354  78.9946867
  35.3824097  43.2715405  88.8339080  34.4646659  43.4930352  88.6760768
  35.7984241  43.3461715  87.9750787  36.1659145  44.6706820  83.9641760
  36.9130964  45.1828218  83.6548882  36.4350735  44.3490873  84.8246153
  38.6137982  41.7063937  85.9460549  37.8760739  41.1941323  86.2770792
  38.8664756  41.2664318  85.1343826  38.1138002  52.6148447  85.6509700
  38.4060976  53.1753504  84.9322065  38.6236622  52.9077008  86.4062859
  38.7149609  34.4840189  86.5402318  39.0208486  33.6237552  86.2528234
  39.4402214  35.0757809  86.3401312  25.0073966  44.8870875  84.9283916
  24.8098365  44.2940236  84.2034983  24.4520630  44.5823085  85.6459855
  32.9870689  44.7793982  87.0478510  33.0419299  43.8267818  86.9720986
  32.1761891  44.9353421  87.5319808  30.9263049  43.3971041  84.8068888
  30.1130915  43.6965212  85.2134081  31.4222043  43.0026730  85.5243371
  33.0771627  53.3928798  86.7403153  33.0347806  53.6189645  85.8111685
  33.9934326  53.1592173  86.8888954  36.5237261  43.8612866  93.6383782
  36.8786649  44.0884339  94.4978248  37.1709392  44.1931243  93.0161038
  42.2534998  46.9831302  84.3433111  42.1152896  47.1732898  83.4154301
  41.8971217  47.7450685  84.8001162  30.4177124  40.9689397  90.4230123
  31.0576503  40.8278156  89.7253087  29.5854654  40.6823910  90.0468725
  42.2804377  49.0507829  89.3544383  42.7140884  48.9583118  90.2027437
  42.9935958  49.0265329  88.7164399  31.1937428  50.2691827  86.5365116
  31.9878026  49.7742148  86.3347691  30.4829120  49.7409691  86.1732821
  36.0132272  52.6509923  90.8877483  36.0669295  53.2200859  91.6555199
  35.1447054  52.8211808  90.5231521  27.5020191  44.4134909  82.6124868
  26.5717779  44.3519365  82.8294831  27.5977663  43.8910862  81.8161510
  27.4205740  40.9389722  85.2003110  27.6812558  41.8535055  85.0912271
  28.2422913  40.4714165  85.3499723  28.8930666  42.3527479  92.3701935
  29.5653719  42.1444841  91.7214584  28.0660452  42.1549565  91.9307167
  43.1419927  49.0931530  91.8877268  43.3355817  49.9977340  92.1336543
  43.0420545  48.6338949  92.7215853  34.7956238  38.9789420  94.3867596
  34.1484153  39.6779370  94.2932072  35.5657253  39.4125564  94.7543844
  38.2035036  49.2438272  97.4618149  38.0520542  49.0148824  96.5448233
  38.1939715  50.2008874  97.4749494  34.9720372  46.8170185  92.4464415
  35.9012432  46.9681345  92.2733383  34.5511402  46.9054206  91.5913062
  33.7708704  50.8420849  90.2162953  33.6319789  50.4739634  91.0888891
  32.9823300  51.3568489  90.0446911  34.3656856  55.9429946  81.5588489
  34.5408611  55.4717989  82.3734112  33.6789644  56.5695712  81.7869750
  35.3213919  50.2202452  87.6051791  34.9863752  50.1803222  88.5009441
  34.8217865  49.5547168  87.1322201  29.2958163  45.6270082  93.1304372
  29.1577961  44.8950321  93.7315911  30.2063086  45.5378982  92.8488560
  31.9240464  45.3390041  92.6188051  32.6340082  44.6983234  92.5774670
  31.8809772  45.5902936  93.5414232  30.6369398  42.3255259  94.4383691
  30.1006755  41.8745998  95.0905287  30.0486106  42.4601168  93.6954155
  30.0471656  41.7843911  77.0010155  29.1701123  41.6632712  76.6372401
  30.5229410  40.9929989  76.7489043  39.9144650  50.2396979  93.7708610
  39.0271428  49.9022901  93.8935009  40.4843201  49.5080010  94.0077376
  21.5673797  46.5721070  87.0951662  22.2544836  46.2582801  86.5072677
  21.4121925  47.4762435  86.8218913  26.3708519  41.4611267  91.5236685
  26.2866707  40.8536937  90.7887095  25.5491225  41.9520285  91.5246182
  33.4445803  54.8998431  90.7369854  33.3715974  55.7053403  91.2489158
  33.0023196  55.0990397  89.9117875  33.2335583  54.1370201  84.2472675
  32.4503104  54.6791881  84.3410900  33.9328328  54.6544181  84.6466916
  36.5432233  39.9464831  86.8906880  37.0400932  39.1934793  86.5707951
  35.7719214  39.9829147  86.3250090  44.3961990  45.6505196  88.5325172
  44.3851866  46.5329912  88.1619105  43.5279369  45.2976747  88.3379709
  37.6262013  48.7036518  84.4645304  36.6918292  48.8237980  84.2950008
  37.8038682  47.8008985  84.2005314  33.1267201  42.0882214  86.6178565
  32.7564989  41.5353254  87.3059471  33.6226294  41.4840347  86.0653565
  41.0134565  44.5453837  84.9995338  41.4795017  45.3781829  84.9255641
  41.4642065  44.0798819  85.7040597  30.9556400  52.5479709  93.7133583
  31.6565859  53.1816192  93.8662977  30.4851515  52.8894440  92.9529222
  38.9851227  36.9134424  89.0386239  38.0714307  37.1438651  89.2068446
  39.4144329  36.9972868  89.8900272  38.7557686  45.1024316  91.5386133
  38.1029136  45.3500223  90.8838586  39.1338066  44.2888454  91.2048611
  35.7164860  55.1384009  85.6414304  35.8987254  54.3205665  86.1042056
  36.5397846  55.3551701  85.2039194  34.8045259  45.8444127  98.0252170
  34.1285896  45.7438256  98.6954546  35.6272893  45.6883341  98.4888168
  26.5524118  52.0816064  90.6464686  27.1377555  51.3359752  90.7792590
  26.3548956  52.3920020  91.5301350  29.4062773  55.1167311  85.6627128
  28.7373148  55.6013439  85.1791168  29.2675643  55.3636531  86.5770507
  21.1441773  44.6521664  89.3669129  21.1825872  44.1185255  90.1606247
  20.6382066  44.1256869  88.7480106  28.5232535  39.4986204  92.8631671
  28.5873862  40.3601035  92.4509069  28.4599655  38.8860206  92.1304030
  27.9984808  41.5709337  96.5104705  28.6256846  41.1886414  97.1242230
  27.1412726  41.3523539  96.8760398  24.7750350  43.3785766  82.4423060
  25.0703791  42.4696444  82.3890114  23.8738386  43.3573505  82.1204063
  28.3044597  41.4541763  88.4250609  27.5831183  42.0677730  88.2858082
  29.0937853  41.9899527  88.3467255  31.1070911  38.7896189  94.6991261
  31.6305313  39.0358486  95.4617570  30.8883244  39.6216224  94.2794398
  26.5038192  41.0599864  82.5662385  26.1750898  40.1797243  82.3837491
  26.8577563  41.0047532  83.4538775  35.7517771  52.6954766  87.0757371
  35.6042733  51.7671474  87.2564941  36.5771264  52.7174857  86.5914446
  29.6180015  41.3472833  82.9337863  29.9576088  41.8758755  82.2116471
  30.0652136  41.6853240  83.7096430  32.3123456  39.7309884  92.3840931
  31.9720276  38.9317697  92.7861611  31.6062462  40.0311595  91.8117764
  32.9639928  36.8159197  90.8368254  33.7865997  36.3419675  90.7147144
  33.2077991  37.5949680  91.3366940  31.6048162  39.8447455  81.1331156
  32.3256525  40.2228708  80.6294873  30.9813466  40.5636332  81.2366134
  35.7479285  40.5492604  82.0689488  35.9642899  41.4317242  81.7678316
  35.2673352  40.1578817  81.3395130  30.4878506  43.5078317  88.6460233
  30.3423087  43.8218620  89.5384514  30.0103710  44.1263218  88.0931131
  32.3474889  40.4980865  88.6941122  32.3336458  39.6021959  88.3573420
  33.0647317  40.5051529  89.3279408  34.2001020  40.9318205  90.7394250
  33.9418798  41.8535276  90.7378580  33.6686060  40.5348640  91.4294714
  24.9624169  46.0483662  91.5847894  24.4177637  46.8243470  91.7168168
  25.8403519  46.3954466  91.4267015  31.7511785  39.3795246  83.9628692
  31.8727696  38.4511892  84.1619580  31.4613828  39.3933931  83.0507008
  34.6202976  37.0650156  87.0995412  34.6424673  37.1289489  86.1447392
  35.0371035  36.2254665  87.2935918  44.9986600  46.8005416  85.1374635
  45.4417746  46.0512741  84.7393758  44.1213110  46.7915552  84.7548367
  25.7490191  45.1753558  94.4778051  25.0071927  45.3236193  95.0642681
  25.4282935  45.4361824  93.6144800  33.7154465  56.8707446  86.5063817
  33.2759455  56.3783824  87.1996674  34.4662582  56.3280413  86.2655893
  26.1946804  53.0618987  86.5088445  27.0204824  52.7622759  86.1287089
  25.8440856  52.2926609  86.9578234  31.1628337  52.4145455  88.5786119
  30.5408347  51.7516160  88.2788347  31.8333204  52.4406587  87.8959767
  24.3955409  50.9805313  87.4677379  23.5587318  50.5527487  87.2861380
  24.3679055  51.1737756  88.4048170  31.2352865  40.8927243  98.1718625
  31.2841020  41.7689366  97.7896395  31.7775379  40.3504636  97.5990268
  41.8405586  48.2860833  94.7652491  41.8903590  48.1210840  95.7068013
  41.7319509  47.4188092  94.3750371  30.7241844  50.9649378  82.0544580
  30.8729965  51.6484843  81.4011252  31.5308288  50.9454468  82.5694035
  39.1309348  44.2691761  96.0811797  40.0319211  44.1298225  95.7895795
  39.2057322  44.4346215  97.0209975  33.4652153  41.6458615  94.9264984
  32.5955463  41.9392181  94.6547572  33.7011634  42.2299060  95.6472247
  44.5419465  48.2710654  87.5297082  45.3766356  48.7100458  87.6934643
  44.6778593  47.7949307  86.7105328  41.5910971  45.8290389  93.4774570
  42.0665092  46.0218035  92.6693422  40.6676536  45.8849574  93.2317954
  28.4794477  46.9914556  83.0605648  28.2340519  46.0876886  83.2585859
  28.6490392  46.9931706  82.1185126  36.1691187  37.8638232  92.4430404
  36.6873131  38.5999259  92.1176893  35.8146320  38.1702226  93.2777163
  27.7490125  42.7242913  80.5591810  27.0559370  42.7987268  79.9031846
  27.5041877  41.9603257  81.0813327  36.4203781  34.2838515  87.9631301
  36.7005535  33.6161704  88.5891727  37.2054388  34.4767610  87.4505965
  40.2912640  42.7056149  91.7102876  41.2430063  42.8054246  91.7315100
  40.1216090  41.9134417  92.2200960  38.3127019  39.7911732  91.8962277
  37.7176951  40.0716745  91.2008765  38.0276716  40.2805633  92.6679018
  42.7700717  45.9262268  90.8245175  42.7377038  44.9878269  91.0104859
  43.3801341  46.0046305  90.0911000  34.6084048  44.7958321  76.8672380
  35.5543153  44.6664530  76.9360798  34.2298293  44.0572983  77.3441808
  42.9195206  42.7173312  90.8703459  42.4034255  41.9331769  90.6833388
  43.8035154  42.3892028  91.0349978  40.5805933  36.4614327  86.8299271
  40.3830754  36.1529416  87.7142603  41.1905638  37.1875966  86.9597201
  48.5877267  46.9878275  89.9651212  49.3180656  46.7263563  90.5258916
  47.9784213  46.2506997  90.0053280  46.6692564  45.1286138  90.5625663
  45.9425728  44.9942103  89.9542155  46.2539851  45.4362966  91.3682381
  34.4922741  48.8476068  98.3273036  35.4125750  49.0254667  98.5213083
  34.4572324  47.9032113  98.1752736  32.7926965  42.7208298  76.8027265
  31.8858421  42.4241411  76.8789978  33.0702946  42.4238116  75.9361551
  23.7104906  44.0414661  87.2526311  23.3907690  43.1879969  86.9600685
  23.1638334  44.2563239  88.0084278  27.4884813  46.7577102  90.9695818
  27.7070823  47.6894210  90.9883851  27.9010587  46.3985077  91.7550621
  34.4089031  37.2645188  82.9571506  33.5989759  36.9192272  83.3326752
  35.0973448  36.9552731  83.5459118  36.3379579  36.3423234  84.5795803
  36.8910618  36.7618688  85.2385826  36.5749666  35.4158982  84.6218759
  32.3612679  42.3310308 100.3598567  32.2609406  43.2804665 100.2910658
  32.1434221  42.0028547  99.4874637  31.5625750  39.5795233  76.9439244
  32.4244914  39.9050131  77.2035061  31.7476094  38.7926729  76.4312310
  23.5793166  47.6617573  89.2219433  22.8856637  47.2471525  88.7089387
  24.3266157  47.7038109  88.6252852  39.7158387  38.4523759  84.0874467
  39.1357056  39.1108564  83.7052519  39.4494319  37.6301104  83.6761884
  38.1661953  37.8528817  86.2895787  38.6661731  37.9645352  85.4810106
  38.8097561  37.5489870  86.9296596  32.2243949  45.7607447  99.1763628
  31.7411030  46.5607807  99.3827517  32.3104888  45.7715392  98.2231072
  25.4929908  47.5935826  87.0985448  25.4700596  47.6923514  86.1467331
  25.8030545  48.4400977  87.4202614  28.1517286  49.6511982  91.2132062
  29.1060540  49.6195924  91.1461994  27.9529810  49.1902605  92.0282288
  28.7416668  48.2213098  93.7802860  29.5609557  48.7157176  93.8037697
  29.0153476  47.3045066  93.7520427  38.4983265  40.6123850  83.1430815
  37.6109120  40.8973500  82.9251010  38.9137254  40.4517613  82.2958092
  41.8497801  40.6370371  86.8585154  42.6258191  41.1266823  87.1309771
  41.1245935  41.0628425  87.3157024  44.2870359  41.3497990  87.9159095
  44.8814850  41.1093726  87.2052403  44.3596943  40.6305121  88.5432631
  26.5067515  55.1931601  88.2302260  26.3721983  54.4332002  87.6640258
  26.0899577  55.9172501  87.7631049  42.2829094  41.9168118  84.1831225
  42.0266028  41.5164753  85.0139433  41.6581962  42.6311912  84.0581364
  46.5941432  44.6564191  86.6902516  46.0340990  44.7257380  87.4634078
  45.9884935  44.4805176  85.9702012  29.6636641  56.0900918  88.4420703
  29.5469025  57.0346351  88.3399393  28.8429087  55.7874480  88.8306502
  23.9951583  42.5551231  94.4795057  24.6410446  42.0450185  94.9682282
  23.7868734  43.2919913  95.0538482  32.5155193  36.8191276  80.2318953
  32.5033863  37.7633116  80.3887224  33.4078615  36.6361421  79.9378414
  32.4444757  55.4960166  88.3186710  31.4940388  55.4962028  88.2051082
  32.7477243  54.7492901  87.8022744  36.3307313  33.4134053  84.4864890
  35.5639708  32.8592539  84.6321572  36.7418017  33.4855921  85.3479041
  28.3349074  39.7018848  98.5770071  29.1980535  39.3455653  98.7873396
  27.7614484  39.3632743  99.2645475  45.4706940  62.4382985  95.2780202
  45.4595581  62.0435783  94.4060706  45.6327579  61.7049057  95.8713974
  50.6572566  52.7068966  91.8213267  50.3255891  53.5764377  91.5974482
  50.0618180  52.3905250  92.5007298  50.5501230  57.4264052  88.9006617
  49.6418107  57.3579461  88.6065378  50.4988826  57.9035997  89.7288443
  44.3717974  58.9022191  80.5390016  44.2517599  59.3479241  81.3775497
  43.6770562  59.2507508  79.9803554  52.4162876  55.6280491  90.6784491
  51.7737256  55.9213024  90.0324286  51.9117805  55.5133411  91.4837688
  47.8574323  56.3945267  94.0346374  47.6135255  57.1487327  93.4980649
  48.1334253  56.7730614  94.8693621  47.4139015  55.5501700  89.6160211
  46.5523494  55.8482953  89.9076949  47.4401449  55.7672099  88.6841244
  36.9094804  58.4750595  88.1340716  36.1193858  58.7308124  87.6580826
  37.4006051  59.2898933  88.2392756  38.8609549  58.8395175  85.0924192
  38.0640713  58.9513869  85.6107688  38.6335142  59.1781827  84.2265083
  35.1932507  58.7281086  90.5655706  35.4440545  59.6128096  90.8313282
  35.7292055  58.5485687  89.7930798  47.7555698  50.5538547  91.4384581
  47.4119968  51.4440189  91.3623691  48.1234661  50.3640205  90.5754166
  45.3053092  55.3896859  85.0042254  44.4494688  55.0003709  84.8247893
  45.7180044  55.4688820  84.1442040  46.8352239  52.9243202  89.4033814
  46.3317034  52.8873337  88.5901619  47.1282846  53.8335945  89.4630471
  40.6857444  55.2384140  85.7816363  41.2601196  55.0159321  85.0489555
  41.2728426  55.3072834  86.5344964  42.9880111  52.1125389  84.5091432
  42.3344524  51.7974406  83.8848047  42.9460585  51.4901129  85.2351255
  46.2217852  58.6007322  88.8339080  45.3040413  58.8222269  88.6760768
  46.6377995  58.6753633  87.9750787  49.4531737  57.0355854  85.9460549
  48.7154493  56.5233241  86.2770792  49.7058510  56.5956236  85.1343826
  49.5543364  49.8132106  86.5402318  49.8602241  48.9529470  86.2528234
  50.2795969  50.4049727  86.3401312  41.7656804  58.7262959  84.8068888
  40.9524669  59.0257130  85.2134081  42.2615798  58.3318648  85.5243371
  47.3631015  59.1904784  93.6383782  47.7180403  59.4176257  94.4978248
  48.0103147  59.5223160  93.0161038  38.2599495  56.2681640  85.2003110
  38.5206312  57.1826973  85.0912271  39.0816667  55.8006082  85.3499723
  45.6349992  54.3081338  94.3867596  44.9877907  55.0071287  94.2932072
  46.4051008  54.7417482  94.7543844  47.3825987  55.2756748  86.8906880
  47.8794687  54.5226711  86.5707951  46.6112969  55.3121065  86.3250090
  43.9660956  57.4174131  86.6178565  43.5958743  56.8645172  87.3059471
  44.4620048  56.8132265  86.0653565  49.8244982  52.2426342  89.0386239
  48.9108062  52.4730569  89.2068446  50.2538083  52.3264786  89.8900272
  49.5951440  60.4316234  91.5386133  48.9422891  60.6792141  90.8838586
  49.9731820  59.6180372  91.2048611  35.6144105  58.7077684  82.4423060
  35.9097546  57.7988362  82.3890114  34.7132141  58.6865423  82.1204063
  37.3431946  56.3891781  82.5662385  37.0144653  55.5089160  82.3837491
  37.6971317  56.3339450  83.4538775  40.4573770  56.6764751  82.9337863
  40.7969842  57.2050672  82.2116471  40.9045890  57.0145157  83.7096430
  43.8033682  52.1451114  90.8368254  44.6259752  51.6711592  90.7147144
  44.0471746  52.9241598  91.3366940  45.0394775  56.2610123  90.7394250
  44.7812552  57.1827194  90.7378580  44.5079815  55.8640558  91.4294714
  42.5905540  54.7087163  83.9628692  42.7121451  53.7803809  84.1619580
  42.3007582  54.7225849  83.0507008  45.4596730  52.3942074  87.0995412
  45.4818427  52.4581407  86.1447392  45.8764789  51.5546582  87.2935918
  49.9703102  59.5983678  96.0811797  50.8712965  59.4590143  95.7895795
  50.0451077  59.7638133  97.0209975  47.0084942  53.1930150  92.4430404
  47.5266885  53.9291177  92.1176893  46.6540074  53.4994143  93.2777163
  47.2597536  49.6130432  87.9631301  47.5399290  48.9453622  88.5891727
  48.0448143  49.8059528  87.4505965  51.1306394  58.0348066  91.7102876
  52.0823817  58.1346164  91.7315100  50.9609845  57.2426335  92.2200960
  49.1520774  55.1203650  91.8962277  48.5570706  55.4008662  91.2008765
  48.8670470  55.6097551  92.6679018  53.7588960  58.0465230  90.8703459
  53.2428009  57.2623686  90.6833388  54.6428909  57.7183946  91.0349978
  51.4199687  51.7906245  86.8299271  51.2224508  51.4821333  87.7142603
  52.0299393  52.5167884  86.9597201  47.1773334  51.6715152  84.5795803
  47.7304373  52.0910605  85.2385826  47.4143420  50.7450900  84.6218759
  49.0055707  53.1820735  86.2895787  49.5055486  53.2937269  85.4810106
  49.6491315  52.8781788  86.9296596  52.6891555  55.9662289  86.8585154
  53.4651945  56.4558741  87.1309771  51.9639689  56.3920343  87.3157024
  55.1264114  56.6789908  87.9159095  55.7208605  56.4385644  87.2052403
  55.1990697  55.9597038  88.5432631  53.1222849  57.2460035  84.1831225
  52.8659783  56.8456671  85.0139433  52.4975717  57.9603829  84.0581364
  47.1701067  48.7425970  84.4864890  46.4033463  48.1884457  84.6321572
  47.5811772  48.8147839  85.3479041  60.0766425  82.6356147  98.1158441
  60.6206329  83.2486106  97.6213396  59.4953270  83.1935726  98.6325454
  67.1494449  93.0966820  95.2780202  67.1383090  92.7019618  94.4060706
  67.3115088  92.3632893  95.8713974  68.1061040  97.4638412  80.6205353
  67.4549020  98.0492493  80.2339366  68.9005403  97.9944607  80.6800390
  63.8701710  95.8803932  94.2259386  63.5791576  96.7849563  94.1106052
  64.5058694  95.9220459  94.9403456  69.5836305  95.1528844  81.1574337
  68.9482138  95.2263471  81.8695241  69.2533712  95.7422443  80.4793416
  74.8134655  89.6531227  87.3618659  75.5459827  89.0830444  87.5956488
  74.0574011  89.2652828  87.8025164  72.3360075  83.3652801  91.8213267
  72.0043400  84.2348212  91.5974482  71.7405689  83.0489085  92.5007298
  68.8291595  95.5665347  91.2209180  68.5292318  96.4690386  91.1124987
  68.4842655  95.2997531  92.0730333  72.2288739  88.0847888  88.9006617
  71.3205616  88.0163296  88.6065378  72.1776335  88.5619832  89.7288443
  63.8112375 102.3309668  84.1880148  63.7336404 103.2817493  84.2668628
  63.2074018 101.9855540  84.8455074  66.3029605  89.5037533  96.8441514
  65.5262939  90.0631453  96.8344379  66.9420168  89.9894316  97.3656385
  74.0950385  86.2864326  90.6784491  73.4524765  86.5796859  90.0324286
  73.5905314  86.1717246  91.4837688  64.5575977  92.3122986  96.4059481
  65.2990661  92.8508030  96.1294305  63.8512962  92.9389275  96.5631033
  70.0331317  94.4552127  95.0031643  70.4414673  94.0134537  94.2586275
  69.3108578  93.8804754  95.2565836  70.3560131  95.0153318  88.7583932
  69.7268994  95.1799032  88.0560000  69.9685793  95.4294927  89.5294896
  74.2349363  95.9507755  86.1128296  73.5500401  96.3306657  85.5625329
  74.3193212  96.5603082  86.8460243  69.5361832  87.0529102  94.0346374
  69.2922764  87.8071163  93.4980649  69.8121762  87.4314450  94.8693621
  71.4900295  93.5967714  92.7123639  71.7017190  94.2399474  92.0358020
  71.4430043  92.7630031  92.2445569  65.9088093  94.7527726  86.0234017
  66.3726439  95.0315429  85.2338639  65.6444891  93.8511170  85.8407108
  63.2937341  89.4662635  97.2074791  62.6636001  90.1478916  97.4410188
  63.1873428  89.3545716  96.2627930  72.6046123  96.4739670  90.8845996
  73.4263566  96.0719857  90.6028678  72.6008525  96.3707904  91.8362112
  80.6952116  92.8178418  87.2330968  79.9415824  92.2485816  87.0774972
  80.8299657  92.7841083  88.1801603  66.0850744  97.6891821  82.9085687
  65.9496418  98.5343356  83.3370535  66.6260556  97.8911098  82.1451621
  62.5718083  83.7683401  99.5700043  62.1785029  83.2149599 100.2447687
  63.3884224  84.0793979  99.9606560  61.3475026  98.3233015  85.5636366
  61.5241654  99.2450980  85.3757349  62.1431859  98.0091434  85.9930745
  65.4886044  85.1841280  97.1620299  66.2295758  85.7848433  97.0824762
  65.7203967  84.4418917  96.6038342  67.7119220  98.3115387  97.0386029
  67.2683074  97.5251766  96.7206934  68.3736434  98.4994538  96.3729920
  62.4706341  99.8411189  91.5646708  63.0213766  99.7128252  90.7923702
  61.6317817 100.1406078  91.2141601  69.8100458  98.5918187  95.0667431
  69.7918933  99.4127068  94.5747700  70.7320378  98.4672262  95.2917572
  66.2673512  96.1062317  95.9090939  66.8001849  95.3450605  95.6790247
  65.7387593  95.8135968  96.6515093  69.4343207  81.2122383  91.4384581
  69.0907477  82.1024024  91.3623691  69.8022170  81.0224040  90.5754166
  69.3993490  91.2030994  79.9457016  68.8840113  91.9735598  80.1845403
  69.1270798  90.5296130  80.5690077  74.3727764  93.9563348  81.8810189
  73.5957207  93.6174508  81.4365351  75.0519245  93.9615971  81.2065154
  67.6326225  95.2348309  83.4209751  67.1047587  94.5001069  83.1082988
  67.1313728  96.0122985  83.1749719  72.6119071  93.4297330  88.5376797
  71.9542745  94.1196591  88.6256926  73.4159470  93.8193761  88.8810784
  71.4224530  91.7841702  86.5880739  71.9356412  92.4171694  87.0902449
  72.0725754  91.1842898  86.2224099  65.7778825  93.0528519  76.4244724
  64.8705887  92.8217773  76.6235873  66.2749857  92.2566139  76.6118706
  68.6846904 101.7626027  79.3441410  68.0108603 102.0657723  79.9526368
  69.0712726 102.5655107  78.9946867  66.9567059  93.1541114  80.9468714
  66.0478278  92.8700147  81.0441184  66.9862142  93.5740193  80.0872021
  72.1886326  96.7647704  84.7159882  71.7348653  95.9238614  84.7725072
  71.5580293  97.4009102  85.0534662  70.6319265  98.6024200  85.6509700
  70.9242240  99.1629257  84.9322065  71.1417886  98.8952761  86.4062859
  66.6543146  94.6949858  78.2856793  66.2162576  93.9785717  77.8262430
  67.3953587  94.9225973  77.7241884  65.5952890  99.3804551  86.7403153
  65.5529069  99.6065398  85.8111685  66.5115589  99.1467926  86.8888954
  74.7716261  92.9707055  84.3433111  74.6334160  93.1608651  83.4154301
  74.4152480  93.7326438  84.8001162  74.7985641  95.0383582  89.3544383
  75.2322147  94.9458871  90.2027437  75.5117222  95.0141082  88.7164399
  68.5313536  98.6385676  90.8877483  68.5850558  99.2076612  91.6555199
  67.6628317  98.8087561  90.5231521  75.6601190  95.0807283  91.8877268
  75.8537080  95.9853093  92.1336543  75.5601809  94.6214702  92.7215853
  70.7216299  95.2314025  97.4618149  70.5701805  95.0024577  96.5448233
  70.7120979  96.1884627  97.4749494  66.8838119 101.9305699  81.5588489
  67.0589875 101.4593742  82.3734112  66.1970907 102.5571465  81.7869750
  67.8395182  96.2078205  87.6051791  67.5045015  96.1678975  88.5009441
  67.3399128  95.5422921  87.1322201  70.7754374  93.5534239  77.8788850
  70.1583545  92.8281068  77.7821903  70.3070863  94.3143600  77.5355925
  72.4308506  98.2633148  95.5394631  72.3721052  97.5792368  94.8725214
  72.8328024  99.0052138  95.0875257  61.4499205 105.0795062  88.3328350
  61.6895803 105.7113586  89.0107368  60.6068401 104.7283102  88.6193709
  72.4325913  96.2272732  93.7708610  71.5452692  95.8898654  93.8935009
  73.0024464  95.4955763  94.0077376  65.9627066 100.8874184  90.7369854
  65.8897238 101.6929156  91.2489158  65.5204459 101.0866150  89.9117875
  65.7516846 100.1245954  84.2472675  64.9684368 100.6667634  84.3410900
  66.4509591 100.6419934  84.6466916  76.9143254  91.6380949  88.5325172
  76.9033130  92.5205665  88.1619105  76.0460633  91.2852500  88.3379709
  68.4225750 100.7861018  92.8928012  69.1353722 101.4208483  92.8203914
  67.9315779 100.8824884  92.0768014  70.1443277  94.6912271  84.4645304
  69.2099556  94.8113733  84.2950008  70.3219945  93.7884738  84.2005314
  73.5315828  90.5329590  84.9995338  73.9976280  91.3657582  84.9255641
  73.9823329  90.0674572  85.7040597  63.4737663  98.5355462  93.7133583
  64.1747123  99.1691945  93.8662977  63.0032778  98.8770193  92.9529222
  71.5992059  96.8773411  81.9981490  71.8751903  96.7630006  82.9075364
  70.7296558  96.4790896  81.9593663  71.5032491  82.9010177  89.0386239
  70.5895571  83.1314404  89.2068446  71.9325592  82.9848621  89.8900272
  71.2738949  91.0900069  91.5386133  70.6210400  91.3375977  90.8838586
  71.6519329  90.2764207  91.2048611  68.2346123 101.1259762  85.6414304
  68.4168518 100.3081418  86.1042056  69.0579109 101.3427455  85.2039194
  68.5688289 100.0527947  82.9029352  69.0976055  99.5420402  82.2899514
  68.8316508  99.7370478  83.7674885  67.3226522  91.8319880  98.0252170
  66.6467159  91.7314009  98.6954546  68.1454156  91.6759094  98.4888168
  61.9244037 101.1043064  85.6627128  61.2554412 101.5889192  85.1791168
  61.7856906 101.3512285  86.5770507  66.0649305 103.1386808  92.2609786
  66.6167613 103.3018429  93.0258872  66.4055499 103.7291245  91.5889811
  70.9160180  97.9648065  98.1158441  71.4600084  98.5778023  97.6213396
  70.3347024  98.5227644  98.6325454  69.2017693 101.0868783  89.2473469
  69.0768832 100.2858523  88.7384414  69.8596784 101.5814976  88.7587439
  71.2652601  98.8877803  90.8753019  70.3182936  98.7683154  90.8031345
  71.6135374  98.0000301  90.9579280  68.2699034  98.6830519  87.0757371
  68.1223997  97.7547227  87.2564941  69.0952528  98.7050610  86.5914446
  71.8733156  99.5059078  88.1622244  72.7979704  99.3001939  88.0246695
  71.7048459  99.2575479  89.0711585  71.6628472 100.0244746  83.5184335
  71.8365350  99.4591168  82.7658188  72.1557364 100.8245640  83.3363825
  77.5167863  92.7881169  85.1374635  77.9599010  92.0388494  84.7393758
  76.6394374  92.7791305  84.7548367  72.6503645  99.3411510  80.6181233
  73.3454549  99.9618203  80.8368548  72.9926795  98.4906861  80.8933611
  74.5495068  96.7911216  82.1468564  75.0746392  97.1298488  81.4217884
  74.4617420  95.8558231  81.9631699  66.2115117 100.7045289  94.2758441
  66.5202243 100.4594436  95.1481140  67.0090599 100.9091928  93.7877311
  66.2335729 102.8583199  86.5063817  65.7940719 102.3659578  87.1996674
  66.9843846 102.3156166  86.2655893  63.6809601  98.4021208  88.5786119
  63.0589610  97.7391913  88.2788347  64.3514468  98.4282340  87.8959767
  63.7534128  86.8802996  98.1718625  63.8022284  87.7565119  97.7896395
  64.2956643  86.3380389  97.5990268  74.2388974  97.4244119  97.4519762
  73.4484518  97.4068258  96.9124262  74.0022329  97.9632413  98.2068799
  74.3586849  94.2736586  94.7652491  74.4084854  94.1086593  95.7068013
  74.2500772  93.4063845  94.3750371  63.2423108  96.9525131  82.0544580
  63.3911228  97.6360596  81.4011252  64.0489551  96.9330221  82.5694035
  71.6490611  90.2567514  96.0811797  72.5500474  90.1173978  95.7895795
  71.7238586  90.4221968  97.0209975  65.9833417  87.6334368  94.9264984
  65.1136726  87.9267934  94.6547572  66.2192897  88.2174813  95.6472247
  75.8605046  96.6933527  95.0094512  75.5689854  97.0563508  95.8457973
  75.2477177  95.9800535  94.8307844  77.0600728  94.2586407  87.5297082
  77.8947620  94.6976211  87.6934643  77.1959857  93.7825060  86.7105328
  74.1092234  91.8166142  93.4774570  74.5846356  92.0093788  92.6693422
  73.1857799  91.8725328  93.2317954  66.7418513  99.4473262  79.5256327
  66.1692480 100.0663449  79.0726799  67.3151307  99.9972623  80.0596249
  72.8093903  88.6931902  91.7102876  73.7611326  88.7929999  91.7315100
  72.6397354  87.9010170  92.2200960  70.8308283  85.7787485  91.8962277
  70.2358215  86.0592498  91.2008765  70.5457979  86.2681386  92.6679018
  69.9615773  99.7310412  80.6564909  70.8946446  99.6655973  80.8597785
  69.8738986 100.5666679  80.1979442  72.5903790  99.0476282  77.6168857
  72.5117421  98.7136146  78.5104615  73.4113456  99.5398050  77.6160329
  75.2881981  91.9138021  90.8245175  75.2558301  90.9754022  91.0104859
  75.8982605  91.9922058  90.0911000  67.1265312  90.7834074  76.8672380
  68.0724416  90.6540283  76.9360798  66.7479557  90.0448736  77.3441808
  75.4376469  88.7049065  90.8703459  74.9215518  87.9207522  90.6833388
  76.3216418  88.3767782  91.0349978  81.1058531  92.9754028  89.9651212
  81.8361919  92.7139316  90.5258916  80.4965476  92.2382750  90.0053280
  79.1873828  91.1161891  90.5625663  78.4606991  90.9817856  89.9542155
  78.7721115  91.4238720  91.3682381  67.0104004  94.8351821  98.3273036
  67.9307014  95.0130420  98.5213083  66.9753587  93.8907866  98.1752736
  65.3108229  88.7084051  76.8027265  64.4039684  88.4117164  76.8789978
  65.5884210  88.4113869  75.9361551  64.8793942  88.3186061 100.3598567
  64.7790669  89.2680418 100.2910658  64.6615484  87.9904300  99.4874637
  64.7425212  91.7483200  99.1763628  64.2592294  92.5483560  99.3827517
  64.8286151  91.7591145  98.2231072  74.3679064  86.6246124  86.8585154
  75.1439454  87.1142576  87.1309771  73.6427198  87.0504178  87.3157024
  76.8051623  87.3373743  87.9159095  77.3996114  87.0969479  87.2052403
  76.8778206  86.6180874  88.5432631  59.0248778 101.1807354  88.2302260
  58.8903246 100.4207755  87.6640258  58.6080841 101.9048254  87.7631049
  70.1607741  96.3644278  77.2378835  70.8643592  96.5694280  77.8536491
  69.4370390  96.9321039  77.5027919  70.9905552  92.1154139  83.3581105
  70.9340753  92.5722690  82.5188738  71.5433894  91.3544823  83.1803948
  74.8010358  87.9043871  84.1831225  74.5447292  87.5040506  85.0139433
  74.1763226  88.6187665  84.0581364  79.1122696  90.6439944  86.6902516
  78.5522254  90.7133133  87.4634078  78.5066199  90.4680929  85.9702012
  62.1817904 102.0776671  88.4420703  62.0650288 103.0222104  88.3399393
  61.3610351 101.7750233  88.8306502  72.0694439  96.8026807  79.2877295
  72.9040043  96.3708005  79.1054770  71.9078782  96.6308820  80.2154190
  71.7240331  93.3058920  80.6533635  71.6689135  93.1403192  79.7122079
  71.0986386  94.0134953  80.8095824  69.0386238  95.6107832  99.9787197
  69.9077398  95.7848484  99.6173832  68.5592990  96.4302249  99.8562927
  63.2072418 102.7304933  91.6576631  64.1099665 102.7628543  91.9743126
  62.9809789 101.8005384  91.6722967  64.9626020 101.4835919  88.3186710
  64.0121652 101.4837781  88.2051082  65.2658507 100.7368654  87.8022744
  60.8530337  85.6894602  98.5770071  61.7161799  85.3331406  98.7873396
  60.2795748  85.3508496  99.2645475  80.6978714 107.3196458  89.3832472
  81.3357124 107.2003205  88.6795812  80.5799557 108.2677302  89.4420424
  77.5068420 107.2723886  89.3193997  77.1686932 107.1564951  88.4314532
  78.3758188 106.8715051  89.2995003  73.3655236 109.1259362  85.3090888
  72.8020101 109.0349299  84.5407175  73.2507631 108.3059267  85.7893380
  77.9888203 108.4258738  95.2780202  77.9776844 108.0311536  94.4060706
  78.1508843 107.6924810  95.8713974  70.9119668 110.6210554  88.1475108
  71.7040960 110.2801379  87.7321407  71.1516318 110.7305529  89.0677261
  78.9454795 112.7930330  80.6205353  78.2942774 113.3784411  80.2339366
  79.7399157 113.3236525  80.6800390  72.8710422 109.8819467  81.0192487
  73.6441298 109.3348454  80.8805363  73.2235821 110.7463717  81.2306948
  74.7095464 111.2095850  94.2259386  74.4185330 112.1141480  94.1106052
  75.3452449 111.2512377  94.9403456  75.6351671 108.5872698  90.8160746
  76.2315243 108.3628720  90.1017709  75.6926643 107.8457444  91.4186194
  75.2076700 106.0412133  78.6510937  75.4602220 105.5193655  77.8894400
  74.2701259 105.8778279  78.7537620  80.2519982 105.0447912  86.4585680
  81.0383072 104.6267335  86.1076097  80.5158687 105.9494004  86.6267328
  80.4230060 110.4820762  81.1574337  79.7875893 110.5555389  81.8695241
  80.0927466 111.0714361  80.4793416  85.6528410 104.9823145  87.3618659
  86.3853582 104.4122362  87.5956488  84.8967765 104.5944745  87.8025164
  74.9272988 107.9440239  80.8535312  74.8109246 107.2685143  81.5216396
  75.0375248 107.4572613  80.0367465  77.2704529 107.4050386  84.5582001
  76.9062737 106.8781007  85.2694922  78.1271645 107.0148855  84.3848486
  83.1753830  98.6944719  91.8213267  82.8437155  99.5640130  91.5974482
  82.5799443  98.3781003  92.5007298  76.9110016 102.4340286  79.5543350
  77.0784419 103.3020523  79.9213821  76.7207185 102.5967568  78.6304639
  79.6685349 110.8957265  91.2209180  79.3686073 111.7982304  91.1124987
  79.3236409 110.6289448  92.0730333  73.1197831 107.3471062  87.2545884
  72.1948327 107.2147276  87.4623576  73.3682244 108.1265281  87.7515827
  83.0682493 103.4139805  88.9006617  82.1599371 103.3455214  88.6065378
  83.0170089 103.8911750  89.7288443  76.8899237 104.8897944  80.5390016
  76.7698862 105.3354994  81.3775497  76.1951826 105.2383261  79.9803554
  70.4806642 106.9904335  88.0889673  70.6099023 107.2438814  89.0029085
  69.8004093 107.5832043  87.7694328  74.6506129 117.6601585  84.1880148
  74.5730159 118.6109410  84.2668628  74.0467773 117.3147458  84.8455074
  77.1423359 104.8329451  96.8441514  76.3656693 105.3923371  96.8344379
  77.7813922 105.3186234  97.3656385  84.9344140 101.6156244  90.6784491
  84.2918520 101.9088777  90.0324286  84.4299068 101.5009164  91.4837688
  82.5884303 105.3619417  81.3670350  83.5002159 105.5946804  81.1918048
  82.0793950 105.9456461  80.8045429  75.3969731 107.6414904  96.4059481
  76.1384416 108.1799948  96.1294305  74.6906717 108.2681193  96.5631033
  80.8725071 109.7844045  95.0031643  81.2808427 109.3426455  94.2586275
  80.1502332 109.2096672  95.2565836  77.2256141 104.7216651  92.3765200
  78.0717336 105.1456065  92.5199849  77.1654779 104.0650276  93.0703763
  81.1953886 110.3445235  88.7583932  80.5662748 110.5090949  88.0560000
  80.8079548 110.7586845  89.5294896  85.0743118 111.2799673  86.1128296
  84.3894156 111.6598574  85.5625329  85.1586967 111.8895000  86.8460243
  80.3755586 102.3821020  94.0346374  80.1316518 103.1363080  93.4980649
  80.6515517 102.7606367  94.8693621  82.3294049 108.9259632  92.7123639
  82.5410944 109.5691392  92.0358020  82.2823797 108.0921949  92.2445569
  79.9320278 101.5377453  89.6160211  79.0704757 101.8358706  89.9076949
  79.9582713 101.7547852  88.6841244  76.7481848 110.0819643  86.0234017
  77.2120193 110.3607346  85.2338639  76.4838646 109.1803088  85.8407108
  73.6405929 109.6291125  88.9613780  74.2107286 110.0578393  88.3231265
  74.2314040 109.3473710  89.6597966  75.6850734 106.2042796  82.8323582
  76.3874777 106.6563839  83.2997508  75.3531362 105.5626615  83.4603475
  74.1331095 104.7954552  97.2074791  73.5029756 105.4770833  97.4410188
  74.0267183 104.6837634  96.2627930  69.4276068 104.4626348  88.1340716
  68.6375122 104.7183877  87.6580826  69.9187315 105.2774686  88.2392756
  83.4439877 111.8031588  90.8845996  84.2657321 111.4011775  90.6028678
  83.4402280 111.6999822  91.8362112  71.3790813 104.8270928  85.0924192
  70.5821976 104.9389622  85.6107688  71.1516405 105.1657580  84.2265083
  77.2096481 111.3515631  93.0406707  77.2740913 111.8136038  93.8764879
  76.5007404 110.7212996  93.1689017  67.7113771 104.7156839  90.5655706
  67.9621809 105.6003849  90.8313282  68.2473319 104.5361440  89.7930798
  91.5345870 108.1470336  87.2330968  90.7809579 107.5777734  87.0774972
  91.6693411 108.1133001  88.1801603  76.9244498 113.0183738  82.9085687
  76.7890173 113.8635274  83.3370535  77.4654311 113.2203016  82.1451621
  73.4111838  99.0975318  99.5700043  73.0178783  98.5441517 100.2447687
  74.2277978  99.4085897  99.9606560  70.3773896 110.5359176  83.4813612
  70.8898416 111.3302427  83.6319177  71.0296608 109.8385467  83.4147214
  72.1868780 113.6524933  85.5636366  72.3635409 114.5742897  85.3757349
  72.9825614 113.3383352  85.9930745  76.3279799 100.5133197  97.1620299
  77.0689512 101.1140350  97.0824762  76.5597722  99.7710835  96.6038342
  71.4721137 105.6989565  95.4398529  71.3574652 104.7974822  95.7405628
  70.6165655 105.9453261  95.0883345  78.5512975 113.6407305  97.0386029
  78.1076829 112.8543683  96.7206934  79.2130188 113.8286455  96.3729920
  73.3100096 115.1703106  91.5646708  73.8607521 115.0420170  90.7923702
  72.4711572 115.4697995  91.2141601  80.6494213 113.9210105  95.0667431
  80.6312688 114.7418986  94.5747700  81.5714133 113.7964180  95.2917572
  77.1067267 111.4354234  95.9090939  77.6395604 110.6742522  95.6790247
  76.5781348 111.1427886  96.6515093  80.2736962  96.5414300  91.4384581
  79.9301231  97.4315942  91.3623691  80.6415924  96.3515958  90.5754166
  68.3422812 108.8647831  84.2573183  69.1798034 109.2744839  84.0406891
  68.5201080 107.9247273  84.2273377  80.2387244 106.5322911  79.9457016
  79.7233868 107.3027516  80.1845403  79.9664553 105.8588047  80.5690077
  77.8234356 101.3772612  85.0042254  76.9675952 100.9879462  84.8247893
  78.2361307 101.4564573  84.1442040  79.3533502  98.9118955  89.4033814
  78.8498298  98.8749091  88.5901619  79.6464109  99.8211698  89.4630471
  75.5976388  98.9957685  88.4099996  76.4629385  98.8000494  88.0505885
  75.6653897  98.7668037  89.3369352  85.2121519 109.2855266  81.8810189
  84.4350961 108.9466425  81.4365351  85.8913000 109.2907889  81.2065154
  80.0273548 104.4050003  81.7716797  79.7223683 104.7196153  82.6226940
  80.9803990 104.4831423  81.8144130  78.4719980 110.5640227  83.4209751
  77.9441341 109.8292986  83.1082988  77.9707482 111.3414903  83.1749719
  83.4512826 108.7589247  88.5376797  82.7936500 109.4488509  88.6256926
  84.2553225 109.1485679  88.8810784  73.2038707 101.2259893  85.7816363
  73.7782459 101.0035075  85.0489555  73.7909690 101.2948588  86.5344964
  82.2618284 107.1133620  86.5880739  82.7750166 107.7463612  87.0902449
  82.9119508 106.5134815  86.2224099  73.5308294 103.2564354  79.8012248
  72.6945606 103.5939041  80.1221523  73.3913064 103.1213334  78.8639385
  75.5061375  98.1001142  84.5091432  74.8525787  97.7850159  83.8848047
  75.4641849  97.4776882  85.2351255  76.6172580 108.3820437  76.4244724
  75.7099641 108.1509690  76.6235873  77.1143612 107.5858056  76.6118706
  79.5240659 117.0917944  79.3441410  78.8502357 117.3949641  79.9526368
  79.9106481 117.8947025  78.9946867  78.7399115 104.5883075  88.8339080
  77.8221677 104.8098022  88.6760768  79.1559259 104.6629386  87.9750787
  79.5234163 105.9874491  83.9641760  80.2705982 106.4995888  83.6548882
  79.7925752 105.6658544  84.8246153  77.7960813 108.4833032  80.9468714
  76.8872032 108.1992065  81.0441184  77.8255897 108.9032110  80.0872021
  83.0280081 112.0939621  84.7159882  82.5742408 111.2530531  84.7725072
  82.3974047 112.7301020  85.0534662  81.9713000 103.0231607  85.9460549
  81.2335757 102.5108994  86.2770792  82.2239774 102.5831989  85.1343826
  81.4713020 113.9316118  85.6509700  81.7635994 114.4921175  84.9322065
  81.9811640 114.2244679  86.4062859  82.0724627  95.8007859  86.5402318
  82.3783504  94.9405223  86.2528234  82.7977232  96.3925480  86.3401312
  68.3648984 106.2038546  84.9283916  68.1673383 105.6107907  84.2034983
  67.8095647 105.8990756  85.6459855  76.3445707 106.0961652  87.0478510
  76.3994317 105.1435489  86.9720986  75.5336909 106.2521092  87.5319808
  77.4936901 110.0241776  78.2856793  77.0556331 109.3077634  77.8262430
  78.2347342 110.2517890  77.7241884  74.2838067 104.7138712  84.8068888
  73.4705933 105.0132883  85.2134081  74.7797061 104.3194401  85.5243371
  76.4346645 114.7096469  86.7403153  76.3922824 114.9357315  85.8111685
  77.3509344 114.4759844  86.8888954  79.8812279 105.1780537  93.6383782
  80.2361666 105.4052010  94.4978248  80.5284410 105.5098913  93.0161038
  85.6110016 108.2998973  84.3433111  85.4727914 108.4900569  83.4154301
  85.2546235 109.0618355  84.8001162  73.7752142 102.2857068  90.4230123
  74.4151521 102.1445827  89.7253087  72.9429672 101.9991581  90.0468725
  85.6379395 110.3675500  89.3544383  86.0715902 110.2750789  90.2027437
  86.3510976 110.3433000  88.7164399  74.5512446 111.5859498  86.5365116
  75.3453044 111.0909818  86.3347691  73.8404138 111.0577361  86.1732821
  79.3707290 113.9677594  90.8877483  79.4244312 114.5368530  91.6555199
  78.5022072 114.1379479  90.5231521  70.8595209 105.7302580  82.6124868
  69.9292797 105.6687035  82.8294831  70.9552681 105.2078533  81.8161510
  70.7780758 102.2557393  85.2003110  71.0387576 103.1702726  85.0912271
  71.5997931 101.7881835  85.3499723  72.2505684 103.6695150  92.3701935
  72.9228737 103.4612512  91.7214584  71.4235470 103.4717236  91.9307167
  86.4994945 110.4099200  91.8877268  86.6930835 111.3145011  92.1336543
  86.3995563 109.9506619  92.7215853  78.1531256 100.2957091  94.3867596
  77.5059171 100.9947040  94.2932072  78.9232271 100.7293235  94.7543844
  81.5610054 110.5605943  97.4618149  81.4095560 110.3316495  96.5448233
  81.5514733 111.5176544  97.4749494  78.3295390 108.1337856  92.4464415
  79.2587450 108.2849015  92.2733383  77.9086420 108.2221877  91.5913062
  77.1283722 112.1588520  90.2162953  76.9894807 111.7907305  91.0888891
  76.3398318 112.6736160  90.0446911  77.7231874 117.2597617  81.5588489
  77.8983629 116.7885660  82.3734112  77.0364662 117.8863383  81.7869750
  78.6788937 111.5370123  87.6051791  78.3438769 111.4970893  88.5009441
  78.1792883 110.8714839  87.1322201  72.6533181 106.9437753  93.1304372
  72.5152979 106.2117992  93.7315911  73.5638104 106.8546653  92.8488560
  81.6148129 108.8826157  77.8788850  80.9977299 108.1572985  77.7821903
  81.1464617 109.6435517  77.5355925  75.2815482 106.6557712  92.6188051
  75.9915100 106.0150904  92.5774670  75.2384790 106.9070607  93.5414232
  83.2702260 113.5925066  95.5394631  83.2114806 112.9084286  94.8725214
  83.6721779 114.3344056  95.0875257  73.9944415 103.6422930  94.4383691
  73.4581773 103.1913669  95.0905287  73.4061124 103.7768839  93.6954155
  72.2892959 120.4086979  88.3328350  72.5289557 121.0405504  89.0107368
  71.4462155 120.0575019  88.6193709  73.4046674 103.1011581  77.0010155
  72.5276141 102.9800382  76.6372401  73.8804428 102.3097660  76.7489043
  83.2719667 111.5564649  93.7708610  82.3846446 111.2190571  93.8935009
  83.8418219 110.8247681  94.0077376  64.9248815 107.8888741  87.0951662
  65.6119854 107.5750471  86.5072677  64.7696943 108.7930106  86.8218913
  69.7283537 102.7778938  91.5236685  69.6441725 102.1704607  90.7887095
  68.9066243 103.2687956  91.5246182  76.8020821 116.2166102  90.7369854
  76.7290992 117.0221073  91.2489158  76.3598214 116.4158068  89.9117875
  76.5910600 115.4537872  84.2472675  75.8078122 115.9959552  84.3410900
  77.2903346 115.9711851  84.6466916  79.9007251 101.2632501  86.8906880
  80.3975950 100.5102464  86.5707951  79.1294232 101.2996818  86.3250090
  87.7537008 106.9672867  88.5325172  87.7426884 107.8497582  88.1619105
  86.8854387 106.6144418  88.3379709  79.2619504 116.1152936  92.8928012
  79.9747477 116.7500401  92.8203914  78.7709533 116.2116802  92.0768014
  80.9837031 110.0204189  84.4645304  80.0493310 110.1405651  84.2950008
  81.1613700 109.1176655  84.2005314  76.4842219 103.4049884  86.6178565
  76.1140007 102.8520925  87.3059471  76.9801312 102.8008018  86.0653565
  84.3709583 105.8621508  84.9995338  84.8370035 106.6949499  84.9255641
  84.8217083 105.3966489  85.7040597  74.3131418 113.8647379  93.7133583
  75.0140877 114.4983862  93.8662977  73.8426533 114.2062111  92.9529222
  82.4385814 112.2065329  81.9981490  82.7145658 112.0921924  82.9075364
  81.5690312 111.8082814  81.9593663  82.3426245  98.2302095  89.0386239
  81.4289325  98.4606322  89.2068446  82.7719347  98.3140539  89.8900272
  82.1132704 106.4191987  91.5386133  81.4604154 106.6667894  90.8838586
  82.4913084 105.6056125  91.2048611  79.0739878 116.4551680  85.6414304
  79.2562272 115.6373336  86.1042056  79.8972864 116.6719372  85.2039194
  79.4082043 115.3819865  82.9029352  79.9369810 114.8712320  82.2899514
  79.6710263 115.0662395  83.7674885  78.1620277 107.1611798  98.0252170
  77.4860914 107.0605927  98.6954546  78.9847911 107.0051012  98.4888168
  69.9099136 113.3983734  90.6464686  70.4952573 112.6527422  90.7792590
  69.7123974 113.7087691  91.5301350  72.7637791 116.4334982  85.6627128
  72.0948166 116.9181109  85.1791168  72.6250661 116.6804202  86.5770507
  64.5016791 105.9689335  89.3669129  64.5400890 105.4352925  90.1606247
  63.9957084 105.4424540  88.7480106  76.9043060 118.4678725  92.2609786
  77.4561368 118.6310347  93.0258872  77.2449253 119.0583163  91.5889811
  71.8807553 100.8153875  92.8631671  71.9448879 101.6768706  92.4509069
  71.8174673 100.2027877  92.1304030  71.3559826 102.8877008  96.5104705
  71.9831864 102.5054085  97.1242230  70.4987744 102.6691210  96.8760398
  68.1325368 104.6953437  82.4423060  68.4278809 103.7864115  82.3890114
  67.2313404 104.6741176  82.1204063  80.0411447 116.4160701  89.2473469
  79.9162587 115.6150441  88.7384414  80.6990538 116.9106894  88.7587439
  71.6619615 102.7709433  88.4250609  70.9406201 103.3845401  88.2858082
  72.4512871 103.3067198  88.3467255  82.1046355 114.2169721  90.8753019
  81.1576691 114.0975072  90.8031345  82.4529129 113.3292219  90.9579280
  74.4645929 100.1063860  94.6991261  74.9880331 100.3526156  95.4617570
  74.2458262 100.9383895  94.2794398  69.8613210 102.3767534  82.5662385
  69.5325916 101.4964913  82.3837491  70.2152581 102.3215203  83.4538775
  79.1092789 114.0122437  87.0757371  78.9617751 113.0839145  87.2564941
  79.9346282 114.0342528  86.5914446  72.9755033 102.6640504  82.9337863
  73.3151106 103.1926425  82.2116471  73.4227154 103.0020910  83.7096430
  82.7126911 114.8350996  88.1622244  83.6373458 114.6293857  88.0246695
  82.5442214 114.5867397  89.0711585  75.6698474 101.0477555  92.3840931
  75.3295294 100.2485368  92.7861611  74.9637480 101.3479266  91.8117764
  76.3214946  98.1326867  90.8368254  77.1441015  97.6587346  90.7147144
  76.5653009  98.9117351  91.3366940  74.9623180 101.1615126  81.1331156
  75.6831543 101.5396379  80.6294873  74.3388484 101.8804003  81.2366134
  79.1054303 101.8660275  82.0689488  79.3217917 102.7484913  81.7678316
  78.6248370 101.4746488  81.3395130  73.8453524 104.8245988  88.6460233
  73.6998105 105.1386291  89.5384514  73.3678728 105.4430888  88.0931131
  75.7049907 101.8148536  88.6941122  75.6911476 100.9189629  88.3573420
  76.4222335 101.8219200  89.3279408  77.5576038 102.2485876  90.7394250
  77.2993816 103.1702947  90.7378580  77.0261078 101.8516311  91.4294714
  82.5022227 115.3536663  83.5184335  82.6759104 114.7883086  82.7658188
  82.9951118 116.1537558  83.3363825  68.3199187 107.3651332  91.5847894
  67.7752655 108.1411140  91.7168168  69.1978536 107.7122137  91.4267015
  75.1086803 100.6962916  83.9628692  75.2302714  99.7679562  84.1619580
  74.8188846 100.7101602  83.0507008  77.9777994  98.3817827  87.0995412
  77.9999690  98.4457160  86.1447392  78.3946053  97.5422335  87.2935918
  88.3561618 108.1173086  85.1374635  88.7992764 107.3680411  84.7393758
  87.4788128 108.1083223  84.7548367  83.4897399 114.6703428  80.6181233
  84.1848304 115.2910120  80.8368548  83.8320549 113.8198779  80.8933611
  69.1065208 106.4921229  94.4778051  68.3646944 106.6403864  95.0642681
  68.7857953 106.7529494  93.6144800  85.3888822 112.1203133  82.1468564
  85.9140146 112.4590406  81.4217884  85.3011175 111.1850149  81.9631699
  77.0508871 116.0337207  94.2758441  77.3595998 115.7886354  95.1481140
  77.8484353 116.2383845  93.7877311  77.0729483 118.1875116  86.5063817
  76.6334473 117.6951495  87.1996674  77.8237600 117.6448084  86.2655893
  69.5521822 114.3786657  86.5088445  70.3779842 114.0790429  86.1287089
  69.2015874 113.6094280  86.9578234  74.5203355 113.7313126  88.5786119
  73.8983365 113.0683831  88.2788347  75.1908222 113.7574257  87.8959767
  67.7530427 112.2972984  87.4677379  66.9162335 111.8695158  87.2861380
  67.7254073 112.4905427  88.4048170  74.5927883 102.2094914  98.1718625
  74.6416038 103.0857036  97.7896395  75.1350397 101.6672307  97.5990268
  85.1980604 109.6028503  94.7652491  85.2478608 109.4378511  95.7068013
  85.0894527 108.7355762  94.3750371  74.0816862 112.2817049  82.0544580
  74.2304983 112.9652513  81.4011252  74.8883306 112.2622139  82.5694035
  82.4884366 105.5859431  96.0811797  83.3894229 105.4465896  95.7895795
  82.5632340 105.7513886  97.0209975  76.8227171 102.9626286  94.9264984
  75.9530481 103.2559852  94.6547572  77.0586652 103.5466731  95.6472247
  86.6998800 112.0225445  95.0094512  86.4083609 112.3855425  95.8457973
  86.0870932 111.3092453  94.8307844  87.8994483 109.5878325  87.5297082
  88.7341374 110.0268129  87.6934643  88.0353611 109.1116978  86.7105328
  84.9485989 107.1458059  93.4774570  85.4240110 107.3385706  92.6693422
  84.0251554 107.2017245  93.2317954  71.8369495 108.3082227  83.0605648
  71.5915537 107.4044557  83.2585859  72.0065410 108.3099377  82.1185126
  79.5266205  99.1805903  92.4430404  80.0448149  99.9166930  92.1176893
  79.1721338  99.4869896  93.2777163  71.1065143 104.0410584  80.5591810
  70.4134388 104.1154939  79.9031846  70.8616895 103.2770928  81.0813327
  79.7778799  95.6006185  87.9631301  80.0580553  94.9329375  88.5891727
  80.5629406  95.7935281  87.4505965  77.5812268 114.7765179  79.5256327
  77.0086235 115.3955366  79.0726799  78.1545061 115.3264541  80.0596249
  83.6487658 104.0223819  91.7102876  84.6005080 104.1221917  91.7315100
  83.4791108 103.2302088  92.2200960  81.6702037 101.1079403  91.8962277
  81.0751969 101.3884415  91.2008765  81.3851734 101.5973304  92.6679018
  80.8009528 115.0602329  80.6564909  81.7340201 114.9947891  80.8597785
  80.7132740 115.8958596  80.1979442  83.4297544 114.3768200  77.6168857
  83.3511176 114.0428063  78.5104615  84.2507211 114.8689968  77.6160329
  86.1275735 107.2429939  90.8245175  86.0952055 106.3045940  91.0104859
  86.7376359 107.3213976  90.0911000  77.9659066 106.1125992  76.8672380
  78.9118171 105.9832200  76.9360798  77.5873311 105.3740654  77.3441808
  86.2770224 104.0340983  90.8703459  85.7609273 103.2499439  90.6833388
  87.1610172 103.7059699  91.0349978  83.9380951  97.7781998  86.8299271
  83.7405772  97.4697086  87.7142603  84.5480656  98.5043637  86.9597201
  91.9452285 108.3045946  89.9651212  92.6755674 108.0431234  90.5258916
  91.3359231 107.5674668  90.0053280  90.0267582 106.4453809  90.5625663
  89.3000746 106.3109774  89.9542155  89.6114869 106.7530637  91.3682381
  77.8497759 110.1643738  98.3273036  78.7700768 110.3422337  98.5213083
  77.8147342 109.2199784  98.1752736  76.1501983 104.0375969  76.8027265
  75.2433439 103.7409081  76.8789978  76.4277964 103.7405787  75.9361551
  67.0679924 105.3582332  87.2526311  66.7482708 104.5047640  86.9600685
  66.5213352 105.5730910  88.0084278  70.8459831 108.0744773  90.9695818
  71.0645841 109.0061881  90.9883851  71.2585605 107.7152747  91.7550621
  77.7664049  98.5812858  82.9571506  76.9564777  98.2359943  83.3326752
  78.4548466  98.2720402  83.5459118  79.6954597  97.6590905  84.5795803
  80.2485636  98.0786358  85.2385826  79.9324684  96.7326653  84.6218759
  75.7187697 103.6477979 100.3598567  75.6184424 104.5972336 100.2910658
  75.5009239 103.3196218  99.4874637  74.9200768 100.8962904  76.9439244
  75.7819932 101.2217802  77.2035061  75.1051112 100.1094400  76.4312310
  66.9368184 108.9785243  89.2219433  66.2431655 108.5639196  88.7089387
  67.6841175 109.0205780  88.6252852  83.0733404  99.7691430  84.0874467
  82.4932074 100.4276234  83.7052519  82.8069337  98.9468775  83.6761884
  81.5236971  99.1696488  86.2895787  82.0236749  99.2813022  85.4810106
  82.1672579  98.8657541  86.9296596  75.5818967 107.0775118  99.1763628
  75.0986048 107.8775478  99.3827517  75.6679906 107.0883062  98.2231072
  68.8504926 108.9103497  87.0985448  68.8275614 109.0091184  86.1467331
  69.1605563 109.7568648  87.4202614  71.5092304 110.9679652  91.2132062
  72.4635558 110.9363595  91.1461994  71.3104828 110.5070276  92.0282288
  72.0991686 109.5380768  93.7802860  72.9184575 110.0324847  93.8037697
  72.3728494 108.6212736  93.7520427  81.8558283 101.9291521  83.1430815
  80.9684138 102.2141171  82.9251010  82.2712272 101.7685284  82.2958092
  85.2072819 101.9538042  86.8585154  85.9833209 102.4434494  87.1309771
  84.4820953 102.3796096  87.3157024  87.6445377 102.6665661  87.9159095
  88.2389868 102.4261397  87.2052403  87.7171961 101.9472791  88.5432631
  69.8642533 116.5099272  88.2302260  69.7297001 115.7499673  87.6640258
  69.4474595 117.2340172  87.7631049  81.0001496 111.6936195  77.2378835
  81.7037346 111.8986198  77.8536491  80.2764145 112.2612957  77.5027919
  81.8299306 107.4446057  83.3581105  81.7734508 107.9014608  82.5188738
  82.3827649 106.6836741  83.1803948  85.6404112 103.2335788  84.1831225
  85.3841046 102.8332424  85.0139433  85.0156980 103.9479582  84.0581364
  89.9516450 105.9731862  86.6902516  89.3916008 106.0425051  87.4634078
  89.3459953 105.7972846  85.9702012  73.0211659 117.4068589  88.4420703
  72.9044043 118.3514021  88.3399393  72.2004105 117.1042150  88.8306502
  82.9088193 112.1318724  79.2877295  83.7433797 111.6999923  79.1054770
  82.7472536 111.9600738  80.2154190  82.5634086 108.6350838  80.6533635
  82.5082889 108.4695109  79.7122079  81.9380141 109.3426871  80.8095824
  67.3526601 103.8718902  94.4795057  67.9985464 103.3617856  94.9682282
  67.1443752 104.6087584  95.0538482  75.8730211  98.1358947  80.2318953
  75.8608881  99.0800787  80.3887224  76.7653633  97.9529092  79.9378414
  74.0466173 118.0596851  91.6576631  74.9493420 118.0920461  91.9743126
  73.8203543 117.1297302  91.6722967  75.8019775 116.8127837  88.3186710
  74.8515406 116.8129699  88.2051082  76.1052261 116.0660572  87.8022744
  79.6882330  94.7301723  84.4864890  78.9214726  94.1760210  84.6321572
  80.0993035  94.8023592  85.3479041  71.6924092 101.0186519  98.5770071
  72.5555553 100.6623324  98.7873396  71.1189502 100.6800414  99.2645475
  88.3462175 122.6015804  89.3193997  88.0080686 122.4856868  88.4314532
  89.2151943 122.2006969  89.2995003  84.2048990 124.4551280  85.3090888
  83.6413856 124.3641217  84.5407175  84.0901385 123.6351185  85.7893380
  81.7513422 125.9502472  88.1475108  82.5434714 125.6093296  87.7321407
  81.9910073 126.0597447  89.0677261  83.7104176 125.2111385  81.0192487
  84.4835052 124.6640372  80.8805363  84.0629575 126.0755634  81.2306948
  86.0470454 121.3704051  78.6510937  86.2995975 120.8485572  77.8894400
  85.1095013 121.2070196  78.7537620  91.0913737 120.3739829  86.4585680
  91.8776826 119.9559253  86.1076097  91.3552441 121.2785922  86.6267328
  91.2623814 125.8112680  81.1574337  90.6269647 125.8847306  81.8695241
  90.9321221 126.4006279  80.4793416  96.4922164 120.3115063  87.3618659
  97.2247336 119.7414279  87.5956488  95.7361520 119.9236663  87.8025164
  85.7666743 123.2732157  80.8535312  85.6503001 122.5977060  81.5216396
  85.8769003 122.7864531  80.0367465  88.1098284 122.7342304  84.5582001
  87.7456491 122.2072925  85.2694922  88.9665400 122.3440773  84.3848486
  94.0147584 114.0236637  91.8213267  93.6830909 114.8932048  91.5974482
  93.4193198 113.7072921  92.5007298  87.7503771 117.7632204  79.5543350
  87.9178173 118.6312440  79.9213821  87.5600940 117.9259485  78.6304639
  83.9591585 122.6762980  87.2545884  83.0342082 122.5439194  87.4623576
  84.2075999 123.4557199  87.7515827  87.7292992 120.2189861  80.5390016
  87.6092617 120.6646912  81.3775497  87.0345580 120.5675179  79.9803554
  81.3200396 122.3196253  88.0889673  81.4492778 122.5730732  89.0029085
  80.6397848 122.9123961  87.7694328  93.4278058 120.6911334  81.3670350
  94.3395914 120.9238721  81.1918048  92.9187705 121.2748379  80.8045429
  90.7714033 116.8669370  89.6160211  89.9098512 117.1650624  89.9076949
  90.7976467 117.0839769  88.6841244  87.5875602 125.4111561  86.0234017
  88.0513948 125.6899264  85.2338639  87.3232400 124.5095006  85.8407108
  84.4799683 124.9583043  88.9613780  85.0501040 125.3870311  88.3231265
  85.0707795 124.6765627  89.6597966  86.5244488 121.5334713  82.8323582
  87.2268531 121.9855757  83.2997508  86.1925117 120.8918532  83.4603475
  80.2669822 119.7918266  88.1340716  79.4768876 120.0475795  87.6580826
  80.7581069 120.6066604  88.2392756  82.2184567 120.1562845  85.0924192
  81.4215731 120.2681540  85.6107688  81.9910160 120.4949498  84.2265083
  78.5507525 120.0448756  90.5655706  78.8015563 120.9295766  90.8313282
  79.0867073 119.8653358  89.7930798  87.7638253 128.3475656  82.9085687
  87.6283927 129.1927192  83.3370535  88.3048065 128.5494934  82.1451621
  81.2167650 125.8651094  83.4813612  81.7292171 126.6594344  83.6319177
  81.8690363 125.1677384  83.4147214  83.0262535 128.9816850  85.5636366
  83.2029163 129.9034815  85.3757349  83.8219368 128.6675270  85.9930745
  91.1130716 111.8706218  91.4384581  90.7694986 112.7607860  91.3623691
  91.4809679 111.6807876  90.5754166  79.1816567 124.1939748  84.2573183
  80.0191789 124.6036757  84.0406891  79.3594835 123.2539191  84.2273377
  91.0780999 121.8614829  79.9457016  90.5627622 122.6319434  80.1845403
  90.8058307 121.1879965  80.5690077  88.6628110 116.7064530  85.0042254
  87.8069706 116.3171380  84.8247893  89.0755062 116.7856491  84.1442040
  90.1927257 114.2410873  89.4033814  89.6892052 114.2041008  88.5901619
  90.4857864 115.1503616  89.4630471  86.4370143 114.3249603  88.4099996
  87.3023139 114.1292411  88.0505885  86.5047651 114.0959955  89.3369352
  90.8667302 119.7341921  81.7716797  90.5617438 120.0488070  82.6226940
  91.8197744 119.8123341  81.8144130  89.3113734 125.8932144  83.4209751
  88.7835096 125.1584904  83.1082988  88.8101237 126.6706821  83.1749719
  84.0432462 116.5551811  85.7816363  84.6176214 116.3326992  85.0489555
  84.6303444 116.6240505  86.5344964  93.1012039 122.4425538  86.5880739
  93.6143921 123.0755529  87.0902449  93.7513263 121.8426733  86.2224099
  84.3702049 118.5856272  79.8012248  83.5339361 118.9230958  80.1221523
  84.2306818 118.4505252  78.8639385  86.3455129 113.4293060  84.5091432
  85.6919542 113.1142077  83.8848047  86.3035603 112.8068800  85.2351255
  87.4566334 123.7112355  76.4244724  86.5493396 123.4801608  76.6235873
  87.9537366 122.9149974  76.6118706  89.5792870 119.9174993  88.8339080
  88.6615431 120.1389940  88.6760768  89.9953013 119.9921304  87.9750787
  90.3627917 121.3166409  83.9641760  91.1099736 121.8287806  83.6548882
  90.6319507 120.9950462  84.8246153  88.6354568 123.8124950  80.9468714
  87.7265787 123.5283982  81.0441184  88.6649651 124.2324028  80.0872021
  92.8106755 118.3523525  85.9460549  92.0729511 117.8400911  86.2770792
  93.0633528 117.9123907  85.1343826  92.9118382 111.1299777  86.5402318
  93.2177259 110.2697140  86.2528234  93.6370987 111.7217397  86.3401312
  79.2042738 121.5330464  84.9283916  79.0067138 120.9399824  84.2034983
  78.6489402 121.2282674  85.6459855  87.1839462 121.4253570  87.0478510
  87.2388071 120.4727407  86.9720986  86.3730664 121.5813009  87.5319808
  88.3330655 125.3533693  78.2856793  87.8950085 124.6369552  77.8262430
  89.0741096 125.5809808  77.7241884  85.1231822 120.0430630  84.8068888
  84.3099687 120.3424800  85.2134081  85.6190816 119.6486319  85.5243371
  84.6145896 117.6148985  90.4230123  85.2545276 117.4737745  89.7253087
  83.7823427 117.3283499  90.0468725  85.3906200 126.9151416  86.5365116
  86.1846799 126.4201736  86.3347691  84.6797893 126.3869279  86.1732821
  81.6988964 121.0594498  82.6124868  80.7686552 120.9978953  82.8294831
  81.7946436 120.5370450  81.8161510  81.6174513 117.5849310  85.2003110
  81.8781330 118.4994644  85.0912271  82.4391685 117.1173753  85.3499723
  83.0899438 118.9987068  92.3701935  83.7622492 118.7904430  91.7214584
  82.2629225 118.8009154  91.9307167  92.4541883 124.2118075  77.8788850
  91.8371054 123.4864903  77.7821903  91.9858371 124.9727435  77.5355925
  84.2440429 118.4303499  77.0010155  83.3669895 118.3092300  76.6372401
  84.7198182 117.6389577  76.7489043  75.7642569 123.2180659  87.0951662
  76.4513609 122.9042389  86.5072677  75.6090698 124.1222024  86.8218913
  80.5677291 118.1070855  91.5236685  80.4835480 117.4996525  90.7887095
  79.7459998 118.5979874  91.5246182  90.7401005 116.5924419  86.8906880
  91.2369705 115.8394381  86.5707951  89.9687987 116.6288736  86.3250090
  91.8230786 125.3496106  84.4645304  90.8887065 125.4697569  84.2950008
  92.0007454 124.4468573  84.2005314  87.3235974 118.7341802  86.6178565
  86.9533761 118.1812842  87.3059471  87.8195066 118.1299935  86.0653565
  95.2103337 121.1913425  84.9995338  95.6763789 122.0241417  84.9255641
  95.6610838 120.7258407  85.7040597  93.1820000 113.5594012  89.0386239
  92.2683080 113.7898239  89.2068446  93.6113101 113.6432457  89.8900272
  75.3410545 121.2981252  89.3669129  75.3794645 120.7644843  90.1606247
  74.8350838 120.7716458  88.7480106  82.7201307 116.1445793  92.8631671
  82.7842634 117.0060624  92.4509069  82.6568428 115.5319794  92.1304030
  78.9719123 120.0245354  82.4423060  79.2672564 119.1156033  82.3890114
  78.0707159 120.0033094  82.1204063  82.5013370 118.1001351  88.4250609
  81.7799956 118.7137319  88.2858082  83.2906626 118.6359116  88.3467255
  80.7006964 117.7059452  82.5662385  80.3719671 116.8256831  82.3837491
  81.0546335 117.6507121  83.4538775  83.8148788 117.9932422  82.9337863
  84.1544860 118.5218343  82.2116471  84.2620908 118.3312828  83.7096430
  86.5092228 116.3769473  92.3840931  86.1689049 115.5777286  92.7861611
  85.8031235 116.6771183  91.8117764  87.1608700 113.4618785  90.8368254
  87.9834769 112.9879263  90.7147144  87.4046764 114.2409269  91.3366940
  85.8016935 116.4907043  81.1331156  86.5225297 116.8688296  80.6294873
  85.1782239 117.2095920  81.2366134  89.9448058 117.1952192  82.0689488
  90.1611672 118.0776830  81.7678316  89.4642125 116.8038406  81.3395130
  84.6847279 120.1537906  88.6460233  84.5391860 120.4678209  89.5384514
  84.2072483 120.7722806  88.0931131  86.5443662 117.1440454  88.6941122
  86.5305231 116.2481547  88.3573420  87.2616090 117.1511117  89.3279408
  88.3969793 117.5777794  90.7394250  88.1387570 118.4994864  90.7378580
  87.8654833 117.1808228  91.4294714  79.1592941 122.6943250  91.5847894
  78.6146409 123.4703058  91.7168168  80.0372291 123.0414055  91.4267015
  85.9480558 116.0254834  83.9628692  86.0696469 115.0971480  84.1619580
  85.6582600 116.0393520  83.0507008  88.8171748 113.7109744  87.0995412
  88.8393445 113.7749077  86.1447392  89.2339807 112.8714253  87.2935918
  80.3915577 129.7078575  86.5088445  81.2173597 129.4082347  86.1287089
  80.0409629 128.9386197  86.9578234  78.5924182 127.6264901  87.4677379
  77.7556090 127.1987076  87.2861380  78.5647827 127.8197345  88.4048170
  84.9210617 127.6108967  82.0544580  85.0698737 128.2944431  81.4011252
  85.7277060 127.5914057  82.5694035  82.6763250 123.6374144  83.0605648
  82.4309292 122.7336474  83.2585859  82.8459164 123.6391295  82.1185126
  90.3659960 114.5097821  92.4430404  90.8841903 115.2458848  92.1176893
  90.0115092 114.8161814  93.2777163  81.9458897 119.3702502  80.5591810
  81.2528142 119.4446857  79.9031846  81.7010649 118.6062845  81.0813327
  90.6172554 110.9298103  87.9631301  90.8974308 110.2621292  88.5891727
  91.4023161 111.1227199  87.4505965  88.8052821 121.4417910  76.8672380
  89.7511925 121.3124118  76.9360798  88.4267066 120.7032572  77.3441808
  94.7774705 113.1073916  86.8299271  94.5799526 112.7989004  87.7142603
  95.3874411 113.8335555  86.9597201  86.9895738 119.3667886  76.8027265
  86.0827193 119.0700999  76.8789978  87.2671719 119.0697704  75.9361551
  77.9073678 120.6874250  87.2526311  77.5876463 119.8339558  86.9600685
  77.3607106 120.9022828  88.0084278  81.6853586 123.4036691  90.9695818
  81.9039596 124.3353798  90.9883851  82.0979360 123.0444665  91.7550621
  88.6057804 113.9104776  82.9571506  87.7958532 113.5651861  83.3326752
  89.2942221 113.6012320  83.5459118  90.5348352 112.9882823  84.5795803
  91.0879391 113.4078276  85.2385826  90.7718438 112.0618571  84.6218759
  85.7594523 116.2254821  76.9439244  86.6213687 116.5509720  77.2035061
  85.9444867 115.4386317  76.4312310  77.7761938 124.3077161  89.2219433
  77.0825410 123.8931114  88.7089387  78.5234929 124.3497698  88.6252852
  93.9127159 115.0983348  84.0874467  93.3325828 115.7568152  83.7052519
  93.6463092 114.2760692  83.6761884  92.3630725 114.4988406  86.2895787
  92.8630504 114.6104940  85.4810106  93.0066333 114.1949458  86.9296596
  79.6898681 124.2395415  87.0985448  79.6669369 124.3383102  86.1467331
  79.9999317 125.0860566  87.4202614  92.6952037 117.2583438  83.1430815
  91.8077892 117.5433089  82.9251010  93.1106026 117.0977202  82.2958092
  96.0466573 117.2829959  86.8585154  96.8226963 117.7726412  87.1309771
  95.3214707 117.7088013  87.3157024  98.4839132 117.9957578  87.9159095
  99.0783623 117.7553314  87.2052403  98.5565715 117.2764709  88.5432631
  92.6693061 122.7737974  83.3581105  92.6128262 123.2306526  82.5188738
  93.2221403 122.0128659  83.1803948  96.4797867 118.5627706  84.1831225
  96.2234801 118.1624342  85.0139433  95.8550735 119.2771500  84.0581364
  93.4027840 123.9642755  80.6533635  93.3476644 123.7987027  79.7122079
  92.7773895 124.6718788  80.8095824  78.1920355 119.2010820  94.4795057
  78.8379219 118.6909774  94.9682282  77.9837506 119.9379501  95.0538482
  86.7123966 113.4650864  80.2318953  86.7002635 114.4092704  80.3887224
  87.6047387 113.2821010  79.9378414  90.5276085 110.0593641  84.4864890
  89.7608481 109.5052128  84.6321572  90.9386790 110.1315510  85.3479041
  26.5009943   7.6798992  76.1077779  27.1388353   7.5605739  75.4041119
  26.3830786   8.6279836  76.1665731  23.3099649   7.6326420  76.0439303
  22.9718161   7.5167485  75.1559838  24.1789417   7.2317585  76.0240309
  19.1686465   9.4861897  72.0336194  18.6051330   9.3951834  71.2652482
  19.0538860   8.6661801  72.5138687  23.7919432   8.7861272  82.0025509
  23.7808073   8.3914070  81.1306013  23.9540072   8.0527345  82.5959280
  16.7150897  10.9813088  74.8720415  17.5072189  10.6403913  74.4566714
  16.9547547  11.0908063  75.7922568  24.7486023  13.1532864  67.3450659
  24.0974003  13.7386945  66.9584673  25.5430386  13.6839059  67.4045697
  18.6741651  10.2422001  67.7437794  19.4472527   9.6950989  67.6050669
  19.0267050  11.1066251  67.9552255  20.5126693  11.5698384  80.9504693
  20.2216559  12.4744015  80.8351359  21.1483678  11.6114911  81.6648762
  21.4382900   8.9475232  77.5406052  22.0346472   8.7231255  76.8263015
  21.4957872   8.2059978  78.1431500  21.0107928   6.4014668  65.3756243
  21.2633449   5.8796189  64.6139706  20.0732488   6.2380813  65.4782927
  26.0551211   5.4050446  73.1830987  26.8414301   4.9869869  72.8321404
  26.3189916   6.3096538  73.3512635  26.2261289  10.8423296  67.8819643
  25.5907122  10.9157923  68.5940548  25.8958695  11.4316895  67.2038723
  31.4559638   5.3425679  74.0863965  32.1884810   4.7724896  74.3201795
  30.6998994   4.9547280  74.5270471  20.7304217   8.3042774  67.5780618
  20.6140475   7.6287677  68.2461703  20.8406477   7.8175147  66.7612771
  23.0735758   7.7652921  71.2827308  22.7093965   7.2383542  71.9940229
  23.9302874   7.3751390  71.1093793  28.9785059  -0.9452747  78.5458574
  28.6468384  -0.0757336  78.3219789  28.3830672  -1.2616463  79.2252604
  22.7141245   2.7942820  66.2788656  22.8815647   3.6623057  66.6459127
  22.5238414   2.9570102  65.3549945  25.4716578  11.2559799  77.9454487
  25.1717301  12.1584838  77.8370294  25.1267638  10.9891982  78.7975639
  18.9229060   7.7073596  73.9791191  17.9979556   7.5749810  74.1868883
  19.1713473   8.4867815  74.4761133  28.8713722   3.7742339  75.6251924
  27.9630599   3.7057748  75.3310685  28.8201318   4.2514284  76.4533749
  22.6930466   5.2500478  67.2635323  22.5730091   5.6957529  68.1020803
  21.9983054   5.5985796  66.7048861  16.2837871   7.3506870  74.8134980
  16.4130252   7.6041349  75.7274392  15.6035322   7.9434578  74.4939635
  20.4537358  18.0204120  70.9125454  20.3761388  18.9711945  70.9913935
  19.8499002  17.6749992  71.5700381  22.9454588   5.1931985  83.5686821
  22.1687922   5.7525905  83.5589686  23.5845151   5.6788768  84.0901691
  30.7375368   1.9758778  77.4029798  30.0949749   2.2691311  76.7569592
  30.2330297   1.8611698  78.2082994  28.3915532   5.7221951  68.0915657
  29.3033388   5.9549338  67.9163355  27.8825179   6.3058995  67.5290736
  21.2000960   8.0017438  83.1304788  21.9415645   8.5402482  82.8539612
  20.4937946   8.6283727  83.2876340  26.6756300  10.1446579  81.7276950
  27.0839656   9.7028989  80.9831582  25.9533561   9.5699206  81.9811142
  23.0287370   5.0819186  79.1010507  23.8748565   5.5058599  79.2445156
  22.9686008   4.4252810  79.7949070  26.9985114  10.7047769  75.4829238
  26.3693977  10.8693484  74.7805306  26.6110777  11.1189379  76.2540203
  30.8774346  11.6402207  72.8373602  30.1925384  12.0201109  72.2870636
  30.9618196  12.2497534  73.5705550  26.1786815   2.7423554  80.7591680
  25.9347747   3.4965614  80.2225956  26.4546746   3.1208902  81.5938927
  28.1325278   9.2862166  79.4368946  28.3442173   9.9293926  78.7603327
  28.0855026   8.4524483  78.9690876  25.7351507   1.8979987  76.3405518
  24.8735986   2.1961241  76.6322255  25.7613942   2.1150386  75.4086551
  22.5513076  10.4422178  72.7479324  23.0151422  10.7209881  71.9583946
  22.2869874   9.5405622  72.5652414  19.4437157   9.9893659  75.6859087
  20.0138514  10.4180927  75.0476571  20.0345269   9.7076244  76.3843272
  21.4881962   6.5645330  69.5568889  22.1906006   7.0166374  70.0242815
  21.1562591   5.9229149  70.1848782  19.9362324   5.1557087  83.9320098
  19.3060984   5.8373367  84.1655495  19.8298412   5.0440168  82.9873236
  29.2471106  12.1634122  77.6091303  30.0688550  11.7614309  77.3273985
  29.2433509  12.0602356  78.5607419  23.0127709  11.7118165  79.7652014
  23.0772142  12.1738572  80.6010185  22.3038633  11.0815530  79.8934323
  37.3377099   8.5072870  73.9576275  36.5840807   7.9380268  73.8020279
  37.4724640   8.4735535  74.9046909  22.7275727  13.3786273  69.6330994
  22.5921402  14.2237808  70.0615842  23.2685540  13.5805550  68.8696928
  16.1805124  10.8961711  70.2058919  16.6929645  11.6904961  70.3564484
  16.8327837  10.1988001  70.1392520  17.9900009  14.0127467  72.2881672
  18.1666637  14.9345432  72.1002656  18.7856843  13.6985886  72.7176052
  24.3544203  14.0009839  83.7631336  23.9108058  13.2146218  83.4452241
  25.0161417  14.1888990  83.0975227  19.1131325  15.5305641  78.2892015
  19.6638750  15.4022704  77.5169008  18.2742800  15.8300530  77.9386907
  26.4525441  14.2812639  81.7912737  26.4343917  15.1021520  81.2993006
  27.3745361  14.1566714  82.0162878  22.9098496  11.7956768  82.6336246
  23.4426832  11.0345057  82.4035554  22.3812577  11.5030420  83.3760400
  26.0418473   6.8925446  66.6702323  25.5265097   7.6630050  66.9090710
  25.7695782   6.2190582  67.2935384  31.0152747   9.6457800  68.6055496
  30.2382190   9.3068960  68.1610658  31.6944228   9.6510423  67.9310461
  25.8304776   4.7652538  68.4962104  25.5254912   5.0798687  69.3472247
  26.7835219   4.8433958  68.5389437  24.2751208  10.9242761  70.1455058
  23.7472570  10.1895521  69.8328295  23.7738711  11.7017437  69.8995026
  29.2544054   9.1191781  75.2622104  28.5967729   9.8091043  75.3502233
  30.0584454   9.5088213  75.6056090  28.0649513   7.4736154  73.3126046
  28.5781395   8.1066146  73.8147755  28.7150737   6.8737350  72.9469406
  22.4203808   8.7422971  63.1490031  21.5130870   8.5112225  63.3481180
  22.9174840   7.9460590  63.3364012  25.3271887  17.4520478  66.0686717
  24.6533586  17.7552175  66.6771675  25.7137709  18.2549559  65.7192174
  24.5430344   4.9485610  75.5584386  23.6252905   5.1700557  75.4006074
  24.9590488   5.0231920  74.6996094  25.3265392   6.3477025  70.6887067
  26.0737211   6.8598423  70.3794189  25.5956981   6.0261078  71.5491460
  23.5992042   8.8435566  67.6714021  22.6903261   8.5594599  67.7686491
  23.6287126   9.2634645  66.8117328  28.8311309  12.4542156  71.4405188
  28.3773636  11.6133065  71.4970379  28.2005276  13.0903554  71.7779969
  27.7744229   3.3834142  72.6705856  27.0366986   2.8711528  73.0016098
  28.0271002   2.9434523  71.8589133  27.2744249  14.2918652  72.3755006
  27.5667223  14.8523709  71.6567372  27.7842869  14.5847213  73.1308166
  22.1476936   6.4564187  73.7723816  22.2025546   5.5038023  73.6966293
  21.3368138   6.6123626  74.2565115  23.2968130  10.3844310  65.0102099
  22.8587560   9.6680169  64.5507737  24.0378571  10.6120425  64.4487191
  20.0869296   5.0741246  71.5314195  19.2737161   5.3735417  71.9379387
  20.5828290   4.6796935  72.2488677  22.2377874  15.0699003  73.4648460
  22.1954053  15.2959850  72.5356992  23.1540573  14.8362378  73.6134261
  25.6843508   5.5383071  80.3629089  26.0392895   5.7654544  81.2223555
  26.3315639   5.8701448  79.7406344  31.4141245   8.6601507  71.0678418
  31.2759143   8.8503103  70.1399607  31.0577463   9.4220890  71.5246469
  31.4410624  10.7278034  76.0789689  31.8747131  10.6353323  76.9272743
  32.1542205  10.7035534  75.4409705  20.3543675  11.9462032  73.2610422
  21.1484273  11.4512353  73.0592997  19.6435367  11.4179895  72.8978128
  25.1738519  14.3280128  77.6122790  25.2275541  14.8971064  78.3800506
  24.3053300  14.4982013  77.2476827  32.3026174  10.7701734  78.6122575
  32.4962064  11.6747545  78.8581850  32.2026792  10.3109154  79.4461160
  27.3641282  10.9208477  84.1863455  27.2126789  10.6919029  83.2693539
  27.3545962  11.8779079  84.1994800  24.1326619   8.4940390  79.1709722
  25.0618679   8.6451550  78.9978689  23.7117649   8.5824411  78.3158368
  22.9314951  12.5191054  76.9408260  22.7926036  12.1509839  77.8134198
  22.1429547  13.0338694  76.7692217  23.5263103  17.6200151  68.2833796
  23.7014858  17.1488194  69.0979419  22.8395891  18.2465917  68.5115057
  24.4820166  11.8972657  74.3297097  24.1469998  11.8573427  75.2254747
  23.9824111  11.2317373  73.8567508  18.4564410   7.3040287  79.8549678
  18.3184208   6.5720526  80.4561218  19.3669333   7.2149187  79.5733866
  27.4179357   9.2428691  64.6034157  26.8008528   8.5175520  64.5067210
  26.9495846  10.0038052  64.2601231  21.0846710   7.0160246  79.3433358
  21.7946329   6.3753439  79.3019977  21.0416018   7.2673141  80.2659539
  29.0733489  13.9527600  82.2639937  29.0146035  13.2686820  81.5970520
  29.4753007  14.6946590  81.8120563  18.0924188  20.7689514  75.0573656
  18.3320786  21.4008038  75.7352675  17.2493384  20.4177554  75.3439015
  29.0750896  11.9167184  80.4953917  28.1877675  11.5793105  80.6180316
  29.6449447  11.1850215  80.7322682  22.6052050  16.5768636  77.4615160
  22.5322221  17.3823608  77.9734465  22.1629443  16.7760602  76.6363182
  22.3941829  15.8140406  70.9717982  21.6109351  16.3562086  71.0656206
  23.0934574  16.3314386  71.3712223  25.7038479   1.6235036  73.6152187
  26.2007179   0.8704998  73.2953257  24.9325461   1.6599352  73.0495396
  33.5568237   7.3275401  75.2570479  33.5458113   8.2100116  74.8864412
  32.6885616   6.9746952  75.0625016  25.0650733  16.4755470  79.6173319
  25.7778705  17.1102935  79.5449220  24.5740762  16.5719336  78.8013321
  26.7868260  10.3806723  71.1890611  25.8524539  10.5008185  71.0195315
  26.9644929   9.4779190  70.9250620  22.2873448   3.7652419  73.3423872
  21.9171236   3.2123459  74.0304777  22.7832541   3.1610552  72.7898872
  30.1740811   6.2224042  71.7240645  30.6401264   7.0552034  71.6500947
  30.6248312   5.7569024  72.4285903  20.1162647  14.2249914  80.4378890
  20.8172106  14.8586396  80.5908284  19.6457762  14.5664645  79.6774529
  28.2417043  12.5667863  68.7226797  28.5176886  12.4524458  69.6320671
  27.3721541  12.1685348  68.6838970  27.9163933   6.7794521  78.2631440
  27.2635383   7.0270428  77.6083893  28.2944313   5.9658659  77.9293917
  24.8771107  16.8154214  72.3659610  25.0593501  15.9975870  72.8287363
  25.7004093  17.0321906  71.9284500  25.2113272  15.7422399  69.6274659
  25.7401038  15.2314854  69.0144821  25.4741492  15.4264929  70.4920192
  23.9651506   7.5214332  84.7497477  23.2892143   7.4208461  85.4199852
  24.7879140   7.3653546  85.2133474  15.7130365  13.7586269  77.3709992
  16.2983802  13.0129956  77.5037897  15.5155203  14.0690225  78.2546656
  18.5669020  16.7937516  72.3872435  17.8979395  17.2783644  71.9036475
  18.4281890  17.0406736  73.3015813  22.7074289  18.8281259  78.9855093
  23.2592597  18.9912881  79.7504178  23.0480482  19.4185697  78.3135118
  27.5585163  13.6542517  84.8403748  28.1025067  14.2672475  84.3458702
  26.9772008  14.2122095  85.3570761  25.8442676  16.7763235  75.9718775
  25.7193815  15.9752975  75.4629721  26.5021767  17.2709428  75.4832745
  27.9077584  14.5772255  77.5998325  26.9607920  14.4577606  77.5276652
  28.2560357  13.6894753  77.6824587  24.9124018  14.3724971  73.8002678
  24.7648980  13.4441679  73.9810248  25.7377511  14.3945062  73.3159753
  28.5158139  15.1953530  74.8867550  29.4404687  14.9896391  74.7492001
  28.3473443  14.9469931  75.7956892  24.9085532   2.2262809  68.7934795
  25.1249146   3.1087447  68.4923623  24.4279599   1.8349022  68.0640437
  19.6484753   5.1848522  75.3705539  19.5029334   5.4988825  76.2629821
  19.1709957   5.8033423  74.8176438  28.3053456  15.7139197  70.2429642
  28.4790333  15.1485620  69.4903494  28.7982347  16.5140092  70.0609132
  34.1592847   8.4775620  71.8619942  34.6023993   7.7282946  71.4639065
  33.2819357   8.4685757  71.4793674  29.2928628  15.0305962  67.3426540
  29.9879533  15.6512655  67.5613855  29.6351778  14.1801313  67.6178918
  31.1920051  12.4805667  68.8713871  31.7171375  12.8192940  68.1463191
  31.1042404  11.5452683  68.6877005  22.8540100  16.3939741  81.0003747
  23.1627226  16.1488888  81.8726447  23.6515582  16.5986380  80.5122618
  22.8760712  18.5477651  73.2309124  22.4365702  18.0554029  73.9241981
  23.6268829  18.0050618  72.9901199  15.3553051  14.7389192  73.2333752
  16.1811071  14.4392963  72.8532396  15.0047103  13.9696814  73.6823541
  20.3234584  14.0915660  75.3031426  19.7014593  13.4286365  75.0033654
  20.9939451  14.1176792  74.6205073  13.5561656  12.6575518  74.1922686
  12.7193564  12.2297692  74.0106687  13.5285301  12.8507961  75.1293477
  30.8813957  13.1138571  84.1765069  30.0909501  13.0962710  83.6369568
  30.6447312  13.6526865  84.9314105  31.0011832   9.9631037  81.4897797
  31.0509837   9.7981045  82.4313320  30.8925756   9.0958296  81.0995678
  19.8848091  12.6419583  68.7789886  20.0336211  13.3255048  68.1256559
  20.6914534  12.6224673  69.2939342  28.2915595   5.9461965  82.8057104
  29.1925457   5.8068430  82.5141102  28.3663569   6.1116420  83.7455281
  22.6258400   3.3228820  81.6510290  21.7561709   3.6162386  81.3792879
  22.8617880   3.9069265  82.3717554  32.5030029  12.3827979  81.7339819
  32.2114837  12.7457960  82.5703280  31.8902160  11.6694987  81.5553151
  33.7025711   9.9480859  74.2542389  34.5372603  10.3870663  74.4179949
  33.8384840   9.4719512  73.4350635  30.7517217   7.5060594  80.2019877
  31.2271339   7.6988240  79.3938728  29.8282783   7.5619779  79.9563261
  17.6400724   8.6684761  69.7850955  17.3946766   7.7647091  69.9831165
  17.8096639   8.6701911  68.8430433  23.3843497  15.1367714  66.2501634
  22.8117464  15.7557901  65.7972106  23.9576290  15.6867075  66.7841556
  29.4518886   4.3826354  78.4348182  30.4036309   4.4824451  78.4560406
  29.2822337   3.5904622  78.9446267  27.4733266   1.4681937  78.6207583
  26.8783198   1.7486950  77.9254072  27.1882963   1.9575838  79.3924324
  26.6040756  15.4204864  67.3810216  27.5371429  15.3550425  67.5843091
  26.5163969  16.2561131  66.9224749  29.2328773  14.7370734  64.3414163
  29.1542405  14.4030598  65.2349921  30.0538440  15.2292502  64.3405636
  31.9306964   7.6032473  77.5490482  31.8983284   6.6648474  77.7350166
  32.5407588   7.6816510  76.8156307  23.7690295   6.4728526  63.5917686
  24.7149400   6.3434734  63.6606104  23.3904540   5.7343188  64.0687114
  32.0801453   4.3943517  77.5948765  31.5640501   3.6101973  77.4078694
  32.9641401   4.0662233  77.7595285  29.7412180  -1.8615468  73.5544578
  29.5437001  -2.1700379  74.4387910  30.3511885  -1.1353829  73.6842508
  37.7483514   8.6648480  76.6896519  38.4786903   8.4033768  77.2504222
  37.1390460   7.9277202  76.7298587  35.8298811   6.8056343  77.2870970
  35.1031975   6.6712308  76.6787462  35.4146098   7.1133171  78.0927688
  23.6528988  10.5246272  85.0518343  24.5731997  10.7024871  85.2458390
  23.6178571   9.5802318  84.8998042  21.9533212   4.3978503  63.5272571
  21.0464668   4.1011615  63.6035285  22.2309193   4.1008321  62.6606858
  16.6491060   8.4347307  77.6941124  16.8677070   9.3664415  77.7129158
  17.0616834   8.0755282  78.4795928  28.8764633   0.1293964  70.8119774
  28.2963302   0.7878768  70.4297826  28.6100566  -0.6928691  70.4007191
  27.3268200  -0.4700978  73.0141094  27.8267978  -0.3584443  72.2055413
  27.9703808  -0.7739925  73.6541902  21.3850195   7.4377652  85.9008935
  20.9017277   8.2378012  86.1072824  21.4711135   7.4485597  84.9476379
  14.6536155   9.2706031  73.8230754  14.6306843   9.3693719  72.8712637
  14.9636792  10.1171182  74.1447920  17.3123533  11.3282186  77.9377369
  18.2666787  11.2966129  77.8707300  17.1136057  10.8672810  78.7527595
  17.9022915   9.8983302  80.5048166  18.7215804  10.3927381  80.5283004
  18.1759723   8.9815271  80.4765734  27.6589511   2.2894055  69.8676122
  26.7715366   2.5743705  69.6496317  28.0743500   2.1287818  69.0203399
  31.0104047   2.3140576  73.5830461  31.7864438   2.8037028  73.8555078
  30.2852182   2.7398630  74.0402331  33.4476606   3.0268195  74.6404402
  34.0421097   2.7863931  73.9297710  33.5203190   2.3075326  75.2677938
  15.6673762  16.8701806  74.9547567  15.5328230  16.1102207  74.3885565
  15.2505824  17.5942706  74.4876355  26.8032725  12.0538729  63.9624142
  27.5068575  12.2588732  64.5781797  26.0795374  12.6215491  64.2273225
  27.6330535   7.8048591  70.0826412  27.5765736   8.2617142  69.2434044
  28.1858878   7.0439275  69.9049255  31.4435341   3.5938323  70.9076531
  31.1872275   3.1934958  71.7384739  30.8188209   4.3082117  70.7826671
  35.7547679   6.3334396  73.4147823  35.1947237   6.4027585  74.1879385
  35.1491182   6.1575380  72.6947319  18.8242888  17.7671123  75.1666009
  18.7075272  18.7116555  75.0644699  18.0035334  17.4644684  75.5551808
  28.7119422  12.4921259  66.0122602  29.5465026  12.0602457  65.8300077
  28.5503765  12.3203272  66.9399496  28.3665314   8.9953372  67.3778941
  28.3114118   8.8297643  66.4367385  27.7411370   9.7029405  67.5341131
  25.6811222  11.3002284  86.7032504  26.5502381  11.4742936  86.3419139
  25.2017973  12.1196701  86.5808233  19.8497402  18.4199385  78.3821938
  20.7524648  18.4522995  78.6988433  19.6234772  17.4899836  78.3968273
  21.6051004  17.1730371  75.0432016  20.6546635  17.1732233  74.9296389
  21.9083490  16.4263106  74.5268051  37.3403697  23.0090910  76.1077779
  37.9782107  22.8897657  75.4041119  37.2224540  23.9571754  76.1665731
  34.1493404  22.9618338  76.0439303  33.8111915  22.8459403  75.1559838
  35.0183172  22.5609503  76.0240309  30.0080219  24.8153814  72.0336194
  29.4445084  24.7243751  71.2652482  29.8932614  23.9953719  72.5138687
  34.6313187  24.1153190  82.0025509  34.6201827  23.7205988  81.1306013
  34.7933826  23.3819262  82.5959280  27.5544651  26.3105006  74.8720415
  28.3465943  25.9695831  74.4566714  27.7941301  26.4199981  75.7922568
  35.5879778  28.4824782  67.3450659  34.9367758  29.0678862  66.9584673
  36.3824141  29.0130977  67.4045697  29.5135405  25.5713919  67.7437794
  30.2866281  25.0242906  67.6050669  29.8660804  26.4358168  67.9552255
  31.3520448  26.8990301  80.9504693  31.0610314  27.8035932  80.8351359
  31.9877432  26.9406829  81.6648762  32.2776655  24.2767150  77.5406052
  32.8740227  24.0523172  76.8263015  32.3351626  23.5351895  78.1431500
  31.8501683  21.7306585  65.3756243  32.1027204  21.2088107  64.6139706
  30.9126242  21.5672731  65.4782927  36.8944966  20.7342364  73.1830987
  37.6808055  20.3161787  72.8321404  37.1583670  21.6388456  73.3512635
  37.0655043  26.1715214  67.8819643  36.4300876  26.2449840  68.5940548
  36.7352450  26.7608813  67.2038723  42.2953393  20.6717597  74.0863965
  43.0278565  20.1016814  74.3201795  41.5392749  20.2839197  74.5270471
  31.5697972  23.6334691  67.5780618  31.4534230  22.9579595  68.2461703
  31.6800232  23.1467065  66.7612771  33.9129513  23.0944838  71.2827308
  33.5487720  22.5675459  71.9940229  34.7696629  22.7043307  71.1093793
  39.8178813  14.3839171  78.5458574  39.4862138  15.2534582  78.3219789
  39.2224427  14.0675455  79.2252604  33.5535000  18.1234738  66.2788656
  33.7209402  18.9914974  66.6459127  33.3632169  18.2862020  65.3549945
  36.3110333  26.5851717  77.9454487  36.0111056  27.4876756  77.8370294
  35.9661392  26.3183900  78.7975639  29.7622814  23.0365514  73.9791191
  28.8373311  22.9041728  74.1868883  30.0107227  23.8159733  74.4761133
  39.7107477  19.1034257  75.6251924  38.8024354  19.0349666  75.3310685
  39.6595072  19.5806202  76.4533749  33.5324220  20.5792396  67.2635323
  33.4123846  21.0249446  68.1020803  32.8376809  20.9277713  66.7048861
  27.1231625  22.6798787  74.8134980  27.2524006  22.9333266  75.7274392
  26.4429077  23.2726495  74.4939635  31.2931113  33.3496037  70.9125454
  31.2155142  34.3003862  70.9913935  30.6892756  33.0041910  71.5700381
  33.7848342  20.5223903  83.5686821  33.0081676  21.0817823  83.5589686
  34.4238905  21.0080686  84.0901691  41.5769123  17.3050695  77.4029798
  40.9343503  17.5983229  76.7569592  41.0724051  17.1903616  78.2082994
  39.2309287  21.0513869  68.0915657  40.1427143  21.2841255  67.9163355
  38.7218934  21.6350913  67.5290736  32.0394715  23.3309356  83.1304788
  32.7809399  23.8694400  82.8539612  31.3331700  23.9575645  83.2876340
  37.5150054  25.4738497  81.7276950  37.9233410  25.0320907  80.9831582
  36.7927316  24.8991124  81.9811142  33.8681124  20.4111103  79.1010507
  34.7142320  20.8350517  79.2445156  33.8079762  19.7544728  79.7949070
  37.8378869  26.0339687  75.4829238  37.2087731  26.1985401  74.7805306
  37.4504531  26.4481297  76.2540203  41.7168101  26.9694125  72.8373602
  41.0319139  27.3493026  72.2870636  41.8011950  27.5789452  73.5705550
  37.0180570  18.0715472  80.7591680  36.7741502  18.8257532  80.2225956
  37.2940500  18.4500819  81.5938927  38.9719032  24.6154084  79.4368946
  39.1835928  25.2585844  78.7603327  38.9248781  23.7816401  78.9690876
  36.5745261  17.2271905  76.3405518  35.7129740  17.5253158  76.6322255
  36.6007696  17.4442304  75.4086551  33.3906831  25.7714095  72.7479324
  33.8545176  26.0501798  71.9583946  33.1263629  24.8697540  72.5652414
  30.2830912  25.3185577  75.6859087  30.8532269  25.7472845  75.0476571
  30.8739024  25.0368161  76.3843272  32.3275717  21.8937248  69.5568889
  33.0299760  22.3458291  70.0242815  31.9956345  21.2521066  70.1848782
  30.7756078  20.4849004  83.9320098  30.1454739  21.1665285  84.1655495
  30.6692166  20.3732086  82.9873236  26.0701051  20.1520800  74.8586022
  25.2800105  20.4078329  74.3826133  26.5612298  20.9669138  74.9638063
  40.0864860  27.4926039  77.6091303  40.9082304  27.0906227  77.3273985
  40.0827263  27.3894274  78.5607419  28.0215796  20.5165380  71.8169499
  27.2246959  20.6284074  72.3352995  27.7941388  20.8552032  70.9510389
  33.8521464  27.0410083  79.7652014  33.9165896  27.5030490  80.6010185
  33.1432388  26.4107448  79.8934323  24.3538754  20.4051291  77.2901013
  24.6046792  21.2898301  77.5558589  24.8898302  20.2255892  76.5176105
  48.1770853  23.8364788  73.9576275  47.4234562  23.2672186  73.8020279
  48.3118395  23.8027452  74.9046909  33.5669481  28.7078190  69.6330994
  33.4315156  29.5529726  70.0615842  34.1079294  28.9097468  68.8696928
  30.0536821  14.7869770  86.2945349  29.6603767  14.2335969  86.9692993
  30.8702961  15.0980349  86.6851867  27.0198879  26.2253628  70.2058919
  27.5323399  27.0196879  70.3564484  27.6721592  25.5279919  70.1392520
  28.8293764  29.3419385  72.2881672  29.0060392  30.2637349  72.1002656
  29.6250597  29.0277804  72.7176052  32.9704782  16.2027649  83.8865606
  33.7114495  16.8034802  83.8070068  33.2022705  15.4605287  83.3283648
  28.1146120  21.3884016  82.1643835  27.9999635  20.4869274  82.4650934
  27.2590638  21.6347713  81.8128652  35.1937958  29.3301757  83.7631336
  34.7501812  28.5438135  83.4452241  35.8555171  29.5180907  83.0975227
  29.9525079  30.8597558  78.2892015  30.5032504  30.7314622  77.5169008
  29.1136555  31.1592447  77.9386907  37.2919196  29.6104557  81.7912737
  37.2737671  30.4313438  81.2993006  38.2139116  29.4858632  82.0162878
  33.7492250  27.1248686  82.6336246  34.2820587  26.3636974  82.4035554
  33.2206331  26.8322338  83.3760400  36.9161945  12.2308752  78.1629887
  36.5726214  13.1210394  78.0868998  37.2840908  12.0410410  77.2999472
  24.9847796  24.5542283  70.9818490  25.8223018  24.9639291  70.7652197
  25.1626063  23.6141725  70.9518683  36.8812228  22.2217363  66.6702323
  36.3658851  22.9921968  66.9090710  36.6089536  21.5482499  67.2935384
  34.4659339  17.0667064  71.7287561  33.6100935  16.6773914  71.5493200
  34.8786291  17.1459025  70.8687346  35.9958485  14.6013407  76.1279121
  35.4923281  14.5643542  75.3146926  36.2889092  15.5106150  76.1875777
  32.2401371  14.6852137  75.1345302  33.1054368  14.4894946  74.7751192
  32.3078880  14.4562489  76.0614659  41.8546502  24.9749718  68.6055496
  41.0775945  24.6360877  68.1610658  42.5337983  24.9802341  67.9310461
  36.6698531  20.0944455  68.4962104  36.3648667  20.4090604  69.3472247
  37.6228973  20.1725875  68.5389437  35.1144963  26.2534679  70.1455058
  34.5866324  25.5187438  69.8328295  34.6132466  27.0309355  69.8995026
  40.0937809  24.4483699  75.2622104  39.4361483  25.1382961  75.3502233
  40.8978208  24.8380131  75.6056090  29.8463690  16.9154345  72.5061669
  30.4207442  16.6929526  71.7734862  30.4334673  16.9843039  73.2590270
  38.9043268  22.8028072  73.3126046  39.4175149  23.4358064  73.8147755
  39.5544492  22.2029267  72.9469406  30.1733278  18.9458806  66.5257554
  29.3370590  19.2833492  66.8466829  30.0338047  18.8107786  65.5884691
  32.1486358  13.7895594  71.2336739  31.4950770  13.4744611  70.6093353
  32.1066832  13.1671334  71.9596562  33.2597563  24.0714889  63.1490031
  32.3524625  23.8404142  63.3481180  33.7568595  23.2752508  63.3364012
  36.1665642  32.7812396  66.0686717  35.4927341  33.0844093  66.6771675
  36.5531464  33.5841476  65.7192174  35.3824098  20.2777527  75.5584386
  34.4646660  20.4992474  75.4006074  35.7984242  20.3523838  74.6996094
  36.1659146  21.6768943  70.6887067  36.9130965  22.1890340  70.3794189
  36.4350736  21.3552996  71.5491460  34.4385796  24.1727484  67.6714021
  33.5297016  23.8886517  67.7686491  34.4680880  24.5926562  66.8117328
  39.6705064  27.7834073  71.4405188  39.2167391  26.9424983  71.4970379
  39.0399031  28.4195472  71.7779969  38.6137983  18.7126059  72.6705856
  37.8760740  18.2003445  73.0016098  38.8664757  18.2726441  71.8589133
  38.1138003  29.6210570  72.3755006  38.4060977  30.1815627  71.6567372
  38.6236624  29.9139131  73.1308166  38.7149611  11.4902311  73.2647625
  39.0208488  10.6299675  72.9773540  39.4402216  12.0819931  73.0646619
  25.0073967  21.8932998  71.6529223  24.8098367  21.3002359  70.9280290
  24.4520631  21.5885208  72.3705162  32.9870690  21.7856104  73.7723816
  33.0419300  20.8329941  73.6966293  32.1761892  21.9415543  74.2565115
  34.1361884  25.7136227  65.0102099  33.6981314  24.9972086  64.5507737
  34.8772325  25.9412342  64.4487191  30.9263050  20.4033164  71.5314195
  30.1130916  20.7027335  71.9379387  31.4222045  20.0088853  72.2488677
  33.0771628  30.3990921  73.4648460  33.0347807  30.6251767  72.5356992
  33.9934327  30.1654296  73.6134261  36.5237262  20.8674989  80.3629089
  36.8786650  21.0946462  81.2223555  37.1709393  21.1993365  79.7406344
  42.2534999  23.9893424  71.0678418  42.1152898  24.1795020  70.1399607
  41.8971218  24.7512807  71.5246469  30.4177125  17.9751520  77.1475430
  31.0576504  17.8340279  76.4498393  29.5854656  17.6886033  76.7714032
  42.2804379  26.0569951  76.0789689  42.7140885  25.9645241  76.9272743
  42.9935959  26.0327452  75.4409705  31.1937429  27.2753950  73.2610422
  31.9878028  26.7804270  73.0592997  30.4829121  26.7471813  72.8978128
  36.0132274  29.6572046  77.6122790  36.0669296  30.2262982  78.3800506
  35.1447055  29.8273931  77.2476827  27.5020193  21.4197032  69.3370175
  26.5717781  21.3581487  69.5540137  27.5977664  20.8972985  68.5406816
  27.4205742  17.9451845  71.9248417  27.6812559  18.8597178  71.8157577
  28.2422914  17.4776287  72.0745030  28.8930667  19.3589602  79.0947241
  29.5653720  19.1506964  78.4459890  28.0660453  19.1611688  78.6552474
  43.1419928  26.0993652  78.6122575  43.3355818  27.0039463  78.8581850
  43.0420546  25.6401071  79.4461160  34.7956239  15.9851543  81.1112902
  34.1484154  16.6841492  81.0177379  35.5657254  16.4187687  81.4789150
  38.2035037  26.2500395  84.1863455  38.0520543  26.0210947  83.2693539
  38.1939716  27.2070996  84.1994800  34.9720373  23.8232308  79.1709722
  35.9012433  23.9743467  78.9978689  34.5511403  23.9116328  78.3158368
  33.7708705  27.8482972  76.9408260  33.6319791  27.4801756  77.8134198
  32.9823301  28.3630611  76.7692217  34.3656857  32.9492068  68.2833796
  34.5408613  32.4780112  69.0979419  33.6789645  33.5757835  68.5115057
  35.3213920  27.2264575  74.3297097  34.9863753  27.1865345  75.2254747
  34.8217866  26.5609291  73.8567508  29.2958164  22.6332205  79.8549678
  29.1577962  21.9012444  80.4561218  30.2063088  22.5441105  79.5733866
  38.2573112  24.5720609  64.6034157  37.6402282  23.8467437  64.5067210
  37.7889600  25.3329969  64.2601231  31.9240465  22.3452164  79.3433358
  32.6340083  21.7045356  79.3019977  31.8809773  22.5965059  80.2659539
  39.9127243  29.2819517  82.2639937  39.8539790  28.5978738  81.5970520
  40.3146762  30.0238507  81.8120563  30.6369399  19.3317382  81.1628998
  30.1006756  18.8808120  81.8150594  30.0486107  19.4663291  80.4199462
  28.9317942  36.0981431  75.0573656  29.1714541  36.7299955  75.7352675
  28.0887139  35.7469471  75.3439015  30.0471658  18.7906033  63.7255461
  29.1701124  18.6694834  63.3617708  30.5229411  17.9992112  63.4734350
  39.9144651  27.2459101  80.4953917  39.0271430  26.9085023  80.6180316
  40.4843202  26.5142133  80.7322682  21.5673798  23.5783193  73.8196968
  22.2544838  23.2644923  73.2317984  21.4121927  24.4824558  73.5464220
  26.3708520  18.4673390  78.2481992  26.2866709  17.8599059  77.5132402
  25.5491226  18.9582408  78.2491488  33.4445804  31.9060554  77.4615160
  33.3715976  32.7115525  77.9734465  33.0023197  32.1052520  76.6363182
  33.2335584  31.1432324  70.9717982  32.4503106  31.6854004  71.0656206
  33.9328329  31.6606303  71.3712223  36.5432234  16.9526953  73.6152187
  37.0400933  16.1996916  73.2953257  35.7719215  16.9891270  73.0495396
  44.3961991  22.6567319  75.2570479  44.3851868  23.5392034  74.8864412
  43.5279371  22.3038870  75.0625016  35.9044488  31.8047388  79.6173319
  36.6172460  32.4394853  79.5449220  35.4134516  31.9011254  78.8013321
  37.6262015  25.7098640  71.1890611  36.6918293  25.8300103  71.0195315
  37.8038683  24.8071107  70.9250620  33.1267203  19.0944336  73.3423872
  32.7564990  18.5415377  74.0304777  33.6226295  18.4902470  72.7898872
  41.0134566  21.5515960  71.7240645  41.4795018  22.3843951  71.6500947
  41.4642066  21.0860941  72.4285903  30.9556401  29.5541831  80.4378890
  31.6565861  30.1878314  80.5908284  30.4851516  29.8956563  79.6774529
  39.0810797  27.8959781  68.7226797  39.3570641  27.7816376  69.6320671
  38.2115296  27.4977266  68.6838970  38.9851229  13.9196547  75.7631546
  38.0714308  14.1500774  75.9313753  39.4144330  14.0034991  76.6145578
  38.7557687  22.1086439  78.2631440  38.1029137  22.3562346  77.6083893
  39.1338067  21.2950577  77.9293917  35.7164861  32.1446132  72.3659610
  35.8987256  31.3267788  72.8287363  36.5397847  32.3613824  71.9284500
  36.0507027  31.0714317  69.6274659  36.5794793  30.5606772  69.0144821
  36.3135246  30.7556847  70.4920192  34.8045260  22.8506250  84.7497477
  34.1285897  22.7500379  85.4199852  35.6272894  22.6945463  85.2133474
  26.5524119  29.0878186  77.3709992  27.1377556  28.3421874  77.5037897
  26.3548958  29.3982143  78.2546656  29.4062774  32.1229434  72.3872435
  28.7373150  32.6075561  71.9036475  29.2675644  32.3698654  73.3015813
  21.1441774  21.6583786  76.0914436  21.1825874  21.1247377  76.8851554
  20.6382067  21.1318992  75.4725413  33.5468043  34.1573177  78.9855093
  34.0986351  34.3204799  79.7504178  33.8874237  34.7477615  78.3135118
  28.5232536  16.5048327  79.5876978  28.5873863  17.3663158  79.1754376
  28.4599657  15.8922329  78.8549336  27.9984809  18.5771460  83.2350012
  28.6256848  18.1948537  83.8487536  27.1412728  18.3585661  83.6005705
  38.3978917  28.9834435  84.8403748  38.9418821  29.5964393  84.3458702
  37.8165762  29.5414013  85.3570761  24.7750352  20.3847889  69.1668367
  25.0703793  19.4758567  69.1135421  23.8738387  20.3635628  68.8449369
  36.6836430  32.1055153  75.9718775  36.5587570  31.3044893  75.4629721
  37.3415521  32.6001346  75.4832745  28.3044599  18.4603885  75.1495915
  27.5831184  19.0739853  75.0103389  29.0937854  18.9961650  75.0712561
  38.7471339  29.9064173  77.5998325  37.8001674  29.7869524  77.5276652
  39.0954112  29.0186671  77.6824587  31.1070912  15.7958312  81.4236567
  31.6305314  16.0420608  82.1862877  30.8883245  16.6278346  81.0039705
  26.5038193  18.0661986  69.2907692  26.1750899  17.1859365  69.1082798
  26.8577564  18.0109655  70.1784081  35.7517772  29.7016889  73.8002678
  35.6042734  28.7733596  73.9810248  36.5771266  29.7236980  73.3159753
  29.6180016  18.3534956  69.6583170  29.9576089  18.8820877  68.9361778
  30.0652137  18.6915362  70.4341736  39.3551894  30.5245448  74.8867550
  40.2798441  30.3188309  74.7492001  39.1867197  30.2761849  75.7956892
  32.3123457  16.7372007  79.1086238  31.9720278  15.9379820  79.5106918
  31.6062463  17.0373718  78.5363071  32.9639929  13.8221319  77.5613561
  33.7865998  13.3481797  77.4392451  33.2077993  14.6011803  78.0612247
  31.6048163  16.8509578  67.8576462  32.3256526  17.2290830  67.3540179
  30.9813468  17.5698454  67.9611440  35.7479286  17.5554727  68.7934795
  35.9642901  18.4379365  68.4923623  35.2673353  17.1640940  68.0640437
  30.4878508  20.5140440  75.3705539  30.3423088  20.8280743  76.2629821
  30.0103711  21.1325340  74.8176438  32.3474891  17.5042988  75.4186429
  32.3336459  16.6084081  75.0818727  33.0647319  17.5113652  76.0524715
  34.2001021  17.9380328  77.4639556  33.9418799  18.8597399  77.4623887
  33.6686062  17.5410763  78.1540021  39.1447210  31.0431115  70.2429642
  39.3184088  30.4777538  69.4903494  39.6376101  31.8432010  70.0609132
  24.9624170  23.0545784  78.3093201  24.4177638  23.8305592  78.4413475
  25.8403520  23.4016589  78.1512322  31.7511787  16.3857368  70.6873999
  31.8727698  15.4574014  70.8864887  31.4613829  16.3996054  69.7752315
  34.6202977  14.0712279  73.8240719  34.6424674  14.1351612  72.8692699
  35.0371036  13.2316787  74.0181225  44.9986601  23.8067538  71.8619942
  45.4417747  23.0574863  71.4639065  44.1213112  23.7977674  71.4793674
  40.1322383  30.3597880  67.3426540  40.8273287  30.9804572  67.5613855
  40.4745533  29.5093231  67.6178918  25.7490192  22.1815681  81.2023357
  25.0071928  22.3298316  81.7887988  25.4282936  22.4423946  80.3390107
  42.0313806  27.8097585  68.8713871  42.5565130  28.1484858  68.1463191
  41.9436158  26.8744600  68.6877005  33.6933854  31.7231659  81.0003747
  34.0020981  31.4780806  81.8726447  34.4909336  31.9278297  80.5122618
  33.7154466  33.8769568  73.2309124  33.2759457  33.3845947  73.9241981
  34.4662583  33.3342536  72.9901199  26.1946805  30.0681109  73.2333752
  27.0204825  29.7684881  72.8532396  25.8440857  29.2988732  73.6823541
  31.1628339  29.4207577  75.3031426  30.5408348  28.7578282  75.0033654
  31.8333205  29.4468709  74.6205073  24.3955410  27.9867436  74.1922686
  23.5587319  27.5589610  74.0106687  24.3679056  28.1799879  75.1293477
  31.2352866  17.8989365  84.8963932  31.2841022  18.7751488  84.5141701
  31.7775380  17.3566759  84.3235575  41.7207712  28.4430489  84.1765069
  40.9303255  28.4254628  83.6369568  41.4841066  28.9818782  84.9314105
  41.8405587  25.2922955  81.4897797  41.8903592  25.1272963  82.4313320
  41.7319510  24.4250214  81.0995678  30.7241846  27.9711501  68.7789886
  30.8729966  28.6546965  68.1256559  31.5308289  27.9516591  69.2939342
  39.1309349  21.2753883  82.8057104  40.0319212  21.1360348  82.5141102
  39.2057324  21.4408338  83.7455281  33.4652155  18.6520738  81.6510290
  32.5955464  18.9454304  81.3792879  33.7011635  19.2361183  82.3717554
  43.3423784  27.7119897  81.7339819  43.0508592  28.0749877  82.5703280
  42.7295915  26.9986905  81.5553151  44.5419466  25.2772776  74.2542389
  45.3766357  25.7162580  74.4179949  44.6778595  24.8011430  73.4350635
  41.5910972  22.8352511  80.2019877  42.0665093  23.0280158  79.3938728
  40.6676537  22.8911697  79.9563261  28.4794478  23.9976678  69.7850955
  28.2340520  23.0939008  69.9831165  28.6490393  23.9993829  68.8430433
  36.1691188  14.8700355  79.1675711  36.6873132  15.6061382  78.8422199
  35.8146321  15.1764348  80.0022470  27.7490126  19.7305036  67.2837117
  27.0559371  19.8049391  66.6277153  27.5041878  18.9665380  67.8058634
  36.4203783  11.2900637  74.6876607  36.7005536  10.6223826  75.3137034
  37.2054389  11.4829733  74.1751271  34.2237251  30.4659631  66.2501634
  33.6511218  31.0849818  65.7972106  34.7970045  31.0158993  66.7841556
  40.2912641  19.7118271  78.4348182  41.2430064  19.8116369  78.4560406
  40.1216091  18.9196540  78.9446267  38.3127020  16.7973855  78.6207583
  37.7176952  17.0778867  77.9254072  38.0276717  17.2867755  79.3924324
  37.4434511  30.7496781  67.3810216  38.3765184  30.6842343  67.5843091
  37.3557724  31.5853048  66.9224749  40.0722527  30.0662652  64.3414163
  39.9936159  29.7322515  65.2349921  40.8932194  30.5584420  64.3405636
  42.7700719  22.9324391  77.5490482  42.7377039  21.9940392  77.7350166
  43.3801342  23.0108428  76.8156307  34.6084050  21.8020444  63.5917686
  35.5543154  21.6726652  63.6606104  34.2298294  21.0635106  64.0687114
  42.9195207  19.7235434  77.5948765  42.4034256  18.9393891  77.4078694
  43.8035156  19.3954151  77.7595285  40.5805934  13.4676450  73.5544578
  40.3830755  13.1591538  74.4387910  41.1905640  14.1938089  73.6842508
  48.5877269  23.9940398  76.6896519  49.3180657  23.7325686  77.2504222
  47.9784214  23.2569120  76.7298587  46.6692566  22.1348260  77.2870970
  45.9425729  22.0004225  76.6787462  46.2539853  22.4425089  78.0927688
  34.4922742  25.8538190  85.0518343  35.4125752  26.0316789  85.2458390
  34.4572325  24.9094235  84.8998042  32.7926967  19.7270420  63.5272571
  31.8858422  19.4303533  63.6035285  33.0702948  19.4300238  62.6606858
  23.7104907  21.0476784  73.9771618  23.3907691  20.1942092  73.6845992
  23.1638335  21.2625362  74.7329585  27.4884815  23.7639225  77.6941124
  27.7070824  24.6956333  77.7129158  27.9010588  23.4047199  78.4795928
  34.4089032  14.2707310  69.6816813  33.5989761  13.9254395  70.0572059
  35.0973449  13.9614854  70.2704424  36.3379581  13.3485357  71.3041109
  36.8910619  13.7680810  71.9631132  36.5749667  12.4221105  71.3464065
  32.3612680  19.3372431  87.0843873  32.2609407  20.2866788  87.0155964
  32.1434222  19.0090669  86.2119943  31.5625751  16.5857356  63.6684551
  32.4244915  16.9112254  63.9280368  31.7476095  15.7988852  63.1557616
  23.5793167  24.6679695  75.9464739  22.8856638  24.2533648  75.4334694
  24.3266158  24.7100232  75.3498158  39.7158388  15.4585882  70.8119774
  39.1357057  16.1170686  70.4297826  39.4494320  14.6363227  70.4007191
  38.1661954  14.8590940  73.0141094  38.6661733  14.9707474  72.2055413
  38.8097562  14.5551993  73.6541902  32.2243950  22.7669569  85.9008935
  31.7411032  23.5669930  86.1072824  32.3104889  22.7777514  84.9476379
  25.4929910  24.5997949  73.8230754  25.4700598  24.6985636  72.8712637
  25.8030546  25.4463100  74.1447920  28.1517287  26.6574104  77.9377369
  29.1060541  26.6258046  77.8707300  27.9529811  26.1964728  78.7527595
  28.7416670  25.2275220  80.5048166  29.5609559  25.7219299  80.5283004
  29.0153477  24.3107188  80.4765734  38.4983266  17.6185972  69.8676122
  37.6109121  17.9035623  69.6496317  38.9137255  17.4579736  69.0203399
  41.8497802  17.6432493  73.5830461  42.6258192  18.1328946  73.8555078
  41.1245936  18.0690548  74.0402331  44.2870361  18.3560113  74.6404402
  44.8814851  18.1155849  73.9297710  44.3596944  17.6367243  75.2677938
  26.5067516  32.1993724  74.9547567  26.3721984  31.4394124  74.3885565
  26.0899579  32.9234623  74.4876355  37.6426479  27.3830647  63.9624142
  38.3462329  27.5880650  64.5781797  36.9189128  27.9507409  64.2273225
  38.4724290  23.1340508  70.0826412  38.4159491  23.5909060  69.2434044
  39.0252632  22.3731193  69.9049255  42.2829095  18.9230240  70.9076531
  42.0266030  18.5226876  71.7384739  41.6581963  19.6374034  70.7826671
  46.5941433  21.6626314  73.4147823  46.0340991  21.7319503  74.1879385
  45.9884937  21.4867298  72.6947319  29.6636642  33.0963041  75.1666009
  29.5469026  34.0408473  75.0644699  28.8429088  32.7936602  75.5551808
  39.5513177  27.8213176  66.0122602  40.3858781  27.3894375  65.8300077
  39.3897520  27.6495190  66.9399496  39.2059069  24.3245290  67.3778941
  39.1507873  24.1589561  66.4367385  38.5805124  25.0321323  67.5341131
  23.9951584  19.5613354  81.2040363  24.6410447  19.0512308  81.6927589
  23.7868735  20.2982036  81.7783789  36.5204976  26.6294201  86.7032504
  37.3896136  26.8034854  86.3419139  36.0411728  27.4488618  86.5808233
  32.5155194  13.8253399  66.9564260  32.5033864  14.7695239  67.1132530
  33.4078616  13.6423544  66.6623721  30.6891156  33.7491303  78.3821938
  31.5918403  33.7814913  78.6988433  30.4628526  32.8191753  78.3968273
  32.4444758  32.5022289  75.0432016  31.4940389  32.5024151  74.9296389
  32.7477244  31.7555024  74.5268051  36.3307314  10.4196175  71.2110196
  35.5639710   9.8654662  71.3566879  36.7418019  10.4918044  72.0724348
  28.3349075  16.7080971  85.3015378  29.1980536  16.3517776  85.5118702
  27.7614485  16.3694866  85.9890782  48.1797452  38.3382827  76.1077779
  48.8175862  38.2189575  75.4041119  48.0618295  39.2863671  76.1665731
  44.9887158  38.2910256  76.0439303  44.6505670  38.1751320  75.1559838
  45.8576926  37.8901421  76.0240309  45.4706941  39.4445107  82.0025509
  45.4595582  39.0497906  81.1306013  45.6327581  38.7111180  82.5959280
  42.1914202  42.2282219  80.9504693  41.9004068  43.1327850  80.8351359
  42.8271187  42.2698747  81.6648762  43.1170409  39.6059068  77.5406052
  43.7133981  39.3815090  76.8263015  43.1745381  38.8643813  78.1431500
  42.6895437  37.0598503  65.3756243  42.9420958  36.5380024  64.6139706
  41.7519997  36.8964648  65.4782927  47.7338720  36.0634281  73.1830987
  48.5201809  35.6453704  72.8321404  47.9977425  36.9680373  73.3512635
  53.1347147  36.0009514  74.0863965  53.8672319  35.4308731  74.3201795
  52.3786503  35.6131115  74.5270471  50.6572568  29.7131089  78.5458574
  50.3255893  30.5826500  78.3219789  50.0618181  29.3967373  79.2252604
  44.3928754  33.4526656  66.2788656  44.5603156  34.3206892  66.6459127
  44.2025923  33.6153937  65.3549945  47.1504087  41.9143635  77.9454487
  46.8504810  42.8168673  77.8370294  46.8055147  41.6475818  78.7975639
  40.6016569  38.3657431  73.9791191  39.6767065  38.2333646  74.1868883
  40.8500982  39.1451651  74.4761133  50.5501231  34.4326175  75.6251924
  49.6418108  34.3641583  75.3310685  50.4988827  34.9098120  76.4533749
  44.3717975  35.9084313  67.2635323  44.2517600  36.3541364  68.1020803
  43.6770563  36.2569631  66.7048861  37.9625380  38.0090705  74.8134980
  38.0917761  38.2625184  75.7274392  37.2822831  38.6018413  74.4939635
  44.6242097  35.8515820  83.5686821  43.8475431  36.4109741  83.5589686
  45.2632660  36.3372603  84.0901691  52.4162877  32.6342613  77.4029798
  51.7737258  32.9275146  76.7569592  51.9117806  32.5195534  78.2082994
  50.0703041  36.3805786  68.0915657  50.9820897  36.6133173  67.9163355
  49.5612688  36.9642831  67.5290736  42.8788469  38.6601274  83.1304788
  43.6203154  39.1986318  82.8539612  42.1725455  39.2867562  83.2876340
  48.3543809  40.8030414  81.7276950  48.7627165  40.3612825  80.9831582
  47.6321070  40.2283042  81.9811142  44.7074879  35.7403021  79.1010507
  45.5536074  36.1642435  79.2445156  44.6473516  35.0836645  79.7949070
  47.8574324  33.4007389  80.7591680  47.6135256  34.1549450  80.2225956
  48.1334255  33.7792737  81.5938927  49.8112787  39.9446002  79.4368946
  50.0229682  40.5877762  78.7603327  49.7642535  39.1108318  78.9690876
  47.4139016  32.5563822  76.3405518  46.5523495  32.8545076  76.6322255
  47.4401451  32.7734221  75.4086551  41.1224666  40.6477494  75.6859087
  41.6926023  41.0764763  75.0476571  41.7132778  40.3660079  76.3843272
  43.1669471  37.2229165  69.5568889  43.8693515  37.6750209  70.0242815
  42.8350100  36.5812984  70.1848782  41.6149833  35.8140922  83.9320098
  40.9848493  36.4957203  84.1655495  41.5085921  35.7024004  82.9873236
  36.9094805  35.4812718  74.8586022  36.1193859  35.7370246  74.3826133
  37.4006053  36.2961056  74.9638063  50.9258615  42.8217957  77.6091303
  51.7476059  42.4198144  77.3273985  50.9221018  42.7186191  78.5607419
  38.8609551  35.8457297  71.8169499  38.0640714  35.9575991  72.3352995
  38.6335143  36.1843949  70.9510389  44.6915218  42.3702000  79.7652014
  44.7559651  42.8322408  80.6010185  43.9826142  41.7399365  79.8934323
  35.1932508  35.7343208  77.2901013  35.4440547  36.6190218  77.5558589
  35.7292057  35.5547810  76.5176105  59.0164608  39.1656706  73.9576275
  58.2628316  38.5964104  73.8020279  59.1512149  39.1319370  74.9046909
  40.8930576  30.1161688  86.2945349  40.4997521  29.5627886  86.9692993
  41.7096716  30.4272266  86.6851867  43.8098537  31.5319567  83.8865606
  44.5508250  32.1326720  83.8070068  44.0416459  30.7897205  83.3283648
  38.9539875  36.7175934  82.1643835  38.8393390  35.8161191  82.4650934
  38.0984392  36.9639631  81.8128652  46.0331712  44.6593674  83.7631336
  45.5895567  43.8730053  83.4452241  46.6948926  44.8472825  83.0975227
  48.1312950  44.9396474  81.7912737  48.1131426  45.7605355  81.2993006
  49.0532870  44.8150550  82.0162878  44.5886005  42.4540604  82.6336246
  45.1214341  41.6928892  82.4035554  44.0600086  42.1614256  83.3760400
  47.7555700  27.5600670  78.1629887  47.4119969  28.4502311  78.0868998
  48.1234662  27.3702327  77.2999472  47.7205982  37.5509281  66.6702323
  47.2052606  38.3213886  66.9090710  47.4483291  36.8774417  67.2935384
  45.3053093  32.3958982  71.7287561  44.4494690  32.0065832  71.5493200
  45.7180045  32.4750942  70.8687346  46.8352240  29.9305325  76.1279121
  46.3317036  29.8935460  75.3146926  47.1282847  30.8398068  76.1875777
  43.0795126  30.0144055  75.1345302  43.9448123  29.8186863  74.7751192
  43.1472635  29.7854406  76.0614659  47.5092285  35.4236373  68.4962104
  47.2042421  35.7382522  69.3472247  48.4622728  35.5017793  68.5389437
  50.9331563  39.7775617  75.2622104  50.2755238  40.4674878  75.3502233
  51.7371963  40.1672049  75.6056090  40.6857445  32.2446263  72.5061669
  41.2601197  32.0221444  71.7734862  41.2728427  32.3134957  73.2590270
  49.7437022  38.1319989  73.3126046  50.2568904  38.7649981  73.8147755
  50.3938246  37.5321185  72.9469406  41.0127032  34.2750724  66.5257554
  40.1764344  34.6125410  66.8466829  40.8731802  34.1399703  65.5884691
  42.9880113  29.1187511  71.2336739  42.3344525  28.8036529  70.6093353
  42.9460587  28.4963252  71.9596562  44.0991317  39.4006807  63.1490031
  43.1918379  39.1696060  63.3481180  44.5962349  38.6044426  63.3364012
  46.2217853  35.6069445  75.5584386  45.3040414  35.8284392  75.4006074
  46.6377997  35.6815755  74.6996094  47.0052901  37.0060861  70.6887067
  47.7524720  37.5182258  70.3794189  47.2744490  36.6844913  71.5491460
  49.4531738  34.0417977  72.6705856  48.7154495  33.5295363  73.0016098
  49.7058511  33.6018359  71.8589133  49.5543365  26.8194229  73.2647625
  49.8602242  25.9591592  72.9773540  50.2795970  27.4111849  73.0646619
  35.8467721  37.2224916  71.6529223  35.6492121  36.6294276  70.9280290
  35.2914385  36.9177126  72.3705162  43.8264445  37.1148022  73.7723816
  43.8813055  36.1621858  73.6966293  43.0155647  37.2707461  74.2565115
  41.7656805  35.7325082  71.5314195  40.9524670  36.0319252  71.9379387
  42.2615799  35.3380771  72.2488677  47.3631017  36.1966906  80.3629089
  47.7180404  36.4238379  81.2223555  48.0103148  36.5285283  79.7406344
  53.0928753  39.3185342  71.0678418  52.9546652  39.5086938  70.1399607
  52.7364972  40.0804725  71.5246469  41.2570880  33.3043437  77.1475430
  41.8970259  33.1632196  76.4498393  40.4248410  33.0177951  76.7714032
  53.1198133  41.3861869  76.0789689  53.5534640  41.2937158  76.9272743
  53.8329714  41.3619370  75.4409705  46.8526028  44.9863963  77.6122790
  46.9063050  45.5554900  78.3800506  45.9840809  45.1565848  77.2476827
  38.3413947  36.7488949  69.3370175  37.4111535  36.6873405  69.5540137
  38.4371419  36.2264902  68.5406816  38.2599496  33.2743762  71.9248417
  38.5206313  34.1889096  71.8157577  39.0816668  32.8068205  72.0745030
  39.7324421  34.6881519  79.0947241  40.4047475  34.4798882  78.4459890
  38.9054208  34.4903605  78.6552474  53.9813683  41.4285570  78.6122575
  54.1749573  42.3331380  78.8581850  53.8814301  40.9692989  79.4461160
  45.6349993  31.3143460  81.1112902  44.9877908  32.0133410  81.0177379
  46.4051009  31.7479604  81.4789150  49.0428791  41.5792313  84.1863455
  48.8914298  41.3502864  83.2693539  49.0333471  42.5362914  84.1994800
  45.8114128  39.1524225  79.1709722  46.7406188  39.3035385  78.9978689
  45.3905158  39.2408246  78.3158368  44.6102460  43.1774890  76.9408260
  44.4713545  42.8093674  77.8134198  43.8217056  43.6922529  76.7692217
  40.1351919  37.9624122  79.8549678  39.9971717  37.2304361  80.4561218
  41.0456842  37.8733023  79.5733866  42.7634219  37.6744082  79.3433358
  43.4733838  37.0337274  79.3019977  42.7203527  37.9256977  80.2659539
  50.7520998  44.6111435  82.2639937  50.6933544  43.9270655  81.5970520
  51.1540516  45.3530425  81.8120563  41.4763153  34.6609300  81.1628998
  40.9400510  34.2100038  81.8150594  40.8879862  34.7955208  80.4199462
  40.8865412  34.1197951  63.7255461  40.0094879  33.9986752  63.3617708
  41.3623165  33.3284029  63.4734350  50.7538405  42.5751019  80.4953917
  49.8665184  42.2376941  80.6180316  51.3236956  41.8434050  80.7322682
  32.4067552  38.9075111  73.8196968  33.0938592  38.5936841  73.2317984
  32.2515681  39.8116475  73.5464220  37.2102275  33.7965307  78.2481992
  37.1260463  33.1890977  77.5132402  36.3884981  34.2874326  78.2491488
  47.3825988  32.2818871  73.6152187  47.8794688  31.5288833  73.2953257
  46.6112970  32.3183188  73.0495396  55.2355746  37.9859236  75.2570479
  55.2245622  38.8683952  74.8864412  54.3673125  37.6330787  75.0625016
  46.7438242  47.1339305  79.6173319  47.4566214  47.7686770  79.5449220
  46.2528271  47.2303171  78.8013321  43.9660957  34.4236254  73.3423872
  43.5958745  33.8707294  74.0304777  44.4620050  33.8194387  72.7898872
  51.8528320  36.8807877  71.7240645  52.3188773  37.7135869  71.6500947
  52.3035821  36.4152859  72.4285903  41.7950156  44.8833749  80.4378890
  42.4959615  45.5170232  80.5908284  41.3245271  45.2248480  79.6774529
  49.8244983  29.2488464  75.7631546  48.9108063  29.4792691  75.9313753
  50.2538085  29.3326908  76.6145578  49.5951442  37.4378356  78.2631440
  48.9422892  37.6854264  77.6083893  49.9731822  36.6242495  77.9293917
  45.6439015  38.1798167  84.7497477  44.9679652  38.0792297  85.4199852
  46.4666649  38.0237381  85.2133474  37.3917874  44.4170104  77.3709992
  37.9771311  43.6713792  77.5037897  37.1942712  44.7274061  78.2546656
  31.9835528  36.9875704  76.0914436  32.0219628  36.4539295  76.8851554
  31.4775821  36.4610910  75.4725413  39.3626291  31.8340245  79.5876978
  39.4267617  32.6955076  79.1754376  39.2993411  31.2214246  78.8549336
  38.8378563  33.9063377  83.2350012  39.4650602  33.5240454  83.8487536
  37.9806482  33.6877579  83.6005705  49.2372672  44.3126352  84.8403748
  49.7812576  44.9256311  84.3458702  48.6559517  44.8705931  85.3570761
  35.6144106  35.7139806  69.1668367  35.9097547  34.8050485  69.1135421
  34.7132142  35.6927546  68.8449369  39.1438353  33.7895803  75.1495915
  38.4224939  34.4031771  75.0103389  39.9331609  34.3253568  75.0712561
  49.5865093  45.2356090  77.5998325  48.6395429  45.1161442  77.5276652
  49.9347866  44.3478588  77.6824587  41.9464667  31.1250229  81.4236567
  42.4699068  31.3712526  82.1862877  41.7277000  31.9570264  81.0039705
  37.3431948  33.3953904  69.2907692  37.0144654  32.5151283  69.1082798
  37.6971318  33.3401573  70.1784081  40.4573771  33.6826874  69.6583170
  40.7969843  34.2112795  68.9361778  40.9045891  34.0207280  70.4341736
  43.1517212  32.0663924  79.1086238  42.8114032  31.2671738  79.5106918
  42.4456218  32.3665635  78.5363071  43.8033683  29.1513237  77.5613561
  44.6259753  28.6773715  77.4392451  44.0471747  29.9303721  78.0612247
  42.4441918  32.1801495  67.8576462  43.1650280  32.5582748  67.3540179
  41.8207222  32.8990372  67.9611440  46.5873041  32.8846644  68.7934795
  46.8036655  33.7671282  68.4923623  46.1067108  32.4932858  68.0640437
  41.3272262  35.8432358  75.3705539  41.1816843  36.1572661  76.2629821
  40.8497466  36.4617258  74.8176438  43.1868645  32.8334906  75.4186429
  43.1730214  31.9375999  75.0818727  43.9041073  32.8405569  76.0524715
  45.0394776  33.2672246  77.4639556  44.7812554  34.1889316  77.4623887
  44.5079816  32.8702680  78.1540021  35.8017924  38.3837702  78.3093201
  35.2571392  39.1597510  78.4413475  36.6797274  38.7308506  78.1512322
  42.5905541  31.7149286  70.6873999  42.7121452  30.7865932  70.8864887
  42.3007583  31.7287972  69.7752315  45.4596731  29.4004196  73.8240719
  45.4818428  29.4643529  72.8692699  45.8764790  28.5608705  74.0181225
  55.8380356  39.1359456  71.8619942  56.2811502  38.3866781  71.4639065
  54.9606866  39.1269592  71.4793674  36.5883946  37.5107598  81.2023357
  35.8465682  37.6590234  81.7887988  36.2676691  37.7715864  80.3390107
  44.5327609  47.0523576  81.0003747  44.8414735  46.8072723  81.8726447
  45.3303091  47.2570215  80.5122618  35.2349165  43.3159353  74.1922686
  34.3981073  42.8881528  74.0106687  35.2072810  43.5091797  75.1293477
  42.0746621  33.2281283  84.8963932  42.1234776  34.1043406  84.5141701
  42.6169135  32.6858676  84.3235575  52.5601466  43.7722406  84.1765069
  51.7697010  43.7546545  83.6369568  52.3234821  44.3110700  84.9314105
  52.6799341  40.6214873  81.4897797  52.7297346  40.4564880  82.4313320
  52.5713265  39.7542132  81.0995678  49.9703104  36.6045801  82.8057104
  50.8712966  36.4652266  82.5141102  50.0451078  36.7700256  83.7455281
  44.3045909  33.9812656  81.6510290  43.4349218  34.2746222  81.3792879
  44.5405389  34.5653101  82.3717554  52.4304726  38.1644429  80.2019877
  52.9058848  38.3572075  79.3938728  51.5070292  38.2203615  79.9563261
  47.0084943  30.1992272  79.1675711  47.5266887  30.9353299  78.8422199
  46.6540076  30.5056266  80.0022470  38.5883881  35.0596954  67.2837117
  37.8953125  35.1341309  66.6277153  38.3435632  34.2957297  67.8058634
  47.2597537  26.6192555  74.6876607  47.5399291  25.9515744  75.3137034
  48.0448144  26.8121651  74.1751271  51.1306395  35.0410189  78.4348182
  52.0823818  35.1408287  78.4560406  50.9609846  34.2488458  78.9446267
  49.1520775  32.1265772  78.6207583  48.5570707  32.4070785  77.9254072
  48.8670472  32.6159673  79.3924324  53.6094473  38.2616309  77.5490482
  53.5770793  37.3232309  77.7350166  54.2195097  38.3400345  76.8156307
  45.4477804  37.1312362  63.5917686  46.3936909  37.0018570  63.6606104
  45.0692049  36.3927024  64.0687114  53.7588962  35.0527352  77.5948765
  53.2428010  34.2685809  77.4078694  54.6428910  34.7246069  77.7595285
  51.4199689  28.7968368  73.5544578  51.2224510  28.4883456  74.4387910
  52.0299394  29.5230007  73.6842508  59.4271023  39.3232316  76.6896519
  60.1574411  39.0617604  77.2504222  58.8177968  38.5861037  76.7298587
  57.5086320  37.4640178  77.2870970  56.7819484  37.3296143  76.6787462
  57.0933607  37.7717007  78.0927688  45.3316497  41.1830108  85.0518343
  46.2519506  41.3608707  85.2458390  45.2966080  40.2386153  84.8998042
  43.6320721  35.0562338  63.5272571  42.7252177  34.7595451  63.6035285
  43.9096702  34.7592156  62.6606858  34.5498662  36.3768701  73.9771618
  34.2301446  35.5234010  73.6845992  34.0032090  36.5917280  74.7329585
  38.3278569  39.0931142  77.6941124  38.5464579  40.0248250  77.7129158
  38.7404343  38.7339117  78.4795928  45.2482787  29.5999228  69.6816813
  44.4383515  29.2546313  70.0572059  45.9367204  29.2906772  70.2704424
  47.1773335  28.6777275  71.3041109  47.7304374  29.0972728  71.9631132
  47.4143422  27.7513023  71.3464065  43.2006434  34.6664348  87.0843873
  43.1003161  35.6158705  87.0155964  42.9827976  34.3382587  86.2119943
  42.4019506  31.9149273  63.6684551  43.2638670  32.2404172  63.9280368
  42.5869850  31.1280769  63.1557616  34.4186922  39.9971613  75.9464739
  33.7250393  39.5825566  75.4334694  35.1659913  40.0392149  75.3498158
  50.5552142  30.7877800  70.8119774  49.9750811  31.4462604  70.4297826
  50.2888075  29.9655144  70.4007191  49.0055709  30.1882857  73.0141094
  49.5055487  30.2999392  72.2055413  49.6491317  29.8843910  73.6541902
  43.0637704  38.0961487  85.9008935  42.5804786  38.8961847  86.1072824
  43.1498644  38.1069432  84.9476379  36.3323664  39.9289867  73.8230754
  36.3094352  40.0277554  72.8712637  36.6424301  40.7755018  74.1447920
  38.9911042  41.9866022  77.9377369  39.9454296  41.9549964  77.8707300
  38.7923566  41.5256646  78.7527595  39.5810424  40.5567138  80.5048166
  40.4003313  41.0511216  80.5283004  39.8547232  39.6399106  80.4765734
  49.3377020  32.9477890  69.8676122  48.4502875  33.2327541  69.6496317
  49.7531009  32.7871654  69.0203399  52.6891556  32.9724411  73.5830461
  53.4651947  33.4620864  73.8555078  51.9639691  33.3982465  74.0402331
  55.1264115  33.6852030  74.6404402  55.7208606  33.4447766  73.9297710
  55.1990699  32.9659161  75.2677938  49.3118044  38.4632426  70.0826412
  49.2553245  38.9200977  69.2434044  49.8646387  37.7023111  69.9049255
  53.1222850  34.2522158  70.9076531  52.8659784  33.8518794  71.7384739
  52.4975718  34.9665952  70.7826671  57.4335188  36.9918231  73.4147823
  56.8734746  37.0611420  74.1879385  56.8278691  36.8159216  72.6947319
  34.8345338  34.8905272  81.2040363  35.4804202  34.3804226  81.6927589
  34.6262489  35.6273953  81.7783789  47.3598731  41.9586119  86.7032504
  48.2289890  42.1326771  86.3419139  46.8805482  42.7780536  86.5808233
  43.3548949  29.1545316  66.9564260  43.3427619  30.0987156  67.1132530
  44.2472371  28.9715462  66.6623721  47.1701068  25.7488093  71.2110196
  46.4033464  25.1946580  71.3566879  47.5811773  25.8209962  72.0724348
  39.1742829  32.0372889  85.3015378  40.0374291  31.6809694  85.5118702
  38.6008240  31.6986784  85.9890782  51.7324330  45.4453605  86.2945349
  51.3391276  44.8919804  86.9692993  52.5490470  45.7564184  86.6851867
  55.4279759  57.7832521  82.6336246  55.9608096  57.0220810  82.4035554
  54.8993840  57.4906173  83.3760400  58.5949454  42.8892587  78.1629887
  58.2513723  43.7794229  78.0868998  58.9628417  42.6994245  77.2999472
  60.3937120  42.1486147  73.2647625  60.6995996  41.2883510  72.9773540
  61.1189725  42.7403767  73.0646619  64.8207437  56.7577487  78.6122575
  65.0143327  57.6623298  78.8581850  64.7208055  56.2984907  79.4461160
  59.8822546  56.9084230  84.1863455  59.7308052  56.6794782  83.2693539
  59.8727225  57.8654832  84.1994800  61.5932160  57.9042937  80.4953917
  60.7058939  57.5668858  80.6180316  62.1630711  57.1725968  80.7322682
  52.6343910  60.2125667  80.4378890  53.3353370  60.8462150  80.5908284
  52.1639025  60.5540398  79.6774529  56.4832769  53.5090085  84.7497477
  55.8073406  53.4084214  85.4199852  57.3060403  53.3529299  85.2133474
  49.6772318  49.2355295  83.2350012  50.3044357  48.8532372  83.8487536
  48.8200237  49.0169497  83.6005705  52.9140375  48.5573201  84.8963932
  52.9628531  49.4335324  84.5141701  53.4562889  48.0150594  84.3235575
  63.3995221  59.1014324  84.1765069  62.6090764  59.0838463  83.6369568
  63.1628575  59.6402618  84.9314105  63.5193096  55.9506790  81.4897797
  63.5691101  55.7856798  82.4313320  63.4107019  55.0834049  81.0995678
  65.0211293  58.3703732  81.7339819  64.7296101  58.7333713  82.5703280
  64.4083424  57.6570740  81.5553151  70.2664778  54.6524233  76.6896519
  70.9968166  54.3909521  77.2504222  69.6571723  53.9152955  76.7298587
  56.1710251  56.5122025  85.0518343  57.0913261  56.6900624  85.2458390
  56.1359834  55.5678071  84.8998042  54.0400189  49.9956266  87.0843873
  53.9396916  50.9450623  87.0155964  53.8221731  49.6674505  86.2119943
  53.9031459  53.4253405  85.9008935  53.4198541  54.2253765  86.1072824
  53.9892398  53.4361350  84.9476379  58.1992485  57.2878037  86.7032504
  59.0683645  57.4618689  86.3419139  57.7199236  58.1072454  86.5808233
  50.0136584  47.3664806  85.3015378  50.8768045  47.0101611  85.5118702
  49.4401994  47.0278701  85.9890782  68.1061041  74.4700535  67.3450659
  67.4549021  75.0554615  66.9584673  68.9005404  75.0006730  67.4045697
  63.8112376  79.3371790  70.9125454  63.7336406  80.2879615  70.9913935
  63.2074020  78.9917663  71.5700381  74.2349364  72.9569878  72.8373602
  73.5500402  73.3368779  72.2870636  74.3193214  73.5665205  73.5705550
  71.4900296  70.6029837  79.4368946  71.7017191  71.2461597  78.7603327
  71.4430044  69.7692154  78.9690876  72.6046124  73.4801792  77.6091303
  73.4263568  73.0781980  77.3273985  72.6008527  73.3770027  78.5607419
  80.6952117  69.8240541  73.9576275  79.9415825  69.2547939  73.8020279
  80.8299658  69.7903205  74.9046909  66.0850745  74.6953943  69.6330994
  65.9496420  75.5405479  70.0615842  66.6260557  74.8973221  68.8696928
  69.4343209  58.2184505  78.1629887  69.0907478  59.1086147  78.0868998
  69.8022171  58.0286163  77.2999472  74.3727765  70.9625471  68.6055496
  73.5957208  70.6236630  68.1610658  75.0519246  70.9678094  67.9310461
  68.6846905  78.7688149  66.0686717  68.0108604  79.0719846  66.6771675
  69.0712727  79.5717229  65.7192174  72.1886327  73.7709826  71.4405188
  71.7348654  72.9300736  71.4970379  71.5580294  74.4071225  71.7779969
  70.6319267  75.6086323  72.3755006  70.9242241  76.1691380  71.6567372
  71.1417887  75.9014884  73.1308166  71.2330874  57.4778064  73.2647625
  71.5389751  56.6175428  72.9773540  71.9583479  58.0695685  73.0646619
  69.0418526  66.8550742  80.3629089  69.3967913  67.0822215  81.2223555
  69.6890657  67.1869118  79.7406344  74.7716262  69.9769177  71.0678418
  74.6334161  70.1670773  70.1399607  74.4152481  70.7388560  71.5246469
  74.7985642  72.0445704  76.0789689  75.2322149  71.9520994  76.9272743
  75.5117223  72.0203205  75.4409705  75.6601192  72.0869405  78.6122575
  75.8537082  72.9915216  78.8581850  75.5601810  71.6276824  79.4461160
  66.8838120  78.9367822  68.2833796  67.0589876  78.4655865  69.0979419
  66.1970909  79.5633588  68.5115057  65.7516847  77.1308077  70.9717982
  64.9684369  77.6729757  71.0656206  66.4509592  77.6482056  71.3712223
  76.9143255  68.6443072  75.2570479  76.9033131  69.5267787  74.8864412
  76.0460634  68.2914623  75.0625016  73.5315829  67.5391713  71.7240645
  73.9976282  68.3719704  71.6500947  73.9823330  67.0736694  72.4285903
  71.5992061  73.8835534  68.7226797  71.8751904  73.7692129  69.6320671
  70.7296559  73.4853019  68.6838970  71.2738951  68.0962192  78.2631440
  70.6210401  68.3438099  77.6083893  71.6519331  67.2826330  77.9293917
  68.2346125  78.1321885  72.3659610  68.4168519  77.3143541  72.8287363
  69.0579111  78.3489577  71.9284500  68.5688290  77.0590070  69.6274659
  69.0976056  76.5482525  69.0144821  68.8316510  76.7432600  70.4920192
  61.9244038  78.1105187  72.3872435  61.2554413  78.5951314  71.9036475
  61.7856908  78.3574407  73.3015813  71.8733157  76.5121201  74.8867550
  72.7979705  76.3064062  74.7492001  71.7048461  76.2637602  75.7956892
  71.6628474  77.0306868  70.2429642  71.8365351  76.4653291  69.4903494
  72.1557365  77.8307763  70.0609132  72.6503646  76.3473633  67.3426540
  73.3454551  76.9680325  67.5613855  72.9926796  75.4968984  67.6178918
  74.5495069  73.7973338  68.8713871  75.0746393  74.1360611  68.1463191
  74.4617422  72.8620353  68.6877005  77.0600729  71.2648529  74.2542389
  77.8947621  71.7038334  74.4179949  77.1959858  70.7887183  73.4350635
  74.1092235  68.8228264  80.2019877  74.5846357  69.0155911  79.3938728
  73.1857801  68.8787450  79.9563261  68.6872452  60.8576108  79.1675711
  69.2054396  61.5937135  78.8422199  68.3327585  61.1640101  80.0022470
  66.7418515  76.4535384  66.2501634  66.1692482  77.0725571  65.7972106
  67.3151308  77.0034746  66.7841556  70.8308284  62.7849608  78.6207583
  70.2358216  63.0654620  77.9254072  70.5457981  63.2743509  79.3924324
  69.9615774  76.7372534  67.3810216  70.8946447  76.6718096  67.5843091
  69.8738987  77.5728801  66.9224749  72.5903791  76.0538405  64.3414163
  72.5117422  75.7198268  65.2349921  73.4113458  76.5460173  64.3405636
  75.2881982  68.9200144  77.5490482  75.2558302  67.9816145  77.7350166
  75.8982606  68.9984181  76.8156307  81.1058532  69.9816151  76.6896519
  81.8361920  69.7201439  77.2504222  80.4965477  69.2444873  76.7298587
  79.1873829  68.1224013  77.2870970  78.4606993  67.9879978  76.6787462
  78.7721116  68.4300842  78.0927688  79.1122697  67.6502067  73.4147823
  78.5522255  67.7195256  74.1879385  78.5066200  67.4743051  72.6947319
  72.0694440  73.8088929  66.0122602  72.9040044  73.3770128  65.8300077
  71.9078783  73.6370943  66.9399496  80.6978715  84.3258580  76.1077779
  81.3357125  84.2065328  75.4041119  80.5799558  85.2739424  76.1665731
  77.5068422  84.2786009  76.0439303  77.1686933  84.1627073  75.1559838
  78.3758190  83.8777174  76.0240309  73.3655237  86.1321485  72.0336194
  72.8020102  86.0411422  71.2652482  73.2507632  85.3121389  72.5138687
  77.9888205  85.4320860  82.0025509  77.9776845  85.0373659  81.1306013
  78.1508844  84.6986933  82.5959280  70.9119669  87.6272677  74.8720415
  71.7040961  87.2863501  74.4566714  71.1516319  87.7367652  75.7922568
  78.9454796  89.7992453  67.3450659  78.2942776  90.3846533  66.9584673
  79.7399159  90.3298648  67.4045697  72.8710423  86.8881590  67.7437794
  73.6441299  86.3410577  67.6050669  73.2235822  87.7525839  67.9552255
  74.7095466  88.2157972  80.9504693  74.4185332  89.1203603  80.8351359
  75.3452450  88.2574500  81.6648762  75.6351673  85.5934821  77.5406052
  76.2315245  85.3690843  76.8263015  75.6926644  84.8519566  78.1431500
  75.2076701  83.0474256  65.3756243  75.4602222  82.5255777  64.6139706
  74.2701260  82.8840401  65.4782927  80.2519984  82.0510034  73.1830987
  81.0383073  81.6329457  72.8321404  80.5158688  82.9556127  73.3512635
  80.4230061  87.4882885  67.8819643  79.7875894  87.5617511  68.5940548
  80.0927467  88.0776483  67.2038723  85.6528411  81.9885268  74.0863965
  86.3853583  81.4184484  74.3201795  84.8967767  81.6006868  74.5270471
  74.9272990  84.9502362  67.5780618  74.8109248  84.2747265  68.2461703
  75.0375250  84.4634736  66.7612771  77.2704531  84.4112509  71.2827308
  76.9062738  83.8843130  71.9940229  78.1271646  84.0210978  71.1093793
  83.1753831  75.7006842  78.5458574  82.8437156  76.5702253  78.3219789
  82.5799445  75.3843126  79.2252604  76.9110018  79.4402409  66.2788656
  77.0784420  80.3082645  66.6459127  76.7207187  79.6029690  65.3549945
  79.6685351  87.9019388  77.9454487  79.3686074  88.8044426  77.8370294
  79.3236410  87.6351571  78.7975639  73.1197832  84.3533184  73.9791191
  72.1948329  84.2209399  74.1868883  73.3682245  85.1327404  74.4761133
  83.0682495  80.4201928  75.6251924  82.1599372  80.3517336  75.3310685
  83.0170090  80.8973873  76.4533749  76.8899238  81.8960066  67.2635323
  76.7698864  82.3417117  68.1020803  76.1951827  82.2445384  66.7048861
  70.4806643  83.9966458  74.8134980  70.6099024  84.2500937  75.7274392
  69.8004095  84.5894166  74.4939635  74.6506131  94.6663708  70.9125454
  74.5730160  95.6171533  70.9913935  74.0467774  94.3209580  71.5700381
  77.1423360  81.8391573  83.5686821  76.3656694  82.3985494  83.5589686
  77.7813923  82.3248356  84.0901691  84.9344141  78.6218366  77.4029798
  84.2918521  78.9150899  76.7569592  84.4299069  78.5071287  78.2082994
  82.5884305  82.3681539  68.0915657  83.5002161  82.6008926  67.9163355
  82.0793952  82.9518584  67.5290736  75.3969733  84.6477027  83.1304788
  76.1384417  85.1862071  82.8539612  74.6906718  85.2743316  83.2876340
  80.8725072  86.7906167  81.7276950  81.2808428  86.3488578  80.9831582
  80.1502334  86.2158795  81.9811142  77.2256142  81.7278774  79.1010507
  78.0717338  82.1518188  79.2445156  77.1654780  81.0712398  79.7949070
  81.1953887  87.3507358  75.4829238  80.5662749  87.5153072  74.7805306
  80.8079549  87.7648967  76.2540203  85.0743119  88.2861796  72.8373602
  84.3894157  88.6660697  72.2870636  85.1586968  88.8957122  73.5705550
  80.3755588  79.3883142  80.7591680  80.1316520  80.1425203  80.2225956
  80.6515518  79.7668490  81.5938927  82.3294050  85.9321755  79.4368946
  82.5410946  86.5753515  78.7603327  82.2823799  85.0984071  78.9690876
  79.9320279  78.5439575  76.3405518  79.0704758  78.8420829  76.6322255
  79.9582714  78.7609974  75.4086551  76.7481849  87.0881766  72.7479324
  77.2120194  87.3669469  71.9583946  76.4838647  86.1865211  72.5652414
  73.6405930  86.6353247  75.6859087  74.2107287  87.0640516  75.0476571
  74.2314042  86.3535832  76.3843272  75.6850735  83.2104918  69.5568889
  76.3874778  83.6625962  70.0242815  75.3531363  82.5688737  70.1848782
  69.4276069  81.4688471  74.8586022  68.6375123  81.7245999  74.3826133
  69.9187316  82.2836809  74.9638063  83.4439878  88.8093710  77.6091303
  84.2657322  88.4073897  77.3273985  83.4402281  88.7061944  78.5607419
  71.3790814  81.8333050  71.8169499  70.5821977  81.9451744  72.3352995
  71.1516406  82.1719702  70.9510389  77.2096482  88.3577753  79.7652014
  77.2740914  88.8198161  80.6010185  76.5007406  87.7275118  79.8934323
  91.5345871  85.1532459  73.9576275  90.7809580  84.5839857  73.8020279
  91.6693413  85.1195123  74.9046909  76.9244499  90.0245861  69.6330994
  76.7890174  90.8697397  70.0615842  77.4654312  90.2265139  68.8696928
  70.3773897  87.5421299  70.2058919  70.8898417  88.3364549  70.3564484
  71.0296610  86.8447589  70.1392520  72.1868782  90.6587055  72.2881672
  72.3635410  91.5805020  72.1002656  72.9825615  90.3445474  72.7176052
  76.3279800  77.5195320  83.8865606  77.0689513  78.1202473  83.8070068
  76.5597723  76.7772958  83.3283648  78.5512976  90.6469427  83.7631336
  78.1076830  89.8605806  83.4452241  79.2130189  90.8348578  83.0975227
  73.3100097  92.1765229  78.2892015  73.8607522  92.0482292  77.5169008
  72.4711573  92.4760118  77.9386907  80.6494214  90.9272227  81.7912737
  80.6312689  91.7481108  81.2993006  81.5714134  90.8026303  82.0162878
  77.1067268  88.4416357  82.6336246  77.6395605  87.6804645  82.4035554
  76.5781349  88.1490009  83.3760400  80.2736963  73.5476423  78.1629887
  79.9301232  74.4378064  78.0868998  80.6415926  73.3578080  77.2999472
  68.3422814  85.8709953  70.9818490  69.1798036  86.2806962  70.7652197
  68.5201081  84.9309395  70.9518683  80.2387246  83.5385034  66.6702323
  79.7233869  84.3089639  66.9090710  79.9664554  82.8650170  67.2935384
  77.8234357  78.3834735  71.7287561  76.9675953  77.9941585  71.5493200
  78.2361309  78.4626695  70.8687346  79.3533503  75.9181078  76.1279121
  78.8498299  75.8811213  75.3146926  79.6464110  76.8273821  76.1875777
  75.5976389  76.0019808  75.1345302  76.4629386  75.8062616  74.7751192
  75.6653898  75.7730159  76.0614659  85.2121520  86.2917389  68.6055496
  84.4350963  85.9528548  68.1610658  85.8913001  86.2970012  67.9310461
  80.0273549  81.4112126  68.4962104  79.7223684  81.7258275  69.3472247
  80.9803991  81.4893546  68.5389437  78.4719981  87.5702349  70.1455058
  77.9441342  86.8355109  69.8328295  77.9707483  88.3477026  69.8995026
  83.4512827  85.7651370  75.2622104  82.7936501  86.4550631  75.3502233
  84.2553226  86.1547802  75.6056090  73.2038708  78.2322016  72.5061669
  73.7782460  78.0097197  71.7734862  73.7909691  78.3010710  73.2590270
  82.2618286  84.1195742  73.3126046  82.7750167  84.7525734  73.8147755
  82.9119509  83.5196938  72.9469406  73.5308295  80.2626477  66.5257554
  72.6945608  80.6001163  66.8466829  73.3913065  80.1275456  65.5884691
  75.5061376  75.1063265  71.2336739  74.8525788  74.7912282  70.6093353
  75.4641850  74.4839005  71.9596562  76.6172581  85.3882560  63.1490031
  75.7099643  85.1571813  63.3481180  77.1143613  84.5920179  63.3364012
  79.5240660  94.0980067  66.0686717  78.8502359  94.4011764  66.6771675
  79.9106482  94.9009147  65.7192174  78.7399116  81.5945198  75.5584386
  77.8221678  81.8160145  75.4006074  79.1559260  81.6691509  74.6996094
  79.5234164  82.9936614  70.6887067  80.2705983  83.5058011  70.3794189
  79.7925754  82.6720666  71.5491460  77.7960814  85.4895154  67.6714021
  76.8872034  85.2054187  67.7686491  77.8255898  85.9094233  66.8117328
  83.0280082  89.1001744  71.4405188  82.5742409  88.2592654  71.4970379
  82.3974049  89.7363142  71.7779969  81.9713001  80.0293730  72.6705856
  81.2335758  79.5171116  73.0016098  82.2239775  79.5894112  71.8589133
  81.4713021  90.9378241  72.3755006  81.7635995  91.4983298  71.6567372
  81.9811642  91.2306802  73.1308166  82.0724629  72.8069982  73.2647625
  82.3783505  71.9467345  72.9773540  82.7977233  73.3987602  73.0646619
  68.3648985  83.2100669  71.6529223  68.1673385  82.6170029  70.9280290
  67.8095649  82.9052879  72.3705162  76.3445708  83.1023775  73.7723816
  76.3994318  82.1497611  73.6966293  75.5336910  83.2583214  74.2565115
  77.4936902  87.0303898  65.0102099  77.0556332  86.3139757  64.5507737
  78.2347343  87.2580013  64.4487191  74.2838068  81.7200835  71.5314195
  73.4705934  82.0195005  71.9379387  74.7797063  81.3256524  72.2488677
  76.4346646  91.7158592  73.4648460  76.3922825  91.9419438  72.5356992
  77.3509345  91.4821966  73.6134261  79.8812280  82.1842659  80.3629089
  80.2361668  82.4114132  81.2223555  80.5284411  82.5161036  79.7406344
  85.6110017  85.3061095  71.0678418  85.4727916  85.4962691  70.1399607
  85.2546236  86.0680478  71.5246469  73.7752143  79.2919190  77.1475430
  74.4151522  79.1507949  76.4498393  72.9429674  79.0053704  76.7714032
  85.6379397  87.3737622  76.0789689  86.0715903  87.2812911  76.9272743
  86.3510977  87.3495123  75.4409705  74.5512447  88.5921621  73.2610422
  75.3453045  88.0971941  73.0592997  73.8404139  88.0639484  72.8978128
  79.3707291  90.9739716  77.6122790  79.4244314  91.5430653  78.3800506
  78.5022073  91.1441601  77.2476827  70.8595210  82.7364702  69.3370175
  69.9292799  82.6749158  69.5540137  70.9552682  82.2140655  68.5406816
  70.7780760  79.2619515  71.9248417  71.0387577  80.1764849  71.8157577
  71.5997932  78.7943958  72.0745030  86.4994946  87.4161323  78.6122575
  86.6930836  88.3207133  78.8581850  86.3995564  86.9568742  79.4461160
  78.1531257  77.3019213  81.1112902  77.5059172  78.0009163  81.0177379
  78.9232272  77.7355357  81.4789150  81.5610055  87.5668066  84.1863455
  81.4095561  87.3378617  83.2693539  81.5514734  88.5238667  84.1994800
  78.3295391  85.1399978  79.1709722  79.2587451  85.2911138  78.9978689
  77.9086421  85.2283999  78.3158368  77.1283723  89.1650643  76.9408260
  76.9894809  88.7969427  77.8134198  76.3398319  89.6798282  76.7692217
  77.7231875  94.2659739  68.2833796  77.8983631  93.7947782  69.0979419
  77.0364663  94.8925505  68.5115057  78.6788938  88.5432245  74.3297097
  78.3438771  88.5033015  75.2254747  78.1792884  87.8776961  73.8567508
  81.6148130  85.8888280  64.6034157  80.9977300  85.1635108  64.5067210
  81.1464618  86.6497640  64.2601231  75.2815483  83.6619835  79.3433358
  75.9915101  83.0213027  79.3019977  75.2384791  83.9132730  80.2659539
  83.2702261  90.5987188  82.2639937  83.2114808  89.9146408  81.5970520
  83.6721780  91.3406178  81.8120563  72.2892960  97.4149102  75.0573656
  72.5289558  98.0467626  75.7352675  71.4462157  97.0637142  75.3439015
  73.4046676  80.1073704  63.7255461  72.5276142  79.9862505  63.3617708
  73.8804429  79.3159782  63.4734350  83.2719669  88.5626772  80.4953917
  82.3846447  88.2252694  80.6180316  83.8418220  87.8309803  80.7322682
  64.9248816  84.8950864  73.8196968  65.6119856  84.5812594  73.2317984
  64.7696945  85.7992228  73.5464220  76.8020822  93.2228224  77.4615160
  76.7290994  94.0283196  77.9734465  76.3598215  93.4220190  76.6363182
  76.5910602  92.4599994  70.9717982  75.8078124  93.0021675  71.0656206
  77.2903347  92.9773974  71.3712223  79.9007252  78.2694624  73.6152187
  80.3975951  77.5164586  73.2953257  79.1294233  78.3058941  73.0495396
  87.7537009  83.9734989  75.2570479  87.7426886  84.8559705  74.8864412
  86.8854389  83.6206540  75.0625016  79.2619506  93.1215058  79.6173319
  79.9747478  93.7562523  79.5449220  78.7709534  93.2178924  78.8013321
  80.9837033  87.0266311  71.1890611  80.0493311  87.1467774  71.0195315
  81.1613701  86.1238778  70.9250620  76.4842221  80.4112007  73.3423872
  76.1140008  79.8583047  74.0304777  76.9801313  79.8070140  72.7898872
  84.3709584  82.8683630  71.7240645  84.8370036  83.7011622  71.6500947
  84.8217084  82.4028612  72.4285903  74.3131419  90.8709502  80.4378890
  75.0140879  91.5045985  80.5908284  73.8426534  91.2124233  79.6774529
  82.4385815  89.2127452  68.7226797  82.7145659  89.0984046  69.6320671
  81.5690314  88.8144937  68.6838970  82.3426247  75.2364217  75.7631546
  81.4289326  75.4668444  75.9313753  82.7719348  75.3202661  76.6145578
  82.1132705  83.4254109  78.2631440  81.4604155  83.6730017  77.6083893
  82.4913085  82.6118248  77.9293917  79.0739879  93.4613803  72.3659610
  79.2562274  92.6435458  72.8287363  79.8972865  93.6781495  71.9284500
  79.4082045  92.3881988  69.6274659  79.9369811  91.8774442  69.0144821
  79.6710264  92.0724518  70.4920192  78.1620278  84.1673920  84.7497477
  77.4860915  84.0668050  85.4199852  78.9847912  84.0113134  85.2133474
  69.9099137  90.4045857  77.3709992  70.4952574  89.6589545  77.5037897
  69.7123976  90.7149814  78.2546656  72.7637792  93.4397104  72.3872435
  72.0948168  93.9243232  71.9036475  72.6250662  93.6866325  73.3015813
  76.9043061  95.4740848  78.9855093  77.4561369  95.6372469  79.7504178
  77.2449254  96.0645286  78.3135118  81.7553935  90.3002105  84.8403748
  82.2993839  90.9132064  84.3458702  81.1740780  90.8581684  85.3570761
  68.1325370  81.7015559  69.1668367  68.4278811  80.7926238  69.1135421
  67.2313405  81.6803299  68.8449369  80.0411448  93.4222823  75.9718775
  79.9162588  92.6212563  75.4629721  80.6990539  93.9169017  75.4832745
  71.6619617  79.7771556  75.1495915  70.9406202  80.3907524  75.0103389
  72.4512872  80.3129321  75.0712561  82.1046357  91.2231843  77.5998325
  81.1576692  91.1037195  77.5276652  82.4529130  90.3354342  77.6824587
  74.4645930  77.1125982  81.4236567  74.9880332  77.3588279  82.1862877
  74.2458263  77.9446017  81.0039705  69.8613211  79.3829657  69.2907692
  69.5325917  78.5027036  69.1082798  70.2152582  79.3277326  70.1784081
  79.1092790  91.0184560  73.8002678  78.9617752  90.0901267  73.9810248
  79.9346284  91.0404650  73.3159753  72.9755034  79.6702627  69.6583170
  73.3151107  80.1988548  68.9361778  73.4227155  80.0083033  70.4341736
  82.7126912  91.8413118  74.8867550  83.6373459  91.6355980  74.7492001
  82.5442215  91.5929520  75.7956892  75.6698475  78.0539678  79.1086238
  75.3295295  77.2547491  79.5106918  74.9637481  78.3541388  78.5363071
  76.3214947  75.1388990  77.5613561  77.1441016  74.6649468  77.4392451
  76.5653010  75.9179474  78.0612247  74.9623181  78.1677248  67.8576462
  75.6831544  78.5458501  67.3540179  74.3388486  78.8866125  67.9611440
  79.1054304  78.8722397  68.7934795  79.3217919  79.7547035  68.4923623
  78.6248371  78.4808611  68.0640437  73.8453526  81.8308111  75.3705539
  73.6998106  82.1448414  76.2629821  73.3678729  82.4493011  74.8176438
  75.7049909  78.8210659  75.4186429  75.6911477  77.9251752  75.0818727
  76.4222337  78.8281322  76.0524715  77.5576039  79.2547999  77.4639556
  77.2993817  80.1765069  77.4623887  77.0261080  78.8578433  78.1540021
  82.5022228  92.3598786  70.2429642  82.6759106  91.7945208  69.4903494
  82.9951119  93.1599681  70.0609132  75.1086805  77.7025039  70.6873999
  75.2302716  76.7741685  70.8864887  74.8188847  77.7163725  69.7752315
  77.9777995  75.3879949  73.8240719  77.9999692  75.4519282  72.8692699
  78.3946054  74.5484458  74.0181225  88.3561619  85.1235209  71.8619942
  88.7992765  84.3742534  71.4639065  87.4788130  85.1145345  71.4793674
  83.4897401  91.6765550  67.3426540  84.1848305  92.2972243  67.5613855
  83.8320551  90.8260901  67.6178918  85.3888824  89.1265256  68.8713871
  85.9140148  89.4652529  68.1463191  85.3011176  88.1912271  68.6877005
  77.0508872  93.0399329  81.0003747  77.3595999  92.7948476  81.8726447
  77.8484354  93.2445968  80.5122618  77.0729484  95.1937239  73.2309124
  76.6334475  94.7013618  73.9241981  77.8237601  94.6510207  72.9901199
  69.5521823  91.3848780  73.2333752  70.3779843  91.0852552  72.8532396
  69.2015875  90.6156402  73.6823541  74.5203357  90.7375248  75.3031426
  73.8983366  90.0745953  75.0033654  75.1908223  90.7636380  74.6205073
  67.7530428  89.3035106  74.1922686  66.9162337  88.8757281  74.0106687
  67.7254074  89.4967550  75.1293477  85.0782730  89.7598159  84.1765069
  84.2878273  89.7422298  83.6369568  84.8416084  90.2986453  84.9314105
  85.1980605  86.6090626  81.4897797  85.2478610  86.4440633  82.4313320
  85.0894528  85.7417885  81.0995678  74.0816863  89.2879172  68.7789886
  74.2304984  89.9714636  68.1256559  74.8883307  89.2684262  69.2939342
  82.4884367  82.5921554  82.8057104  83.3894230  82.4528019  82.5141102
  82.5632342  82.7576009  83.7455281  76.8227172  79.9688409  81.6510290
  75.9530482  80.2621975  81.3792879  77.0586653  80.5528854  82.3717554
  86.6998802  89.0287567  81.7339819  86.4083610  89.3917548  82.5703280
  86.0870933  88.3154576  81.5553151  87.8994484  86.5940447  74.2542389
  88.7341375  87.0330251  74.4179949  88.0353613  86.1179100  73.4350635
  84.9485990  84.1520182  80.2019877  85.4240111  84.3447828  79.3938728
  84.0251555  84.2079368  79.9563261  71.8369496  85.3144349  69.7850955
  71.5915538  84.4106679  69.9831165  72.0065411  85.3161500  68.8430433
  79.5266206  76.1868026  79.1675711  80.0448150  76.9229052  78.8422199
  79.1721339  76.4932019  80.0022470  71.1065144  81.0472707  67.2837117
  70.4134389  81.1217062  66.6277153  70.8616896  80.2833050  67.8058634
  79.7778800  72.6068308  74.6876607  80.0580554  71.9391497  75.3137034
  80.5629407  72.7997404  74.1751271  77.5812269  91.7827302  66.2501634
  77.0086236  92.4017489  65.7972106  78.1545063  92.3326664  66.7841556
  83.6487659  81.0285942  78.4348182  84.6005082  81.1284040  78.4560406
  83.4791109  80.2364211  78.9446267  81.6702038  78.1141525  78.6207583
  81.0751970  78.3946538  77.9254072  81.3851735  78.6035426  79.3924324
  80.8009529  92.0664452  67.3810216  81.7340202  92.0010014  67.5843091
  80.7132742  92.9020719  66.9224749  83.4297545  91.3830322  64.3414163
  83.3511177  91.0490186  65.2349921  84.2507212  91.8752090  64.3405636
  86.1275737  84.2492062  77.5490482  86.0952057  83.3108062  77.7350166
  86.7376360  84.3276098  76.8156307  77.9659067  83.1188115  63.5917686
  78.9118172  82.9894323  63.6606104  77.5873312  82.3802777  64.0687114
  86.2770225  81.0403105  77.5948765  85.7609274  80.2561562  77.4078694
  87.1610174  80.7121822  77.7595285  83.9380952  74.7844121  73.5544578
  83.7405773  74.4759209  74.4387910  84.5480658  75.5105760  73.6842508
  91.9452286  85.3108069  76.6896519  92.6755675  85.0493357  77.2504222
  91.3359232  84.5736791  76.7298587  90.0267584  83.4515931  77.2870970
  89.3000747  83.3171896  76.6787462  89.6114870  83.7592760  78.0927688
  77.8497760  87.1705861  85.0518343  78.7700769  87.3484460  85.2458390
  77.8147343  86.2261906  84.8998042  76.1501985  81.0438091  63.5272571
  75.2433440  80.7471204  63.6035285  76.4277966  80.7467909  62.6606858
  70.8459833  85.0806896  77.6941124  71.0645842  86.0124003  77.7129158
  71.2585606  84.7214870  78.4795928  77.7664050  75.5874981  69.6816813
  76.9564779  75.2422066  70.0572059  78.4548467  75.2782525  70.2704424
  79.6954599  74.6653028  71.3041109  80.2485637  75.0848481  71.9631132
  79.9324685  73.7388776  71.3464065  75.7187698  80.6540101  87.0843873
  75.6184425  81.6034458  87.0155964  75.5009240  80.3258340  86.2119943
  74.9200769  77.9025026  63.6684551  75.7819933  78.2279925  63.9280368
  75.1051113  77.1156522  63.1557616  66.9368185  85.9847366  75.9464739
  66.2431656  85.5701319  75.4334694  67.6841176  86.0267903  75.3498158
  83.0733406  76.7753553  70.8119774  82.4932075  77.4338357  70.4297826
  82.8069338  75.9530897  70.4007191  81.5236972  76.1758610  73.0141094
  82.0236750  76.2875145  72.2055413  82.1672580  75.8719663  73.6541902
  75.5818968  84.0837240  85.9008935  75.0986050  84.8837600  86.1072824
  75.6679907  84.0945185  84.9476379  68.8504928  85.9165620  73.8230754
  68.8275616  86.0153307  72.8712637  69.1605564  86.7630771  74.1447920
  71.5092305  87.9741775  77.9377369  72.4635559  87.9425717  77.8707300
  71.3104829  87.5132399  78.7527595  72.0991688  86.5442891  80.5048166
  72.9184577  87.0386970  80.5283004  72.3728495  85.6274859  80.4765734
  81.8558284  78.9353643  69.8676122  80.9684139  79.2203294  69.6496317
  82.2712273  78.7747407  69.0203399  85.2072820  78.9600164  73.5830461
  85.9833210  79.4496617  73.8555078  84.4820954  79.3858218  74.0402331
  87.6445379  79.6727783  74.6404402  88.2389869  79.4323519  73.9297710
  87.7171962  78.9534914  75.2677938  69.8642534  93.5161394  74.9547567
  69.7297002  92.7561795  74.3885565  69.4474596  94.2402294  74.4876355
  81.0001497  88.6998318  63.9624142  81.7037347  88.9048320  64.5781797
  80.2764146  89.2675080  64.2273225  81.8299308  84.4508179  70.0826412
  81.7734509  84.9076731  69.2434044  82.3827650  83.6898864  69.9049255
  85.6404113  80.2397911  70.9076531  85.3841048  79.8394547  71.7384739
  85.0156981  80.9541705  70.7826671  89.9516451  82.9793984  73.4147823
  89.3916009  83.0487174  74.1879385  89.3459955  82.8034969  72.6947319
  73.0211660  94.4130711  75.1666009  72.9044044  95.3576144  75.0644699
  72.2004106  94.1104273  75.5551808  82.9088195  89.1380847  66.0122602
  83.7433799  88.7062046  65.8300077  82.7472538  88.9662861  66.9399496
  82.5634087  85.6412960  67.3778941  82.5082891  85.4757232  66.4367385
  81.9380142  86.3488993  67.5341131  79.8779994  87.9461872  86.7032504
  80.7471154  88.1202524  86.3419139  79.3986745  88.7656289  86.5808233
  75.8730212  75.1421069  66.9564260  75.8608882  76.0862909  67.1132530
  76.7653634  74.9591215  66.6623721  74.0466174  95.0658973  78.3821938
  74.9493421  95.0982583  78.6988433  73.8203544  94.1359424  78.3968273
  75.8019776  93.8189960  75.0432016  74.8515407  93.8191821  74.9296389
  76.1052262  93.0722694  74.5268051  91.5372470  99.6550498  76.1077779
  92.1750880  99.5357246  75.4041119  91.4193313 100.6031342  76.1665731
  88.3462176  99.6077926  76.0439303  88.0080688  99.4918991  75.1559838
  89.2151944  99.2069091  76.0240309  84.2048992 101.4613403  72.0336194
  83.6413857 101.3703340  71.2652482  84.0901387 100.6413307  72.5138687
  88.8281959 100.7612778  82.0025509  88.8170600 100.3665576  81.1306013
  88.9902598 100.0278851  82.5959280  81.7513424 102.9564594  74.8720415
  82.5434716 102.6155419  74.4566714  81.9910074 103.0659569  75.7922568
  89.7848550 105.1284370  67.3450659  89.1336530 105.7138451  66.9584673
  90.5792913 105.6590565  67.4045697  83.7104178 102.2173508  67.7437794
  84.4835054 101.6702495  67.6050669  84.0629576 103.0817757  67.9552255
  85.5489220 103.5449890  80.9504693  85.2579086 104.4495521  80.8351359
  86.1846204 103.5866417  81.6648762  86.4745427 100.9226738  77.5406052
  87.0708999 100.6982761  76.8263015  86.5320399 100.1811484  78.1431500
  86.0470455  98.3766174  65.3756243  86.2995976  97.8547695  64.6139706
  85.1095014  98.2132319  65.4782927  91.0913738  97.3801952  73.1830987
  91.8776827  96.9621375  72.8321404  91.3552443  98.2848044  73.3512635
  91.2623816 102.8174802  67.8819643  90.6269649 102.8909429  68.5940548
  90.9321222 103.4068401  67.2038723  96.4922165  97.3177185  74.0863965
  97.2247337  96.7476402  74.3201795  95.7361521  96.9298786  74.5270471
  85.7666744 100.2794280  67.5780618  85.6503002  99.6039183  68.2461703
  85.8769004  99.7926654  66.7612771  88.1098285  99.7404427  71.2827308
  87.7456492  99.2135048  71.9940229  88.9665401  99.3502896  71.1093793
  94.0147586  91.0298759  78.5458574  93.6830910  91.8994170  78.3219789
  93.4193199  90.7135043  79.2252604  87.7503772  94.7694326  66.2788656
  87.9178174  95.6374563  66.6459127  87.5600941  94.9321608  65.3549945
  90.5079105 103.2311305  77.9454487  90.2079828 104.1336344  77.8370294
  90.1630165 102.9643489  78.7975639  83.9591587  99.6825102  73.9791191
  83.0342083  99.5501316  74.1868883  84.2076000 100.4619321  74.4761133
  93.9076249  95.7493845  75.6251924  92.9993126  95.6809254  75.3310685
  93.8563845  96.2265790  76.4533749  87.7292993  97.2251984  67.2635323
  87.6092618  97.6709035  68.1020803  87.0345581  97.5737302  66.7048861
  81.3200398  99.3258376  74.8134980  81.4492779  99.5792855  75.7274392
  80.6397849  99.9186084  74.4939635  85.4899885 109.9955626  70.9125454
  85.4123915 110.9463451  70.9913935  84.8861529 109.6501498  71.5700381
  87.9817115  97.1683491  83.5686821  87.2050449  97.7277411  83.5589686
  88.6207678  97.6540274  84.0901691  95.7737895  93.9510284  77.4029798
  95.1312276  94.2442817  76.7569592  95.2692824  93.8363204  78.2082994
  93.4278059  97.6973457  68.0915657  94.3395915  97.9300844  67.9163355
  92.9187706  98.2810501  67.5290736  86.2363487  99.9768944  83.1304788
  86.9778171 100.5153988  82.8539612  85.5300473 100.6035233  83.2876340
  91.7118827 102.1198085  81.7276950  92.1202183 101.6780495  80.9831582
  90.9896088 101.5450712  81.9811142  88.0649897  97.0570692  79.1010507
  88.9111092  97.4810105  79.2445156  88.0048534  96.4004316  79.7949070
  92.0347641 102.6799276  75.4829238  91.4056504 102.8444990  74.7805306
  91.6473303 103.0940885  76.2540203  95.9136873 103.6153713  72.8373602
  95.2287911 103.9952615  72.2870636  95.9980723 104.2249040  73.5705550
  91.2149342  94.7175060  80.7591680  90.9710274  95.4717121  80.2225956
  91.4909273  95.0960408  81.5938927  93.1687805 101.2613672  79.4368946
  93.3804700 101.9045432  78.7603327  93.1217553 100.4275989  78.9690876
  90.7714034  93.8731493  76.3405518  89.9098513  94.1712747  76.6322255
  90.7976469  94.0901892  75.4086551  87.5875603 102.4173684  72.7479324
  88.0513949 102.6961387  71.9583946  87.3232401 101.5157128  72.5652414
  84.4799684 101.9645165  75.6859087  85.0501041 102.3932434  75.0476571
  85.0707796 101.6827750  76.3843272  86.5244489  98.5396836  69.5568889
  87.2268533  98.9917880  70.0242815  86.1925118  97.8980655  70.1848782
  84.9724851  97.1308593  83.9320098  84.3423511  97.8124873  84.1655495
  84.8660939  97.0191674  82.9873236  80.2669823  96.7980389  74.8586022
  79.4768877  97.0537917  74.3826133  80.7581071  97.6128726  74.9638063
  94.2833633 104.1385628  77.6091303  95.1051077 103.7365815  77.3273985
  94.2796036 104.0353862  78.5607419  82.2184569  97.1624968  71.8169499
  81.4215732  97.2743662  72.3352995  81.9910161  97.5011620  70.9510389
  88.0490236 103.6869671  79.7652014  88.1134669 104.1490078  80.6010185
  87.3401160 103.0567036  79.8934323  78.5507526  97.0510879  77.2901013
  78.8015565  97.9357889  77.5558589  79.0867075  96.8715481  76.5176105
 102.3739626 100.4824376  73.9576275 101.6203334  99.9131774  73.8020279
 102.5087167 100.4487041  74.9046909  87.7638254 105.3537779  69.6330994
  87.6283929 106.1989314  70.0615842  88.3048066 105.5557056  68.8696928
  84.2505594  91.4329358  86.2945349  83.8572539  90.8795557  86.9692993
  85.0671734  91.7439937  86.6851867  81.2167651 102.8713217  70.2058919
  81.7292172 103.6656467  70.3564484  81.8690364 102.1739507  70.1392520
  83.0262536 105.9878973  72.2881672  83.2029164 106.9096938  72.1002656
  83.8219370 105.6737392  72.7176052  87.1673555  92.8487238  83.8865606
  87.9083268  93.4494391  83.8070068  87.3991477  92.1064875  83.3283648
  82.3114893  98.0343605  82.1643835  82.1968408  97.1328862  82.4650934
  81.4559410  98.2807302  81.8128652  89.3906730 105.9761345  83.7631336
  88.9470585 105.1897724  83.4452241  90.0523944 106.1640496  83.0975227
  84.1493852 107.5057147  78.2892015  84.7001277 107.3774210  77.5169008
  83.3105327 107.8052036  77.9386907  91.4887968 106.2564145  81.7912737
  91.4706444 107.0773026  81.2993006  92.4107888 106.1318220  82.0162878
  87.9461023 103.7708275  82.6336246  88.4789359 103.0096563  82.4035554
  87.4175104 103.4781926  83.3760400  91.1130718  88.8768340  78.1629887
  90.7694987  89.7669982  78.0868998  91.4809680  88.6869998  77.2999472
  79.1816568 101.2001871  70.9818490  80.0191790 101.6098879  70.7652197
  79.3594836 100.2601313  70.9518683  91.0781000  98.8676952  66.6702323
  90.5627624  99.6381556  66.9090710  90.8058309  98.1942088  67.2935384
  88.6628111  93.7126652  71.7287561  87.8069708  93.3233503  71.5493200
  89.0755063  93.7918613  70.8687346  90.1927258  91.2472996  76.1279121
  89.6892053  91.2103131  75.3146926  90.4857865  92.1565738  76.1875777
  86.4370144  91.3311725  75.1345302  87.3023141  91.1354534  74.7751192
  86.5047653  91.1022077  76.0614659  96.0515274 101.6209306  68.6055496
  95.2744717 101.2820466  68.1610658  96.7306755 101.6261929  67.9310461
  90.8667303  96.7404044  68.4962104  90.5617439  97.0550193  69.3472247
  91.8197746  96.8185464  68.5389437  89.3113735 102.8994267  70.1455058
  88.7835097 102.1647027  69.8328295  88.8101238 103.6768943  69.8995026
  94.2906581 101.0943287  75.2622104  93.6330256 101.7842549  75.3502233
  95.0946980 101.4839719  75.6056090  84.0432463  93.5613933  72.5061669
  84.6176215  93.3389115  71.7734862  84.6303445  93.6302628  73.2590270
  93.1012040  99.4487660  73.3126046  93.6143922 100.0817652  73.8147755
  93.7513264  98.8488856  72.9469406  84.3702050  95.5918394  66.5257554
  83.5339362  95.9293081  66.8466829  84.2306820  95.4567374  65.5884691
  86.3455131  90.4355182  71.2336739  85.6919543  90.1204199  70.6093353
  86.3035605  89.8130923  71.9596562  87.4566335 100.7174477  63.1490031
  86.5493397 100.4863731  63.3481180  87.9537367  99.9212097  63.3364012
  90.3634414 109.4271984  66.0686717  89.6896113 109.7303681  66.6771675
  90.7500236 110.2301065  65.7192174  89.5792871  96.9237116  75.5584386
  88.6615432  97.1452063  75.4006074  89.9953015  96.9983426  74.6996094
  90.3627919  98.3228531  70.6887067  91.1099738  98.8349929  70.3794189
  90.6319508  98.0012584  71.5491460  88.6354569 100.8187072  67.6714021
  87.7265788 100.5346105  67.7686491  88.6649653 101.2386151  66.8117328
  93.8673836 104.4293662  71.4405188  93.4136163 103.5884572  71.4970379
  93.2367803 105.0655060  71.7779969  92.8106756  95.3585648  72.6705856
  92.0729513  94.8463034  73.0016098  93.0633529  94.9186029  71.8589133
  92.3106776 106.2670158  72.3755006  92.6029750 106.8275215  71.6567372
  92.8205396 106.5598719  73.1308166  92.9118383  88.1361900  73.2647625
  93.2177260  87.2759263  72.9773540  93.6370988  88.7279520  73.0646619
  79.2042739  98.5392586  71.6529223  79.0067139  97.9461947  70.9280290
  78.6489403  98.2344796  72.3705162  87.1839463  98.4315693  73.7723816
  87.2388073  97.4789529  73.6966293  86.3730665  98.5875132  74.2565115
  88.3330657 102.3595816  65.0102099  87.8950087 101.6431675  64.5507737
  89.0741098 102.5871931  64.4487191  85.1231823  97.0492752  71.5314195
  84.3099688  97.3486923  71.9379387  85.6190817  96.6548441  72.2488677
  87.2740401 107.0450509  73.4648460  87.2316580 107.2711356  72.5356992
  88.1903100 106.8113884  73.6134261  90.7206035  97.5134577  80.3629089
  91.0755422  97.7406050  81.2223555  91.3678166  97.8452954  79.7406344
  96.4503771 100.6353013  71.0678418  96.3121670 100.8254609  70.1399607
  96.0939990 101.3972396  71.5246469  84.6145898  94.6211108  77.1475430
  85.2545277  94.4799867  76.4498393  83.7823428  94.3345621  76.7714032
  96.4773151 102.7029540  76.0789689  96.9109658 102.6104829  76.9272743
  97.1904732 102.6787040  75.4409705  85.3906201 103.9213538  73.2610422
  86.1846800 103.4263859  73.0592997  84.6797894 103.3931402  72.8978128
  90.2101046 106.3031634  77.6122790  90.2638068 106.8722570  78.3800506
  89.3415827 106.4733519  77.2476827  81.6988965  98.0656620  69.3370175
  80.7686553  98.0041076  69.5540137  81.7946437  97.5432573  68.5406816
  81.6174514  94.5911433  71.9248417  81.8781331  95.5056766  71.8157577
  82.4391686  94.1235876  72.0745030  83.0899439  96.0049190  79.0947241
  83.7622493  95.7966552  78.4459890  82.2629226  95.8071276  78.6552474
  97.3388701 102.7453241  78.6122575  97.5324591 103.6499051  78.8581850
  97.2389319 102.2860660  79.4461160  88.9925011  92.6311131  81.1112902
  88.3452926  93.3301081  81.0177379  89.7626027  93.0647275  81.4789150
  92.4003809 102.8959983  84.1863455  92.2489316 102.6670535  83.2693539
  92.3908489 103.8530585  84.1994800  89.1689146 100.4691896  79.1709722
  90.0981206 100.6203056  78.9978689  88.7480176 100.5575917  78.3158368
  87.9677477 104.4942560  76.9408260  87.8288563 104.1261345  77.8134198
  87.1792074 105.0090200  76.7692217  88.5625629 109.5951657  68.2833796
  88.7377385 109.1239700  69.0979419  87.8758417 110.2217423  68.5115057
  89.5182693 103.8724163  74.3297097  89.1832525 103.8324933  75.2254747
  89.0186638 103.2068879  73.8567508  83.4926937  99.2791793  79.8549678
  83.3546735  98.5472032  80.4561218  84.4031860  99.1900693  79.5733866
  92.4541884 101.2180197  64.6034157  91.8371055 100.4927026  64.5067210
  91.9858373 101.9789558  64.2601231  86.1209237  98.9911752  79.3433358
  86.8308856  98.3504945  79.3019977  86.0778545  99.2424647  80.2659539
  94.1096016 105.9279106  82.2639937  94.0508562 105.2438326  81.5970520
  94.5115534 106.6698096  81.8120563  84.8338171  95.9776970  81.1628998
  84.2975528  95.5267709  81.8150594  84.2454880  96.1122879  80.4199462
  83.1286715 112.7441020  75.0573656  83.3683313 113.3759544  75.7352675
  82.2855911 112.3929060  75.3439015  84.2440430  95.4365622  63.7255461
  83.3669897  95.3154423  63.3617708  84.7198183  94.6451700  63.4734350
  94.1113423 103.8918690  80.4953917  93.2240202 103.5544612  80.6180316
  94.6811974 103.1601721  80.7322682  75.7642570 100.2242781  73.8196968
  76.4513610  99.9104512  73.2317984  75.6090699 101.1284146  73.5464220
  80.5677292  95.1132978  78.2481992  80.4835481  94.5058648  77.5132402
  79.7459999  95.6041996  78.2491488  87.6414577 108.5520142  77.4615160
  87.5684748 109.3575114  77.9734465  87.1991970 108.7512108  76.6363182
  87.4304356 107.7891912  70.9717982  86.6471878 108.3313592  71.0656206
  88.1297101 108.3065892  71.3712223  90.7401006  93.5986542  73.6152187
  91.2369706  92.8456504  73.2953257  89.9687988  93.6350858  73.0495396
  98.5930764  99.3026907  75.2570479  98.5820640 100.1851623  74.8864412
  97.7248143  98.9498458  75.0625016  90.1013260 108.4506976  79.6173319
  90.8141232 109.0854441  79.5449220  89.6103289 108.5470842  78.8013321
  91.8230787 102.3558229  71.1890611  90.8887066 102.4759691  71.0195315
  92.0007455 101.4530696  70.9250620  87.3235975  95.7403925  73.3423872
  86.9533763  95.1874965  74.0304777  87.8195068  95.1362058  72.7898872
  95.2103338  98.1975548  71.7240645  95.6763791  99.0303540  71.6500947
  95.6610839  97.7320530  72.4285903  85.1525174 106.2001420  80.4378890
  85.8534633 106.8337903  80.5908284  84.6820289 106.5416151  79.6774529
  93.2779569 104.5419369  68.7226797  93.5539413 104.4275964  69.6320671
  92.4084068 104.1436854  68.6838970  93.1820001  90.5656135  75.7631546
  92.2683081  90.7960362  75.9313753  93.6113103  90.6494579  76.6145578
  92.9526460  98.7546027  78.2631440  92.2997910  99.0021934  77.6083893
  93.3306840  97.9410165  77.9293917  89.9133634 108.7905720  72.3659610
  90.0956028 107.9727376  72.8287363  90.7366620 109.0073412  71.9284500
  90.2475799 107.7173905  69.6274659  90.7763565 107.2066360  69.0144821
  90.5104019 107.4016436  70.4920192  89.0014033  99.4965838  84.7497477
  88.3254670  99.3959967  85.4199852  89.8241667  99.3405052  85.2133474
  80.7492892 105.7337775  77.3709992  81.3346329 104.9881463  77.5037897
  80.5517730 106.0441731  78.2546656  83.6031547 108.7689022  72.3872435
  82.9341922 109.2535150  71.9036475  83.4644417 109.0158242  73.3015813
  75.3410546  98.3043375  76.0914436  75.3794646  97.7706966  76.8851554
  74.8350839  97.7778580  75.4725413  87.7436816 110.8032766  78.9855093
  88.2955124 110.9664387  79.7504178  88.0843009 111.3937203  78.3135118
  82.7201309  93.1507915  79.5876978  82.7842635  94.0122746  79.1754376
  82.6568429  92.5381917  78.8549336  82.1953581  95.2231048  83.2350012
  82.8225620  94.8408125  83.8487536  81.3381500  95.0045250  83.6005705
  92.5947690 105.6294023  84.8403748  93.1387594 106.2423981  84.3458702
  92.0134535 106.1873601  85.3570761  78.9719124  97.0307477  69.1668367
  79.2672565  96.1218155  69.1135421  78.0707160  97.0095216  68.8449369
  90.8805203 108.7514741  75.9718775  90.7556342 107.9504481  75.4629721
  91.5384294 109.2460934  75.4832745  82.5013371  95.1063474  75.1495915
  81.7799957  95.7199441  75.0103389  83.2906627  95.6421238  75.0712561
  92.9440111 106.5523761  77.5998325  91.9970447 106.4329112  77.5276652
  93.2922884 105.6646259  77.6824587  85.3039685  92.4417900  81.4236567
  85.8274086  92.6880197  82.1862877  85.0852018  93.2737935  81.0039705
  80.7006966  94.7121575  69.2907692  80.3719672  93.8318954  69.1082798
  81.0546336  94.6569243  70.1784081  89.9486544 106.3476477  73.8002678
  89.8011507 105.4193185  73.9810248  90.7740038 106.3696568  73.3159753
  83.8148789  94.9994544  69.6583170  84.1544861  95.5280466  68.9361778
  84.2620909  95.3374951  70.4341736  93.5520666 107.1705036  74.8867550
  94.4767214 106.9647897  74.7492001  93.3835970 106.9221437  75.7956892
  86.5092230  93.3831595  79.1086238  86.1689050  92.5839408  79.5106918
  85.8031236  93.6833306  78.5363071  87.1608701  90.4680908  77.5613561
  87.9834771  89.9941386  77.4392451  87.4046765  91.2471391  78.0612247
  85.8016936  93.4969166  67.8576462  86.5225298  93.8750419  67.3540179
  85.1782240  94.2158043  67.9611440  89.9448059  94.2014315  68.7934795
  90.1611673  95.0838953  68.4923623  89.4642126  93.8100528  68.0640437
  84.6847280  97.1600028  75.3705539  84.5391861  97.4740331  76.2629821
  84.2072484  97.7784929  74.8176438  86.5443663  94.1502576  75.4186429
  86.5305232  93.2543670  75.0818727  87.2616091  94.1573240  76.0524715
  88.3969794  94.5839916  77.4639556  88.1387572  95.5056987  77.4623887
  87.8654834  94.1870351  78.1540021  93.3415983 107.6890704  70.2429642
  93.5152860 107.1237126  69.4903494  93.8344874 108.4891598  70.0609132
  79.1592942  99.7005373  78.3093201  78.6146410 100.4765181  78.4413475
  80.0372292 100.0476177  78.1512322  85.9480559  93.0316957  70.6873999
  86.0696470  92.1033603  70.8864887  85.6582601  93.0455642  69.7752315
  88.8171749  90.7171867  73.8240719  88.8393446  90.7811200  72.8692699
  89.2339808  89.8776376  74.0181225  99.1955374 100.4527126  71.8619942
  99.6386520  99.7034452  71.4639065  98.3181884 100.4437263  71.4793674
  94.3291155 107.0057468  67.3426540  95.0242060 107.6264161  67.5613855
  94.6714305 106.1552819  67.6178918  79.9458964  98.8275269  81.2023357
  79.2040700  98.9757904  81.7887988  79.6251708  99.0883535  80.3390107
  96.2282578 104.4557173  68.8713871  96.7533902 104.7944446  68.1463191
  96.1404931 103.5204189  68.6877005  87.8902627 108.3691247  81.0003747
  88.1989753 108.1240394  81.8726447  88.6878109 108.5737886  80.5122618
  87.9123239 110.5229157  73.2309124  87.4728229 110.0305535  73.9241981
  88.6631356 109.9802124  72.9901199  80.3915578 106.7140698  73.2333752
  81.2173598 106.4144469  72.8532396  80.0409630 105.9448320  73.6823541
  85.3597111 106.0667166  75.3031426  84.7377120 105.4037871  75.0033654
  86.0301978 106.0928298  74.6205073  78.5924183 104.6327024  74.1922686
  77.7556091 104.2049198  74.0106687  78.5647828 104.8259467  75.1293477
  85.4321639  94.5448954  84.8963932  85.4809794  95.4211077  84.5141701
  85.9744153  94.0026347  84.3235575  95.9176484 105.0890077  84.1765069
  95.1272028 105.0714216  83.6369568  95.6809839 105.6278371  84.9314105
  96.0374359 101.9382543  81.4897797  96.0872364 101.7732551  82.4313320
  95.9288283 101.0709803  81.0995678  84.9210618 104.6171089  68.7789886
  85.0698738 105.3006554  68.1256559  85.7277061 104.5976179  69.2939342
  93.3278122  97.9213472  82.8057104  94.2287984  97.7819936  82.5141102
  93.4026096  98.0867926  83.7455281  87.6620927  95.2980326  81.6510290
  86.7924236  95.5913892  81.3792879  87.8980407  95.8820771  82.3717554
  97.5392556 104.3579485  81.7339819  97.2477364 104.7209466  82.5703280
  96.9264687 103.6446493  81.5553151  98.7388238 101.9232365  74.2542389
  99.5735130 102.3622169  74.4179949  98.8747367 101.4471018  73.4350635
  95.7879744  99.4812100  80.2019877  96.2633866  99.6739746  79.3938728
  94.8645310  99.5371285  79.9563261  82.6763251 100.6436267  69.7850955
  82.4309293  99.7398597  69.9831165  82.8459165 100.6453417  68.8430433
  90.3659961  91.5159943  79.1675711  90.8841905  92.2520970  78.8422199
  90.0115094  91.8223936  80.0022470  81.9458898  96.3764624  67.2837117
  81.2528143  96.4508979  66.6277153  81.7010650  95.6124968  67.8058634
  90.6172555  87.9360226  74.6876607  90.8974309  87.2683415  75.3137034
  91.4023162  88.1289321  74.1751271  88.4206023 107.1119220  66.2501634
  87.8479991 107.7309407  65.7972106  88.9938817 107.6618581  66.7841556
  94.4881413  96.3577860  78.4348182  95.4398836  96.4575957  78.4560406
  94.3184864  95.5656128  78.9446267  92.5095793  93.4433443  78.6207583
  91.9145725  93.7238456  77.9254072  92.2245490  93.9327344  79.3924324
  91.6403283 107.3956370  67.3810216  92.5733956 107.3301931  67.5843091
  91.5526496 108.2312637  66.9224749  94.2691300 106.7122240  64.3414163
  94.1904931 106.3782104  65.2349921  95.0900967 107.2044008  64.3405636
  96.9669491  99.5783979  77.5490482  96.9345811  98.6399980  77.7350166
  97.5770115  99.6568016  76.8156307  88.8052822  98.4480032  63.5917686
  89.7511927  98.3186240  63.6606104  88.4267067  97.7094694  64.0687114
  97.1163980  96.3695023  77.5948765  96.6003028  95.5853479  77.4078694
  98.0003928  96.0413739  77.7595285  94.7774707  90.1136038  73.5544578
  94.5799528  89.8051127  74.4387910  95.3874412  90.8397677  73.6842508
 102.7846041 100.6399986  76.6896519 103.5149429 100.3785274  77.2504222
 102.1752986  99.9028708  76.7298587 100.8661338  98.7807849  77.2870970
 100.1394502  98.6463814  76.6787462 100.4508625  99.0884677  78.0927688
  88.6891515 102.4997779  85.0518343  89.6094524 102.6776378  85.2458390
  88.6541098 101.5553824  84.8998042  86.9895739  96.3730009  63.5272571
  86.0827195  96.0763121  63.6035285  87.2671720  96.0759827  62.6606858
  77.9073680  97.6936372  73.9771618  77.5876464  96.8401680  73.6845992
  77.3607108  97.9084950  74.7329585  81.6853587 100.4098813  77.6941124
  81.9039597 101.3415921  77.7129158  82.0979361 100.0506788  78.4795928
  88.6057805  90.9166898  69.6816813  87.7958533  90.5713983  70.0572059
  89.2942222  90.6074442  70.2704424  90.5348353  89.9944945  71.3041109
  91.0879392  90.4140399  71.9631132  90.7718440  89.0680693  71.3464065
  86.5581452  95.9832019  87.0843873  86.4578179  96.9326376  87.0155964
  86.3402994  95.6550258  86.2119943  85.7594524  93.2316944  63.6684551
  86.6213688  93.5571842  63.9280368  85.9444868  92.4448440  63.1557616
  77.7761940 101.3139284  75.9464739  77.0825411 100.8993236  75.4334694
  78.5234931 101.3559820  75.3498158  93.9127160  92.1045470  70.8119774
  93.3325829  92.7630274  70.4297826  93.6463093  91.2822815  70.4007191
  92.3630727  91.5050528  73.0141094  92.8630505  91.6167063  72.2055413
  93.0066335  91.2011581  73.6541902  86.4212722  99.4129158  85.9008935
  85.9379804 100.2129518  86.1072824  86.5073661  99.4237103  84.9476379
  79.6898682 101.2457537  73.8230754  79.6669370 101.3445225  72.8712637
  79.9999319 102.0922688  74.1447920  82.3486060 103.3033692  77.9377369
  83.3029313 103.2717635  77.8707300  82.1498584 102.8424316  78.7527595
  82.9385442 101.8734809  80.5048166  83.7578331 102.3678887  80.5283004
  83.2122250 100.9566777  80.4765734  92.6952038  94.2645561  69.8676122
  91.8077893  94.5495211  69.6496317  93.1106027  94.1039324  69.0203399
  96.0466574  94.2892082  73.5830461  96.8226965  94.7788534  73.8555078
  95.3214709  94.7150136  74.0402331  98.4839133  95.0019701  74.6404402
  99.0783624  94.7615437  73.9297710  98.5565717  94.2826832  75.2677938
  80.7036289 108.8453312  74.9547567  80.5690757 108.0853713  74.3885565
  80.2868351 109.5694212  74.4876355  91.8395252 104.0290236  63.9624142
  92.5431102 104.2340238  64.5781797  91.1157900 104.5966997  64.2273225
  92.6693062  99.7800097  70.0826412  92.6128263 100.2368648  69.2434044
  93.2221404  99.0190781  69.9049255  96.4797868  95.5689829  70.9076531
  96.2234802  95.1686464  71.7384739  95.8550736  96.2833623  70.7826671
 100.7910206  98.3085902  73.4147823 100.2309764  98.3779091  74.1879385
 100.1853709  98.1326887  72.6947319  83.8605415 109.7422629  75.1666009
  83.7437799 110.6868061  75.0644699  83.0397861 109.4396191  75.5551808
  93.7481949 104.4672765  66.0122602  94.5827553 104.0353963  65.8300077
  93.5866292 104.2954778  66.9399496  93.4027841 100.9704878  67.3778941
  93.3476645 100.8049149  66.4367385  92.7773897 101.6780911  67.5341131
  78.1920356  96.2072942  81.2040363  78.8379220  95.6971896  81.6927589
  77.9837507  96.9441624  81.7783789  90.7173748 103.2753790  86.7032504
  91.5864908 103.4494442  86.3419139  90.2380500 104.0948207  86.5808233
  86.7123967  90.4712987  66.9564260  86.7002637  91.4154827  67.1132530
  87.6047389  90.2883132  66.6623721  84.8859929 110.3950891  78.3821938
  85.7887175 110.4274501  78.6988433  84.6597299 109.4651342  78.3968273
  86.6413531 109.1481877  75.0432016  85.6909162 109.1483739  74.9296389
  86.9446017 108.4014612  74.5268051  90.5276086  87.0655764  71.2110196
  89.7608482  86.5114250  71.3566879  90.9386791  87.1377632  72.0724348
  82.5317847  93.3540559  85.3015378  83.3949309  92.9977364  85.5118702
  81.9583258  93.0154454  85.9890782 102.3766224 114.9842416  76.1077779
 103.0144634 114.8649163  75.4041119 102.2587067 115.9323260  76.1665731
  99.1855931 114.9369844  76.0439303  98.8474442 114.8210909  75.1559838
 100.0545699 114.5361009  76.0240309  95.0442746 116.7905320  72.0336194
  94.4807611 116.6995257  71.2652482  94.9295141 115.9705225  72.5138687
  99.6675713 116.0904696  82.0025509  99.6564354 115.6957494  81.1306013
  99.8296353 115.3570768  82.5959280  92.5907178 118.2856512  74.8720415
  93.3828470 117.9447337  74.4566714  92.8303828 118.3951487  75.7922568
  94.5497932 117.5465425  67.7437794  95.3228808 116.9994412  67.6050669
  94.9023331 118.4109675  67.9552255  96.3882975 118.8741807  80.9504693
  96.0972841 119.7787438  80.8351359  97.0239959 118.9158335  81.6648762
  97.3139181 116.2518656  77.5406052  97.9102754 116.0274678  76.8263015
  97.3714153 115.5103401  78.1431500  96.8864210 113.7058091  65.3756243
  97.1389731 113.1839613  64.6139706  95.9488769 113.5424237  65.4782927
 101.9307493 112.7093870  73.1830987 102.7170582 112.2913293  72.8321404
 102.1946197 113.6139962  73.3512635 102.1017570 118.1466720  67.8819643
 101.4663403 118.2201346  68.5940548 101.7714976 118.7360319  67.2038723
 107.3315920 112.6469103  74.0863965 108.0641092 112.0768320  74.3201795
 106.5755276 112.2590703  74.5270471  96.6060499 115.6086197  67.5780618
  96.4896757 114.9331101  68.2461703  96.7162759 115.1218571  66.7612771
  98.9492040 115.0696344  71.2827308  98.5850247 114.5426965  71.9940229
  99.8059155 114.6794813  71.1093793 104.8541340 106.3590677  78.5458574
 104.5224665 107.2286088  78.3219789 104.2586954 106.0426961  79.2252604
  98.5897527 110.0986244  66.2788656  98.7571929 110.9666480  66.6459127
  98.3994696 110.2613526  65.3549945 101.3472860 118.5603223  77.9454487
 101.0473583 119.4628262  77.8370294 101.0023919 118.2935406  78.7975639
  94.7985341 115.0117020  73.9791191  93.8735838 114.8793234  74.1868883
  95.0469754 115.7911239  74.4761133 104.7470004 111.0785763  75.6251924
 103.8386881 111.0101172  75.3310685 104.6957599 111.5557708  76.4533749
  98.5686747 112.5543902  67.2635323  98.4486373 113.0000952  68.1020803
  97.8739336 112.9029219  66.7048861  92.1594152 114.6550293  74.8134980
  92.2886533 114.9084772  75.7274392  91.4791604 115.2478001  74.4939635
  98.8210869 112.4975409  83.5686821  98.0444203 113.0569329  83.5589686
  99.4601432 112.9832192  84.0901691 106.6131650 109.2802202  77.4029798
 105.9706030 109.5734735  76.7569592 106.1086578 109.1655122  78.2082994
 104.2671814 113.0265375  68.0915657 105.1789670 113.2592761  67.9163355
 103.7581461 113.6102419  67.5290736  97.0757242 115.3060862  83.1304788
  97.8171926 115.8445906  82.8539612  96.3694227 115.9327151  83.2876340
 102.5512581 117.4490003  81.7276950 102.9595937 117.0072413  80.9831582
 101.8289843 116.8742630  81.9811142  98.9043651 112.3862609  79.1010507
  99.7504846 112.8102023  79.2445156  98.8442289 111.7296234  79.7949070
 102.8741396 118.0091193  75.4829238 102.2450258 118.1736907  74.7805306
 102.4867058 118.4232803  76.2540203 102.0543097 110.0466978  80.7591680
 101.8104028 110.8009038  80.2225956 102.3303027 110.4252325  81.5938927
 104.0081559 116.5905590  79.4368946 104.2198455 117.2337350  78.7603327
 103.9611308 115.7567907  78.9690876 101.6107788 109.2023411  76.3405518
 100.7492267 109.5004664  76.6322255 101.6370223 109.4193810  75.4086551
  98.4269358 117.7465601  72.7479324  98.8907703 118.0253304  71.9583946
  98.1626156 116.8449046  72.5652414  95.3193439 117.2937083  75.6859087
  95.8894796 117.7224351  75.0476571  95.9101551 117.0119668  76.3843272
  97.3638244 113.8688754  69.5568889  98.0662287 114.3209797  70.0242815
  97.0318872 113.2272573  70.1848782  95.8118605 112.4600510  83.9320098
  95.1817266 113.1416791  84.1655495  95.7054693 112.3483592  82.9873236
  91.1063578 112.1272306  74.8586022  90.3162632 112.3829835  74.3826133
  91.5974825 112.9420644  74.9638063  93.0578323 112.4916886  71.8169499
  92.2609486 112.6035580  72.3352995  92.8303915 112.8303538  70.9510389
  98.8883991 119.0161589  79.7652014  98.9528423 119.4781996  80.6010185
  98.1794915 118.3858954  79.8934323  89.3901281 112.3802797  77.2901013
  89.6409319 113.2649807  77.5558589  89.9260829 112.2007398  76.5176105
  98.6032008 120.6829696  69.6330994  98.4677683 121.5281232  70.0615842
  99.1441821 120.8848974  68.8696928  95.0899348 106.7621276  86.2945349
  94.6966294 106.2087475  86.9692993  95.9065488 107.0731855  86.6851867
  92.0561406 118.2005134  70.2058919  92.5685926 118.9948385  70.3564484
  92.7084119 117.5031425  70.1392520  93.8656291 121.3170891  72.2881672
  94.0422919 122.2388855  72.1002656  94.6613124 121.0029310  72.7176052
  98.0067309 108.1779155  83.8865606  98.7477022 108.7786308  83.8070068
  98.2385232 107.4356793  83.3283648  93.1508647 113.3635522  82.1643835
  93.0362162 112.4620780  82.4650934  92.2953165 113.6099219  81.8128652
  94.9887606 122.8349064  78.2892015  95.5395031 122.7066128  77.5169008
  94.1499082 123.1343953  77.9386907  98.7854777 119.1000192  82.6336246
  99.3183114 118.3388480  82.4035554  98.2568858 118.8073844  83.3760400
 101.9524472 104.2060258  78.1629887 101.6088741 105.0961900  78.0868998
 102.3203435 104.0161916  77.2999472  90.0210323 116.5293789  70.9818490
  90.8585545 116.9390797  70.7652197  90.1988590 115.5893231  70.9518683
 101.9174755 114.1968869  66.6702323 101.4021378 114.9673474  66.9090710
 101.6452063 113.5234005  67.2935384  99.5021866 109.0418570  71.7287561
  98.6463462 108.6525420  71.5493200  99.9148818 109.1210531  70.8687346
 101.0321012 106.5764913  76.1279121 100.5285808 106.5395048  75.3146926
 101.3251619 107.4857656  76.1875777  97.2763898 106.6603643  75.1345302
  98.1416895 106.4646452  74.7751192  97.3441407 106.4313995  76.0614659
 101.7061058 112.0695961  68.4962104 101.4011193 112.3842111  69.3472247
 102.6591500 112.1477381  68.5389437 100.1507490 118.2286185  70.1455058
  99.6228851 117.4938944  69.8328295  99.6494992 119.0060861  69.8995026
  94.8826217 108.8905851  72.5061669  95.4569969 108.6681032  71.7734862
  95.4697200 108.9594545  73.2590270 103.9405795 114.7779578  73.3126046
 104.4537676 115.4109570  73.8147755 104.5907018 114.1780773  72.9469406
  95.2095804 110.9210312  66.5257554  94.3733117 111.2584999  66.8466829
  95.0700574 110.7859292  65.5884691  97.1848885 105.7647100  71.2336739
  96.5313297 105.4496117  70.6093353  97.1429359 105.1422840  71.9596562
  98.2960090 116.0466395  63.1490031  97.3887152 115.8155648  63.3481180
  98.7931122 115.2504014  63.3364012 100.4186625 112.2529033  75.5584386
  99.5009187 112.4743980  75.4006074 100.8346769 112.3275344  74.6996094
 101.2021673 113.6520449  70.6887067 101.9493492 114.1641846  70.3794189
 101.4713263 113.3304502  71.5491460  99.4748323 116.1478990  67.6714021
  98.5659543 115.8638023  67.7686491  99.5043407 116.5678068  66.8117328
 103.6500510 110.6877565  72.6705856 102.9123267 110.1754952  73.0016098
 103.9027284 110.2477947  71.8589133 103.7512138 103.4653817  73.2647625
 104.0571014 102.6051181  72.9773540 104.4764742 104.0571438  73.0646619
  90.0436494 113.8684504  71.6529223  89.8460894 113.2753865  70.9280290
  89.4883158 113.5636714  72.3705162  98.0233217 113.7607610  73.7723816
  98.0781827 112.8081447  73.6966293  97.2124419 113.9167050  74.2565115
  99.1724411 117.6887733  65.0102099  98.7343841 116.9723592  64.5507737
  99.9134852 117.9163848  64.4487191  95.9625577 112.3784670  71.5314195
  95.1493443 112.6778841  71.9379387  96.4584572 111.9840359  72.2488677
 101.5599789 112.8426495  80.3629089 101.9149177 113.0697968  81.2223555
 102.2071920 113.1744871  79.7406344  95.4539652 109.9503026  77.1475430
  96.0939031 109.8091785  76.4498393  94.6217183 109.6637539  76.7714032
  96.2299956 119.2505456  73.2610422  97.0240554 118.7555776  73.0592997
  95.5191648 118.7223319  72.8978128  92.5382719 113.3948538  69.3370175
  91.6080308 113.3332993  69.5540137  92.6340191 112.8724491  68.5406816
  92.4568268 109.9203351  71.9248417  92.7175086 110.8348684  71.8157577
  93.2785441 109.4527793  72.0745030  93.9293194 111.3341108  79.0947241
  94.6016247 111.1258470  78.4459890  93.1022980 111.1363194  78.6552474
  99.8318766 107.9603049  81.1112902  99.1846681 108.6592998  81.0177379
 100.6019781 108.3939193  81.4789150 100.0082900 115.7983814  79.1709722
 100.9374960 115.9494973  78.9978689  99.5873930 115.8867834  78.3158368
  98.8071232 119.8234478  76.9408260  98.6682318 119.4553262  77.8134198
  98.0185828 120.3382118  76.7692217 100.3576447 119.2016081  74.3297097
 100.0226280 119.1616851  75.2254747  99.8580393 118.5360797  73.8567508
  94.3320691 114.6083711  79.8549678  94.1940489 113.8763950  80.4561218
  95.2425615 114.5192611  79.5733866 103.2935639 116.5472115  64.6034157
 102.6764809 115.8218943  64.5067210 102.8252127 117.3081475  64.2601231
  96.9602992 114.3203670  79.3433358  97.6702610 113.6796862  79.3019977
  96.9172300 114.5716565  80.2659539  95.6731926 111.3068888  81.1628998
  95.1369283 110.8559626  81.8150594  95.0848634 111.4414797  80.4199462
  95.0834185 110.7657539  63.7255461  94.2063651 110.6446340  63.3617708
  95.5591938 109.9743618  63.4734350  86.6036325 115.5534699  73.8196968
  87.2907365 115.2396429  73.2317984  86.4484454 116.4576064  73.5464220
  91.4071047 110.4424896  78.2481992  91.3229236 109.8350565  77.5132402
  90.5853753 110.9333914  78.2491488 101.5794761 108.9278459  73.6152187
 102.0763460 108.1748422  73.2953257 100.8081742 108.9642776  73.0495396
 102.6624542 117.6850146  71.1890611 101.7280820 117.8051609  71.0195315
 102.8401210 116.7822613  70.9250620  98.1629730 111.0695842  73.3423872
  97.7927517 110.5166883  74.0304777  98.6588822 110.4653976  72.7898872
 106.0497093 113.5267466  71.7240645 106.5157545 114.3595457  71.6500947
 106.5004593 113.0612447  72.4285903  95.9918928 121.5293337  80.4378890
  96.6928388 122.1629820  80.5908284  95.5214043 121.8708069  79.6774529
 104.0213756 105.8948053  75.7631546 103.1076835 106.1252280  75.9313753
 104.4506857 105.9786497  76.6145578 103.7920214 114.0837945  78.2631440
 103.1391664 114.3313852  77.6083893 104.1700594 113.2702083  77.9293917
  99.8407787 114.8257756  84.7497477  99.1648424 114.7251885  85.4199852
 100.6635421 114.6696970  85.2133474  91.5886646 121.0629692  77.3709992
  92.1740083 120.3173380  77.5037897  91.3911485 121.3733649  78.2546656
  94.4425301 124.0980940  72.3872435  93.7735677 124.5827067  71.9036475
  94.3038171 124.3450160  73.3015813  86.1804301 113.6335293  76.0914436
  86.2188400 113.0998883  76.8851554  85.6744594 113.1070498  75.4725413
  93.5595063 108.4799833  79.5876978  93.6236390 109.3414664  79.1754376
  93.4962183 107.8673835  78.8549336  93.0347336 110.5522966  83.2350012
  93.6619375 110.1700043  83.8487536  92.1775255 110.3337167  83.6005705
  89.8112879 112.3599395  69.1668367  90.1066320 111.4510073  69.1135421
  88.9100914 112.3387134  68.8449369  93.3407126 110.4355391  75.1495915
  92.6193711 111.0491359  75.0103389  94.1300381 110.9713156  75.0712561
  96.1433439 107.7709818  81.4236567  96.6667841 108.0172114  82.1862877
  95.9245772 108.6029853  81.0039705  91.5400720 110.0413492  69.2907692
  91.2113426 109.1610871  69.1082798  91.8940091 109.9861161  70.1784081
  94.6542543 110.3286462  69.6583170  94.9938616 110.8572383  68.9361778
  95.1014664 110.6666868  70.4341736  97.3485984 108.7123513  79.1086238
  97.0082804 107.9131326  79.5106918  96.6424990 109.0125224  78.5363071
  98.0002456 105.7972825  77.5613561  98.8228525 105.3233303  77.4392451
  98.2440519 106.5763309  78.0612247  96.6410690 108.8261084  67.8576462
  97.3619053 109.2042337  67.3540179  96.0175995 109.5449961  67.9611440
 100.7841813 109.5306233  68.7934795 101.0005428 110.4130871  68.4923623
 100.3035880 109.1392446  68.0640437  95.5241035 112.4891946  75.3705539
  95.3785615 112.8032249  76.2629821  95.0466238 113.1076846  74.8176438
  97.3837418 109.4794494  75.4186429  97.3698986 108.5835587  75.0818727
  98.1009846 109.4865158  76.0524715  99.2363548 109.9131834  77.4639556
  98.9781326 110.8348905  77.4623887  98.7048589 109.5162269  78.1540021
  89.9986697 115.0297290  78.3093201  89.4540165 115.8057098  78.4413475
  90.8766047 115.3768095  78.1512322  96.7874313 108.3608874  70.6873999
  96.9090225 107.4325520  70.8864887  96.4976356 108.3747560  69.7752315
  99.6565504 106.0463785  73.8240719  99.6787201 106.1103118  72.8692699
 100.0733563 105.2068293  74.0181225  90.7852719 114.1567187  81.2023357
  90.0434455 114.3049822  81.7887988  90.4645463 114.4175452  80.3390107
  91.2309332 122.0432615  73.2333752  92.0567352 121.7436387  72.8532396
  90.8803384 121.2740238  73.6823541  96.1990866 121.3959084  75.3031426
  95.5770875 120.7329789  75.0033654  96.8695732 121.4220215  74.6205073
  89.4317937 119.9618942  74.1922686  88.5949846 119.5341116  74.0106687
  89.4041583 120.1551385  75.1293477  96.2715393 109.8740872  84.8963932
  96.3203549 110.7502994  84.5141701  96.8137907 109.3318265  84.3235575
  95.7604372 119.9463007  68.7789886  95.9092493 120.6298471  68.1256559
  96.5670816 119.9268097  69.2939342 104.1671876 113.2505389  82.8057104
 105.0681739 113.1111854  82.5141102 104.2419851 113.4159844  83.7455281
  98.5014681 110.6272244  81.6510290  97.6317991 110.9205810  81.3792879
  98.7374162 111.2112689  82.3717554 106.6273499 114.8104017  80.2019877
 107.1027620 115.0031664  79.3938728 105.7039064 114.8663203  79.9563261
  93.5157005 115.9728184  69.7850955  93.2703047 115.0690514  69.9831165
  93.6852920 115.9745335  68.8430433 101.2053715 106.8451861  79.1675711
 101.7235659 107.5812888  78.8422199 100.8508848 107.1515854  80.0022470
  92.7852653 111.7056542  67.2837117  92.0921898 111.7800897  66.6277153
  92.5404405 110.9416886  67.8058634 101.4566309 103.2652143  74.6876607
 101.7368063 102.5975332  75.3137034 102.2416916 103.4581239  74.1751271
 105.3275168 111.6869777  78.4348182 106.2792591 111.7867875  78.4560406
 105.1578618 110.8948046  78.9446267 103.3489547 108.7725361  78.6207583
 102.7539479 109.0530373  77.9254072 103.0639244 109.2619262  79.3924324
  99.6446576 113.7771950  63.5917686 100.5905681 113.6478158  63.6606104
  99.2660821 113.0386612  64.0687114 107.9557734 111.6986941  77.5948765
 107.4396783 110.9145397  77.4078694 108.8397683 111.3705657  77.7595285
 105.6168461 105.4427956  73.5544578 105.4193282 105.1343044  74.4387910
 106.2268167 106.1689595  73.6842508  99.5285269 117.8289696  85.0518343
 100.4488278 118.0068295  85.2458390  99.4934852 116.8845742  84.8998042
  97.8289494 111.7021926  63.5272571  96.9220949 111.4055039  63.6035285
  98.1065475 111.4051745  62.6606858  88.7467434 113.0228290  73.9771618
  88.4270218 112.1693598  73.6845992  88.2000862 113.2376868  74.7329585
  92.5247342 115.7390731  77.6941124  92.7433351 116.6707839  77.7129158
  92.9373115 115.3798705  78.4795928  99.4451559 106.2458816  69.6816813
  98.6352288 105.9005901  70.0572059 100.1335976 105.9366360  70.2704424
 101.3742108 105.3236863  71.3041109 101.9273146 105.7432316  71.9631132
 101.6112194 104.3972611  71.3464065  97.3975207 111.3123937  87.0843873
  97.2971934 112.2618294  87.0155964  97.1796749 110.9842176  86.2119943
  96.5988278 108.5608862  63.6684551  97.4607442 108.8863760  63.9280368
  96.7838622 107.7740358  63.1557616  88.6155694 116.6431201  75.9464739
  87.9219165 116.2285154  75.4334694  89.3628685 116.6851738  75.3498158
 104.7520915 107.4337388  70.8119774 104.1719584 108.0922192  70.4297826
 104.4856847 106.6114733  70.4007191 103.2024481 106.8342446  73.0141094
 103.7024259 106.9458980  72.2055413 103.8460089 106.5303499  73.6541902
  97.2606477 114.7421075  85.9008935  96.7773559 115.5421436  86.1072824
  97.3467416 114.7529020  84.9476379  90.5292437 116.5749455  73.8230754
  90.5063125 116.6737142  72.8712637  90.8393073 117.4214606  74.1447920
  93.1879814 118.6325610  77.9377369  94.1423068 118.6009552  77.8707300
  92.9892338 118.1716234  78.7527595  93.7779197 117.2026726  80.5048166
  94.5972086 117.6970805  80.5283004  94.0516004 116.2858694  80.4765734
 103.5345793 109.5937479  69.8676122 102.6471648 109.8787129  69.6496317
 103.9499782 109.4331242  69.0203399 106.8860329 109.6183999  73.5830461
 107.6620719 110.1080452  73.8555078 106.1608463 110.0442054  74.0402331
 109.3232888 110.3311619  74.6404402 109.9177378 110.0907355  73.9297710
 109.3959471 109.6118749  75.2677938  91.5430043 124.1745230  74.9547567
  91.4084511 123.4145631  74.3885565  91.1262105 124.8986130  74.4876355
 103.5086816 115.1092014  70.0826412 103.4522018 115.5660566  69.2434044
 104.0615159 114.3482699  69.9049255 107.3191622 110.8981746  70.9076531
 107.0628557 110.4978382  71.7384739 106.6944490 111.6125540  70.7826671
 104.2421596 116.2996796  67.3778941 104.1870400 116.1341067  66.4367385
 103.6167651 117.0072829  67.5341131  89.0314111 111.5364860  81.2040363
  89.6772974 111.0263814  81.6927589  88.8231262 112.2733542  81.7783789
  97.5517721 105.8004905  66.9564260  97.5396391 106.7446745  67.1132530
  98.4441143 105.6175050  66.6623721 101.3669841 102.3947681  71.2110196
 100.6002237 101.8406168  71.3566879 101.7780546 102.4669550  72.0724348
  93.3711602 108.6832477  85.3015378  94.2343063 108.3269282  85.5118702
  92.7977012 108.3446372  85.9890782  37.3403699   0.0153032  62.8323085
  37.9782108  -0.1040220  62.1286425  37.2224541   0.9633876  62.8911037
  34.1493405  -0.0319540  62.7684610  33.8111916  -0.1478475  61.8805145
  35.0183173  -0.4328374  62.7485616  30.0080221   1.8215937  58.7581501
  29.4445086   1.7305874  57.9897789  29.8932616   1.0015841  59.2383993
  34.6313188   1.1215312  68.7270815  34.6201829   0.7268110  67.8551319
  34.7933827   0.3881385  69.3204587  27.5544652   3.3167128  61.5965721
  28.3465944   2.9757953  61.1812021  27.7941303   3.4262104  62.5167875
  35.5879779   5.4886905  54.0695966  34.9367759   6.0740985  53.6829980
  36.3824142   6.0193099  54.1291003  29.5135406   2.5776042  54.4683100
  30.2866282   2.0305029  54.3295976  29.8660805   3.4420291  54.6797562
  31.3520449   3.9052424  67.6749999  31.0610315   4.8098055  67.5596666
  31.9877433   3.9468952  68.3894069  32.2776656   1.2829273  64.2651359
  32.8740228   1.0585295  63.5508322  32.3351627   0.5414018  64.8676807
  31.8501684  -1.2631292  52.1001550  32.1027205  -1.7849771  51.3385013
  30.9126243  -1.4265147  52.2028234  36.8944967  -2.2595514  59.9076293
  37.6808056  -2.6776091  59.5566710  37.1583671  -1.3549422  60.0757942
  37.0655044   3.1777337  54.6064950  36.4300877   3.2511963  55.3185855
  36.7352451   3.7670935  53.9284029  42.2953394  -2.3220281  60.8109272
  43.0278566  -2.8921064  61.0447101  41.5392750  -2.7098680  61.2515777
  31.5697973   0.6396814  54.3025925  31.4534231  -0.0358283  54.9707009
  31.6800233   0.1529188  53.4858078  33.9129514   0.1006961  58.0072614
  33.5487721  -0.4262418  58.7185536  34.7696630  -0.2894570  57.8339100
  39.8178814  -8.6098706  65.2703880  39.4862139  -7.7403296  65.0465095
  39.2224428  -8.9262422  65.9497911  33.5535001  -4.8703139  53.0033963
  33.7209403  -4.0022903  53.3704434  33.3632170  -4.7075858  52.0795252
  36.3110334   3.5913840  64.6699793  36.0111057   4.4938878  64.5615600
  35.9661394   3.3246023  65.5220946  29.7622816   0.0427636  60.7036498
  28.8373312  -0.0896150  60.9114189  30.0107229   0.8221856  61.2006440
  39.7107478  -3.8903620  62.3497230  38.8024355  -3.9588212  62.0555991
  39.6595074  -3.4131675  63.1779056  33.5324222  -2.4145482  53.9880630
  33.4123847  -1.9688431  54.8266110  32.8376810  -2.0660164  53.4294168
  27.1231627  -0.3139090  61.5380287  27.2524008  -0.0604611  62.4519698
  26.4429078   0.2788618  61.2184942  31.2931114  10.3558160  57.6370761
  31.2155144  11.3065985  57.7159241  30.6892757  10.0104032  58.2945687
  33.7848344  -2.4713975  70.2932128  33.0081678  -1.9120055  70.2834992
  34.4238907  -1.9857192  70.8146998  41.5769124  -5.6887182  64.1275104
  40.9343504  -5.3954649  63.4814899  41.0724053  -5.8034262  64.9328301
  39.2309288  -1.9424009  54.8160964  40.1427144  -1.7096622  54.6408661
  38.7218935  -1.3586965  54.2536042  32.0394716   0.3371479  69.8550095
  32.7809400   0.8756523  69.5784918  31.3331701   0.9637767  70.0121647
  37.5150056   2.4800619  68.4522256  37.9233412   2.0383030  67.7076889
  36.7927317   1.9053247  68.7056449  33.8681126  -2.5826774  65.8255813
  34.7142321  -2.1587361  65.9690462  33.8079763  -3.2393150  66.5194376
  37.8378870   3.0401810  62.2074545  37.2087733   3.2047524  61.5050613
  37.4504532   3.4543419  62.9785509  41.7168102   3.9756248  59.5618909
  41.0319140   4.3555149  59.0115942  41.8011951   4.5851574  60.2950857
  37.0180571  -4.9222406  67.4836987  36.7741503  -4.1680345  66.9471262
  37.2940501  -4.5437058  68.3184234  38.9719034   1.6216207  66.1614252
  39.1835929   2.2647967  65.4848633  38.9248782   0.7878523  65.6936182
  36.5745263  -5.7665973  63.0650825  35.7129742  -5.4684719  63.3567562
  36.6007697  -5.5495574  62.1331857  33.3906832   2.7776218  59.4724630
  33.8545178   3.0563921  58.6829253  33.1263630   1.8759662  59.2897721
  30.2830913   2.3247699  62.4104393  30.8532270   2.7534968  61.7721878
  30.8739025   2.0430284  63.1088579  32.3275718  -1.1000630  56.2814195
  33.0299761  -0.6479586  56.7488122  31.9956347  -1.7416811  56.9094088
  30.7756080  -2.5088873  70.6565405  30.1454740  -1.8272592  70.8900802
  30.6692168  -2.6205792  69.7118543  40.0864862   4.4988162  64.3336610
  40.9082305   4.0968349  64.0519291  40.0827265   4.3956396  65.2852726
  33.8521465   4.0472205  66.4897320  33.9165898   4.5092613  67.3255492
  33.1432389   3.4169570  66.6179630  48.1770855   0.8426911  60.6821581
  47.4234563   0.2734309  60.5265586  48.3118396   0.8089575  61.6292216
  33.5669483   5.7140313  56.3576301  33.4315158   6.5591849  56.7861148
  34.1079295   5.9159590  55.5942234  27.0198880   3.2315751  56.9304226
  27.5323401   4.0259001  57.0809790  27.6721593   2.5342041  56.8637827
  28.8293765   6.3481507  59.0126979  29.0060393   7.2699472  58.8247963
  29.6250598   6.0339926  59.4421359  35.1937959   6.3363879  70.4876643
  34.7501813   5.5500258  70.1697547  35.8555173   6.5243030  69.8220533
  29.9525080   7.8659681  65.0137321  30.5032505   7.7376744  64.2414315
  29.1136556   8.1654570  64.6632214  37.2919197   6.6166679  68.5158044
  37.2737673   7.4375560  68.0238313  38.2139117   6.4920754  68.7408185
  33.7492251   4.1310809  69.3581552  34.2820588   3.3699097  69.1280860
  33.2206332   3.8384461  70.1005707  36.8812229  -0.7720514  53.3947629
  36.3658852  -0.0015910  53.6336017  36.6089537  -1.4455378  54.0180691
  41.8546503   1.9811840  55.3300803  41.0775946   1.6423000  54.8855965
  42.5337984   1.9864464  54.6555768  36.6698532  -2.8993422  55.2207410
  36.3648668  -2.5847273  56.0717554  37.6228974  -2.8212002  55.2634743
  35.1144964   3.2596801  56.8700364  34.5866326   2.5249561  56.5573602
  34.6132467   4.0371478  56.6240333  40.0937810   1.4545822  61.9867411
  39.4361485   2.1445083  62.0747539  40.8978209   1.8442254  62.3301397
  38.9043269  -0.1909806  60.0371352  39.4175151   0.4420186  60.5393062
  39.5544493  -0.7908610  59.6714712  33.2597564   1.0777011  49.8735337
  32.3524626   0.8466265  50.0726486  33.7568596   0.2814631  50.0609319
  36.1665643   9.7874519  52.7932023  35.4927342  10.0906215  53.4016981
  36.5531465  10.5903599  52.4437481  35.3824100  -2.7160350  62.2829693
  34.4646661  -2.4945403  62.1251381  35.7984243  -2.6414040  61.4241400
  36.1659147  -1.3168934  57.4132373  36.9130966  -0.8047537  57.1039495
  36.4350737  -1.6384882  58.2736767  34.4385798   1.1789606  54.3959327
  33.5297017   0.8948639  54.4931797  34.4680881   1.5988685  53.5362634
  39.6705065   4.7896196  58.1650495  39.2167392   3.9487106  58.2215685
  39.0399032   5.4257594  58.5025275  38.6137985  -4.2811818  59.3951162
  37.8760741  -4.7934432  59.7261405  38.8664758  -4.7211437  58.5834439
  38.1138004   6.6272693  59.1000313  38.4060979   7.1877750  58.3812679
  38.6236625   6.9201254  59.8553472  32.9870692  -1.2081773  60.4969123
  33.0419301  -2.1607937  60.4211599  32.1761894  -1.0522334  60.9810421
  34.1361885   2.7198350  51.7347406  33.6981315   2.0034209  51.2753043
  34.8772326   2.9474465  51.1732497  30.9263052  -2.5904713  58.2559502
  30.1130917  -2.2910543  58.6624694  31.4222046  -2.9849025  58.9733984
  33.0771630   7.4053044  60.1893766  33.0347808   7.6313890  59.2602298
  33.9934328   7.1716418  60.3379567  36.5237263  -2.1262889  67.0874396
  36.8786651  -1.8991416  67.9468861  37.1709395  -1.7944512  66.4651651
  42.2535000   0.9955547  57.7923725  42.1152899   1.1857143  56.8644914
  41.8971219   1.7574930  58.2491776  42.2804380   3.0632074  62.8034996
  42.7140887   2.9707363  63.6518050  42.9935961   3.0389575  62.1655012
  31.1937430   4.2816073  59.9855729  31.9878029   3.7866393  59.7838304
  30.4829123   3.7533936  59.6223435  36.0132275   6.6634168  64.3368097
  36.0669297   7.2325104  65.1045813  35.1447056   6.8336053  63.9722134
  43.1419929   3.1055775  65.3367881  43.3355820   4.0101585  65.5827156
  43.0420548   2.6463194  66.1706467  38.2035038   3.2562517  70.9108762
  38.0520545   3.0273069  69.9938846  38.1939718   4.2133119  70.9240107
  34.9720375   0.8294430  65.8955029  35.9012435   0.9805590  65.7223996
  34.5511405   0.9178451  65.0403675  33.7708706   4.8545095  63.6653566
  33.6319792   4.4863879  64.5379504  32.9823303   5.3692734  63.4937524
  34.3656858   9.9554191  55.0079103  34.5408614   9.4842234  55.8224725
  33.6789646  10.5819957  55.2360363  35.3213921   4.2326697  61.0542404
  34.9863754   4.1927467  61.9500054  34.8217867   3.5671413  60.5812814
  29.2958165  -0.3605673  66.5794985  29.1577963  -1.0925434  67.1806524
  30.2063089  -0.4496773  66.2979173  38.2573113   1.5782732  51.3279464
  37.6402284   0.8529560  51.2312516  37.7889602   2.3392092  50.9846538
  31.9240466  -0.6485713  66.0678665  32.6340085  -1.2892521  66.0265283
  31.8809774  -0.3972818  66.9904846  39.9127245   6.2881640  68.9885244
  39.8539791   5.6040860  68.3215827  40.3146763   7.0300630  68.5365870
  28.9317944  13.1043554  61.7818963  29.1714542  13.7362078  62.4597981
  28.0887140  12.7531594  62.0684322  39.9144652   4.2521224  67.2199224
  39.0271431   3.9147146  67.3425622  40.4843203   3.5204255  67.4567989
  33.4445805   8.9122676  64.1860467  33.3715977   9.7177648  64.6979771
  33.0023199   9.1114642  63.3608488  33.2335585   8.1494446  57.6963288
  32.4503107   8.6916127  57.7901513  33.9328330   8.6668426  58.0957530
  36.5432235  -6.0410924  60.3397494  37.0400935  -6.7940962  60.0198564
  35.7719217  -6.0046608  59.7740703  44.3961993  -0.3370559  61.9815785
  44.3851869   0.5454157  61.6109718  43.5279372  -0.6899008  61.7870322
  35.9044489   8.8109510  66.3418625  36.6172461   9.4456975  66.2694527
  35.4134518   8.9073376  65.5258627  37.6262016   2.7160763  57.9135917
  36.6918295   2.8362225  57.7440621  37.8038684   1.8133230  57.6495927
  33.1267204  -3.8993541  60.0669178  32.7564991  -4.4522501  60.7550084
  33.6226296  -4.5035408  59.5144178  41.0134567  -1.4421918  58.4485951
  41.4795019  -0.6093926  58.3746254  41.4642068  -1.9076936  59.1531210
  30.9556402   6.5603954  67.1624196  31.6565862   7.1940437  67.3153591
  30.4851517   6.9018685  66.4019836  39.0810798   4.9021904  55.4472103
  39.3570642   4.7878498  56.3565977  38.2115297   4.5039388  55.4084276
  38.7557688  -0.8851439  64.9876747  38.1029139  -0.6375531  64.3329199
  39.1338068  -1.6987301  64.6539224  35.7164862   9.1508254  59.0904917
  35.8987257   8.3329910  59.5532669  36.5397848   9.3675947  58.6529807
  36.0507028   8.0776440  56.3519965  36.5794794   7.5668894  55.7390128
  36.3135247   7.7618970  57.2165498  34.8045261  -0.1431628  71.4742784
  34.1285898  -0.2437498  72.1445159  35.6272895  -0.2992414  71.9378781
  26.5524121   6.0940309  64.0955299  27.1377557   5.3483997  64.2283203
  26.3548959   6.4044266  64.9791963  29.4062776   9.1291556  59.1117741
  28.7373151   9.6137684  58.6281781  29.2675645   9.3760777  60.0261120
  33.5468044  11.1635300  65.7100400  34.0986352  11.3266921  66.4749485
  33.8874238  11.7539738  65.0380425  38.3978919   5.9896557  71.5649054
  38.9418823   6.6026516  71.0704009  37.8165764   6.5476136  72.0816067
  36.6836432   9.1117275  62.6964082  36.5587571   8.3107015  62.1875027
  37.3415523   9.6063469  62.2078052  38.7471340   6.9126295  64.3243632
  37.8001676   6.7931647  64.2521959  39.0954113   6.0248793  64.4069893
  35.7517773   6.7079012  60.5247984  35.6042736   5.7795719  60.7055554
  36.5771267   6.7299102  60.0405059  39.3551895   7.5307570  61.6112857
  40.2798443   7.3250432  61.4737308  39.1867199   7.2823971  62.5202198
  35.7479288  -5.4383151  55.5180101  35.9642902  -4.5558513  55.2168930
  35.2673355  -5.8296937  54.7885743  30.4878509  -2.4797438  62.0950846
  30.3423090  -2.1657134  62.9875128  30.0103713  -1.8612537  61.5421745
  39.1447211   8.0493238  56.9674948  39.3184089   7.4839660  56.2148801
  39.6376103   8.8494133  56.7854438  44.9986603   0.8129661  58.5865248
  45.4417749   0.0636986  58.1884371  44.1213113   0.8039797  58.2038980
  40.1322384   7.3660002  54.0671847  40.8273288   7.9866695  54.2859161
  40.4745534   6.5155353  54.3424225  42.0313807   4.8159708  55.5959177
  42.5565131   5.1546980  54.8708497  41.9436160   3.8806723  55.4122312
  33.6933856   8.7293781  67.7249054  34.0020982   8.4842928  68.5971754
  34.4909338   8.9340420  67.2367924  33.7154468  10.8831691  59.9554431
  33.2759458  10.3908070  60.6487287  34.4662585  10.3404659  59.7146506
  26.1946807   7.0743232  59.9579059  27.0204827   6.7747004  59.5777702
  25.8440859   6.3050854  60.4068847  31.1628340   6.4269700  62.0276732
  30.5408349   5.7640405  61.7278960  31.8333207   6.4530832  61.3450380
  24.3955412   4.9929558  60.9167992  23.5587320   4.5651733  60.7351994
  24.3679057   5.1862002  61.8538784  41.7207713   5.4492611  70.9010375
  40.9303257   5.4316750  70.3614875  41.4841068   5.9880905  71.6559412
  41.8405588   2.2985078  68.2143104  41.8903593   2.1335085  69.1558627
  41.7319511   1.4312337  67.8240985  30.7241847   4.9773623  55.5035193
  30.8729967   5.6609088  54.8501866  31.5308290   4.9578713  56.0184649
  39.1309350  -1.7183994  69.5302411  40.0319213  -1.8577529  69.2386408
  39.2057325  -1.5529539  70.4700588  33.4652156  -4.3417140  68.3755597
  32.5955465  -4.0483573  68.1038186  33.7011636  -3.7576695  69.0962861
  43.3423785   4.7182019  68.4585126  43.0508593   5.0812000  69.2948586
  42.7295916   4.0049028  68.2798458  44.5419467   2.2834899  60.9787696
  45.3766359   2.7224703  61.1425256  44.6778596   1.8073552  60.1595942
  41.5910973  -0.1585366  66.9265183  42.0665095   0.0342280  66.1184035
  40.6676539  -0.1026180  66.6808567  28.4794480   1.0038801  56.5096262
  28.2340522   0.1001131  56.7076472  28.6490394   1.0055951  55.5675740
  34.2237252   7.4721754  52.9746940  33.6511219   8.0911941  52.5217412
  34.7970046   8.0221116  53.5086862  40.2912642  -3.2819606  65.1593489
  41.2430065  -3.1821508  65.1805713  40.1216093  -4.0741338  65.6691573
  38.3127022  -6.1964023  65.3452890  37.7176954  -5.9159010  64.6499379
  38.0276718  -5.7070122  66.1169631  37.4434512   7.7558904  54.1055523
  38.3765185   7.6904466  54.3088398  37.3557725   8.5915171  53.6470055
  40.0722529   7.0724774  51.0659470  39.9936160   6.7384638  51.9595228
  40.8932196   7.5646542  51.0650942  42.7700720  -0.0613486  64.2735789
  42.7377040  -0.9997486  64.4595473  43.3801344   0.0170550  63.5401614
  34.6084051  -1.1917433  50.3162993  35.5543156  -1.3211225  50.3851411
  34.2298296  -1.9302771  50.7932421  42.9195208  -3.2702443  64.3194072
  42.4034257  -4.0543986  64.1324001  43.8035157  -3.5983726  64.4840591
  40.5805935  -9.5261427  60.2789885  40.3830756  -9.8346339  61.1633217
  41.1905641  -8.7999788  60.4087814  48.5877270   1.0002520  63.4141826
  49.3180658   0.7387809  63.9749529  47.9784215   0.2631242  63.4543894
  46.6692567  -0.8589617  64.0116277  45.9425730  -0.9933652  63.4032768
  46.2539854  -0.5512788  64.8172995  34.4922743   2.8600313  71.7763650
  35.4125753   3.0378912  71.9703696  34.4572326   1.9156358  71.6243349
  32.7926968  -3.2667457  50.2517878  31.8858423  -3.5634344  50.3280592
  33.0702949  -3.5637639  49.3852164  27.4884816   0.7701347  64.4186431
  27.7070826   1.7018455  64.4374465  27.9010590   0.4109322  65.2041235
  32.3612681  -3.6565447  73.8089180  32.2609408  -2.7071090  73.7401271
  32.1434223  -3.9847208  72.9365250  39.7158389  -7.5351995  57.5365080
  39.1357058  -6.8767191  57.1543133  39.4494322  -8.3574651  57.1252498
  38.1661955  -8.1346938  59.7386401  38.6661734  -8.0230403  58.9300719
  38.8097563  -8.4385885  60.3787209  32.2243951  -0.2268308  72.6254242
  31.7411033   0.5732052  72.8318131  32.3104890  -0.2160363  71.6721685
  25.4929911   1.6060072  60.5476061  25.4700599   1.7047759  59.5957944
  25.8030547   2.4525222  60.8693227  28.1517289   3.6636227  64.6622675
  29.1060542   3.6320169  64.5952607  27.9529812   3.2026850  65.4772901
  28.7416671   2.2337343  67.2293473  29.5609560   2.7281421  67.2528310
  29.0153479   1.3169311  67.2011040  38.4983267  -5.3751905  56.5921428
  37.6109122  -5.0902254  56.3741623  38.9137256  -5.5358142  55.7448705
  41.8497803  -5.3505384  60.3075768  42.6258193  -4.8608932  60.5800385
  41.1245937  -4.9247330  60.7647637  44.2870362  -4.6377765  61.3649708
  44.8814853  -4.8782029  60.6543017  44.3596946  -5.3570634  61.9923245
  26.5067518   9.2055846  61.6792873  26.3721985   8.4456247  61.1130871
  26.0899580   9.9296746  61.2121662  37.6426481   4.3892770  50.6869448
  38.3462331   4.5942772  51.3027104  36.9189129   4.9569532  50.9518532
  38.4724291   0.1402631  56.8071719  38.4159492   0.5971182  55.9679351
  39.0252633  -0.6206684  56.6294561  42.2829097  -4.0707637  57.6321838
  42.0266031  -4.4711001  58.4630046  41.6581965  -3.3563843  57.5071977
  46.5941435  -1.3311564  60.1393130  46.0340993  -1.2618375  60.9124692
  45.9884938  -1.5070579  59.4192626  29.6636643  10.1025163  61.8911316
  29.5469028  11.0470596  61.7890006  28.8429090   9.7998725  62.2797115
  39.5513178   4.8275299  52.7367909  40.3858782   4.3956497  52.5545383
  39.3897521   4.6557313  53.6644803  39.2059070   1.3307412  54.1024248
  39.1507874   1.1651684  53.1612692  38.5805125   2.0383445  54.2586438
  36.5204977   3.6356324  73.4277811  37.3896137   3.8096976  73.0664446
  36.0411729   4.4550741  73.3053540  30.6891158  10.7553425  65.1067244
  31.5918404  10.7877035  65.4233739  30.4628528   9.8253876  65.1213580
  32.4444760   9.5084412  61.7677323  31.4940391   9.5086273  61.6541695
  32.7477246   8.7617146  61.2513357  48.1797453  15.3444950  62.8323085
  48.8175863  15.2251697  62.1286425  48.0618296  16.2925794  62.8911037
  44.9887159  15.2972378  62.7684610  44.6505671  15.1813443  61.8805145
  45.8576927  14.8963543  62.7485616  40.8473975  17.1507855  58.7581501
  40.2838840  17.0597791  57.9897789  40.7326370  16.3307759  59.2383993
  45.4706942  16.4507230  68.7270815  45.4595583  16.0560028  67.8551319
  45.6327582  15.7173302  69.3204587  38.3938407  18.6459046  61.5965721
  39.1859699  18.3049871  61.1812021  38.6335057  18.7554021  62.5167875
  46.4273534  20.8178822  54.0695966  45.7761513  21.4032903  53.6829980
  47.2217897  21.3485017  54.1291003  40.3529161  17.9067959  54.4683100
  41.1260037  17.3596946  54.3295976  40.7054560  18.7712209  54.6797562
  42.1914203  19.2344342  67.6749999  41.9004069  20.1389973  67.5596666
  42.8271188  19.2760869  68.3894069  43.1170410  16.6121190  64.2651359
  43.7133983  16.3877213  63.5508322  43.1745382  15.8705936  64.8676807
  42.6895439  14.0660626  52.1001550  42.9420959  13.5442147  51.3385013
  41.7519998  13.9026771  52.2028234  47.7338722  13.0696404  59.9076293
  48.5201811  12.6515827  59.5566710  47.9977426  13.9742496  60.0757942
  47.9048799  18.5069254  54.6064950  47.2694632  18.5803881  55.3185855
  47.5746205  19.0962853  53.9284029  53.1347149  13.0071637  60.8109272
  53.8672321  12.4370854  61.0447101  52.3786504  12.6193238  61.2515777
  42.4091727  15.9688731  54.3025925  42.2927986  15.2933635  54.9707009
  42.5193987  15.4821105  53.4858078  44.7523268  15.4298879  58.0072614
  44.3881476  14.9029500  58.7185536  45.6090384  15.0397348  57.8339100
  50.6572569   6.7193211  65.2703880  50.3255894   7.5888622  65.0465095
  50.0618182   6.4029495  65.9497911  44.3928755  10.4588778  53.0033963
  44.5603158  11.3269015  53.3704434  44.2025924  10.6216060  52.0795252
  47.1504089  18.9205757  64.6699793  46.8504812  19.8230796  64.5615600
  46.8055148  18.6537940  65.5220946  40.6016570  15.3719554  60.7036498
  39.6767066  15.2395768  60.9114189  40.8500983  16.1513773  61.2006440
  50.5501232  11.4388297  62.3497230  49.6418110  11.3703706  62.0555991
  50.4988828  11.9160242  63.1779056  44.3717976  12.9146436  53.9880630
  44.2517601  13.3603487  54.8266110  43.6770565  13.2631753  53.4294168
  37.9625381  15.0152828  61.5380287  38.0917762  15.2687307  62.4519698
  37.2822832  15.6080536  61.2184942  42.1324868  25.6850078  57.6370761
  42.0548898  26.6357903  57.7159241  41.5286512  25.3395950  58.2945687
  44.6242098  12.8577943  70.2932128  43.8475432  13.4171863  70.2834992
  45.2632661  13.3434726  70.8146998  52.4162879   9.6404736  64.1275104
  51.7737259   9.9337269  63.4814899  51.9117807   9.5257656  64.9328301
  50.0703042  13.3867909  54.8160964  50.9820898  13.6195296  54.6408661
  49.5612689  13.9704953  54.2536042  42.8788470  15.6663396  69.8550095
  43.6203155  16.2048440  69.5784918  42.1725456  16.2929685  70.0121647
  48.3543810  17.8092537  68.4522256  48.7627166  17.3674947  67.7076889
  47.6321072  17.2345164  68.7056449  44.7074880  12.7465144  65.8255813
  45.5536075  13.1704557  65.9690462  44.6473518  12.0898768  66.5194376
  48.6772625  18.3693727  62.2074545  48.0481487  18.5339442  61.5050613
  48.2898287  18.7835337  62.9785509  52.5561857  19.3048165  59.5618909
  51.8712895  19.6847067  59.0115942  52.6405706  19.9143492  60.2950857
  47.8574325  10.4069512  67.4836987  47.6135257  11.1611572  66.9471262
  48.1334256  10.7854860  68.3184234  49.8112788  16.9508124  66.1614252
  50.0229683  17.5939884  65.4848633  49.7642536  16.1170441  65.6936182
  47.4139017   9.5625945  63.0650825  46.5523496   9.8607199  63.3567562
  47.4401452   9.7796344  62.1331857  44.2300587  18.1068136  59.4724630
  44.6938932  18.3855838  58.6829253  43.9657385  17.2051580  59.2897721
  41.1224668  17.6539617  62.4104393  41.6926025  18.0826885  61.7721878
  41.7132779  17.3722202  63.1088579  43.1669473  14.2291288  56.2814195
  43.8693516  14.6812332  56.7488122  42.8350101  13.5875107  56.9094088
  41.6149834  12.8203044  70.6565405  40.9848495  13.5019325  70.8900802
  41.5085922  12.7086126  69.7118543  36.9094807  12.4874841  61.5831329
  36.1193861  12.7432369  61.1071440  37.4006054  13.3023178  61.6883369
  50.9258616  19.8280080  64.3336610  51.7476060  19.4260267  64.0519291
  50.9221019  19.7248314  65.2852726  38.8609552  12.8519420  58.5414806
  38.0640715  12.9638114  59.0598301  38.6335144  13.1906072  57.6755696
  44.6915220  19.3764123  66.4897320  44.7559652  19.8384530  67.3255492
  43.9826143  18.7461488  66.6179630  35.1932510  12.7405331  64.0146320
  35.4440548  13.6252341  64.2803896  35.7292058  12.5609933  63.2421412
  59.0164609  16.1718828  60.6821581  58.2628318  15.6026226  60.5265586
  59.1512150  16.1381493  61.6292216  44.4063237  21.0432230  56.3576301
  44.2708912  21.8883766  56.7861148  44.9473050  21.2451508  55.5942234
  40.8930577   7.1223810  73.0190656  40.4997522   6.5690009  73.6938300
  41.7096717   7.4334389  73.4097173  37.8592635  18.5607669  56.9304226
  38.3717155  19.3550919  57.0809790  38.5115347  17.8633959  56.8637827
  39.6687519  21.6773425  59.0126979  39.8454148  22.5991390  58.8247963
  40.4644353  21.3631844  59.4421359  43.8098538   8.5381689  70.6110912
  44.5508251   9.1388843  70.5315375  44.0416461   7.7959327  70.0528955
  38.9539876  13.7238057  68.8889142  38.8393391  12.8223314  69.1896241
  38.0984394  13.9701753  68.5373959  46.0331714  21.6655797  70.4876643
  45.5895568  20.8792176  70.1697547  46.6948927  21.8534948  69.8220533
  40.7918835  23.1951599  65.0137321  41.3426260  23.0668662  64.2414315
  39.9530311  23.4946488  64.6632214  48.1312952  21.9458597  68.5158044
  48.1131427  22.7667478  68.0238313  49.0532872  21.8212672  68.7408185
  44.5886006  19.4602726  69.3581552  45.1214343  18.6991015  69.1280860
  44.0600087  19.1676378  70.1005707  47.7555701   4.5662792  64.8875194
  47.4119970   5.4564434  64.8114305  48.1234663   4.3764450  64.0244779
  35.8241551  16.8896323  57.7063796  36.6616773  17.2993331  57.4897504
  36.0019819  15.9495765  57.6763990  47.7205984  14.5571403  53.3947629
  47.2052607  15.3276008  53.6336017  47.4483292  13.8836540  54.0180691
  45.3053095   9.4021104  58.4532868  44.4494691   9.0127955  58.2738506
  45.7180046   9.4813065  57.5932653  46.8352241   6.9367448  62.8524427
  46.3317037   6.8997583  62.0392233  47.1282848   7.8460190  62.9121084
  43.0795127   7.0206177  61.8590609  43.9448124   6.8248986  61.4996498
  43.1472636   6.7916529  62.7859966  52.6940258  17.3103758  55.3300803
  51.9169700  16.9714918  54.8855965  53.3731739  17.3156381  54.6555768
  47.5092287  12.4298496  55.2207410  47.2042422  12.7444645  56.0717554
  48.4622729  12.5079915  55.2634743  45.9538719  18.5888719  56.8700364
  45.4260080  17.8541478  56.5573602  45.4526221  19.3663395  56.6240333
  50.9331565  16.7837739  61.9867411  50.2755239  17.4737001  62.0747539
  51.7371964  17.1734171  62.3301397  40.6857446   9.2508385  59.2306976
  41.2601198   9.0283567  58.4980169  41.2728429   9.3197080  59.9835577
  49.7437023  15.1382112  60.0371352  50.2568905  15.7712104  60.5393062
  50.3938247  14.5383308  59.6714712  41.0127033  11.2812846  53.2502861
  40.1764346  11.6187533  53.5712136  40.8731803  11.1461826  52.3129998
  42.9880114   6.1249634  57.9582045  42.3344526   5.8098651  57.3338660
  42.9460588   5.5025375  58.6841868  44.0991319  16.4068929  49.8735337
  43.1918380  16.1758183  50.0726486  44.5962351  15.6106548  50.0609319
  47.0059398  25.1166436  52.7932023  46.3321096  25.4198133  53.4016981
  47.3925220  25.9195517  52.4437481  46.2217854  12.6131568  62.2829693
  45.3040416  12.8346515  62.1251381  46.6377998  12.6877878  61.4241400
  47.0052902  14.0122983  57.4132373  47.7524721  14.5244381  57.1039495
  47.2744492  13.6907036  58.2736767  45.2779552  16.5081524  54.3959327
  44.3690771  16.2240557  54.4931797  45.3074636  16.9280603  53.5362634
  50.5098820  20.1188114  58.1650495  50.0561147  19.2779023  58.2215685
  49.8792786  20.7549512  58.5025275  49.4531739  11.0480100  59.3951162
  48.7154496  10.5357486  59.7261405  49.7058513  10.6080481  58.5834439
  48.9531759  21.9564610  59.1000313  49.2454733  22.5169667  58.3812679
  49.4630379  22.2493171  59.8553472  49.5543366   3.8256352  59.9892932
  49.8602243   2.9653715  59.7018847  50.2795971   4.4173972  59.7891926
  35.8467723  14.2287038  58.3774530  35.6492122  13.6356399  57.6525596
  35.2914387  13.9239248  59.0950468  43.8264446  14.1210145  60.4969123
  43.8813056  13.1683981  60.4211599  43.0155648  14.2769584  60.9810421
  44.9755640  18.0490268  51.7347406  44.5375070  17.3326127  51.2753043
  45.7166081  18.2766383  51.1732497  41.7656806  12.7387204  58.2559502
  40.9524672  13.0381375  58.6624694  42.2615800  12.3442893  58.9733984
  43.9165384  22.7344961  60.1893766  43.8741563  22.9605808  59.2602298
  44.8328083  22.5008336  60.3379567  47.3631018  13.2029029  67.0874396
  47.7180406  13.4300502  67.9468861  48.0103149  13.5347406  66.4651651
  53.0928755  16.3247465  57.7923725  52.9546653  16.5149061  56.8644914
  52.7364974  17.0866848  58.2491776  41.2570881  10.3105560  63.8720737
  41.8970260  10.1694319  63.1743700  40.4248411  10.0240073  63.4959339
  53.1198134  18.3923992  62.8034996  53.5534641  18.2999281  63.6518050
  53.8329715  18.3681492  62.1655012  42.0331185  19.6107990  59.9855729
  42.8271783  19.1158310  59.7838304  41.3222877  19.0825853  59.6223435
  46.8526029  21.9926086  64.3368097  46.9063052  22.5617022  65.1045813
  45.9840811  22.1627971  63.9722134  38.3413948  13.7551072  56.0615482
  37.4111536  13.6935528  56.2785444  38.4371420  13.2327025  55.2652123
  38.2599497  10.2805885  58.6493723  38.5206315  11.1951218  58.5402884
  39.0816670   9.8130327  58.7990336  39.7324423  11.6943642  65.8192548
  40.4047476  11.4861004  65.1705197  38.9054209  11.4965728  65.3797780
  53.9813684  18.4347692  65.3367881  54.1749574  19.3393503  65.5827156
  53.8814302  17.9755111  66.1706467  45.6349995   8.3205583  67.8358209
  44.9877910   9.0195533  67.7422685  46.4051010   8.7541727  68.2034457
  49.0428793  18.5854435  70.9108762  48.8914299  18.3564987  69.9938846
  49.0333472  19.5425037  70.9240107  45.8114129  16.1586348  65.8955029
  46.7406189  16.3097507  65.7223996  45.3905159  16.2470369  65.0403675
  44.6102461  20.1837012  63.6653566  44.4713546  19.8155797  64.5379504
  43.8217057  20.6984652  63.4937524  45.2050613  25.2846109  55.0079103
  45.3802368  24.8134152  55.8224725  44.5183401  25.9111875  55.2360363
  46.1607676  19.5618615  61.0542404  45.8257509  19.5219385  61.9500054
  45.6611622  18.8963331  60.5812814  40.1351920  14.9686245  66.5794985
  39.9971718  14.2366484  67.1806524  41.0456843  14.8795145  66.2979173
  49.0966868  16.9074649  51.3279464  48.4796038  16.1821478  51.2312516
  48.6283356  17.6684010  50.9846538  42.7634221  14.6806204  66.0678665
  43.4733839  14.0399397  66.0265283  42.7203529  14.9319099  66.9904846
  50.7520999  21.6173558  68.9885244  50.6933545  20.9332778  68.3215827
  51.1540518  22.3592548  68.5365870  41.4763155  11.6671422  67.8874304
  40.9400512  11.2162161  68.5395901  40.8879863  11.8017331  67.1444769
  39.7711698  28.4335472  61.7818963  40.0108296  29.0653996  62.4597981
  38.9280895  28.0823512  62.0684322  40.8865413  11.1260074  50.4500768
  40.0094880  11.0048874  50.0863015  41.3623167  10.3346152  50.1979657
  50.7538407  19.5813142  67.2199224  49.8665185  19.2439063  67.3425622
  51.3236958  18.8496173  67.4567989  32.4067554  15.9137233  60.5442275
  33.0938593  15.5998963  59.9563290  32.2515682  16.8178598  60.2709526
  37.2102276  10.8027430  64.9727299  37.1260465  10.1953099  64.2377709
  36.3884982  11.2936448  64.9736795  44.2839560  24.2414594  64.1860467
  44.2109731  25.0469565  64.6979771  43.8416953  24.4406560  63.3608488
  44.0729340  23.4786364  57.6963288  43.2896861  24.0208044  57.7901513
  44.7722085  23.9960344  58.0957530  47.3825990   9.2880993  60.3397494
  47.8794689   8.5350956  60.0198564  46.6112971   9.3245310  59.7740703
  55.2355747  14.9921359  61.9815785  55.2245623  15.8746074  61.6109718
  54.3673126  14.6392910  61.7870322  46.7438243  24.1401428  66.3418625
  47.4566216  24.7748893  66.2694527  46.2528272  24.2365294  65.5258627
  48.4655770  18.0452681  57.9135917  47.5312049  18.1654143  57.7440621
  48.6432439  17.1425147  57.6495927  43.9660958  11.4298376  60.0669178
  43.5958746  10.8769417  60.7550084  44.4620051  10.8256510  59.5144178
  51.8528322  13.8870000  58.4485951  52.3188774  14.7197992  58.3746254
  52.3035822  13.4214982  59.1531210  41.7950157  21.8895871  67.1624196
  42.4959616  22.5232354  67.3153591  41.3245272  22.2310603  66.4019836
  49.9204553  20.2313821  55.4472103  50.1964397  20.1170416  56.3565977
  49.0509052  19.8331306  55.4084276  49.8244984   6.2550587  62.4876853
  48.9108064   6.4854814  62.6559060  50.2538086   6.3389031  63.3390885
  49.5951443  14.4440479  64.9876747  48.9422893  14.6916386  64.3329199
  49.9731823  13.6304617  64.6539224  46.5558617  24.4800172  59.0904917
  46.7381011  23.6621828  59.5532669  47.3791603  24.6967864  58.6529807
  46.8900782  23.4068357  56.3519965  47.4188549  22.8960812  55.7390128
  47.1529002  23.0910887  57.2165498  45.6439016  15.1860290  71.4742784
  44.9679653  15.0854419  72.1445159  46.4666650  15.0299504  71.9378781
  37.3917875  21.4232227  64.0955299  37.9771312  20.6775914  64.2283203
  37.1942713  21.7336183  64.9791963  40.2456530  24.4583474  59.1117741
  39.5766906  24.9429602  58.6281781  40.1069400  24.7052694  60.0261120
  31.9835530  13.9937827  62.8159742  32.0219629  13.4601417  63.6096860
  31.4775823  13.4673032  62.1970719  44.3861799  26.4927217  65.7100400
  44.9380107  26.6558839  66.4749485  44.7267992  27.0831655  65.0380425
  39.3626292   8.8402367  66.3122284  39.4267619   9.7017198  65.8999682
  39.2993412   8.2276369  65.5794643  38.8378565  10.9125500  69.9595319
  39.4650603  10.5302577  70.5732843  37.9806483  10.6939702  70.3251011
  49.2372673  21.3188475  71.5649054  49.7812577  21.9318433  71.0704009
  48.6559518  21.8768053  72.0816067  35.6144107  12.7201929  55.8913674
  35.9097548  11.8112607  55.8380727  34.7132143  12.6989668  55.5694676
  47.5230186  24.4409193  62.6964082  47.3981326  23.6398933  62.1875027
  48.1809277  24.9355386  62.2078052  39.1438354  10.7957925  61.8741222
  38.4224940  11.4093893  61.7348695  39.9331610  11.3315690  61.7957868
  49.5865094  22.2418213  64.3243632  48.6395430  22.1223564  64.2521959
  49.9347868  21.3540711  64.4069893  41.9464668   8.1312352  68.1481874
  42.4699070   8.3774648  68.9108183  41.7277001   8.9632387  67.7285011
  37.3431949  10.4016027  56.0152999  37.0144655   9.5213405  55.8328105
  37.6971320  10.3463695  56.9029388  46.5911528  22.0370929  60.5247984
  46.4436490  21.1087637  60.7055554  47.4165021  22.0591020  60.0405059
  40.4573772  10.6888996  56.3828476  40.7969845  11.2174918  55.6607085
  40.9045893  11.0269402  57.1587043  50.1945650  22.8599488  61.6112857
  51.1192197  22.6542349  61.4737308  50.0260953  22.6115889  62.5202198
  43.1517213   9.0726047  65.8331544  42.8114033   8.2733860  66.2352224
  42.4456219   9.3727758  65.2608378  43.8033685   6.1575359  64.2858867
  44.6259754   5.6835838  64.1637758  44.0471748   6.9365843  64.7857554
  42.4441919   9.1863618  54.5821769  43.1650282   9.5644871  54.0785486
  41.8207223   9.9052495  54.6856747  46.5873042   9.8908767  55.5180101
  46.8036656  10.7733405  55.2168930  46.1067109   9.4994980  54.7885743
  41.3272263  12.8494480  62.0950846  41.1816844  13.1634783  62.9875128
  40.8497467  13.4679380  61.5421745  43.1868646   9.8397028  62.1431736
  43.1730215   8.9438121  61.8064034  43.9041074   9.8467692  62.7770022
  45.0394777  10.2734368  64.1884863  44.7812555  11.1951439  64.1869193
  44.5079817   9.8764803  64.8785327  49.9840966  23.3785155  56.9674948
  50.1577843  22.8131578  56.2148801  50.4769857  24.1786050  56.7854438
  35.8017926  15.3899825  65.0338507  35.2571394  16.1659632  65.1658782
  36.6797276  15.7370629  64.8757629  42.5905542   8.7211408  57.4119306
  42.7121453   7.7928055  57.6110193  42.3007585   8.7350094  56.4997621
  45.4596733   6.4066319  60.5486026  45.4818430   6.4705652  59.5938005
  45.8764792   5.5670827  60.7426532  55.8380357  16.1421578  58.5865248
  56.2811503  15.3928904  58.1884371  54.9606867  16.1331715  58.2038980
  50.9716138  22.6951920  54.0671847  51.6667043  23.3158613  54.2859161
  51.3139288  21.8447271  54.3424225  36.5883948  14.5169721  67.9268664
  35.8465684  14.6652356  68.5133295  36.2676692  14.7777986  67.0635414
  52.8707561  20.1451625  55.5959177  53.3958886  20.4838898  54.8708497
  52.7829914  19.2098641  55.4122312  44.5327610  24.0585699  67.7249054
  44.8414737  23.8134846  68.5971754  45.3303092  24.2632337  67.2367924
  44.5548222  26.2123609  59.9554431  44.1153212  25.7199987  60.6487287
  45.3056339  25.6696576  59.7146506  37.0340561  22.4035150  59.9579059
  37.8598581  22.1038921  59.5777702  36.6834613  21.6342772  60.4068847
  42.0022094  21.7561618  62.0276732  41.3802104  21.0932323  61.7278960
  42.6726961  21.7822750  61.3450380  35.2349166  20.3221476  60.9167992
  34.3981075  19.8943650  60.7351994  35.2072812  20.5153919  61.8538784
  42.0746622  10.2343406  71.6209238  42.1234777  11.1105529  71.2387008
  42.6169136   9.6920799  71.0480882  52.5601468  20.7784529  70.9010375
  51.7697011  20.7608668  70.3614875  52.3234822  21.3172823  71.6559412
  52.6799343  17.6276995  68.2143104  52.7297347  17.4627003  69.1558627
  52.5713266  16.7604254  67.8240985  41.5635601  20.3065541  55.5035193
  41.7123722  20.9901005  54.8501866  42.3702045  20.2870631  56.0184649
  49.9703105  13.6107923  69.5302411  50.8712968  13.4714388  69.2386408
  50.0451079  13.7762378  70.4700588  44.3045910  10.9874778  68.3755597
  43.4349220  11.2808344  68.1038186  44.5405391  11.5715223  69.0962861
  54.1817539  20.0473937  68.4585126  53.8902348  20.4103917  69.2948586
  53.5689671  19.3340945  68.2798458  55.3813222  17.6126817  60.9787696
  56.2160113  18.0516621  61.1425256  55.5172351  17.1365470  60.1595942
  52.4304728  15.1706552  66.9265183  52.9058849  15.3634198  66.1184035
  51.5070293  15.2265737  66.6808567  39.3188234  16.3330719  56.5096262
  39.0734276  15.4293049  56.7076472  39.4884149  16.3347869  55.5675740
  47.0084944   7.2054395  65.8921017  47.5266888   7.9415422  65.5667506
  46.6540077   7.5118388  66.7267777  38.5883882  12.0659076  54.0082423
  37.8953127  12.1403431  53.3522459  38.3435634  11.3019420  54.5303940
  47.2597538   3.6254678  61.4121914  47.5399292   2.9577867  62.0382341
  48.0448145   3.8183773  60.8996578  45.0631007  22.8013672  52.9746940
  44.4904974  23.4203859  52.5217412  45.6363800  23.3513033  53.5086862
  51.1306397  12.0472312  65.1593489  52.0823820  12.1470409  65.1805713
  50.9609847  11.2550580  65.6691573  49.1520776   9.1327895  65.3452890
  48.5570708   9.4132908  64.6499379  48.8670473   9.6221796  66.1169631
  48.2828267  23.0850822  54.1055523  49.2158940  23.0196383  54.3088398
  48.1951479  23.9207089  53.6470055  50.9116283  22.4016692  51.0659470
  50.8329915  22.0676556  51.9595228  51.7325950  22.8938460  51.0650942
  53.6094474  15.2678431  64.2735789  53.5770795  14.3294432  64.4595473
  54.2195098  15.3462468  63.5401614  45.4477805  14.1374484  50.3162993
  46.3936910  14.0080692  50.3851411  45.0692050  13.3989146  50.7932421
  53.7588963  12.0589475  64.3194072  53.2428012  11.2747931  64.1324001
  54.6428911  11.7308191  64.4840591  51.4199690   5.8030490  60.2789885
  51.2224511   5.4945578  61.1633217  52.0299395   6.5292129  60.4087814
  59.4271024  16.3294438  63.4141826  60.1574413  16.0679726  63.9749529
  58.8177970  15.5923160  63.4543894  57.5086321  14.4702301  64.0116277
  56.7819485  14.3358266  63.4032768  57.0933608  14.7779129  64.8172995
  45.3316498  18.1892230  71.7763650  46.2519507  18.3670829  71.9703696
  45.2966081  17.2448276  71.6243349  43.6320722  12.0624461  50.2517878
  42.7252178  11.7657573  50.3280592  43.9096703  11.7654279  49.3852164
  34.5498663  13.3830824  60.7016924  34.2301447  12.5296132  60.4091298
  34.0032091  13.5979402  61.4574892  38.3278570  16.0993265  64.4186431
  38.5464580  17.0310373  64.4374465  38.7404344  15.7401239  65.2041235
  45.2482788   6.6061350  56.4062119  44.4383516   6.2608435  56.7817365
  45.9367205   6.2968894  56.9949731  47.1773336   5.6839397  58.0286416
  47.7304375   6.1034851  58.6876439  47.4143423   4.7575145  58.0709372
  43.2006436  11.6726471  73.8089180  43.1003163  12.6220828  73.7401271
  42.9827978  11.3444710  72.9365250  42.4019507   8.9211396  50.3929857
  43.2638671   9.2466294  50.6525675  42.5869851   8.1342892  49.8802923
  34.4186923  17.0033736  62.6710046  33.7250394  16.5887688  62.1580000
  35.1659914  17.0454272  62.0743465  50.5552144   7.7939922  57.5365080
  49.9750813   8.4524726  57.1543133  50.2888076   6.9717267  57.1252498
  49.0055710   7.1944980  59.7386401  49.5055488   7.3061515  58.9300719
  49.6491318   6.8906033  60.3787209  43.0637706  15.1023610  72.6254242
  42.5804787  15.9023970  72.8318131  43.1498645  15.1131555  71.6721685
  36.3323665  16.9351989  60.5476061  36.3094353  17.0339677  59.5957944
  36.6424302  17.7817140  60.8693227  38.9911043  18.9928144  64.6622675
  39.9454297  18.9612087  64.5952607  38.7923567  18.5318768  65.4772901
  39.5810425  17.5629260  67.2293473  40.4003314  18.0573339  67.2528310
  39.8547233  16.6461229  67.2011040  49.3377022   9.9540013  56.5921428
  48.4502877  10.2389663  56.3741623  49.7531011   9.7933776  55.7448705
  52.6891558   9.9786534  60.3075768  53.4651948  10.4682986  60.5800385
  51.9639692  10.4044588  60.7647637  55.1264116  10.6914153  61.3649708
  55.7208607  10.4509889  60.6543017  55.1990700   9.9721283  61.9923245
  37.3461272  24.5347764  61.6792873  37.2115740  23.7748165  61.1130871
  36.9293334  25.2588664  61.2121662  48.4820235  19.7184687  50.6869448
  49.1856085  19.9234690  51.3027104  47.7582884  20.2861449  50.9518532
  49.3118045  15.4694549  56.8071719  49.2553247  15.9263100  55.9679351
  49.8646388  14.7085233  56.6294561  53.1222851  11.2584281  57.6321838
  52.8659785  10.8580916  58.4630046  52.4975719  11.9728074  57.5071977
  57.4335189  13.9980354  60.1393130  56.8734747  14.0673543  60.9124692
  56.8278692  13.8221338  59.4192626  40.5030398  25.4317081  61.8911316
  40.3862782  26.3762513  61.7890006  39.6822844  25.1290642  62.2797115
  50.3906932  20.1567217  52.7367909  51.2252536  19.7248415  52.5545383
  50.2291275  19.9849230  53.6644803  50.0452825  16.6599330  54.1024248
  49.9901628  16.4943601  53.1612692  49.4198880  17.3675363  54.2586438
  34.8345340  11.8967394  67.9285670  35.4804203  11.3866348  68.4172895
  34.6262491  12.6336076  68.5029095  47.3598732  18.9648242  73.4277811
  48.2289891  19.1388894  73.0664446  46.8805483  19.7842659  73.3053540
  43.3548950   6.1607439  53.6809566  43.3427620   7.1049279  53.8377837
  44.2472372   5.9777584  53.3869027  41.5284912  26.0845343  65.1067244
  42.4312159  26.1168953  65.4233739  41.3022282  25.1545794  65.1213580
  43.2838514  24.8376329  61.7677323  42.3334145  24.8378191  61.6541695
  43.5871000  24.0909064  61.2513357  47.1701070   2.7550216  57.9355503
  46.4033465   2.2008702  58.0812185  47.5811774   2.8272084  58.7969655
  39.1742831   9.0435011  72.0260684  40.0374292   8.6871816  72.2364009
  38.6008241   8.7048906  72.7136089  59.0191208  30.6736868  62.8323085
  59.6569617  30.5543615  62.1286425  58.9012050  31.6217712  62.8911037
  55.8280914  30.6264296  62.7684610  55.4899425  30.5105361  61.8805145
  56.6970682  30.2255461  62.7485616  51.6867729  32.4799772  58.7581501
  51.1232595  32.3889709  57.9897789  51.5720125  31.6599677  59.2383993
  56.3100697  31.7799148  68.7270815  56.2989338  31.3851946  67.8551319
  56.4721336  31.0465220  69.3204587  49.2332161  33.9750964  61.5965721
  50.0253453  33.6341788  61.1812021  49.4728812  34.0845939  62.5167875
  57.2667288  36.1470740  54.0695966  56.6155268  36.7324820  53.6829980
  58.0611651  36.6776935  54.1291003  51.1922915  33.2359877  54.4683100
  51.9653791  32.6888864  54.3295976  51.5448314  34.1004126  54.6797562
  53.0307958  34.5636259  67.6749999  52.7397824  35.4681890  67.5596666
  53.6664942  34.6052787  68.3894069  53.9564165  31.9413108  64.2651359
  54.5527737  31.7169130  63.5508322  54.0139136  31.1997853  64.8676807
  53.5289193  29.3952543  52.1001550  53.7814714  28.8734064  51.3385013
  52.5913752  29.2318689  52.2028234  58.5732476  28.3988322  59.9076293
  59.3595565  27.9807745  59.5566710  58.8371180  29.3034414  60.0757942
  58.7442553  33.8361172  54.6064950  58.1088386  33.9095798  55.3185855
  58.4139960  34.4254771  53.9284029  63.9740903  28.3363555  60.8109272
  64.7066075  27.7662772  61.0447101  63.2180259  27.9485155  61.2515777
  53.2485482  31.2980649  54.3025925  53.1321740  30.6225553  54.9707009
  53.3587742  30.8113023  53.4858078  55.5917023  30.7590796  58.0072614
  55.2275230  30.2321417  58.7185536  56.4484139  30.3689265  57.8339100
  61.4966323  22.0485129  65.2703880  61.1649648  22.9180540  65.0465095
  60.9011937  21.7321413  65.9497911  55.2322510  25.7880696  53.0033963
  55.3996912  26.6560932  53.3704434  55.0419679  25.9507978  52.0795252
  57.9897843  34.2497675  64.6699793  57.6898566  35.1522714  64.5615600
  57.6448903  33.9829858  65.5220946  51.4410324  30.7011472  60.7036498
  50.5160821  30.5687686  60.9114189  51.6894738  31.4805691  61.2006440
  61.3894987  26.7680215  62.3497230  60.4811864  26.6995623  62.0555991
  61.3382583  27.2452160  63.1779056  55.2111731  28.2438353  53.9880630
  55.0911356  28.6895404  54.8266110  54.5164319  28.5923671  53.4294168
  48.8019136  30.3444745  61.5380287  48.9311517  30.5979224  62.4519698
  48.1216587  30.9372453  61.2184942  52.9718623  41.0141995  57.6370761
  52.8942653  41.9649820  57.7159241  52.3680266  40.6687868  58.2945687
  55.4635853  28.1869861  70.2932128  54.6869187  28.7463781  70.2834992
  56.1026416  28.6726644  70.8146998  63.2556633  24.9696653  64.1275104
  62.6131013  25.2629187  63.4814899  62.7511562  24.8549574  64.9328301
  60.9096797  28.7159827  54.8160964  61.8214653  28.9487213  54.6408661
  60.4006444  29.2996871  54.2536042  53.7182225  30.9955314  69.8550095
  54.4596909  31.5340358  69.5784918  53.0119210  31.6221603  70.0121647
  59.1937565  33.1384454  68.4522256  59.6020921  32.6966865  67.7076889
  58.4714826  32.5637082  68.7056449  55.5468635  28.0757061  65.8255813
  56.3929830  28.4996475  65.9690462  55.4867272  27.4190686  66.5194376
  59.5166379  33.6985645  62.2074545  58.8875242  33.8631359  61.5050613
  59.1292041  34.1127255  62.9785509  63.3955611  34.6340083  59.5618909
  62.7106649  35.0138984  59.0115942  63.4799460  35.2435410  60.2950857
  58.6968080  25.7361430  67.4836987  58.4529012  26.4903490  66.9471262
  58.9728010  26.1146777  68.3184234  60.6506543  32.2800042  66.1614252
  60.8623438  32.9231802  65.4848633  60.6036291  31.4462359  65.6936182
  58.2532772  24.8917863  63.0650825  57.3917251  25.1899116  63.3567562
  58.2795206  25.1088262  62.1331857  55.0694341  33.4360053  59.4724630
  55.5332687  33.7147756  58.6829253  54.8051139  32.5343498  59.2897721
  51.9618422  32.9831535  62.4104393  52.5319779  33.4118803  61.7721878
  52.5526534  32.7014119  63.1088579  54.0063227  29.5583206  56.2814195
  54.7087270  30.0104249  56.7488122  53.6743856  28.9167024  56.9094088
  52.4543589  28.1494962  70.6565405  51.8242249  28.8311243  70.8900802
  52.3479677  28.0378044  69.7118543  47.7488561  27.8166758  61.5831329
  46.9587615  28.0724287  61.1071440  48.2399808  28.6315096  61.6883369
  61.7652371  35.1571997  64.3336610  62.5869814  34.7552185  64.0519291
  61.7614773  35.0540232  65.2852726  49.7003306  28.1811337  58.5414806
  48.9034470  28.2930032  59.0598301  49.4728899  28.5197990  57.6755696
  55.5308974  34.7056041  66.4897320  55.5953407  35.1676448  67.3255492
  54.8219898  34.0753406  66.6179630  46.0326264  28.0697249  64.0146320
  46.2834302  28.9544259  64.2803896  46.5685812  27.8901850  63.2421412
  55.2456992  36.3724148  56.3576301  55.1102667  37.2175684  56.7861148
  55.7866804  36.5743426  55.5942234  51.7324331  22.4515728  73.0190656
  51.3391277  21.8981927  73.6938300  52.5490472  22.7626306  73.4097173
  48.6986389  33.8899586  56.9304226  49.2110910  34.6842836  57.0809790
  49.3509102  33.1925877  56.8637827  50.5081274  37.0065342  59.0126979
  50.6847902  37.9283307  58.8247963  51.3038107  36.6923762  59.4421359
  54.6492292  23.8673607  70.6110912  55.3902006  24.4680760  70.5315375
  54.8810215  23.1251245  70.0528955  49.7933630  29.0529974  68.8889142
  49.6787145  28.1515232  69.1896241  48.9378148  29.2993671  68.5373959
  56.8725468  36.9947715  70.4876643  56.4289322  36.2084093  70.1697547
  57.5342682  37.1826865  69.8220533  58.9706706  37.2750515  68.5158044
  58.9525182  38.0959396  68.0238313  59.8926626  37.1504590  68.7408185
  55.4279760  34.7894644  69.3581552  55.9608097  34.0282932  69.1280860
  54.8993841  34.4968296  70.1005707  58.5949455  19.8954710  64.8875194
  58.2513725  20.7856352  64.8114305  58.9628418  19.7056368  64.0244779
  46.6635306  32.2188241  57.7063796  47.5010528  32.6285249  57.4897504
  46.8413574  31.2787683  57.6763990  58.5599738  29.8863321  53.3947629
  58.0446361  30.6567926  53.6336017  58.2877046  29.2128457  54.0180691
  56.1446849  24.7313022  58.4532868  55.2888445  24.3419872  58.2738506
  56.5573801  24.8104983  57.5932653  57.6745996  22.2659365  62.8524427
  57.1710791  22.2289500  62.0392233  57.9676603  23.1752108  62.9121084
  53.9188882  22.3498095  61.8590609  54.7841878  22.1540904  61.4996498
  53.9866390  22.1208447  62.7859966  58.3486041  27.7590413  55.2207410
  58.0436177  28.0736562  56.0717554  59.3016483  27.8371833  55.2634743
  56.7932473  33.9180637  56.8700364  56.2653835  33.1833396  56.5573602
  56.2919976  34.6955313  56.6240333  61.7725319  32.1129657  61.9867411
  61.1148993  32.8028918  62.0747539  62.5765718  32.5026089  62.3301397
  51.5251201  24.5800303  59.2306976  52.0994953  24.3575484  58.4980169
  52.1122183  24.6488997  59.9835577  60.5830778  30.4674030  60.0371352
  61.0962660  31.1004022  60.5393062  61.2332002  29.8675225  59.6714712
  51.8520788  26.6104764  53.2502861  51.0158100  26.9479450  53.5712136
  51.7125557  26.4753744  52.3129998  53.8273868  21.4541552  57.9582045
  53.1738281  21.1390569  57.3338660  53.7854342  20.8317292  58.6841868
  54.9385073  31.7360847  49.8735337  54.0312135  31.5050100  50.0726486
  55.4356105  30.9398466  50.0609319  57.8453152  40.4458354  52.7932023
  57.1714851  40.7490051  53.4016981  58.2318974  41.2487434  52.4437481
  57.0611609  27.9423485  62.2829693  56.1434170  28.1638432  62.1251381
  57.4771752  28.0169796  61.4241400  57.8446656  29.3414901  57.4132373
  58.5918475  29.8536298  57.1039495  58.1138246  29.0198954  58.2736767
  56.1173307  31.8373442  54.3959327  55.2084526  31.5532475  54.4931797
  56.1468390  32.2572520  53.5362634  61.3492574  35.4480031  58.1650495
  60.8954901  34.6070941  58.2215685  60.7186541  36.0841430  58.5025275
  60.2925494  26.3772017  59.3951162  59.5548250  25.8649403  59.7261405
  60.5452267  25.9372399  58.5834439  59.7925513  37.2856528  59.1000313
  60.0848488  37.8461585  58.3812679  60.3024134  37.5785089  59.8553472
  60.3937121  19.1548269  59.9892932  60.6995998  18.2945633  59.7018847
  61.1189726  19.7465889  59.7891926  46.6861477  29.5578956  58.3774530
  46.4885877  28.9648317  57.6525596  46.1308141  29.2531166  59.0950468
  54.6658201  29.4502062  60.4969123  54.7206810  28.4975899  60.4211599
  53.8549403  29.6061501  60.9810421  55.8149394  33.3782185  51.7347406
  55.3768824  32.6618044  51.2753043  56.5559835  33.6058300  51.1732497
  52.6050561  28.0679122  58.2559502  51.7918426  28.3673293  58.6624694
  53.1009555  27.6734811  58.9733984  54.7559138  38.0636879  60.1893766
  54.7135317  38.2897725  59.2602298  55.6721837  37.8300254  60.3379567
  58.2024772  28.5320947  67.0874396  58.5574160  28.7592420  67.9468861
  58.8496904  28.8639323  66.4651651  52.0964635  25.6397478  63.8720737
  52.7364015  25.4986237  63.1743700  51.2642166  25.3531991  63.4959339
  52.8724939  34.9399908  59.9855729  53.6665538  34.4450228  59.7838304
  52.1616632  34.4117771  59.6223435  57.6919784  37.3218004  64.3368097
  57.7456806  37.8908940  65.1045813  56.8234565  37.4919889  63.9722134
  49.1807703  29.0842990  56.0615482  48.2505291  29.0227445  56.2785444
  49.2765175  28.5618942  55.2652123  49.0993252  25.6097803  58.6493723
  49.3600069  26.5243136  58.5402884  49.9210424  25.1422245  58.7990336
  50.5718177  27.0235560  65.8192548  51.2441231  26.8152922  65.1705197
  49.7447964  26.8257646  65.3797780  56.4743749  23.6497501  67.8358209
  55.8271664  24.3487450  67.7422685  57.2444765  24.0833645  68.2034457
  59.8822547  33.9146353  70.9108762  59.7308053  33.6856905  69.9938846
  59.8727227  34.8716954  70.9240107  56.6507883  31.4878266  65.8955029
  57.5799943  31.6389425  65.7223996  56.2298914  31.5762286  65.0403675
  55.4496215  35.5128930  63.6653566  55.3107301  35.1447714  64.5379504
  54.6610812  36.0276569  63.4937524  56.0444367  40.6138026  55.0079103
  56.2196123  40.1426070  55.8224725  55.3577155  41.2403793  55.2360363
  57.0001430  34.8910533  61.0542404  56.6651263  34.8511303  61.9500054
  56.5005376  34.2255249  60.5812814  50.9745674  30.2978163  66.5794985
  50.8365472  29.5658402  67.1806524  51.8850598  30.2087063  66.2979173
  59.9360622  32.2366567  51.3279464  59.3189793  31.5113395  51.2312516
  59.4677111  32.9975927  50.9846538  53.6027975  30.0098122  66.0678665
  54.3127594  29.3691314  66.0265283  53.5597283  30.2611017  66.9904846
  61.5914754  36.9465475  68.9885244  61.5327300  36.2624695  68.3215827
  61.9934272  37.6884465  68.5365870  52.3156909  26.9963340  67.8874304
  51.7794266  26.5454078  68.5395901  51.7273617  27.1309249  67.1444769
  51.7259168  26.4551991  50.4500768  50.8488634  26.3340792  50.0863015
  52.2016921  25.6638070  50.1979657  61.5932161  34.9105059  67.2199224
  60.7058940  34.5730981  67.3425622  62.1630712  34.1788091  67.4567989
  43.2461308  31.2429151  60.5442275  43.9332348  30.9290881  59.9563290
  43.0909437  32.1470516  60.2709526  48.0496030  26.1319348  64.9727299
  47.9654219  25.5245017  64.2377709  47.2278737  26.6228366  64.9736795
  54.9123094  38.8078282  57.6963288  54.1290616  39.3499962  57.7901513
  55.6115839  39.3252261  58.0957530  58.2219744  24.6172911  60.3397494
  58.7188444  23.8642873  60.0198564  57.4506726  24.6537228  59.7740703
  59.3049525  33.3744598  57.9135917  58.3705804  33.4946061  57.7440621
  59.4826193  32.4717065  57.6495927  54.8054713  26.7590294  60.0669178
  54.4352500  26.2061335  60.7550084  55.3013805  26.1548428  59.5144178
  60.6638739  21.5842505  62.4876853  59.7501819  21.8146731  62.6559060
  61.0931840  21.6680949  63.3390885  60.4345197  29.7732397  64.9876747
  59.7816648  30.0208304  64.3329199  60.8125577  28.9596535  64.6539224
  57.3952371  39.8092090  59.0904917  57.5774766  38.9913746  59.5532669
  58.2185357  40.0259782  58.6529807  57.7294537  38.7360275  56.3519965
  58.2582303  38.2252729  55.7390128  57.9922756  38.4202805  57.2165498
  56.4832770  30.5152208  71.4742784  55.8073407  30.4146337  72.1445159
  57.3060404  30.3591421  71.9378781  48.2311630  36.7524144  64.0955299
  48.8165066  36.0067832  64.2283203  48.0336468  37.0628101  64.9791963
  51.0850285  39.7875392  59.1117741  50.4160660  40.2721519  58.6281781
  50.9463154  40.0344612  60.0261120  42.8229284  29.3229744  62.8159742
  42.8613384  28.7893335  63.6096860  42.3169577  28.7964950  62.1970719
  50.2020047  24.1694285  66.3122284  50.2661373  25.0309116  65.8999682
  50.1387167  23.5568287  65.5794643  49.6772319  26.2417417  69.9595319
  50.3044358  25.8594495  70.5732843  48.8200238  26.0231619  70.3251011
  60.0766428  36.6480393  71.5649054  60.6206332  37.2610351  71.0704009
  59.4953272  37.2059971  72.0816067  46.4537862  28.0493847  55.8913674
  46.7491303  27.1404525  55.8380727  45.5525898  28.0281586  55.5694676
  58.3623941  39.7701111  62.6964082  58.2375080  38.9690850  62.1875027
  59.0203032  40.2647304  62.2078052  49.9832109  26.1249843  61.8741222
  49.2618695  26.7385811  61.7348695  50.7725365  26.6607608  61.7957868
  60.4258849  37.5710131  64.3243632  59.4789185  37.4515482  64.2521959
  60.7741622  36.6832629  64.4069893  52.7858422  23.4604270  68.1481874
  53.3092824  23.7066566  68.9108183  52.5670756  24.2924304  67.7285011
  48.1825703  25.7307944  56.0152999  47.8538410  24.8505323  55.8328105
  48.5365074  25.6755613  56.9029388  57.4305282  37.3662847  60.5247984
  57.2830245  36.4379554  60.7055554  58.2558776  37.3882938  60.0405059
  51.2967527  26.0180914  56.3828476  51.6363599  26.5466835  55.6607085
  51.7439647  26.3561320  57.1587043  61.0339404  38.1891406  61.6112857
  61.9585952  37.9834267  61.4737308  60.8654707  37.9407807  62.5202198
  53.9910967  24.4017965  65.8331544  53.6507788  23.6025778  66.2352224
  53.2849974  24.7019676  65.2608378  54.6427439  21.4867277  64.2858867
  55.4653509  21.0127755  64.1637758  54.8865503  22.2657761  64.7857554
  53.2835674  24.5155536  54.5821769  54.0044036  24.8936788  54.0785486
  52.6600978  25.2344412  54.6856747  57.4266797  25.2200685  55.5180101
  57.6430411  26.1025322  55.2168930  56.9460864  24.8286898  54.7885743
  52.1666018  28.1786398  62.0950846  52.0210599  28.4926701  62.9875128
  51.6891222  28.7971298  61.5421745  54.0262401  25.1688946  62.1431736
  54.0123970  24.2730039  61.8064034  54.7434829  25.1759610  62.7770022
  55.8788532  25.6026286  64.1884863  55.6206309  26.5243357  64.1869193
  55.3473572  25.2056721  64.8785327  60.8234720  38.7077073  56.9674948
  60.9971598  38.1423496  56.2148801  61.3163612  39.5077968  56.7854438
  46.6411680  30.7191742  65.0338507  46.0965148  31.4951550  65.1658782
  47.5191030  31.0662547  64.8757629  53.4299297  24.0503326  57.4119306
  53.5515208  23.1219972  57.6110193  53.1401339  24.0642012  56.4997621
  56.2990487  21.7358237  60.5486026  56.3212184  21.7997570  59.5938005
  56.7158546  20.8962745  60.7426532  61.8109893  38.0243838  54.0671847
  62.5060797  38.6450530  54.2859161  62.1533043  37.1739189  54.3424225
  47.4277702  29.8461638  67.9268664  46.6859438  29.9944274  68.5133295
  47.1070446  30.1069904  67.0635414  55.3941977  41.5415526  59.9554431
  54.9546967  41.0491905  60.6487287  56.1450094  40.9988494  59.7146506
  47.8734316  37.7327067  59.9579059  48.6992336  37.4330839  59.5777702
  47.5228368  36.9634690  60.4068847  46.0742921  35.6513394  60.9167992
  45.2374829  35.2235568  60.7351994  46.0466566  35.8445837  61.8538784
  52.9140376  25.5635323  71.6209238  52.9628532  26.4397446  71.2387008
  53.4562891  25.0212716  71.0480882  52.4029356  35.6357459  55.5035193
  52.5517476  36.3192923  54.8501866  53.2095799  35.6162549  56.0184649
  60.8096859  28.9399841  69.5302411  61.7106722  28.8006306  69.2386408
  60.8844834  29.1054296  70.4700588  55.1439665  26.3166696  68.3755597
  54.2742974  26.6100262  68.1038186  55.3799145  26.9007141  69.0962861
  63.2698482  30.4998469  66.9265183  63.7452604  30.6926116  66.1184035
  62.3464047  30.5557655  66.6808567  50.1581989  31.6622636  56.5096262
  49.9128031  30.7584966  56.7076472  50.3277903  31.6639787  55.5675740
  57.8478699  22.5346313  65.8921017  58.3660642  23.2707340  65.5667506
  57.4933831  22.8410306  66.7267777  49.4277636  27.3950994  54.0082423
  48.7346881  27.4695349  53.3522459  49.1829388  26.6311338  54.5303940
  58.0991293  18.9546595  61.4121914  58.3793047  18.2869784  62.0382341
  58.8841900  19.1475691  60.8996578  55.9024761  38.1305589  52.9746940
  55.3298728  38.7495776  52.5217412  56.4757555  38.6804951  53.5086862
  61.9700151  27.3764229  65.1593489  62.9217574  27.4762327  65.1805713
  61.8003602  26.5842498  65.6691573  59.9914531  24.4619813  65.3452890
  59.3964463  24.7424825  64.6499379  59.7064227  24.9513713  66.1169631
  59.1222021  38.4142739  54.1055523  60.0552694  38.3488301  54.3088398
  59.0345234  39.2499006  53.6470055  61.7510038  37.7308610  51.0659470
  61.6723669  37.3968473  51.9595228  62.5719705  38.2230378  51.0650942
  64.4488229  30.5970349  64.2735789  64.4164549  29.6586350  64.4595473
  65.0588853  30.6754386  63.5401614  56.2871560  29.4666402  50.3162993
  57.2330664  29.3372610  50.3851411  55.9085805  28.7281064  50.7932421
  64.5982717  27.3881392  64.3194072  64.0821766  26.6039849  64.1324001
  65.4822666  27.0600109  64.4840591  62.2593444  21.1322408  60.2789885
  62.0618265  20.8237496  61.1633217  62.8693150  21.8584047  60.4087814
  56.1710252  33.5184148  71.7763650  57.0913262  33.6962747  71.9703696
  56.1359835  32.5740193  71.6243349  54.4714477  27.3916378  50.2517878
  53.5645932  27.0949491  50.3280592  54.7490458  27.0946196  49.3852164
  45.3892417  28.7122742  60.7016924  45.0695202  27.8588050  60.4091298
  44.8425845  28.9271320  61.4574892  49.1672325  31.4285183  64.4186431
  49.3858335  32.3602291  64.4374465  49.5798099  31.0693157  65.2041235
  56.0876543  21.9353268  56.4062119  55.2777271  21.5900353  56.7817365
  56.7760960  21.6260812  56.9949731  58.0167091  21.0131315  58.0286416
  58.5698130  21.4326768  58.6876439  58.2537177  20.0867063  58.0709372
  54.0400190  27.0018389  73.8089180  53.9396917  27.9512745  73.7401271
  53.8221732  26.6736627  72.9365250  53.2413262  24.2503314  50.3929857
  54.1032426  24.5758212  50.6525675  53.4263606  23.4634809  49.8802923
  45.2580677  32.3325653  62.6710046  44.5644149  31.9179606  62.1580000
  46.0053668  32.3746190  62.0743465  61.3945898  23.1231840  57.5365080
  60.8144567  23.7816644  57.1543133  61.1281831  22.3009185  57.1252498
  59.8449464  22.5236898  59.7386401  60.3449243  22.6353432  58.9300719
  60.4885072  22.2197951  60.3787209  53.9031460  30.4315527  72.6254242
  53.4198542  31.2315887  72.8318131  53.9892399  30.4423472  71.6721685
  47.1717420  32.2643907  60.5476061  47.1488108  32.3631594  59.5957944
  47.4818056  33.1109058  60.8693227  49.8304798  34.3220062  64.6622675
  50.7848051  34.2904004  64.5952607  49.6317321  33.8610686  65.4772901
  50.4204180  32.8921178  67.2293473  51.2397069  33.3865257  67.2528310
  50.6940988  31.9753146  67.2011040  60.1770776  25.2831930  56.5921428
  59.2896631  25.5681581  56.3741623  60.5924765  25.1225694  55.7448705
  63.5285312  25.3078451  60.3075768  64.3045702  25.7974904  60.5800385
  62.8033446  25.7336506  60.7647637  65.9657871  26.0206071  61.3649708
  66.5602362  25.7801807  60.6543017  66.0384455  25.3013201  61.9923245
  48.1855027  39.8639682  61.6792873  48.0509494  39.1040082  61.1130871
  47.7687089  40.5880581  61.2121662  59.3213990  35.0476605  50.6869448
  60.0249840  35.2526608  51.3027104  58.5976638  35.6153367  50.9518532
  60.1511800  30.7986466  56.8071719  60.0947001  31.2555018  55.9679351
  60.7040142  30.0377151  56.6294561  63.9616606  26.5876198  57.6321838
  63.7053540  26.1872834  58.4630046  63.3369474  27.3019992  57.5071977
  45.6739094  27.2259312  67.9285670  46.3197958  26.7158266  68.4172895
  45.4656245  27.9627994  68.5029095  58.1992486  34.2940159  73.4277811
  59.0683646  34.4680812  73.0664446  57.7199238  35.1134576  73.3053540
  54.1942705  21.4899357  53.6809566  54.1821374  22.4341197  53.8377837
  55.0866126  21.3069502  53.3869027  58.0094824  18.0842133  57.9355503
  57.2427220  17.5300620  58.0812185  58.4205529  18.1564002  58.7969655
  50.0136585  24.3726929  72.0260684  50.8768047  24.0163734  72.2364009
  49.4401996  24.0340824  72.7136089  62.0316670  48.5651795  54.4683100
  62.8047546  48.0180782  54.3295976  62.3842069  49.4296044  54.6797562
  64.3682948  44.7244461  52.1001550  64.6208468  44.2025982  51.3385013
  63.4307507  44.5610606  52.2028234  64.0879236  46.6272567  54.3025925
  63.9715495  45.9517470  54.9707009  64.1981496  46.1404941  53.4858078
  64.8456982  44.8875123  56.2814195  65.5481025  45.3396167  56.7488122
  64.5137610  44.2458942  56.9094088  60.5397061  43.5103255  58.5414806
  59.7428224  43.6221949  59.0598301  60.3122653  43.8489907  57.6755696
  62.5718086  37.7807646  73.0190656  62.1785031  37.2273844  73.6938300
  63.3884226  38.0918224  73.4097173  62.3644955  39.9092221  59.2306976
  62.9388707  39.6867402  58.4980169  62.9515938  39.9780915  59.9835577
  63.4444315  43.3971040  58.2559502  62.6312181  43.6965210  58.6624694
  63.9403309  43.0026728  58.9733984  60.0201457  44.4134907  56.0615482
  59.0899045  44.3519363  56.2785444  60.1158929  43.8910860  55.2652123
  59.9387006  40.9389720  58.6493723  60.1993824  41.8535053  58.5402884
  60.7604179  40.4714163  58.7990336  70.7216302  49.2438270  70.9108762
  70.5701808  49.0148822  69.9938846  70.7120981  50.2008872  70.9240107
  66.8838122  55.9429944  55.0079103  67.0589877  55.4717987  55.8224725
  66.1970910  56.5695710  55.2360363  65.6448467  42.0882212  60.0669178
  65.2746255  41.5353252  60.7550084  66.1407560  41.4840345  59.5144178
  61.0413801  39.4986203  66.3122284  61.1055128  40.3601033  65.8999682
  60.9780921  38.8860204  65.5794643  57.2931616  43.3785764  55.8913674
  57.5885057  42.4696443  55.8380727  56.3919652  43.3573504  55.5694676
  63.6252177  38.7896187  68.1481874  64.1486579  39.0358484  68.9108183
  63.4064510  39.6216222  67.7285011  59.0219458  41.0599862  56.0152999
  58.6932164  40.1797241  55.8328105  59.3758829  41.0047531  56.9029388
  62.1361281  41.3472832  56.3828476  62.4757354  41.8758753  55.6607085
  62.5833402  41.6853238  57.1587043  64.8304722  39.7309882  65.8331544
  64.4901542  38.9317695  66.2352224  64.1243728  40.0311593  65.2608378
  64.8656155  40.4980863  62.1431736  64.8517724  39.6021957  61.8064034
  65.5828583  40.5051527  62.7770022  64.2693051  39.3795244  57.4119306
  64.3908962  38.4511890  57.6110193  63.9795094  39.3933930  56.4997621
  63.7534131  40.8927241  71.6209238  63.8022286  41.7689364  71.2387008
  64.2956645  40.3504634  71.0480882  71.6490614  44.2691759  69.5302411
  72.5500477  44.1298224  69.2386408  71.7238588  44.4346214  70.4700588
  60.2671391  42.7242912  54.0082423  59.5740636  42.7987267  53.3522459
  60.0223143  41.9603255  54.5303940  64.8793945  42.3310306  73.8089180
  64.7790672  43.2804663  73.7401271  64.6615487  42.0028545  72.9365250
  60.8530340  39.7018847  72.0260684  61.7161801  39.3455652  72.2364009
  60.2795750  39.3632742  72.7136089  73.4111840  53.1099563  73.0190656
  73.0178786  52.5565762  73.6938300  74.2277981  53.4210142  73.4097173
  72.2892962  74.4211225  61.7818963  72.5289560  75.0529749  62.4597981
  71.4462158  74.0699265  62.0684322  91.5372471  76.6612621  62.8323085
  92.1750881  76.5419368  62.1286425  91.4193314  77.6093465  62.8911037
  88.3462177  76.6140049  62.7684610  88.0080689  76.4981114  61.8805145
  89.2151945  76.2131214  62.7485616  84.2048993  78.4675525  58.7581501
  83.6413858  78.3765462  57.9897789  84.0901388  77.6475430  59.2383993
  88.8281960  77.7674901  68.7270815  88.8170601  77.3727699  67.8551319
  88.9902600  77.0340973  69.3204587  81.7513425  79.9626717  61.5965721
  82.5434717  79.6217542  61.1812021  81.9910075  80.0721692  62.5167875
  89.7848552  82.1346493  54.0695966  89.1336531  82.7200573  53.6829980
  90.5792914  82.6652688  54.1291003  83.7104179  79.2235630  54.4683100
  84.4835055  78.6764617  54.3295976  84.0629578  80.0879879  54.6797562
  85.5489221  80.5512012  67.6749999  85.2579087  81.4557643  67.5596666
  86.1846206  80.5928540  68.3894069  86.4745428  77.9288861  64.2651359
  87.0709001  77.7044883  63.5508322  86.5320400  77.1873606  64.8676807
  86.0470457  75.3828296  52.1001550  86.2995977  74.8609818  51.3385013
  85.1095016  75.2194442  52.2028234  91.0913739  74.3864075  59.9076293
  91.8776829  73.9683498  59.5566710  91.3552444  75.2910167  60.0757942
  91.2623817  79.8236925  54.6064950  90.6269650  79.8971551  55.3185855
  90.9321223  80.4130524  53.9284029  96.4922167  74.3239308  60.8109272
  97.2247339  73.7538525  61.0447101  95.7361522  73.9360908  61.2515777
  85.7666745  77.2856402  54.3025925  85.6503003  76.6101306  54.9707009
  85.8769005  76.7988776  53.4858078  88.1098286  76.7466549  58.0072614
  87.7456494  76.2197170  58.7185536  88.9665402  76.3565018  57.8339100
  90.5079106  80.2373428  64.6699793  90.2079830  81.1398467  64.5615600
  90.1630166  79.9705611  65.5220946  83.9591588  76.6887225  60.7036498
  83.0342084  76.5563439  60.9114189  84.2076001  77.4681444  61.2006440
  93.9076250  72.7555968  62.3497230  92.9993128  72.6871377  62.0555991
  93.8563846  73.2327913  63.1779056  87.7292994  74.2314106  53.9880630
  87.6092619  74.6771157  54.8266110  87.0345583  74.5799424  53.4294168
  81.3200399  76.3320498  61.5380287  81.4492780  76.5854977  62.4519698
  80.6397850  76.9248206  61.2184942  85.4899886  87.0017748  57.6370761
  85.4123916  87.9525573  57.7159241  84.8861530  86.6563621  58.2945687
  87.9817116  74.1745614  70.2932128  87.2050450  74.7339534  70.2834992
  88.6207679  74.6602397  70.8146998  95.7737897  70.9572406  64.1275104
  95.1312277  71.2504940  63.4814899  95.2692825  70.8425327  64.9328301
  93.4278060  74.7035580  54.8160964  94.3395916  74.9362966  54.6408661
  92.9187707  75.2872624  54.2536042  86.2363488  76.9831067  69.8550095
  86.9778173  77.5216111  69.5784918  85.5300474  77.6097356  70.0121647
  91.7118828  79.1260207  68.4522256  92.1202184  78.6842618  67.7076889
  90.9896090  78.5512835  68.7056449  88.0649898  74.0632814  65.8255813
  88.9111093  74.4872228  65.9690462  88.0048536  73.4066439  66.5194376
  92.0347643  79.6861398  62.2074545  91.4056505  79.8507112  61.5050613
  91.6473305  80.1003008  62.9785509  95.9136875  80.6215836  59.5618909
  95.2287913  81.0014737  59.0115942  95.9980724  81.2311163  60.2950857
  91.2149343  71.7237183  67.4836987  90.9710275  72.4779243  66.9471262
  91.4909274  72.1022530  68.3184234  93.1687806  78.2675795  66.1614252
  93.3804701  78.9107555  65.4848633  93.1217554  77.4338112  65.6936182
  90.7714035  70.8793616  63.0650825  89.9098514  71.1774869  63.3567562
  90.7976470  71.0964015  62.1331857  87.5875605  79.4235806  59.4724630
  88.0513950  79.7023509  58.6829253  87.3232403  78.5219251  59.2897721
  84.4799686  78.9707288  62.4104393  85.0501043  79.3994556  61.7721878
  85.0707797  78.6889872  63.1088579  86.5244491  75.5458959  56.2814195
  87.2268534  75.9980002  56.7488122  86.1925119  74.9042777  56.9094088
  84.9724852  74.1370715  70.6565405  84.3423513  74.8186996  70.8900802
  84.8660940  74.0253797  69.7118543  80.2669825  73.8042511  61.5831329
  79.4768879  74.0600040  61.1071440  80.7581072  74.6190849  61.6883369
  94.2833634  81.1447750  64.3336610  95.1051078  80.7427938  64.0519291
  94.2796037  81.0415985  65.2852726  88.0490238  80.6931794  66.4897320
  88.1134670  81.1552201  67.3255492  87.3401161  80.0629159  66.6179630
  78.5507528  74.0573002  64.0146320  78.8015566  74.9420012  64.2803896
  79.0867076  73.8777603  63.2421412 102.3739627  77.4886499  60.6821581
 101.6203336  76.9193897  60.5265586 102.5087168  77.4549163  61.6292216
  87.7638255  82.3599901  56.3576301  87.6283930  83.2051437  56.7861148
  88.3048068  82.5619179  55.5942234  84.2505595  68.4391481  73.0190656
  83.8572540  67.8857680  73.6938300  85.0671735  68.7502060  73.4097173
  83.0262537  82.9941096  59.0126979  83.2029166  83.9159060  58.8247963
  83.8219371  82.6799515  59.4421359  82.3114894  75.0405727  68.8889142
  82.1968409  74.1390985  69.1896241  81.4559412  75.2869424  68.5373959
  89.3906732  82.9823468  70.4876643  88.9470586  82.1959846  70.1697547
  90.0523945  83.1702618  69.8220533  84.1493853  84.5119269  65.0137321
  84.7001278  84.3836333  64.2414315  83.3105329  84.8114158  64.6632214
  91.4887970  83.2626268  68.5158044  91.4706445  84.0835149  68.0238313
  92.4107890  83.1380343  68.7408185  87.9461024  80.7770397  69.3581552
  88.4789361  80.0158685  69.1280860  87.4175105  80.4844049  70.1005707
  91.0781001  75.8739074  53.3947629  90.5627625  76.6443679  53.6336017
  90.8058310  75.2004210  54.0180691  88.6628113  70.7188775  58.4532868
  87.8069709  70.3295625  58.2738506  89.0755064  70.7980736  57.5932653
  96.0515276  78.6271429  55.3300803  95.2744718  78.2882588  54.8855965
  96.7306757  78.6324052  54.6555768  90.8667305  73.7466166  55.2207410
  90.5617440  74.0612315  56.0717554  91.8197747  73.8247586  55.2634743
  89.3113737  79.9056390  56.8700364  88.7835098  79.1709149  56.5573602
  88.8101239  80.6831066  56.6240333  94.2906583  78.1005410  61.9867411
  93.6330257  78.7904671  62.0747539  95.0946982  78.4901842  62.3301397
  93.1012041  76.4549783  60.0371352  93.6143923  77.0879775  60.5393062
  93.7513265  75.8550978  59.6714712  87.4566337  77.7236600  49.8735337
  86.5493398  77.4925853  50.0726486  87.9537369  76.9274219  50.0609319
  90.3634416  86.4334107  52.7932023  89.6896114  86.7365804  53.4016981
  90.7500238  87.2363187  52.4437481  89.5792872  73.9299238  62.2829693
  88.6615434  74.1514185  62.1251381  89.9953016  74.0045549  61.4241400
  90.3627920  75.3290654  57.4132373  91.1099739  75.8412051  57.1039495
  90.6319509  75.0074707  58.2736767  88.6354570  77.8249195  54.3959327
  87.7265789  77.5408228  54.4931797  88.6649654  78.2448273  53.5362634
  93.8673838  81.4355784  58.1650495  93.4136165  80.5946694  58.2215685
  93.2367804  82.0717183  58.5025275  92.8106757  72.3647770  59.3951162
  92.0729514  71.8525156  59.7261405  93.0633531  71.9248152  58.5834439
  92.3106777  83.2732281  59.1000313  92.6029751  83.8337338  58.3812679
  92.8205397  83.5660842  59.8553472  87.1839464  75.4377815  60.4969123
  87.2388074  74.4851652  60.4211599  86.3730666  75.5937254  60.9810421
  88.3330658  79.3657938  51.7347406  87.8950088  78.6493797  51.2753043
  89.0741099  79.5934053  51.1732497  85.1231824  74.0554875  58.2559502
  84.3099690  74.3549046  58.6624694  85.6190818  73.6610564  58.9733984
  87.2740402  84.0512632  60.1893766  87.2316581  84.2773478  59.2602298
  88.1903101  83.8176007  60.3379567  90.7206036  74.5196700  67.0874396
  91.0755423  74.7468173  67.9468861  91.3678167  74.8515076  66.4651651
  96.4503773  77.6415135  57.7923725  96.3121671  77.8316731  56.8644914
  96.0939992  78.4034518  58.2491776  84.6145899  71.6273231  63.8720737
  85.2545278  71.4861990  63.1743700  83.7823429  71.3407744  63.4959339
  96.4773152  79.7091662  62.8034996  96.9109659  79.6166952  63.6518050
  97.1904733  79.6849163  62.1655012  85.3906203  80.9275661  59.9855729
  86.1846801  80.4325981  59.7838304  84.6797895  80.3993524  59.6223435
  90.2101047  83.3093757  64.3368097  90.2638070  83.8784693  65.1045813
  89.3415829  83.4795642  63.9722134  83.0899441  73.0111313  65.8192548
  83.7622494  72.8028675  65.1705197  82.2629227  72.8133399  65.3797780
  97.3388702  79.7515363  65.3367881  97.5324592  80.6561174  65.5827156
  97.2389320  79.2922782  66.1706467  92.4003811  79.9022106  70.9108762
  92.2489317  79.6732658  69.9938846  92.3908490  80.8592707  70.9240107
  89.1689147  77.4754019  65.8955029  90.0981207  77.6265178  65.7223996
  88.7480177  77.5638039  65.0403675  87.9677479  81.5004683  63.6653566
  87.8288564  81.1323467  64.5379504  87.1792075  82.0152322  63.4937524
  88.5625631  86.6013779  55.0079103  88.7377386  86.1301823  55.8224725
  87.8758419  87.2279546  55.2360363  89.5182694  80.8786286  61.0542404
  89.1832526  80.8387056  61.9500054  89.0186640  80.2131002  60.5812814
  83.4926938  76.2853916  66.5794985  83.3546736  75.5534155  67.1806524
  84.4031861  76.1962816  66.2979173  92.4541886  78.2242320  51.3279464
  91.8371056  77.4989148  51.2312516  91.9858374  78.9851680  50.9846538
  86.1209239  75.9973875  66.0678665  86.8308857  75.3567067  66.0265283
  86.0778547  76.2486770  66.9904846  94.1096017  82.9341228  68.9885244
  94.0508563  82.2500449  68.3215827  94.5115536  83.6760218  68.5365870
  84.8338172  72.9839093  67.8874304  84.2975530  72.5329831  68.5395901
  84.2454881  73.1185002  67.1444769  83.1286716  89.7503142  61.7818963
  83.3683314  90.3821666  62.4597981  82.2855912  89.3991182  62.0684322
  94.1113424  80.8980812  67.2199224  93.2240203  80.5606734  67.3425622
  94.6811976  80.1663844  67.4567989  75.7642572  77.2304904  60.5442275
  76.4513611  76.9166634  59.9563290  75.6090700  78.1346269  60.2709526
  87.6414578  85.5582265  64.1860467  87.5684749  86.3637236  64.6979771
  87.1991971  85.7574231  63.3608488  87.4304357  84.7954035  57.6963288
  86.6471879  85.3375715  57.7901513  88.1297103  85.3128014  58.0957530
  90.7401008  70.6048664  60.3397494  91.2369707  69.8518626  60.0198564
  89.9687989  70.6412981  59.7740703  98.5930765  76.3089030  61.9815785
  98.5820641  77.1913745  61.6109718  97.7248144  75.9560581  61.7870322
  90.1013261  85.4569099  66.3418625  90.8141234  86.0916564  66.2694527
  89.6103290  85.5532965  65.5258627  91.8230788  79.3620351  57.9135917
  90.8887067  79.4821814  57.7440621  92.0007457  78.4592818  57.6495927
  87.3235976  72.7466047  60.0669178  86.9533764  72.1937088  60.7550084
  87.8195069  72.1424181  59.5144178  95.2103340  75.2037671  58.4485951
  95.6763792  76.0365662  58.3746254  95.6610840  74.7382652  59.1531210
  85.1525175  83.2063542  67.1624196  85.8534634  83.8400025  67.3153591
  84.6820290  83.5478274  66.4019836  93.2779571  81.5481492  55.4472103
  93.5539415  81.4338087  56.3565977  92.4084069  81.1498977  55.4084276
  92.9526461  75.7608150  64.9876747  92.2997911  76.0084057  64.3329199
  93.3306841  74.9472288  64.6539224  89.9133635  85.7967843  59.0904917
  90.0956029  84.9789499  59.5532669  90.7366621  86.0135535  58.6529807
  90.2475800  84.7236028  56.3519965  90.7763567  84.2128483  55.7390128
  90.5104020  84.4078558  57.2165498  89.0014034  76.5027961  71.4742784
  88.3254671  76.4022090  72.1445159  89.8241668  76.3467174  71.9378781
  80.7492893  82.7399897  64.0955299  81.3346330  81.9943585  64.2283203
  80.5517731  83.0503854  64.9791963  83.6031548  85.7751145  59.1117741
  82.9341923  86.2597272  58.6281781  83.4644418  86.0220365  60.0261120
  75.3410548  75.3105497  62.8159742  75.3794647  74.7769088  63.6096860
  74.8350841  74.7840703  62.1970719  87.7436817  87.8094888  65.7100400
  88.2955125  87.9726510  66.4749485  88.0843010  88.3999326  65.0380425
  92.5947691  82.6356146  71.5649054  93.1387595  83.2486104  71.0704009
  92.0134536  83.1935724  72.0816067  90.8805204  85.7576864  62.6964082
  90.7556344  84.9566604  62.1875027  91.5384295  86.2523057  62.2078052
  82.5013372  72.1125596  61.8741222  81.7799958  72.7261564  61.7348695
  83.2906628  72.6483361  61.7957868  92.9440112  83.5585884  64.3243632
  91.9970448  83.4391235  64.2521959  93.2922886  82.6708382  64.4069893
  89.9486546  83.3538600  60.5247984  89.8011508  82.4255307  60.7055554
  90.7740039  83.3758691  60.0405059  93.5520668  84.1767159  61.6112857
  94.4767215  83.9710020  61.4737308  93.3835971  83.9283560  62.5202198
  84.6847281  74.1662151  62.0950846  84.5391862  74.4802454  62.9875128
  84.2072485  74.7847051  61.5421745  86.5443664  71.1564699  62.1431736
  86.5305233  70.2605792  61.8064034  87.2616092  71.1635363  62.7770022
  88.3969795  71.5902039  64.1884863  88.1387573  72.5119110  64.1869193
  87.8654835  71.1932474  64.8785327  93.3415984  84.6952826  56.9674948
  93.5152861  84.1299249  56.2148801  93.8344875  85.4953721  56.7854438
  79.1592944  76.7067495  65.0338507  78.6146412  77.4827303  65.1658782
  80.0372293  77.0538300  64.8757629  99.1955375  77.4589249  58.5865248
  99.6386521  76.7096574  58.1884371  98.3181885  77.4499385  58.2038980
  94.3291156  84.0119591  54.0671847  95.0242061  84.6326283  54.2859161
  94.6714306  83.1614942  54.3424225  79.9458965  75.8337391  67.9268664
  79.2040702  75.9820027  68.5133295  79.6251710  76.0945657  67.0635414
  96.2282579  81.4619296  55.5959177  96.7533903  81.8006569  54.8708497
  96.1404932  80.5266311  55.4122312  87.8902628  85.3753370  67.7249054
  88.1989755  85.1302516  68.5971754  88.6878110  85.5800008  67.2367924
  87.9123240  87.5291279  59.9554431  87.4728230  87.0367658  60.6487287
  88.6631357  86.9864247  59.7146506  80.3915579  83.7202820  59.9579059
  81.2173599  83.4206592  59.5777702  80.0409631  82.9510443  60.4068847
  85.3597112  83.0729288  62.0276732  84.7377122  82.4099993  61.7278960
  86.0301979  83.0990420  61.3450380  78.5924184  81.6389147  60.9167992
  77.7556092  81.2111321  60.7351994  78.5647830  81.8321590  61.8538784
  85.4321640  71.5511076  71.6209238  85.4809795  72.4273199  71.2387008
  85.9744154  71.0088470  71.0480882  95.9176485  82.0952200  70.9010375
  95.1272029  82.0776339  70.3614875  95.6809840  82.6340493  71.6559412
  96.0374361  78.9444666  68.2143104  96.0872365  78.7794674  69.1558627
  95.9288284  78.0771925  67.8240985  84.9210619  81.6233212  55.5035193
  85.0698740  82.3068676  54.8501866  85.7277063  81.6038302  56.0184649
  93.3278123  74.9275594  69.5302411  94.2287986  74.7882059  69.2386408
  93.4026097  75.0930049  70.4700588  87.6620928  72.3042449  68.3755597
  86.7924238  72.5976015  68.1038186  87.8980409  72.8882894  69.0962861
  97.5392557  81.3641608  68.4585126  97.2477366  81.7271588  69.2948586
  96.9264689  80.6508616  68.2798458  98.7388240  78.9294487  60.9787696
  99.5735131  79.3684291  61.1425256  98.8747368  78.4533141  60.1595942
  95.7879746  76.4874222  66.9265183  96.2633867  76.6801869  66.1184035
  94.8645311  76.5433408  66.6808567  88.4206025  84.1181342  52.9746940
  87.8479992  84.7371529  52.5217412  88.9938818  84.6680704  53.5086862
  94.4881415  73.3639982  65.1593489  95.4398837  73.4638080  65.1805713
  94.3184865  72.5718251  65.6691573  92.5095794  70.4495566  65.3452890
  91.9145726  70.7300578  64.6499379  92.2245491  70.9389466  66.1169631
  91.6403285  84.4018492  54.1055523  92.5733958  84.3364054  54.3088398
  91.5526497  85.2374759  53.6470055  94.2691301  83.7184363  51.0659470
  94.1904933  83.3844226  51.9595228  95.0900968  84.2106131  51.0650942
  96.9669492  76.5846102  64.2735789  96.9345812  75.6462103  64.4595473
  97.5770116  76.6630139  63.5401614  88.8052823  75.4542155  50.3162993
  89.7511928  75.3248363  50.3851411  88.4267068  74.7156817  50.7932421
  97.1163981  73.3757145  64.3194072  96.6003030  72.5915602  64.1324001
  98.0003929  73.0475862  64.4840591 102.7846042  77.6462109  63.4141826
 103.5149431  77.3847397  63.9749529 102.1752988  76.9090831  63.4543894
 100.8661339  75.7869971  64.0116277 100.1394503  75.6525936  63.4032768
 100.4508626  76.0946800  64.8172995  88.6891516  79.5059901  71.7763650
  89.6094525  79.6838500  71.9703696  88.6541099  78.5615946  71.6243349
  81.6853588  77.4160936  64.4186431  81.9039598  78.3478044  64.4374465
  82.0979362  77.0568910  65.2041235  86.5581454  72.9894142  73.8089180
  86.4578181  73.9388498  73.7401271  86.3402996  72.6612380  72.9365250
  77.7761941  78.3201406  62.6710046  77.0825412  77.9055359  62.1580000
  78.5234932  78.3621943  62.0743465  93.9127161  69.1107593  57.5365080
  93.3325831  69.7692397  57.1543133  93.6463094  68.2884938  57.1252498
  92.3630728  68.5112651  59.7386401  92.8630506  68.6229185  58.9300719
  93.0066336  68.2073704  60.3787209  86.4212724  76.4191280  72.6254242
  85.9379805  77.2191640  72.8318131  86.5073663  76.4299225  71.6721685
  82.3486061  80.3095815  64.6622675  83.3029315  80.2779757  64.5952607
  82.1498585  79.8486439  65.4772901  82.9385443  78.8796931  67.2293473
  83.7578332  79.3741010  67.2528310  83.2122251  77.9628899  67.2011040
  92.6952040  71.2707683  56.5921428  91.8077895  71.5557334  56.3741623
  93.1106029  71.1101447  55.7448705  96.0466576  71.2954204  60.3075768
  96.8226966  71.7850657  60.5800385  95.3214710  71.7212259  60.7647637
  98.4839134  72.0081824  61.3649708  99.0783625  71.7677560  60.6543017
  98.5565718  71.2888954  61.9923245  80.7036290  85.8515435  61.6792873
  80.5690758  85.0915835  61.1130871  80.2868352  86.5756334  61.2121662
  91.8395253  81.0352358  50.6869448  92.5431103  81.2402361  51.3027104
  91.1157902  81.6029120  50.9518532  92.6693063  76.7862219  56.8071719
  92.6128265  77.2430771  55.9679351  93.2221406  76.0252904  56.6294561
  96.4797869  72.5751951  57.6321838  96.2234803  72.1748587  58.4630046
  95.8550737  73.2895745  57.5071977 100.7910207  75.3148024  60.1393130
 100.2309765  75.3841214  60.9124692 100.1853710  75.1389009  59.4192626
  83.8605416  86.7484752  61.8911316  83.7437800  87.6930184  61.7890006
  83.0397862  86.4458313  62.2797115  93.7481950  81.4734887  52.7367909
  94.5827554  81.0416086  52.5545383  93.5866293  81.3016901  53.6644803
  93.4027843  77.9767001  54.1024248  93.3476646  77.8111272  53.1612692
  92.7773898  78.6843034  54.2586438  78.1920358  73.2135065  67.9285670
  78.8379221  72.7034019  68.4172895  77.9837509  73.9503747  68.5029095
  90.7173750  80.2815912  73.4277811  91.5864909  80.4556565  73.0664446
  90.2380501  81.1010329  73.3053540  84.8859930  87.4013013  65.1067244
  85.7887177  87.4336624  65.4233739  84.6597300  86.4713464  65.1213580
  86.6413532  86.1544000  61.7677323  85.6909163  86.1545862  61.6541695
  86.9446018  85.4076735  61.2513357 102.3766225  91.9904538  62.8323085
 103.0144635  91.8711286  62.1286425 102.2587068  92.9385382  62.8911037
  99.1855932  91.9431967  62.7684610  98.8474443  91.8273031  61.8805145
 100.0545700  91.5423132  62.7485616  95.0442747  93.7967443  58.7581501
  94.4807613  93.7057380  57.9897789  94.9295142  92.9767347  59.2383993
  99.6675715  93.0966818  68.7270815  99.6564356  92.7019617  67.8551319
  99.8296354  92.3632891  69.3204587  92.5907179  95.2918635  61.5965721
  93.3828471  94.9509459  61.1812021  92.8303830  95.4013610  62.5167875
 100.6242306  97.4638411  54.0695966  99.9730286  98.0492491  53.6829980
 101.4186669  97.9944606  54.1291003  94.5497933  94.5527548  54.4683100
  95.3228809  94.0056535  54.3295976  94.9023332  95.4171797  54.6797562
  96.3882976  95.8803930  67.6749999  96.0972842  96.7849561  67.5596666
  97.0239960  95.9220458  68.3894069  97.3139183  93.2580779  64.2651359
  97.9102755  93.0336801  63.5508322  97.3714154  92.5165524  64.8676807
  96.8864211  90.7120214  52.1001550  97.1389732  90.1901735  51.3385013
  95.9488770  90.5486359  52.2028234 101.9307494  89.7155992  59.9076293
 102.7170583  89.2975415  59.5566710 102.1946198  90.6202084  60.0757942
 102.1017571  95.1528843  54.6064950 101.4663404  95.2263469  55.3185855
 101.7714978  95.7422441  53.9284029 107.3315921  89.6531225  60.8109272
 108.0641093  89.0830442  61.0447101 106.5755277  89.2652826  61.2515777
  96.6060500  92.6148320  54.3025925  96.4896758  91.9393223  54.9707009
  96.7162760  92.1280694  53.4858078  98.9492041  92.0758467  58.0072614
  98.5850248  91.5489088  58.7185536  99.8059157  91.6856936  57.8339100
 104.8541341  83.3652800  65.2703880 104.5224666  84.2348211  65.0465095
 104.2586955  83.0489084  65.9497911  98.5897528  87.1048367  53.0033963
  98.7571930  87.9728603  53.3704434  98.3994697  87.2675648  52.0795252
 101.3472861  95.5665346  64.6699793 101.0473584  96.4690384  64.5615600
 101.0023920  95.2997529  65.5220946  94.7985342  92.0179142  60.7036498
  93.8735839  91.8855357  60.9114189  95.0469756  92.7973362  61.2006440
 104.7470005  88.0847886  62.3497230 103.8386882  88.0163294  62.0555991
 104.6957601  88.5619831  63.1779056  98.5686749  89.5606024  53.9880630
  98.4486374  90.0063075  54.8266110  97.8739337  89.9091342  53.4294168
  92.1594153  91.6612416  61.5380287  92.2886535  91.9146895  62.4519698
  91.4791605  92.2540124  61.2184942  96.3293641 102.3309666  57.6370761
  96.2517670 103.2817491  57.7159241  95.7255284 101.9855538  58.2945687
  98.8210871  89.5037531  70.2932128  98.0444205  90.0631451  70.2834992
  99.4601434  89.9894314  70.8146998 106.6131651  86.2864324  64.1275104
 105.9706031  86.5796857  63.4814899 106.1086580  86.1717244  64.9328301
 104.2671815  90.0327497  54.8160964 105.1789671  90.2654884  54.6408661
 103.7581462  90.6164542  54.2536042  97.0757243  92.3122985  69.8550095
  97.8171927  92.8508029  69.5784918  96.3694228  92.9389273  70.0121647
 102.5512582  94.4552125  68.4522256 102.9595939  94.0134536  67.7076889
 101.8289844  93.8804753  68.7056449  98.9043653  89.3924732  65.8255813
  99.7504848  89.8164145  65.9690462  98.8442290  88.7358356  66.5194376
 102.8741397  95.0153316  62.2074545 102.2450260  95.1799030  61.5050613
 102.4867059  95.4294925  62.9785509 106.7530629  95.9507754  59.5618909
 106.0681667  96.3306655  59.0115942 106.8374478  96.5603080  60.2950857
 102.0543098  87.0529100  67.4836987 101.8104030  87.8071161  66.9471262
 102.3303028  87.4314448  68.3184234 104.0081561  93.5967713  66.1614252
 104.2198456  94.2399473  65.4848633 103.9611309  92.7630029  65.6936182
 101.6107790  86.2085533  63.0650825 100.7492269  86.5066787  63.3567562
 101.6370224  86.4255932  62.1331857  98.4269359  94.7527724  59.4724630
  98.8907705  95.0315427  58.6829253  98.1626157  93.8511168  59.2897721
  95.3193440  94.2999205  62.4104393  95.8894797  94.7286474  61.7721878
  95.9101552  94.0181790  63.1088579  97.3638245  90.8750876  56.2814195
  98.0662288  91.3271920  56.7488122  97.0318874  90.2334695  56.9094088
  95.8118607  89.4662633  70.6565405  95.1817267  90.1478914  70.8900802
  95.7054694  89.3545714  69.7118543  91.1063579  89.1334429  61.5831329
  90.3162633  89.3891957  61.1071440  91.5974826  89.9482767  61.6883369
 105.1227389  96.4739668  64.3336610 105.9444832  96.0719855  64.0519291
 105.1189791  96.3707902  65.2852726  93.0578324  89.4979008  58.5414806
  92.2609488  89.6097702  59.0598301  92.8303917  89.8365660  57.6755696
  98.8883992  96.0223711  66.4897320  98.9528425  96.4844119  67.3255492
  98.1794916  95.3921076  66.6179630  89.3901282  89.3864919  64.0146320
  89.6409320  90.2711929  64.2803896  89.9260830  89.2069521  63.2421412
 113.2133382  92.8178417  60.6821581 112.4597090  92.2485815  60.5265586
 113.3480923  92.7841081  61.6292216  98.6032010  97.6891819  56.3576301
  98.4677684  98.5343355  56.7861148  99.1441822  97.8911097  55.5942234
  95.0899349  83.7683399  73.0190656  94.6966295  83.2149597  73.6938300
  95.9065490  84.0793977  73.4097173  92.0561407  95.2067257  56.9304226
  92.5685928  96.0010507  57.0809790  92.7084120  94.5093547  56.8637827
  93.8656292  98.3233013  59.0126979  94.0422920  99.2450978  58.8247963
  94.6613125  98.0091432  59.4421359  98.0067310  85.1841278  70.6110912
  98.7477024  85.7848431  70.5315375  98.2385233  84.4418916  70.0528955
  93.1508648  90.3697645  68.8889142  93.0362163  89.4682902  69.1896241
  92.2953166  90.6161342  68.5373959 100.2300486  98.3115385  70.4876643
  99.7864340  97.5251764  70.1697547 100.8917700  98.4994536  69.8220533
  94.9887607  99.8411187  65.0137321  95.5395032  99.7128250  64.2414315
  94.1499083 100.1406076  64.6632214 102.3281724  98.5918185  68.5158044
 102.3100199  99.4127066  68.0238313 103.2501644  98.4672261  68.7408185
  98.7854778  96.1062315  69.3581552  99.3183115  95.3450603  69.1280860
  98.2568859  95.8135967  70.1005707 101.9524473  81.2122381  64.8875194
 101.6088743  82.1024022  64.8114305 102.3203436  81.0224038  64.0244779
  90.0210324  93.5355911  57.7063796  90.8585546  93.9452920  57.4897504
  90.1988592  92.5955353  57.6763990 101.9174756  91.2030992  53.3947629
 101.4021379  91.9735596  53.6336017 101.6452064  90.5296128  54.0180691
  99.5021867  86.0480693  58.4532868  98.6463463  85.6587543  58.2738506
  99.9148819  86.1272653  57.5932653 101.0321014  83.5827036  62.8524427
 100.5285809  83.5457171  62.0392233 101.3251621  84.4919779  62.9121084
  97.2763900  83.6665766  61.8590609  98.1416896  83.4708574  61.4996498
  97.3441408  83.4376117  62.7859966 106.8909030  93.9563347  55.3300803
 106.1138473  93.6174506  54.8855965 107.5700511  93.9615970  54.6555768
 101.7061059  89.0758084  55.2207410 101.4011195  89.3904233  56.0717554
 102.6591501  89.1539504  55.2634743 100.1507491  95.2348307  56.8700364
  99.6228853  94.5001067  56.5573602  99.6494994  96.0122984  56.6240333
 105.1300337  93.4297328  61.9867411 104.4724011  94.1196589  62.0747539
 105.9340736  93.8193760  62.3301397  94.8826219  85.8967974  59.2306976
  95.4569971  85.6743155  58.4980169  95.4697201  85.9656668  59.9835577
 103.9405796  91.7841700  60.0371352 104.4537678  92.4171692  60.5393062
 104.5907020  91.1842896  59.6714712  95.2095806  87.9272435  53.2502861
  94.3733118  88.2647121  53.5712136  95.0700575  87.7921414  52.3129998
  97.1848886  82.7709222  57.9582045  96.5313299  82.4558240  57.3338660
  97.1429360  82.1484963  58.6841868  98.2960091  93.0528518  49.8735337
  97.3887153  92.8217771  50.0726486  98.7931123  92.2566137  50.0609319
 101.2028170 101.7626025  52.7932023 100.5289869 102.0657721  53.4016981
 101.5893992 102.5655105  52.4437481 100.4186627  89.2591156  62.2829693
  99.5009188  89.4806103  62.1251381 100.8346770  89.3337466  61.4241400
 101.2021674  90.6582572  57.4132373 101.9493493  91.1703969  57.1039495
 101.4713264  90.3366624  58.2736767  99.4748325  93.1541112  54.3959327
  98.5659544  92.8700145  54.4931797  99.5043408  93.5740191  53.5362634
 104.7067592  96.7647702  58.1650495 104.2529919  95.9238612  58.2215685
 104.0761559  97.4009100  58.5025275 103.6500512  87.6939688  59.3951162
 102.9123268  87.1817074  59.7261405 103.9027285  87.2540070  58.5834439
 103.1500531  98.6024199  59.1000313 103.4423506  99.1629256  58.3812679
 103.6599152  98.8952760  59.8553472 103.7512139  80.4715940  59.9892932
 104.0571016  79.6113303  59.7018847 104.4764744  81.0633560  59.7891926
  90.0436495  90.8746627  58.3774530  89.8460895  90.2815987  57.6525596
  89.4883159  90.5698837  59.0950468  98.0233219  90.7669733  60.4969123
  98.0781828  89.8143569  60.4211599  97.2124421  90.9229172  60.9810421
  99.1724412  94.6949856  51.7347406  98.7343842  93.9785715  51.2753043
  99.9134853  94.9225971  51.1732497  95.9625579  89.3846793  58.2559502
  95.1493444  89.6840963  58.6624694  96.4584573  88.9902482  58.9733984
  98.1134156  99.3804550  60.1893766  98.0710335  99.6065396  59.2602298
  99.0296855  99.1467924  60.3379567 101.5599790  89.8488617  67.0874396
 101.9149178  90.0760090  67.9468861 102.2071921  90.1806994  66.4651651
 107.2897527  92.9707053  57.7923725 107.1515426  93.1608649  56.8644914
 106.9333746  93.7326436  58.2491776  95.4539653  86.9565148  63.8720737
  96.0939033  86.8153907  63.1743700  94.6217184  86.6699662  63.4959339
 107.3166907  95.0383580  62.8034996 107.7503413  94.9458869  63.6518050
 108.0298488  95.0141081  62.1655012  96.2299957  96.2567579  59.9855729
  97.0240556  95.7617899  59.7838304  95.5191650  95.7285442  59.6223435
 101.0494802  98.6385674  64.3368097 101.1031824  99.2076611  65.1045813
 100.1809583  98.8087559  63.9722134  92.5382721  90.4010660  56.0615482
  91.6080309  90.3395116  56.2785444  92.6340193  89.8786613  55.2652123
  92.4568270  86.9265473  58.6493723  92.7175087  87.8410807  58.5402884
  93.2785442  86.4589916  58.7990336  93.9293195  88.3403230  65.8192548
  94.6016249  88.1320593  65.1705197  93.1022982  88.1425316  65.3797780
 108.1782456  95.0807281  65.3367881 108.3718346  95.9853091  65.5827156
 108.0783075  94.6214700  66.1706467  99.8318767  84.9665171  67.8358209
  99.1846682  85.6655121  67.7422685 100.6019783  85.4001315  68.2034457
 103.2397565  95.2314024  70.9108762 103.0883071  95.0024575  69.9938846
 103.2302245  96.1884625  70.9240107 100.0082901  92.8045936  65.8955029
 100.9374961  92.9557096  65.7223996  99.5873931  92.8929957  65.0403675
  98.8071233  96.8296601  63.6653566  98.6682319  96.4615385  64.5379504
  98.0185829  97.3444240  63.4937524  99.4019385 101.9305697  55.0079103
  99.5771141 101.4593740  55.8224725  98.7152173 102.5571463  55.2360363
 100.3576448  96.2078203  61.0542404 100.0226281  96.1678973  61.9500054
  99.8580394  95.5422919  60.5812814  94.3320692  91.6145833  66.5794985
  94.1940490  90.8826072  67.1806524  95.2425616  91.5254734  66.2979173
 103.2935640  93.5534238  51.3279464 102.6764811  92.8281066  51.2312516
 102.8252128  94.3143598  50.9846538  96.9602993  91.3265793  66.0678665
  97.6702612  90.6858985  66.0265283  96.9172301  91.5778688  66.9904846
 104.9489772  98.2633146  68.9885244 104.8902318  97.5792366  68.3215827
 105.3509290  99.0052136  68.5365870  95.6731927  88.3131011  67.8874304
  95.1369284  87.8621749  68.5395901  95.0848635  88.4476919  67.1444769
  93.9680470 105.0795060  61.7818963  94.2077069 105.7113584  62.4597981
  93.1249667 104.7283100  62.0684322  95.0834186  87.7719662  50.4500768
  94.2063652  87.6508463  50.0863015  95.5591939  86.9805740  50.1979657
 104.9507179  96.2272730  67.2199224 104.0633958  95.8898652  67.3425622
 105.5205730  95.4955761  67.4567989  86.6036326  92.5596822  60.5442275
  87.2907366  92.2458552  59.9563290  86.4484455  93.4638186  60.2709526
  91.4071048  87.4487018  64.9727299  91.3229237  86.8412688  64.2377709
  90.5853755  87.9396037  64.9736795  98.4808332 100.8874182  64.1860467
  98.4078504 101.6929154  64.6979771  98.0385725 101.0866148  63.3608488
  98.2698112 100.1245952  57.6963288  97.4865634 100.6667633  57.7901513
  98.9690857 100.6419932  58.0957530 101.5794762  85.9340582  60.3397494
 102.0763462  85.1810544  60.0198564 100.8081744  85.9704899  59.7740703
 109.4324519  91.6380947  61.9815785 109.4214396  92.5205663  61.6109718
 108.5641899  91.2852498  61.7870322 100.9407016 100.7861016  66.3418625
 101.6534988 101.4208481  66.2694527 100.4497045 100.8824882  65.5258627
 102.6624543  94.6912269  57.9135917 101.7280822  94.8113732  57.7440621
 102.8401211  93.7884736  57.6495927  98.1629731  88.0757965  60.0669178
  97.7927518  87.5229005  60.7550084  98.6588823  87.4716098  59.5144178
 106.0497094  90.5329588  58.4485951 106.5157546  91.3657580  58.3746254
 106.5004595  90.0674570  59.1531210  95.9918929  98.5355460  67.1624196
  96.6928389  99.1691943  67.3153591  95.5214044  98.8770191  66.4019836
 104.1173325  96.8773410  55.4472103 104.3933169  96.7630004  56.3565977
 103.2477824  96.4790894  55.4084276 104.0213757  82.9010175  62.4876853
 103.1076837  83.1314402  62.6559060 104.4506858  82.9848619  63.3390885
 103.7920215  91.0900067  64.9876747 103.1391666  91.3375975  64.3329199
 104.1700595  90.2764205  64.6539224 100.7527389 101.1259760  59.0904917
 100.9349784 100.3081416  59.5532669 101.5760375 101.3427453  58.6529807
 101.0869555 100.0527946  56.3519965 101.6157321  99.5420400  55.7390128
 101.3497774  99.7370476  57.2165498  99.8407788  91.8319878  71.4742784
  99.1648425  91.7314008  72.1445159 100.6635422  91.6759092  71.9378781
  91.5886647  98.0691815  64.0955299  92.1740084  97.3235503  64.2283203
  91.3911486  98.3795772  64.9791963  94.4425303 101.1043062  59.1117741
  93.7735678 101.5889190  58.6281781  94.3038172 101.3512283  60.0261120
  86.1804302  90.6397415  62.8159742  86.2188402  90.1061006  63.6096860
  85.6744595  90.1132621  62.1970719  98.5830571 103.1386806  65.7100400
  99.1348879 103.3018427  66.4749485  98.9236765 103.7291244  65.0380425
  93.5595064  85.4861956  66.3122284  93.6236391  86.3476787  65.8999682
  93.4962185  84.8735957  65.5794643  93.0347337  87.5585088  69.9595319
  93.6619376  87.1762165  70.5732843  92.1775256  87.3399290  70.3251011
 103.4341446  97.9648063  71.5649054 103.9781350  98.5778022  71.0704009
 102.8528290  98.5227642  72.0816067  89.8112880  89.3661517  55.8913674
  90.1066321  88.4572196  55.8380727  88.9100916  89.3449257  55.5694676
 101.7198959 101.0868781  62.6964082 101.5950098 100.2858521  62.1875027
 102.3778050 101.5814975  62.2078052  93.3407127  87.4417514  61.8741222
  92.6193713  88.0553482  61.7348695  94.1300383  87.9775279  61.7957868
 103.7833867  98.8877801  64.3243632 102.8364202  98.7683153  64.2521959
 104.1316640  98.0000299  64.4069893  96.1433440  84.7771940  68.1481874
  96.6667842  85.0234237  68.9108183  95.9245774  85.6091975  67.7285011
  91.5400721  87.0475615  56.0152999  91.2113428  86.1672994  55.8328105
  91.8940092  86.9923284  56.9029388 100.7880300  98.6830518  60.5247984
 100.6405263  97.7547225  60.7055554 101.6133794  98.7050608  60.0405059
  94.6542545  87.3348585  56.3828476  94.9938617  87.8634506  55.6607085
  95.1014665  87.6728991  57.1587043 104.3914422  99.5059076  61.6112857
 105.3160970  99.3001938  61.4737308 104.2229725  99.2575478  62.5202198
  97.3485985  85.7185635  65.8331544  97.0082806  84.9193449  66.2352224
  96.6424992  86.0187346  65.2608378  98.0002457  82.8034948  64.2858867
  98.8228526  82.3295426  64.1637758  98.2440521  83.5825432  64.7857554
  96.6410692  85.8323206  54.5821769  97.3619054  86.2104459  54.0785486
  96.0175996  86.5512083  54.6856747 100.7841815  86.5368355  55.5180101
 101.0005429  87.4192993  55.2168930 100.3035882  86.1454569  54.7885743
  95.5241036  89.4954069  62.0950846  95.3785617  89.8094372  62.9875128
  95.0466240  90.1138969  61.5421745  97.3837419  86.4856616  62.1431736
  97.3698988  85.5897710  61.8064034  98.1009847  86.4927280  62.7770022
  99.2363550  86.9193957  64.1884863  98.9781327  87.8411027  64.1869193
  98.7048590  86.5224391  64.8785327 104.1809738 100.0244744  56.9674948
 104.3546616  99.4591166  56.2148801 104.6738630 100.8245639  56.7854438
  89.9986698  92.0359413  65.0338507  89.4540166  92.8119221  65.1658782
  90.8766048  92.3830217  64.8757629  96.7874315  85.3670997  57.4119306
  96.9090226  84.4387643  57.6110193  96.4976357  85.3809683  56.4997621
  99.6565505  83.0525907  60.5486026  99.6787202  83.1165240  59.5938005
 100.0733564  82.2130416  60.7426532 110.0349129  92.7881167  58.5865248
 110.4780275  92.0388492  58.1884371 109.1575640  92.7791303  58.2038980
 105.1684911  99.3411508  54.0671847 105.8635815  99.9618201  54.2859161
 105.5108061  98.4906859  54.3424225  90.7852720  91.1629309  67.9268664
  90.0434456  91.3111945  68.5133295  90.4645464  91.4237575  67.0635414
 107.0676334  96.7911214  55.5959177 107.5927658  97.1298487  54.8708497
 106.9798686  95.8558229  55.4122312  98.7296383 100.7045287  67.7249054
  99.0383509 100.4594434  68.5971754  99.5271865 100.9091926  67.2367924
  98.7516995 102.8583197  59.9554431  98.3121985 102.3659576  60.6487287
  99.5025112 102.3156165  59.7146506  91.2309334  99.0494738  59.9579059
  92.0567354  98.7498510  59.5777702  90.8803386  98.2802360  60.4068847
  96.1990867  98.4021206  62.0276732  95.5770876  97.7391911  61.7278960
  96.8695734  98.4282338  61.3450380  89.4317939  96.9681064  60.9167992
  88.5949847  96.5403239  60.7351994  89.4041584  97.1613508  61.8538784
  96.2715394  86.8802994  71.6209238  96.3203550  87.7565117  71.2387008
  96.8137908  86.3380387  71.0480882 106.7570240  97.4244117  70.9010375
 105.9665784  97.4068256  70.3614875 106.5203595  97.9632411  71.6559412
 106.8768115  94.2736584  68.2143104 106.9266120  94.1086591  69.1558627
 106.7682038  93.4063843  67.8240985  95.7604374  96.9525129  55.5035193
  95.9092494  97.6360594  54.8501866  96.5670817  96.9330220  56.0184649
 104.1671877  90.2567512  69.5302411 105.0681740  90.1173977  69.2386408
 104.2419852  90.4221967  70.4700588  98.5014683  87.6334367  68.3755597
  97.6317992  87.9267933  68.1038186  98.7374163  88.2174812  69.0962861
 108.3786312  96.6933525  68.4585126 108.0871120  97.0563506  69.2948586
 107.7658443  95.9800534  68.2798458 109.5781994  94.2586405  60.9787696
 110.4128886  94.6976209  61.1425256 109.7141123  93.7825058  60.1595942
 106.6273500  91.8166140  66.9265183 107.1027622  92.0093786  66.1184035
 105.7039065  91.8725326  66.6808567  93.5157007  92.9790307  56.5096262
  93.2703049  92.0752637  56.7076472  93.6852921  92.9807458  55.5675740
 101.2053717  83.8513983  65.8921017 101.7235660  84.5875010  65.5667506
 100.8508849  84.1577977  66.7267777  92.7852654  88.7118665  54.0082423
  92.0921899  88.7863020  53.3522459  92.5404406  87.9479008  54.5303940
 101.4566311  80.2714266  61.4121914 101.7368065  79.6037455  62.0382341
 102.2416918  80.4643362  60.8996578  99.2599779  99.4473260  52.9746940
  98.6873746 100.0663447  52.5217412  99.8332573  99.9972622  53.5086862
 105.3275169  88.6931900  65.1593489 106.2792592  88.7929998  65.1805713
 105.1578620  87.9010169  65.6691573 103.3489549  85.7787483  65.3452890
 102.7539481  86.0592496  64.6499379 103.0639245  86.2681384  66.1169631
 102.4797039  99.7310410  54.1055523 103.4127712  99.6655972  54.3088398
 102.3920252 100.5666677  53.6470055 105.1085056  99.0476280  51.0659470
 105.0298687  98.7136144  51.9595228 105.9294722  99.5398048  51.0650942
 107.8063247  91.9138020  64.2735789 107.7739567  90.9754020  64.4595473
 108.4163871  91.9922056  63.5401614  99.6446578  90.7834073  50.3162993
 100.5905682  90.6540281  50.3851411  99.2660823  90.0448735  50.7932421
 107.9557735  88.7049063  64.3194072 107.4396784  87.9207520  64.1324001
 108.8397684  88.3767780  64.4840591 105.6168462  82.4490079  60.2789885
 105.4193283  82.1405167  61.1633217 106.2268168  83.1751718  60.4087814
 113.6239797  92.9754027  63.4141826 114.3543185  92.7139315  63.9749529
 113.0146742  92.2382748  63.4543894 111.7055094  91.1161889  64.0116277
 110.9788257  90.9817854  63.4032768 111.2902381  91.4238718  64.8172995
  99.5285270  94.8351819  71.7763650 100.4488280  95.0130418  71.9703696
  99.4934853  93.8907864  71.6243349  97.8289495  88.7084049  50.2517878
  96.9220950  88.4117162  50.3280592  98.1065476  88.4113867  49.3852164
  88.7467435  90.0290412  60.7016924  88.4270220  89.1755721  60.4091298
  88.2000863  90.2438991  61.4574892  92.5247343  92.7452853  64.4186431
  92.7433353  93.6769961  64.4374465  92.9373117  92.3860828  65.2041235
  99.4451561  83.2520939  56.4062119  98.6352289  82.9068024  56.7817365
 100.1335978  82.9428482  56.9949731 101.3742109  82.3298986  58.0286416
 101.9273148  82.7494439  58.6876439 101.6112195  81.4034734  58.0709372
  97.3975208  88.3186059  73.8089180  97.2971935  89.2680416  73.7401271
  97.1796750  87.9904298  72.9365250  96.5988280  85.5670984  50.3929857
  97.4607444  85.8925883  50.6525675  96.7838624  84.7802480  49.8802923
  88.6155695  93.6493324  62.6710046  87.9219167  93.2347277  62.1580000
  89.3628686  93.6913860  62.0743465 104.7520916  84.4399511  57.5365080
 104.1719585  85.0984315  57.1543133 104.4856849  83.6176855  57.1252498
 103.2024482  83.8404568  59.7386401 103.7024261  83.9521103  58.9300719
 103.8460090  83.5365621  60.3787209  97.2606478  91.7483198  72.6254242
  96.7773560  92.5483558  72.8318131  97.3467417  91.7591143  71.6721685
  90.5292438  93.5811578  60.5476061  90.5063126  93.6799265  59.5957944
  90.8393074  94.4276729  60.8693227  93.1879816  95.6387733  64.6622675
  94.1423069  95.6071675  64.5952607  92.9892339  95.1778356  65.4772901
  93.7779198  94.2088849  67.2293473  94.5972087  94.7032927  67.2528310
  94.0516006  93.2920817  67.2011040 103.5345794  86.5999601  56.5921428
 102.6471649  86.8849252  56.3741623 103.9499783  86.4393364  55.7448705
 106.8860330  86.6246122  60.3075768 107.6620720  87.1142575  60.5800385
 106.1608464  87.0504176  60.7647637 109.3232889  87.3373741  61.3649708
 109.9177380  87.0969477  60.6543017 109.3959472  86.6180872  61.9923245
  91.5430044 101.1807352  61.6792873  91.4084512 100.4207753  61.1130871
  91.1262107 101.9048252  61.2121662 102.6789007  96.3644276  50.6869448
 103.3824858  96.5694278  51.3027104 101.9551656  96.9321038  50.9518532
 103.5086818  92.1154137  56.8071719 103.4522019  92.5722688  55.9679351
 104.0615160  91.3544822  56.6294561 107.3191624  87.9043869  57.6321838
 107.0628558  87.5040505  58.4630046 106.6944492  88.6187663  57.5071977
 111.6303962  90.6439942  60.1393130 111.0703519  90.7133131  60.9124692
 111.0247465  90.4680927  59.4192626  94.6999170 102.0776669  61.8911316
  94.5831554 103.0222102  61.7890006  93.8791617 101.7750231  62.2797115
 104.5875705  96.8026805  52.7367909 105.4221309  96.3708003  52.5545383
 104.4260048  96.6308819  53.6644803 104.2421597  93.3058918  54.1024248
 104.1870401  93.1403190  53.1612692 103.6167652  94.0134951  54.2586438
  89.0314112  88.5426983  67.9285670  89.6772976  88.0325937  68.4172895
  88.8231263  89.2795664  68.5029095 101.5567504  95.6107830  73.4277811
 102.4258664  95.7848482  73.0664446 101.0774256  96.4302247  73.3053540
  97.5517723  82.8067027  53.6809566  97.5396392  83.7508867  53.8377837
  98.4441144  82.6237173  53.3869027  95.7253684 102.7304931  65.1067244
  96.6280931 102.7628541  65.4233739  95.4991055 101.8005382  65.1213580
  97.4807286 101.4835918  61.7677323  96.5302917 101.4837779  61.6541695
  97.7839773 100.7368652  61.2513357 101.3669842  79.4009804  57.9355503
 100.6002238  78.8468291  58.0812185 101.7780547  79.4731673  58.7969655
  93.3711603  85.6894600  72.0260684  94.2343065  85.3331405  72.2364009
  92.7977014  85.3508495  72.7136089 113.2159980 107.3196456  62.8323085
 113.8538390 107.2003203  62.1286425 113.0980823 108.2677300  62.8911037
 110.0249686 107.2723884  62.7684610 109.6868198 107.1564949  61.8805145
 110.8939454 106.8715049  62.7485616 105.8836502 109.1259361  58.7581501
 105.3201367 109.0349298  57.9897789 105.7688897 108.3059265  59.2383993
 110.5069469 108.4258736  68.7270815 110.4958110 108.0311534  67.8551319
 110.6690109 107.6924809  69.3204587 103.4300934 110.6210552  61.5965721
 104.2222226 110.2801377  61.1812021 103.6697584 110.7305527  62.5167875
 105.3891688 109.8819465  54.4683100 106.1622564 109.3348453  54.3295976
 105.7417087 110.7463715  54.6797562 107.2276730 111.2095848  67.6749999
 106.9366596 112.1141479  67.5596666 107.8633715 111.2512375  68.3894069
 108.1532937 108.5872696  64.2651359 108.7496509 108.3628719  63.5508322
 108.2107909 107.8457442  64.8676807 107.7257966 106.0412132  52.1001550
 107.9783486 105.5193653  51.3385013 106.7882525 105.8778277  52.2028234
 112.7701248 105.0447910  59.9076293 113.5564338 104.6267333  59.5566710
 113.0339953 105.9494002  60.0757942 112.9411326 110.4820760  54.6064950
 112.3057159 110.5555387  55.3185855 112.6108732 111.0714359  53.9284029
 118.1709676 104.9823143  60.8109272 118.9034848 104.4122360  61.0447101
 117.4149031 104.5944744  61.2515777 107.4454254 107.9440238  54.3025925
 107.3290512 107.2685141  54.9707009 107.5556514 107.4572611  53.4858078
 109.7885795 107.4050385  58.0072614 109.4244003 106.8781006  58.7185536
 110.6452911 107.0148854  57.8339100 115.6935096  98.6944717  65.2703880
 115.3618421  99.5640128  65.0465095 115.0980709  98.3781001  65.9497911
 109.4291282 102.4340284  53.0033963 109.5965685 103.3020521  53.3704434
 109.2388451 102.5967566  52.0795252 112.1866615 110.8957263  64.6699793
 111.8867339 111.7982302  64.5615600 111.8417675 110.6289446  65.5220946
 105.6379097 107.3471060  60.7036498 104.7129593 107.2147274  60.9114189
 105.8863510 108.1265279  61.2006440 115.5863759 103.4139803  62.3497230
 114.6780637 103.3455212  62.0555991 115.5351355 103.8911748  63.1779056
 109.4080503 104.8897942  53.9880630 109.2880128 105.3354993  54.8266110
 108.7133092 105.2383260  53.4294168 102.9987908 106.9904334  61.5380287
 103.1280289 107.2438813  62.4519698 102.3185359 107.5832042  61.2184942
 109.6604625 104.8329449  70.2932128 108.8837959 105.3923369  70.2834992
 110.2995188 105.3186232  70.8146998 117.4525406 101.6156242  64.1275104
 116.8099786 101.9088775  63.4814899 116.9480334 101.5009162  64.9328301
 115.1065569 105.3619415  54.8160964 116.0183425 105.5946802  54.6408661
 114.5975216 105.9456459  54.2536042 107.9150997 107.6414902  69.8550095
 108.6565682 108.1799946  69.5784918 107.2087983 108.2681191  70.0121647
 113.3906337 109.7844043  68.4522256 113.7989693 109.3426453  67.7076889
 112.6683598 109.2096670  68.7056449 109.7437407 104.7216650  65.8255813
 110.5898602 105.1456063  65.9690462 109.6836045 104.0650274  66.5194376
 113.7135152 110.3445233  62.2074545 113.0844014 110.5090948  61.5050613
 113.3260814 110.7586843  62.9785509 112.8936852 102.3821018  67.4836987
 112.6497784 103.1363079  66.9471262 113.1696783 102.7606366  68.3184234
 114.8475315 108.9259630  66.1614252 115.0592210 109.5691390  65.4848633
 114.8005063 108.0921947  65.6936182 112.4501544 101.5377451  63.0650825
 111.5886023 101.8358705  63.3567562 112.4763979 101.7547850  62.1331857
 109.2663114 110.0819642  59.4724630 109.7301459 110.3607345  58.6829253
 109.0019912 109.1803086  59.2897721 106.1587195 109.6291123  62.4104393
 106.7288552 110.0578391  61.7721878 106.7495306 109.3473708  63.1088579
 108.2032000 106.2042794  56.2814195 108.9056043 106.6563838  56.7488122
 107.8712628 105.5626613  56.9094088 106.6512361 104.7954551  70.6565405
 106.0211022 105.4770831  70.8900802 106.5448449 104.6837632  69.7118543
 101.9457334 104.4626347  61.5831329 101.1556388 104.7183875  61.1071440
 102.4368581 105.2774684  61.6883369 103.8972079 104.8270926  58.5414806
 103.1003242 104.9389620  59.0598301 103.6697671 105.1657578  57.6755696
 109.7277747 111.3515629  66.4897320 109.7922179 111.8136036  67.3255492
 109.0188670 110.7212994  66.6179630 100.2295037 104.7156837  64.0146320
 100.4803075 105.6003847  64.2803896 100.7654585 104.5361439  63.2421412
 109.4425764 113.0183737  56.3576301 109.3071439 113.8635272  56.7861148
 109.9835577 113.2203014  55.5942234 105.9293104  99.0975316  73.0190656
 105.5360049  98.5441515  73.6938300 106.7459244  99.4085895  73.4097173
 102.8955162 110.5359175  56.9304226 103.4079682 111.3302425  57.0809790
 103.5477874 109.8385465  56.8637827 104.7050046 113.6524931  59.0126979
 104.8816675 114.5742896  58.8247963 105.5006880 113.3383350  59.4421359
 108.8461065 100.5133195  70.6110912 109.5870778 101.1140349  70.5315375
 109.0778988  99.7710833  70.0528955 103.9902403 105.6989563  68.8889142
 103.8755918 104.7974820  69.1896241 103.1346921 105.9453260  68.5373959
 105.8281362 115.1703105  65.0137321 106.3788787 115.0420168  64.2414315
 104.9892838 115.4697994  64.6632214 109.6248533 111.4354232  69.3581552
 110.1576870 110.6742521  69.1280860 109.0962614 111.1427884  70.1005707
 112.7918228  96.5414298  64.8875194 112.4482497  97.4315940  64.8114305
 113.1597190  96.3515956  64.0244779 100.8604078 108.8647829  57.7063796
 101.6979300 109.2744837  57.4897504 101.0382346 107.9247271  57.6763990
 112.7568510 106.5322910  53.3947629 112.2415134 107.3027514  53.6336017
 112.4845819 105.8588046  54.0180691 110.3415622 101.3772610  58.4532868
 109.4857218 100.9879461  58.2738506 110.7542573 101.4564571  57.5932653
 111.8714768  98.9118954  62.8524427 111.3679564  98.8749089  62.0392233
 112.1645375  99.8211696  62.9121084 108.1157654  98.9957683  61.8590609
 108.9810651  98.8000492  61.4996498 108.1835163  98.7668035  62.7859966
 112.5454814 104.4050002  55.2207410 112.2404949 104.7196151  56.0717554
 113.4985256 104.4831422  55.2634743 110.9901245 110.5640225  56.8700364
 110.4622607 109.8292985  56.5573602 110.4888748 111.3414901  56.6240333
 105.7219973 101.2259891  59.2306976 106.2963725 101.0035073  58.4980169
 106.3090956 101.2948586  59.9835577 114.7799550 107.1133618  60.0371352
 115.2931432 107.7463610  60.5393062 115.4300774 106.5134814  59.6714712
 106.0489560 103.2564352  53.2502861 105.2126872 103.5939039  53.5712136
 105.9094330 103.1213332  52.3129998 108.0242641  98.1001140  57.9582045
 107.3707053  97.7850157  57.3338660 107.9823115  97.4776881  58.6841868
 109.1353846 108.3820435  49.8735337 108.2280907 108.1509689  50.0726486
 109.6324878 107.5858054  50.0609319 111.2580381 104.5883074  62.2829693
 110.3402943 104.8098021  62.1251381 111.6740525 104.6629384  61.4241400
 112.0415429 105.9874489  57.4132373 112.7887248 106.4995887  57.1039495
 112.3107018 105.6658542  58.2736767 110.3142079 108.4833030  54.3959327
 109.4053298 108.1992063  54.4931797 110.3437163 108.9032109  53.5362634
 114.4894266 103.0231606  59.3951162 113.7517023 102.5108992  59.7261405
 114.7421040 102.5831987  58.5834439 114.5905893  95.8007858  59.9892932
 114.8964770  94.9405221  59.7018847 115.3158498  96.3925478  59.7891926
 100.8830249 106.2038544  58.3774530 100.6854649 105.6107905  57.6525596
 100.3276913 105.8990754  59.0950468 108.8626973 106.0961651  60.4969123
 108.9175583 105.1435487  60.4211599 108.0518175 106.2521090  60.9810421
 110.0118167 110.0241774  51.7347406 109.5737597 109.3077633  51.2753043
 110.7528608 110.2517889  51.1732497 106.8019333 104.7138710  58.2559502
 105.9887199 105.0132881  58.6624694 107.2978327 104.3194399  58.9733984
 112.3993545 105.1780535  67.0874396 112.7542932 105.4052008  67.9468861
 113.0465676 105.5098912  66.4651651 106.2933408 102.2857066  63.8720737
 106.9332787 102.1445825  63.1743700 105.4610938 101.9991579  63.4959339
 107.0693712 111.5859496  59.9855729 107.8634310 111.0909817  59.7838304
 106.3585404 111.0577360  59.6223435 103.3776475 105.7302578  56.0615482
 102.4474063 105.6687034  56.2785444 103.4733947 105.2078531  55.2652123
 103.2962024 102.2557391  58.6493723 103.5568842 103.1702724  58.5402884
 104.1179197 101.7881834  58.7990336 104.7686950 103.6695148  65.8192548
 105.4410003 103.4612510  65.1705197 103.9416736 103.4717234  65.3797780
 110.6712522 100.2957089  67.8358209 110.0240437 100.9947039  67.7422685
 111.4413537 100.7293233  68.2034457 110.8476656 108.1337854  65.8955029
 111.7768716 108.2849014  65.7223996 110.4267686 108.2221875  65.0403675
 109.6464988 112.1588518  63.6653566 109.5076073 111.7907303  64.5379504
 108.8579584 112.6736158  63.4937524 111.1970203 111.5370121  61.0542404
 110.8620035 111.4970891  61.9500054 110.6974149 110.8714837  60.5812814
 105.1714447 106.9437751  66.5794985 105.0334245 106.2117990  67.1806524
 106.0819370 106.8546651  66.2979173 114.1329395 108.8826155  51.3279464
 113.5158565 108.1572984  51.2312516 113.6645883 109.6435516  50.9846538
 107.7996747 106.6557710  66.0678665 108.5096366 106.0150903  66.0265283
 107.7566056 106.9070605  66.9904846 106.5125681 103.6422928  67.8874304
 105.9763038 103.1913667  68.5395901 105.9242390 103.7768837  67.1444769
 105.9227940 103.1011580  50.4500768 105.0457407 102.9800380  50.0863015
 106.3985693 102.3097658  50.1979657  97.4430081 107.8888739  60.5442275
  98.1301120 107.5750469  59.9563290  97.2878209 108.7930104  60.2709526
 102.2464803 102.7778936  64.9727299 102.1622991 102.1704606  64.2377709
 101.4247509 103.2687954  64.9736795 112.4188517 101.2632500  60.3397494
 112.9157216 100.5102462  60.0198564 111.6475498 101.2996816  59.7740703
 113.5018297 110.0204187  57.9135917 112.5674576 110.1405649  57.7440621
 113.6794966 109.1176654  57.6495927 109.0023485 103.4049883  60.0669178
 108.6321273 102.8520923  60.7550084 109.4982578 102.8008016  59.5144178
 116.8890849 105.8621506  58.4485951 117.3551301 106.6949498  58.3746254
 117.3398349 105.3966488  59.1531210 106.8312684 113.8647378  67.1624196
 107.5322143 114.4983860  67.3153591 106.3607799 114.2062109  66.4019836
 114.8607511  98.2302093  62.4876853 113.9470591  98.4606320  62.6559060
 115.2900613  98.3140537  63.3390885 114.6313970 106.4191985  64.9876747
 113.9785420 106.6667892  64.3329199 115.0094350 105.6056123  64.6539224
 110.6801543 107.1611796  71.4742784 110.0042180 107.0605925  72.1445159
 111.5029177 107.0051010  71.9378781 102.4280402 113.3983733  64.0955299
 103.0133839 112.6527420  64.2283203 102.2305240 113.7087689  64.9791963
 105.2819057 116.4334980  59.1117741 104.6129432 116.9181108  58.6281781
 105.1431927 116.6804200  60.0261120  97.0198057 105.9689333  62.8159742
  97.0582156 105.4352923  63.6096860  96.5138350 105.4424538  62.1970719
 104.3988819 100.8153873  66.3122284 104.4630145 101.6768704  65.8999682
 104.3355939 100.2027875  65.5794643 103.8741092 102.8877006  69.9595319
 104.5013130 102.5054083  70.5732843 103.0169010 102.6691208  70.3251011
 100.6506634 104.6953435  55.8913674 100.9460075 103.7864113  55.8380727
  99.7494670 104.6741174  55.5694676 104.1800881 102.7709432  61.8741222
 103.4587467 103.3845399  61.7348695 104.9694137 103.3067196  61.7957868
 106.9827195 100.1063858  68.1481874 107.5061597 100.3526155  68.9108183
 106.7639528 100.9383893  67.7285011 102.3794476 102.3767533  56.0152999
 102.0507182 101.4964912  55.8328105 102.7333847 102.3215201  56.9029388
 105.4936299 102.6640502  56.3828476 105.8332372 103.1926424  55.6607085
 105.9408419 103.0020909  57.1587043 108.1879740 101.0477553  65.8331544
 107.8476560 100.2485366  66.2352224 107.4818746 101.3479264  65.2608378
 108.8396212  98.1326866  64.2858867 109.6622281  97.6587344  64.1637758
 109.0834275  98.9117349  64.7857554 107.4804446 101.1615124  54.5821769
 108.2012809 101.5396377  54.0785486 106.8569750 101.8804001  54.6856747
 111.6235569 101.8660273  55.5180101 111.8399183 102.7484911  55.2168930
 111.1429636 101.4746486  54.7885743 106.3634790 104.8245986  62.0950846
 106.2179371 105.1386289  62.9875128 105.8859994 105.4430887  61.5421745
 108.2231173 101.8148534  62.1431736 108.2092742 100.9189627  61.8064034
 108.9403601 101.8219198  62.7770022 110.0757304 102.2485874  64.1884863
 109.8175082 103.1702945  64.1869193 109.5442344 101.8516309  64.8785327
 100.8380453 107.3651331  65.0338507 100.2933921 108.1411139  65.1658782
 101.7159802 107.7122135  64.8757629 107.6268069 100.6962914  57.4119306
 107.7483980  99.7679561  57.6110193 107.3370112 100.7101600  56.4997621
 110.4959260  98.3817825  60.5486026 110.5180956  98.4457158  59.5938005
 110.9127319  97.5422334  60.7426532 101.6246474 106.4921227  67.9268664
 100.8828210 106.6403862  68.5133295 101.3039219 106.7529492  67.0635414
 102.0703088 114.3786656  59.9579059 102.8961108 114.0790427  59.5777702
 101.7197140 113.6094278  60.4068847 107.0384621 113.7313124  62.0276732
 106.4164631 113.0683829  61.7278960 107.7089488 113.7574256  61.3450380
 100.2711693 112.2972982  60.9167992  99.4343601 111.8695156  60.7351994
 100.2435339 112.4905425  61.8538784 107.1109149 102.2094912  71.6209238
 107.1597304 103.0857035  71.2387008 107.6531663 101.6672305  71.0480882
 106.5998128 112.2817047  55.5035193 106.7486249 112.9652512  54.8501866
 107.4064572 112.2622137  56.0184649 115.0065632 105.5859429  69.5302411
 115.9075495 105.4465894  69.2386408 115.0813606 105.7513884  70.4700588
 109.3408437 102.9626284  68.3755597 108.4711747 103.2559850  68.1038186
 109.5767918 103.5466729  69.0962861 117.4667255 107.1458058  66.9265183
 117.9421376 107.3385704  66.1184035 116.5432820 107.2017243  66.6808567
 104.3550761 108.3082225  56.5096262 104.1096803 107.4044555  56.7076472
 104.5246676 108.3099375  55.5675740 112.0447471  99.1805901  65.8921017
 112.5629415  99.9166928  65.5667506 111.6902604  99.4869894  66.7267777
 103.6246409 104.0410582  54.0082423 102.9315654 104.1154937  53.3522459
 103.3798161 103.2770926  54.5303940 112.2960065  95.6006184  61.4121914
 112.5761819  94.9329373  62.0382341 113.0810672  95.7935279  60.8996578
 116.1668924 104.0223818  65.1593489 117.1186346 104.1221915  65.1805713
 115.9972374 103.2302086  65.6691573 114.1883303 101.1079401  65.3452890
 113.5933235 101.3884414  64.6499379 113.9033000 101.5973302  66.1169631
 110.4840332 106.1125990  50.3162993 111.4299437 105.9832198  50.3851411
 110.1054577 105.3740652  50.7932421 118.7951490 104.0340981  64.3194072
 118.2790538 103.2499437  64.1324001 119.6791438 103.7059697  64.4840591
 116.4562217  97.7781996  60.2789885 116.2587038  97.4697085  61.1633217
 117.0661922  98.5043635  60.4087814 110.3679025 110.1643736  71.7763650
 111.2882034 110.3422335  71.9703696 110.3328608 109.2199782  71.6243349
 108.6683249 104.0375967  50.2517878 107.7614705 103.7409079  50.3280592
 108.9459230 103.7405785  49.3852164  99.5861190 105.3582330  60.7016924
  99.2663974 104.5047638  60.4091298  99.0394618 105.5730908  61.4574892
 103.3641097 108.0744771  64.4186431 103.5827107 109.0061879  64.4374465
 103.7766871 107.7152746  65.2041235 110.2845315  98.5812856  56.4062119
 109.4746043  98.2359941  56.7817365 110.9729732  98.2720400  56.9949731
 112.2135863  97.6590903  58.0286416 112.7666902  98.0786357  58.6876439
 112.4505950  96.7326651  58.0709372 108.2368963 103.6477977  73.8089180
 108.1365690 104.5972334  73.7401271 108.0190505 103.3196216  72.9365250
 107.4382034 100.8962902  50.3929857 108.3001198 101.2217800  50.6525675
 107.6232378 100.1094398  49.8802923  99.4549450 108.9785242  62.6710046
  98.7612921 108.5639194  62.1580000 100.2022441 109.0205778  62.0743465
 115.5914670  99.7691428  57.5365080 115.0113340 100.4276232  57.1543133
 115.3250603  98.9468773  57.1252498 114.0418237  99.1696486  59.7386401
 114.5418015  99.2813021  58.9300719 114.6853845  98.8657539  60.3787209
 108.1000233 107.0775116  72.6254242 107.6167314 107.8775476  72.8318131
 108.1861172 107.0883061  71.6721685 101.3686192 108.9103495  60.5476061
 101.3456880 109.0091183  59.5957944 101.6786829 109.7568646  60.8693227
 104.0273570 110.9679650  64.6622675 104.9816824 110.9363593  64.5952607
 103.8286094 110.5070274  65.4772901 104.6172952 109.5380766  67.2293473
 105.4365841 110.0324845  67.2528310 104.8909760 108.6212735  67.2011040
 114.3739548 101.9291519  56.5921428 113.4865404 102.2141169  56.3741623
 114.7893538 101.7685282  55.7448705 117.7254085 101.9538040  60.3075768
 118.5014475 102.4434492  60.5800385 117.0002219 102.3796094  60.7647637
 120.1626643 102.6665659  61.3649708 120.7571134 102.4261395  60.6543017
 120.2353227 101.9472790  61.9923245 102.3823799 116.5099270  61.6792873
 102.2478267 115.7499671  61.1130871 101.9655861 117.2340170  61.2121662
 114.3480572 107.4446055  56.8071719 114.2915774 107.9014606  55.9679351
 114.9008915 106.6836739  56.6294561 118.1585378 103.2335787  57.6321838
 117.9022312 102.8332422  58.4630046 117.5338246 103.9479581  57.5071977
 115.0815352 108.6350836  54.1024248 115.0264155 108.4695107  53.1612692
 114.4561407 109.3426869  54.2586438  99.8707867 103.8718900  67.9285670
 100.5166730 103.3617854  68.4172895  99.6625018 104.6087582  68.5029095
 108.3911477  98.1358945  53.6809566 108.3790147  99.0800785  53.8377837
 109.2834899  97.9529090  53.3869027 112.2063596  94.7301722  57.9355503
 111.4395992  94.1760208  58.0812185 112.6174301  94.8023590  58.7969655
 104.2105358 101.0186517  72.0260684 105.0736819 100.6623322  72.2364009
 103.6370768 100.6800412  72.7136089  44.9887161  -7.6965499  49.4929917
  44.6505672  -7.8124435  48.6050451  45.8576929  -8.0974334  49.4730923
  40.8473976  -5.8430023  45.4826808  40.2838841  -5.9340086  44.7143095
  40.7326371  -6.6630118  45.9629300  45.4706944  -6.5430648  55.4516122
  45.4595584  -6.9377849  54.5796626  45.6327583  -7.2764575  56.0449894
  38.3938408  -4.3478831  48.3211028  39.1859700  -4.6888007  47.9057327
  38.6335058  -4.2383856  49.2413181  46.4273535  -2.1759055  40.7941272
  45.7761515  -1.5904975  40.4075286  47.2217898  -1.6452860  40.8536310
  40.3529162  -5.0869918  41.1928407  41.1260038  -5.6340931  41.0541283
  40.7054561  -4.2225669  41.4042868  42.1914205  -3.7593536  54.3995306
  41.9004071  -2.8547905  54.2841972  42.8271189  -3.7177008  55.1139376
  43.1170412  -6.3816687  50.9896666  43.7133984  -6.6060665  50.2753629
  43.1745383  -7.1231942  51.5922114  42.6895440  -8.9277252  38.8246857
  42.9420961  -9.4495731  38.0630320  41.7519999  -9.0911106  38.9273540
  47.9048800  -4.4868623  41.3310257  47.2694633  -4.4133997  42.0431161
  47.5746207  -3.8975024  40.6529336  42.4091729  -7.0249146  41.0271232
  42.2927987  -7.7004243  41.6952316  42.5193989  -7.5116772  40.2103385
  44.7523270  -7.5638999  44.7317921  44.3881477  -8.0908378  45.4430842
  45.6090386  -7.9540530  44.5584406  47.1504090  -4.0732120  51.3945100
  46.8504813  -3.1707081  51.2860907  46.8055149  -4.3399937  52.2466253
  40.6016571  -7.6218323  47.4281804  39.6767068  -7.7542109  47.6359496
  40.8500984  -6.8424104  47.9251747  37.9625382  -7.9785050  48.2625593
  38.0917763  -7.7250571  49.1765005  37.2822834  -7.3857342  47.9430248
  42.1324870   2.6912200  44.3616067  42.0548899   3.6420025  44.4404548
  41.5286513   2.3458073  45.0190994  42.8788472  -7.3274481  56.5795401
  43.6203156  -6.7889437  56.3030225  42.1725457  -6.7008192  56.7366953
  48.3543811  -5.1845341  55.1767563  48.7627167  -5.6262930  54.4322195
  47.6321073  -5.7592713  55.4301756  48.6772626  -4.6244150  48.9319852
  48.0481488  -4.4598436  48.2295920  48.2898288  -4.2102540  49.7030816
  52.5561858  -3.6889712  46.2864216  51.8712896  -3.3090811  45.7361249
  52.6405707  -3.0794385  47.0196163  49.8112789  -6.0429753  52.8859559
  50.0229685  -5.3997993  52.2093940  49.7642538  -6.8767437  52.4181489
  44.2300588  -4.8869742  46.1969937  44.6938933  -4.6082039  45.4074559
  43.9657386  -5.7886297  46.0143028  41.1224669  -5.3398260  49.1349700
  41.6926026  -4.9110992  48.4967185  41.7132781  -5.6215676  49.8333886
  43.1669474  -8.7646590  43.0059502  43.8693517  -8.3125546  43.4733428
  42.8350102  -9.4062771  43.6339395  41.6149835 -10.1734833  57.3810711
  40.9848496  -9.4918552  57.6146108  41.5085923 -10.2851751  56.4363850
  50.9258617  -3.1657798  51.0581916  51.7476061  -3.5677610  50.7764598
  50.9221020  -3.2689564  52.0098032  44.6915221  -3.6173754  53.2142627
  44.7559653  -3.1553347  54.0500799  43.9826145  -4.2476389  53.3424937
  44.4063238  -1.9505647  43.0821607  44.2708913  -1.1054111  43.5106455
  44.9473051  -1.7486369  42.3187541  37.8592636  -4.4330209  43.6549532
  38.3717156  -3.6386959  43.8055097  38.5115349  -5.1303918  43.5883134
  39.6687521  -1.3164453  45.7372285  39.8454149  -0.3946488  45.5493269
  40.4644354  -1.6306033  46.1666665  46.0331715  -1.3282080  57.2121949
  45.5895569  -2.1145702  56.8942854  46.6948928  -1.1402930  56.5465840
  40.7918836   0.2013721  51.7382628  41.3426261   0.0730785  50.9659622
  39.9530312   0.5008610  51.3877521  48.1312953  -1.0479280  55.2403351
  48.1131428  -0.2270399  54.7483620  49.0532873  -1.1725205  55.4653492
  44.5886007  -3.5335151  56.0826859  45.1214344  -4.2946863  55.8526167
  44.0600088  -3.8261499  56.8251013  52.6940259  -5.6834119  42.0546109
  51.9169702  -6.0222960  41.6101271  53.3731740  -5.6781496  41.3801074
  45.9538720  -4.4049159  43.5945671  45.4260081  -5.1396399  43.2818908
  45.4526223  -3.6274482  43.3485639  50.9331566  -6.2100138  48.7112717
  50.2755240  -5.5200877  48.7992846  51.7371965  -5.8203706  49.0546704
  44.0991320  -6.5868948  36.5980644  43.1918382  -6.8179695  36.7971793
  44.5962352  -7.3831329  36.7854626  47.0059399   2.1228559  39.5177330
  46.3321098   2.4260256  40.1262288  47.3925221   2.9257639  39.1682787
  45.2779553  -6.4856353  41.1204634  44.3690773  -6.7697321  41.2177104
  45.3074637  -6.0657275  40.2607941  50.5098821  -2.8749764  44.8895802
  50.0561148  -3.7158854  44.9460992  49.8792788  -2.2388366  45.2270582
  48.9531760  -1.0373267  45.8245620  49.2454734  -0.4768210  45.1057985
  49.4630381  -0.7444706  46.5798779  44.9755641  -4.9447610  38.4592713
  44.5375071  -5.6611751  37.9998350  45.7166082  -4.7171495  37.8977804
  43.9165385  -0.2592916  46.9139073  43.8741564  -0.0332070  45.9847605
  44.8328084  -0.4929542  47.0624874  53.1198136  -4.6013886  49.5280303
  53.5534642  -4.6938597  50.3763357  53.8329716  -4.6256385  48.8900319
  42.0331186  -3.3829887  46.7101036  42.8271785  -3.8779567  46.5083611
  41.3222878  -3.9112024  46.3468741  46.8526031  -1.0011792  51.0613403
  46.9063053  -0.4320855  51.8291119  45.9840812  -0.8309907  50.6967440
  53.9813685  -4.5590185  52.0613188  54.1749575  -3.6544375  52.3072463
  53.8814303  -5.0182766  52.8951773  49.0428794  -4.4083442  57.6354069
  48.8914300  -4.6372891  56.7184152  49.0333473  -3.4512841  57.6485414
  45.8114130  -6.8351530  52.6200335  46.7406190  -6.6840370  52.4469302
  45.3905160  -6.7467509  51.7648982  44.6102462  -2.8100865  50.3898873
  44.4713548  -3.1782081  51.2624811  43.8217058  -2.2953226  50.2182831
  45.2050614   2.2908231  41.7324409  45.3802370   1.8196275  42.5470032
  44.5183402   2.9173998  41.9605670  46.1607677  -3.4319262  47.7787711
  45.8257510  -3.4718492  48.6745360  45.6611623  -4.0974546  47.3058121
  40.1351921  -8.0251632  53.3040292  39.9971719  -8.7571394  53.9051831
  41.0456845  -8.1142732  53.0224479  49.0966869  -6.0863228  38.0524770
  48.4796039  -6.8116400  37.9557823  48.6283357  -5.3253868  37.7091844
  42.7634222  -8.3131673  52.7923971  43.4733840  -8.9538481  52.7510590
  42.7203530  -8.0618778  53.7150152  50.7521000  -1.3764320  55.7130551
  50.6933547  -2.0605100  55.0461134  51.1540519  -0.6345330  55.2611177
  39.7711699   5.4397594  48.5064269  40.0108298   6.0716118  49.1843288
  38.9280896   5.0885634  48.7929629  50.7538408  -3.4124736  53.9444530
  49.8665187  -3.7498814  54.0670929  51.3236959  -4.1441705  54.1813296
  44.2839561   1.2476717  50.9105773  44.2109733   2.0531688  51.4225078
  43.8416954   1.4468682  50.0853795  44.0729341   0.4848487  44.4208595
  43.2896863   1.0270167  44.5146820  44.7722086   1.0022466  44.8202836
  46.7438245   1.1463551  53.0663932  47.4566217   1.7811015  52.9939834
  46.2528273   1.2427417  52.2503934  48.4655772  -4.9485197  44.6381224
  47.5312050  -4.8283734  44.4685928  48.6432440  -5.8512730  44.3741234
  41.7950158  -1.1042006  53.8869503  42.4959618  -0.4705523  54.0398897
  41.3245273  -0.7627274  53.1265142  49.9204554  -2.7624056  42.1717410
  50.1964398  -2.8767462  43.0811284  49.0509053  -3.1606571  42.1329583
  46.5558618   1.4862295  45.8150224  46.7381013   0.6683951  46.2777976
  47.3791604   1.7029987  45.3775114  46.8900784   0.4130480  43.0765272
  47.4188550  -0.0977066  42.4635434  47.1529003   0.0973010  43.9410805
  45.6439017  -7.8077587  58.1988090  44.9679654  -7.9083458  58.8690466
  46.4666651  -7.9638374  58.6624088  37.3917876  -1.5705651  50.8200606
  37.9771313  -2.3161963  50.9528510  37.1942715  -1.2601694  51.7037270
  40.2456531   1.4645597  45.8363048  39.5766907   1.9491724  45.3527088
  40.1069401   1.7114817  46.7506427  44.3861800   3.4989340  52.4345706
  44.9380108   3.6620962  53.1994792  44.7267994   4.0893778  51.7625731
  49.2372674  -1.6749402  58.2894361  49.7812578  -1.0619444  57.7949316
  48.6559519  -1.1169824  58.8061374  47.5230187   1.4471316  49.4209389
  47.3981327   0.6461055  48.9120334  48.1809278   1.9417509  48.9323359
  49.5865096  -0.7519664  51.0488939  48.6395431  -0.8714313  50.9767265
  49.9347869  -1.6397166  51.1315200  46.5911529  -0.9566948  47.2493291
  46.4436491  -1.8850241  47.4300861  47.4165023  -0.9346857  46.7650366
  50.1945651  -0.1338389  48.3358164  51.1192198  -0.3395528  48.1982615
  50.0260954  -0.3821988  49.2447505  41.3272265 -10.1443397  48.8196153
  41.1816845  -9.8303094  49.7120434  40.8497468  -9.5258497  48.2667051
  49.9840967   0.3847278  43.6920255  50.1577845  -0.1806299  42.9394108
  50.4769858   1.1848173  43.5099745  50.9716140  -0.2985958  40.7917153
  51.6667044   0.3220735  41.0104468  51.3139290  -1.1490606  41.0669531
  52.8707563  -2.8486252  42.3204484  53.3958887  -2.5098979  41.5953804
  52.7829915  -3.7839237  42.1367619  44.5327611   1.0647822  54.4494361
  44.8414738   0.8196968  55.3217060  45.3303093   1.2694460  53.9613231
  44.5548223   3.2185731  46.6799737  44.1153214   2.7262110  47.3732594
  45.3056340   2.6758699  46.4391813  37.0340562  -0.5902728  46.6824365
  37.8598582  -0.8898956  46.3023009  36.6834614  -1.3595105  47.1314154
  42.0022096  -1.2376260  48.7522039  41.3802105  -1.9005555  48.4524267
  42.6726963  -1.2115128  48.0695687  35.2349167  -2.6716401  47.6413299
  34.3981076  -3.0994227  47.4597300  35.2072813  -2.4783958  48.5784090
  52.5601469  -2.2153348  57.6255682  51.7697012  -2.2329210  57.0860181
  52.3234823  -1.6765055  58.3804719  52.6799344  -5.3660882  54.9388411
  52.7297349  -5.5310875  55.8803933  52.5713267  -6.2333623  54.5486291
  41.5635603  -2.6872336  42.2280500  41.7123723  -2.0036872  41.5747172
  42.3702046  -2.7067246  42.7429955  54.1817541  -2.9463941  55.1830432
  53.8902349  -2.5833960  56.0193893  53.5689672  -3.6596932  55.0043764
  39.3188235  -6.6607159  43.2341568  39.0734277  -7.5644829  43.4321779
  39.4884150  -6.6590008  42.2921046  45.0631008  -0.1924206  39.6992247
  44.4904975   0.4265981  39.2462719  45.6363802   0.3575156  40.2332169
  48.2828268   0.0912944  40.8300829  49.2158941   0.0258506  41.0333705
  48.1951481   0.9269211  40.3715362  50.9116284  -0.5921185  37.7904777
  50.8329916  -0.9261322  38.6840535  51.7325951  -0.0999417  37.7896249
  45.3316499  -4.8045647  58.5008956  46.2519509  -4.6267048  58.6949003
  45.2966082  -5.7489602  58.3488656  38.3278572  -6.8944612  51.1431738
  38.5464581  -5.9627505  51.1619771  38.7404345  -7.2536638  51.9286541
  43.0637707  -7.8914268  59.3499548  42.5804789  -7.0913908  59.5563437
  43.1498646  -7.8806323  58.3966992  36.3323667  -6.0585888  47.2721368
  36.3094355  -5.9598201  46.3203251  36.6424303  -5.2120737  47.5938534
  38.9911044  -4.0009733  51.3867982  39.9454298  -4.0325791  51.3197914
  38.7923568  -4.4619109  52.2018208  39.5810427  -5.4308617  53.9538780
  40.4003316  -4.9364538  53.9773617  39.8547234  -6.3476649  53.9256347
  37.3461273   1.5409886  48.4038180  37.2115741   0.7810287  47.8376178
  36.9293336   2.2650786  47.9366969  48.4820236  -3.2753190  37.4114755
  49.1856086  -3.0703188  38.0272411  47.7582885  -2.7076428  37.6763839
  40.5030399   2.4379203  48.6156622  40.3862783   3.3824636  48.5135313
  39.6822845   2.1352765  49.0042422  50.3906934  -2.8370661  39.4613215
  51.2252538  -3.2689462  39.2790690  50.2291277  -3.0088647  40.3890110
  50.0452826  -6.3338547  40.8269554  49.9901630  -6.4994276  39.8857999
  49.4198881  -5.6262515  40.9831744  47.3598733  -4.0289636  60.1523117
  48.2289893  -3.8548983  59.7909752  46.8805485  -3.2095219  60.0298847
  41.5284913   3.0907465  51.8312551  42.4312160   3.1231076  52.1479046
  41.3022283   2.1607916  51.8458887  43.2838515   1.8438452  48.4922630
  42.3334146   1.8440314  48.3787002  43.5871001   1.0971186  47.9758664
  59.0191209   7.6798990  49.5568392  59.6569619   7.5605738  48.8531732
  58.9012052   8.6279834  49.6156344  55.8280915   7.6326418  49.4929917
  55.4899427   7.5167483  48.6050451  56.6970683   7.2317584  49.4730923
  51.6867731   9.4861895  45.4826808  51.1232596   9.3951832  44.7143095
  51.5720126   8.6661799  45.9629300  56.3100698   8.7861270  55.4516122
  56.2989339   8.3914068  54.5796626  56.4721338   8.0527343  56.0449894
  49.2332163  10.9813086  48.3211028  50.0253455  10.6403911  47.9057327
  49.4728813  11.0908061  49.2413181  57.2667289  13.1532863  40.7941272
  56.6155269  13.7386943  40.4075286  58.0611652  13.6839057  40.8536310
  51.1922917  10.2422000  41.1928407  51.9653793   9.6950987  41.0541283
  51.5448315  11.1066249  41.4042868  53.0307959  11.5698382  54.3995306
  52.7397825  12.4744013  54.2841972  53.6664944  11.6114910  55.1139376
  53.9564166   8.9475230  50.9896666  54.5527738   8.7231253  50.2753629
  54.0139138   8.2059976  51.5922114  53.5289194   6.4014666  38.8246857
  53.7814715   5.8796187  38.0630320  52.5913754   6.2380811  38.9273540
  58.5732477   5.4050444  46.6321600  59.3595566   4.9869867  46.2812017
  58.8371182   6.3096536  46.8003248  58.7442555  10.8423294  41.3310257
  58.1088388  10.9157921  42.0431161  58.4139961  11.4316893  40.6529336
  63.9740904   5.3425677  47.5354578  64.7066076   4.7724894  47.7692408
  63.2180260   4.9547278  47.9761084  53.2485483   8.3042772  41.0271232
  53.1321741   7.6287675  41.6952316  53.3587743   7.8175146  40.2103385
  55.5917024   7.7652919  44.7317921  55.2275231   7.2383540  45.4430842
  56.4484140   7.3751388  44.5584406  61.4966325  -0.9452749  51.9949187
  61.1649650  -0.0757338  51.7710402  60.9011938  -1.2616465  52.6743217
  55.2322511   2.7942819  39.7279269  55.3996913   3.6623055  40.0949740
  55.0419680   2.9570100  38.8040559  57.9897844  11.2559797  51.3945100
  57.6898567  12.1584836  51.2860907  57.6448904  10.9891981  52.2466253
  51.4410326   7.7073594  47.4281804  50.5160822   7.5749808  47.6359496
  51.6894739   8.4867814  47.9251747  61.3894988   3.7742338  49.0742537
  60.4811865   3.7057746  48.7801298  61.3382584   4.2514283  49.9024363
  55.2111732   5.2500476  40.7125936  55.0911357   5.6957527  41.5511417
  54.5164320   5.5985794  40.1539474  48.8019137   7.3506868  48.2625593
  48.9311518   7.6041347  49.1765005  48.1216588   7.9434576  47.9430248
  52.9718624  18.0204118  44.3616067  52.8942654  18.9711943  44.4404548
  52.3680268  17.6749990  45.0190994  55.4635854   5.1931983  57.0177434
  54.6869188   5.7525903  57.0080299  56.1026417   5.6788766  57.5392304
  63.2556634   1.9758776  50.8520411  62.6131015   2.2691309  50.2060206
  62.7511563   1.8611696  51.6573608  60.9096798   5.7221949  41.5406270
  61.8214654   5.9549336  41.3653968  60.4006445   6.3058993  40.9781349
  53.7182226   8.0017437  56.5795401  54.4596911   8.5402481  56.3030225
  53.0119212   8.6283725  56.7366953  59.1937566  10.1446577  55.1767563
  59.6020922   9.7028988  54.4322195  58.4714827   9.5699205  55.4301756
  55.5468636   5.0819184  52.5501120  56.3929831   5.5058597  52.6935769
  55.4867274   4.4252808  53.2439683  59.5166380  10.7047768  48.9319852
  58.8875243  10.8693482  48.2295920  59.1292043  11.1189377  49.7030816
  63.3955612  11.6402206  46.2864216  62.7106650  12.0201107  45.7361249
  63.4799462  12.2497532  47.0196163  58.6968081   2.7423552  54.2082293
  58.4529013   3.4965613  53.6716569  58.9728012   3.1208900  55.0429541
  60.6506544   9.2862165  52.8859559  60.8623439   9.9293924  52.2093940
  60.6036292   8.4524481  52.4181489  58.2532773   1.8979985  49.7896131
  57.3917252   2.1961239  50.0812869  58.2795208   2.1150384  48.8577164
  55.0694342  10.4422176  46.1969937  55.5332688  10.7209879  45.4074559
  54.8051140   9.5405620  46.0143028  51.9618423   9.9893657  49.1349700
  52.5319780  10.4180926  48.4967185  52.5526535   9.7076242  49.8333886
  54.0063228   6.5645328  43.0059502  54.7087272   7.0166372  43.4733428
  53.6743857   5.9229147  43.6339395  52.4543590   5.1557085  57.3810711
  51.8242250   5.8373366  57.6146108  52.3479678   5.0440166  56.4363850
  47.7488562   4.8228881  48.3076636  46.9587616   5.0786409  47.8316746
  48.2399810   5.6377219  48.4128676  61.7652372  12.1634120  51.0581916
  62.5869816  11.7614307  50.7764598  61.7614775  12.0602354  52.0098032
  49.7003308   5.1873460  45.2660112  48.9034471   5.2992154  45.7843608
  49.4728900   5.5260112  44.4001003  55.5308975  11.7118163  53.2142627
  55.5953408  12.1738571  54.0500799  54.8219899  11.0815528  53.3424937
  46.0326265   5.0759371  50.7391626  46.2834304   5.9606381  51.0049202
  46.5685814   4.8963973  49.9666718  69.8558365   8.5072868  47.4066888
  69.1022073   7.9380267  47.2510892  69.9905906   8.4735533  48.3537523
  55.2456993  13.3786271  43.0821607  55.1102668  14.2237806  43.5106455
  55.7866805  13.5805548  42.3187541  51.7324333  -0.5422149  59.7435962
  51.3391278  -1.0955951  60.4183607  52.5490473  -0.2311571  60.1342480
  48.6986390  10.8961709  43.6549532  49.2110911  11.6904959  43.8055097
  49.3509103  10.1987999  43.5883134  50.5081275  14.0127465  45.7372285
  50.6847903  14.9345430  45.5493269  51.3038109  13.6985884  46.1666665
  54.6492294   0.8735730  57.3356219  55.3902007   1.4742883  57.2560681
  54.8810216   0.1313367  56.7774262  49.7933632   6.0592097  55.6134449
  49.6787147   5.1577354  55.9141548  48.9378149   6.3055794  55.2619265
  56.8725469  14.0009837  57.2121949  56.4289324  13.2146216  56.8942854
  57.5342683  14.1888988  56.5465840  51.6312591  15.5305639  51.7382628
  52.1820016  15.4022702  50.9659622  50.7924066  15.8300528  51.3877521
  58.9706707  14.2812637  55.2403351  58.9525183  15.1021518  54.7483620
  59.8926627  14.1566712  55.4653492  55.4279762  11.7956767  56.0826859
  55.9608098  11.0345055  55.8526167  54.8993843  11.5030418  56.8251013
  58.5949457  -3.0983167  51.6120501  58.2513726  -2.2081526  51.5359611
  58.9628419  -3.2881510  50.7490086  46.6635307   9.2250363  44.4309103
  47.5010529   9.6347371  44.2142811  46.8413575   8.2849805  44.4009297
  58.5599739   6.8925444  40.1192936  58.0446363   7.6630048  40.3581323
  58.2877048   6.2190580  40.7425997  56.1446850   1.7375145  45.1778174
  55.2888447   1.3481995  44.9983813  56.5573802   1.8167105  44.3177960
  57.6745997  -0.7278512  49.5769734  57.1710793  -0.7648377  48.7637539
  57.9676604   0.1814231  49.6366391  53.9188883  -0.6439782  48.5835916
  54.7841880  -0.8396974  48.2241805  53.9866392  -0.8729431  49.5105272
  63.5334013   9.6457798  42.0546109  62.7563456   9.3068958  41.6101271
  64.2125494   9.6510422  41.3801074  58.3486042   4.7652536  41.9452717
  58.0436178   5.0798685  42.7962860  59.3016485   4.8433956  41.9880050
  56.7932474  10.9242759  43.5945671  56.2653836  10.1895519  43.2818908
  56.2919977  11.7017436  43.3485639  61.7725320   9.1191780  48.7112717
  61.1148995   9.8091041  48.7992846  62.5765720   9.5088212  49.0546704
  51.5251202   1.5862425  45.9552282  52.0994954   1.3637607  45.2225475
  52.1122184   1.6551120  46.7080884  60.5830779   7.4736152  46.7616659
  61.0962661   8.1066144  47.2638369  61.2332003   6.8737348  46.3960019
  51.8520789   3.6166886  39.9748168  51.0158101   3.9541573  40.2957442
  51.7125559   3.4815866  39.0375305  53.8273870  -1.5396326  44.6827352
  53.1738282  -1.8547308  44.0583967  53.7854344  -2.1620585  45.4087175
  54.9385074   8.7422969  36.5980644  54.0312136   8.5112223  36.7971793
  55.4356106   7.9460589  36.7854626  57.8453153  17.4520477  39.5177330
  57.1714852  17.7552173  40.1262288  58.2318975  18.2549557  39.1682787
  57.0611610   4.9485608  49.0075000  56.1434171   5.1700555  48.8496688
  57.4771754   5.0231918  48.1486707  57.8446658   6.3477024  44.1377680
  58.5918477   6.8598421  43.8284802  58.1138247   6.0261076  44.9982073
  56.1173308   8.8435564  41.1204634  55.2084527   8.5594597  41.2177104
  56.1468392   9.2634643  40.2607941  61.3492575  12.4542154  44.8895802
  60.8954902  11.6133064  44.9460992  60.7186542  13.0903552  45.2270582
  60.2925495   3.3834140  46.1196469  59.5548252   2.8711526  46.4506712
  60.5452268   2.9434521  45.3079746  59.7925515  14.2918650  45.8245620
  60.0848489  14.8523708  45.1057985  60.3024135  14.5847211  46.5798779
  46.6861478   6.5641078  45.1019836  46.4885878   5.9710439  44.3770903
  46.1308142   6.2593289  45.8195775  54.6658202   6.4564185  47.2214429
  54.7206812   5.5038021  47.1456906  53.8549404   6.6123624  47.7055728
  55.8149396  10.3844308  38.4592713  55.3768826   9.6680167  37.9998350
  56.5559837  10.6120423  37.8977804  52.6050562   5.0741245  44.9804808
  51.7918427   5.3735415  45.3870000  53.1009556   4.6796933  45.6979291
  54.7559140  15.0699002  46.9139073  54.7135319  15.2959848  45.9847605
  55.6721839  14.8362376  47.0624874  58.2024774   5.5383069  53.8119702
  58.5574161   5.7654542  54.6714168  58.8496905   5.8701446  53.1896957
  63.9322510   8.6601505  44.5169031  63.7940409   8.8503101  43.5890220
  63.5758729   9.4220888  44.9737082  52.0964637   2.6459600  50.5966043
  52.7364016   2.5048359  49.8989007  51.2642167   2.3594114  50.2204645
  63.9591890  10.7278032  49.5280303  64.3928397  10.6353321  50.3763357
  64.6723471  10.7035532  48.8900319  52.8724941  11.9462031  46.7101036
  53.6665539  11.4512351  46.5083611  52.1616633  11.4179894  46.3468741
  57.6919785  14.3280126  51.0613403  57.7456807  14.8971062  51.8291119
  56.8234566  14.4982011  50.6967440  49.1807704   6.0905112  42.7860788
  48.2505292   6.0289568  43.0030751  49.2765176   5.5681065  41.9897430
  49.0993253   2.6159925  45.3739030  49.3600070   3.5305258  45.2648191
  49.9210425   2.1484368  45.5235643  50.5718178   4.0297682  52.5437855
  51.2441232   3.8215044  51.8950503  49.7447965   3.8319768  52.1043087
  64.8207440  10.7701733  52.0613188  65.0143330  11.6747543  52.3072463
  64.7208058  10.3109152  52.8951773  56.4743750   0.6559623  54.5603515
  55.8271665   1.3549573  54.4667992  57.2444766   1.0895767  54.9279764
  59.8822548  10.9208475  57.6354069  59.7308055  10.6919027  56.7184152
  59.8727228  11.8779077  57.6485414  56.6507885   8.4940388  52.6200335
  57.5799945   8.6451548  52.4469302  56.2298915   8.5824409  51.7648982
  55.4496217  12.5191053  50.3898873  55.3107302  12.1509837  51.2624811
  54.6610813  13.0338692  50.2182831  56.0444368  17.6200149  41.7324409
  56.2196124  17.1488192  42.5470032  55.3577157  18.2465915  41.9605670
  57.0001432  11.8972655  47.7787711  56.6651264  11.8573425  48.6745360
  56.5005377  11.2317371  47.3058121  50.9745676   7.3040285  53.3040292
  50.8365474   6.5720524  53.9051831  51.8850599   7.2149185  53.0224479
  59.9360623   9.2428690  38.0524770  59.3189794   8.5175518  37.9557823
  59.4677112  10.0038050  37.7091844  53.6027976   7.0160245  52.7923971
  54.3127595   6.3753437  52.7510590  53.5597284   7.2673139  53.7150152
  61.5914755  13.9527598  55.7130551  61.5327301  13.2686818  55.0461134
  61.9934273  14.6946588  55.2611177  52.3156910   4.0025463  54.6119611
  51.7794267   3.5516201  55.2641207  51.7273619   4.1371371  53.8690075
  50.6105454  20.7689512  48.5064269  50.8502052  21.4008036  49.1843288
  49.7674650  20.4177552  48.7929629  51.7259169   3.4614114  37.1746075
  50.8488636   3.3402915  36.8108321  52.2016922   2.6700192  36.9224963
  61.5932162  11.9167182  53.9444530  60.7058941  11.5793104  54.0670929
  62.1630713  11.1850213  54.1813296  43.2461309   8.2491274  47.2687582
  43.9332349   7.9353004  46.6808597  43.0909438   9.1532638  46.9954833
  48.0496032   3.1381470  51.6972605  47.9654220   2.5307140  50.9623015
  47.2278738   3.6290489  51.6982102  55.1233316  16.5768634  50.9105773
  55.0503487  17.3823606  51.4225078  54.6810709  16.7760600  50.0853795
  54.9123095  15.8140404  44.4208595  54.1290617  16.3562084  44.5146820
  55.6115840  16.3314384  44.8202836  58.2219745   1.6235034  47.0642800
  58.7188445   0.8704996  46.7443871  57.4506727   1.6599350  46.4986010
  66.0749503   7.3275399  48.7061092  66.0639379   8.2100115  48.3355025
  65.2066882   6.9746950  48.5115629  57.5831999  16.4755468  53.0663932
  58.2959971  17.1102933  52.9939834  57.0922028  16.5719334  52.2503934
  59.3049526  10.3806721  44.6381224  58.3705805  10.5008183  44.4685928
  59.4826195   9.4779188  44.3741234  54.8054714   3.7652417  46.7914485
  54.4352502   3.2123457  47.4795391  55.3013807   3.1610550  46.2389485
  62.6922077   6.2224040  45.1731258  63.1582530   7.0552032  45.0991561
  63.1429578   5.7569022  45.8776516  52.6343913  14.2249912  53.8869503
  53.3353372  14.8586395  54.0398897  52.1639028  14.5664643  53.1265142
  60.7598309  12.5667862  42.1717410  61.0358152  12.4524456  43.0811284
  59.8902807  12.1685346  42.1329583  60.6638740  -1.4095373  49.2122159
  59.7501820  -1.1791146  49.3804366  61.0931842  -1.3256929  50.0636192
  60.4345199   6.7794519  51.7122053  59.7816649   7.0270427  51.0574506
  60.8125579   5.9658657  51.3784531  57.3952373  16.8154212  45.8150224
  57.5774767  15.9975868  46.2777976  58.2185359  17.0321905  45.3775114
  57.7294538  15.7422398  43.0765272  58.2582304  15.2314852  42.4635434
  57.9922758  15.4264928  43.9410805  56.4832772   7.5214330  58.1988090
  55.8073409   7.4208460  58.8690466  57.3060406   7.3653544  58.6624088
  48.2311631  13.7586267  50.8200606  48.8165068  13.0129955  50.9528510
  48.0336469  14.0690224  51.7037270  51.0850286  16.7937514  45.8363048
  50.4160661  17.2783642  45.3527088  50.9463156  17.0406735  46.7506427
  42.8229285   6.3291867  49.5405049  42.8613385   5.7955458  50.3342167
  42.3169578   5.8027073  48.9216026  55.2255555  18.8281258  52.4345706
  55.7773863  18.9912879  53.1994792  55.5661748  19.4185696  51.7625731
  50.2020048   1.1756408  53.0367591  50.2661374   2.0371238  52.6244989
  50.1387168   0.5630409  52.3039950  49.6772320   3.2479540  56.6840625
  50.3044359   2.8656617  57.2978150  48.8200239   3.0293742  57.0496318
  60.0766429  13.6542515  58.2894361  60.6206333  14.2672473  57.7949316
  59.4953274  14.2122094  58.8061374  46.4537863   5.0555969  42.6158980
  46.7491304   4.1466648  42.5626034  45.5525899   5.0343709  42.2939983
  58.3623942  16.7763233  49.4209389  58.2375081  15.9752973  48.9120334
  59.0203033  17.2709427  48.9323359  49.9832110   3.1311966  48.5986529
  49.2618696   3.7447933  48.4594002  50.7725366   3.6669731  48.5203175
  60.4258850  14.5772253  51.0488939  59.4789186  14.4577605  50.9767265
  60.7741623  13.6894751  51.1315200  52.7858424   0.4666392  54.8727181
  53.3092825   0.7128689  55.6353490  52.5670757   1.2986427  54.4530318
  48.1825705   2.7370067  42.7398305  47.8538411   1.8567446  42.5573411
  48.5365075   2.6817736  43.6274695  57.4305284  14.3724970  47.2493291
  57.2830246  13.4441677  47.4300861  58.2558777  14.3945060  46.7650366
  51.2967528   3.0243037  43.1073783  51.6363600   3.5528958  42.3852391
  51.7439648   3.3623443  43.8832350  61.0339405  15.1953528  48.3358164
  61.9585953  14.9896390  48.1982615  60.8654709  14.9469929  49.2447505
  53.9910969   1.4080087  52.5576851  53.6507789   0.6087900  52.9597531
  53.2849975   1.7081798  51.9853684  54.6427440  -1.5070600  51.0104174
  55.4653510  -1.9810122  50.8883064  54.8865504  -0.7280116  51.5102860
  53.2835675   1.5217658  41.3067076  54.0044037   1.8998911  40.8030793
  52.6600979   2.2406535  41.4102054  57.4266798   2.2262807  42.2425408
  57.6430412   3.1087445  41.9414236  56.9460865   1.8349021  41.5131050
  52.1666019   5.1848520  48.8196153  52.0210600   5.4988823  49.7120434
  51.6891223   5.8033421  48.2667051  54.0262402   2.1751068  48.8677042
  54.0123971   1.2792162  48.5309340  54.7434830   2.1821732  49.5015328
  55.8788533   2.6088409  50.9130170  55.6206311   3.5305479  50.9114500
  55.3473573   2.2118843  51.6030634  60.8234722  15.7139196  43.6920255
  60.9971599  15.1485618  42.9394108  61.3163613  16.5140091  43.5099745
  46.6411681   7.7253865  51.7583814  46.0965149   8.5013673  51.8904088
  47.5191031   8.0724669  51.6002935  53.4299298   1.0565449  44.1364612
  53.5515209   0.1282095  44.3355500  53.1401340   1.0704135  43.2242928
  56.2990488  -1.2579641  47.2731332  56.3212185  -1.1940308  46.3183312
  56.7158547  -2.0975132  47.4671838  66.6774113   8.4775619  45.3110555
  67.1205259   7.7282944  44.9129678  65.8000623   8.4685755  44.9284287
  61.8109894  15.0305960  40.7917153  62.5060799  15.6512653  41.0104468
  62.1533044  14.1801311  41.0669531  47.4277703   6.8523761  54.6513971
  46.6859439   7.0006396  55.2378601  47.1070448   7.1132027  53.7880720
  63.7101317  12.4805666  42.3204484  64.2352641  12.8192938  41.5953804
  63.6223670  11.5452681  42.1367619  55.3721366  16.3939739  54.4494361
  55.6808492  16.1488886  55.3217060  56.1696848  16.5986378  53.9613231
  55.3941978  18.5477649  46.6799737  54.9546968  18.0554028  47.3732594
  56.1450095  18.0050617  46.4391813  47.8734317  14.7389190  46.6824365
  48.6992337  14.4392962  46.3023009  47.5228369  13.9696812  47.1314154
  52.8415850  14.0915658  48.7522039  52.2195859  13.4286363  48.4524267
  53.5120717  14.1176790  48.0695687  46.0742922  12.6575516  47.6413299
  45.2374830  12.2297691  47.4597300  46.0466567  12.8507960  48.5784090
  52.9140378   2.5697446  58.3454545  52.9628533   3.4459569  57.9632315
  53.4562892   2.0274839  57.7726188  63.3995223  13.1138569  57.6255682
  62.6090767  13.0962708  57.0860181  63.1628578  13.6526863  58.3804719
  63.5193098   9.9631036  54.9388411  63.5691103   9.7981043  55.8803933
  63.4107022   9.0958295  54.5486291  52.4029357  12.6419581  42.2280500
  52.5517477  13.3255046  41.5747172  53.2095800  12.6224671  42.7429955
  60.8096861   5.9461964  56.2547717  61.7106723   5.8068429  55.9631715
  60.8844835   6.1116419  57.1945895  55.1439666   3.3228818  55.1000904
  54.2742975   3.6162384  54.8283492  55.3799146   3.9069263  55.8208167
  65.0211295  12.3827977  55.1830432  64.7296103  12.7457958  56.0193893
  64.4083426  11.6694985  55.0043764  66.2206977   9.9480857  47.7033002
  67.0553869  10.3870661  47.8670563  66.3566106   9.4719510  46.8841248
  63.2698483   7.5060592  53.6510490  63.7452605   7.6988238  52.8429342
  62.3464049   7.5619778  53.4053874  50.1581990   8.6684759  43.2341568
  49.9128032   7.7647089  43.4321779  50.3277905   8.6701909  42.2921046
  57.8478700  -0.4591565  52.6166324  58.3660644   0.2769462  52.2912813
  57.4933833  -0.1527571  53.4513083  49.4277638   4.4013117  40.7327730
  48.7346882   4.4757472  40.0767766  49.1829389   3.6373460  41.2549247
  55.9024763  15.1367712  39.6992247  55.3298730  15.7557899  39.2462719
  56.4757556  15.6867073  40.2332169  61.9700152   4.3826352  51.8838796
  62.9217575   4.4824450  51.9051020  61.8003603   3.5904620  52.3936880
  59.9914532   1.4681935  52.0698197  59.3964464   1.7486948  51.3744685
  59.7064229   1.9575836  52.8414938  59.1222022  15.4204862  40.8300829
  60.0552695  15.3550424  41.0333705  59.0345235  16.2561129  40.3715362
  61.7510039  14.7370732  37.7904777  61.6723671  14.4030596  38.6840535
  62.5719706  15.2292500  37.7896249  64.4488230   7.6032472  50.9981095
  64.4164550   6.6648472  51.1840779  65.0588854   7.6816508  50.2646920
  56.2871561   6.4728525  37.0408299  57.2330666   6.3434733  37.1096717
  55.9085806   5.7343186  37.5177728  64.5982719   4.3943515  51.0439379
  64.0821767   3.6101972  50.8569307  65.4822667   4.0662232  51.2085898
  62.2593446  -1.8615469  47.0035191  62.0618267  -2.1700381  47.8878523
  62.8693151  -1.1353831  47.1333121  70.2664780   8.6648478  50.1387132
  70.9968168   8.4033767  50.6994836  69.6571725   7.9277200  50.1789200
  68.3480077   6.8056341  50.7361583  67.6213241   6.6712306  50.1278075
  67.9327364   7.1133170  51.5418301  56.1710254  10.5246271  58.5008956
  57.0913263  10.7024870  58.6949003  56.1359837   9.5802316  58.3488656
  54.4714478   4.3978501  36.9763185  53.5645934   4.1011614  37.0525898
  54.7490459   4.1008319  36.1097471  45.3892419   5.7184864  47.4262231
  45.0695203   4.8650173  47.1336605  44.8425847   5.9333442  48.1820198
  49.1672326   8.4347305  51.1431738  49.3858336   9.3664413  51.1619771
  49.5798100   8.0755280  51.9286541  56.0876544  -1.0584609  43.1307426
  55.2777272  -1.4037524  43.5062672  56.7760961  -1.3677066  43.7195038
  58.0167092  -1.9806563  44.7531723  58.5698131  -1.5611109  45.4121746
  58.2537179  -2.9070814  44.7954679  54.0400191   4.0080511  60.5334487
  53.9396918   4.9574868  60.4646578  53.8221733   3.6798750  59.6610557
  53.2413263   1.2565436  37.1175164  54.1032427   1.5820334  37.3770981
  53.4263607   0.4696932  36.6048230  45.2580679   9.3387776  49.3955353
  44.5644150   8.9241729  48.8825307  46.0053670   9.3808312  48.7988772
  61.3945899   0.1293963  44.2610387  60.8144568   0.7878767  43.8788439
  61.1281832  -0.6928693  43.8497804  59.8449466  -0.4700980  46.4631707
  60.3449244  -0.3584445  45.6546026  60.4885074  -0.7739927  47.1032516
  53.9031461   7.4377650  59.3499548  53.4198543   8.2378010  59.5563437
  53.9892401   7.4485595  58.3966992  47.1717421   9.2706030  47.2721368
  47.1488109   9.3693717  46.3203251  47.4818058  10.1171180  47.5938534
  49.8304799  11.3282185  51.3867982  50.7848053  11.2966127  51.3197914
  49.6317323  10.8672808  52.2018208  50.4204181   9.8983301  53.9538780
  51.2397070  10.3927379  53.9773617  50.6940989   8.9815269  53.9256347
  60.1770777   2.2894053  43.3166735  59.2896632   2.5743704  43.0986930
  60.5924766   2.1287816  42.4694012  63.5285313   2.3140574  47.0321074
  64.3045704   2.8037026  47.3045691  62.8033448   2.7398628  47.4892944
  65.9657872   3.0268193  48.0895015  66.5602363   2.7863929  47.3788323
  66.0384456   2.3075324  48.7168551  48.1855028  16.8701804  48.4038180
  48.0509496  16.1102205  47.8376178  47.7687090  17.5942704  47.9366969
  59.3213991  12.0538728  37.4114755  60.0249841  12.2588730  38.0272411
  58.5976640  12.6215490  37.6763839  60.1511801   7.8048589  43.5317025
  60.0947002   8.2617140  42.6924658  60.7040144   7.0439274  43.3539868
  63.9616607   3.5938321  44.3567145  63.7053541   3.1934956  45.1875352
  63.3369475   4.3082115  44.2317284  68.2728945   6.3334394  46.8638436
  67.7128503   6.4027583  47.6369998  67.6672448   6.1575379  46.1437932
  51.3424154  17.7671121  48.6156622  51.2256538  18.7116554  48.5135313
  50.5216600  17.4644683  49.0042422  61.2300688  12.4921257  39.4613215
  62.0646292  12.0602455  39.2790690  61.0685031  12.3203271  40.3890110
  60.8846580   8.9953370  40.8269554  60.8295384   8.8297642  39.8857999
  60.2592636   9.7029403  40.9831744  45.6739095   4.2321435  54.6530977
  46.3197959   3.7220389  55.1418202  45.4656246   4.9690116  55.2274402
  58.1992488  11.3002282  60.1523117  59.0683647  11.4742934  59.7909752
  57.7199239  12.1196699  60.0298847  54.1942706  -1.5038521  40.4054873
  54.1821376  -0.5596681  40.5623144  55.0866128  -1.6868375  40.1114334
  52.3678668  18.4199383  51.8312551  53.2705914  18.4522993  52.1479046
  52.1416038  17.4899834  51.8458887  54.1232270  17.1730370  48.4922630
  53.1727901  17.1732231  48.3787002  54.4264756  16.4263104  47.9758664
  50.0136586   1.3789052  58.7505991  50.8768048   1.0225856  58.9609315
  49.4401997   1.0402946  59.4381395  69.8584963  23.0090908  49.5568392
  70.4963373  22.8897655  48.8531732  69.7405806  23.9571752  49.6156344
  66.6674670  22.9618336  49.4929917  66.3293181  22.8459401  48.6050451
  67.5364438  22.5609501  49.4730923  67.1494453  24.1153188  55.4516122
  67.1383093  23.7205986  54.5796626  67.3115092  23.3819260  56.0449894
  60.0725917  26.3105004  48.3211028  60.8647209  25.9695829  47.9057327
  60.3122567  26.4199979  49.2413181  63.8701714  26.8990300  54.3995306
  63.5791580  27.8035930  54.2841972  64.5058698  26.9406827  55.1139376
  64.7957921  24.2767148  50.9896666  65.3921493  24.0523171  50.2753629
  64.8532892  23.5351894  51.5922114  69.4126232  20.7342362  46.6321600
  70.1989321  20.3161785  46.2812017  69.6764936  21.6388454  46.8003248
  74.8134659  20.6717595  47.5354578  75.5459831  20.1016812  47.7692408
  74.0574015  20.2839195  47.9761084  72.3360079  14.3839169  51.9949187
  72.0043404  15.2534580  51.7710402  71.7405693  14.0675453  52.6743217
  66.0716266  18.1234736  39.7279269  66.2390668  18.9914973  40.0949740
  65.8813435  18.2862018  38.8040559  62.2804080  23.0365512  47.4281804
  61.3554577  22.9041726  47.6359496  62.5288493  23.8159731  47.9251747
  72.2288743  19.1034255  49.0742537  71.3205620  19.0349664  48.7801298
  72.1776338  19.5806200  49.9024363  66.0505486  20.5792394  40.7125936
  65.9305112  21.0249444  41.5511417  65.3558075  20.9277711  40.1539474
  59.6412891  22.6798786  48.2625593  59.7705272  22.9333264  49.1765005
  58.9610343  23.2726494  47.9430248  66.3029608  20.5223901  57.0177434
  65.5262942  21.0817821  57.0080299  66.9420171  21.0080684  57.5392304
  74.0950389  17.3050694  50.8520411  73.4524769  17.5983227  50.2060206
  73.5905317  17.1903614  51.6573608  71.7490553  21.0513867  41.5406270
  72.6608409  21.2841254  41.3653968  71.2400200  21.6350911  40.9781349
  64.5575981  23.3309354  56.5795401  65.2990665  23.8694398  56.3030225
  63.8512966  23.9575643  56.7366953  66.3862390  20.4111102  52.5501120
  67.2323586  20.8350515  52.6935769  66.3261028  19.7544726  53.2439683
  69.5361836  18.0715470  54.2082293  69.2922768  18.8257530  53.6716569
  69.8121766  18.4500817  55.0429541  69.0926527  17.2271903  49.7896131
  68.2311006  17.5253156  50.0812869  69.1188962  17.4442302  48.8577164
  62.8012178  25.3185575  49.1349700  63.3713535  25.7472843  48.4967185
  63.3920290  25.0368160  49.8333886  64.8456983  21.8937246  43.0059502
  65.5481026  22.3458289  43.4733428  64.5137611  21.2521065  43.6339395
  63.2937344  20.4849002  57.3810711  62.6636005  21.1665283  57.6146108
  63.1873432  20.3732084  56.4363850  58.5882317  20.1520798  48.3076636
  57.7981371  20.4078327  47.8316746  59.0793564  20.9669136  48.4128676
  60.5397062  20.5165378  45.2660112  59.7428225  20.6284072  45.7843608
  60.3122654  20.8552030  44.4001003  66.3702730  27.0410081  53.2142627
  66.4347162  27.5030488  54.0500799  65.6613654  26.4107446  53.3424937
  56.8720020  20.4051289  50.7391626  57.1228058  21.2898299  51.0049202
  57.4079568  20.2255890  49.9666718  62.5718087  14.7869768  59.7435962
  62.1785033  14.2335967  60.4183607  63.3884227  15.0980347  60.1342480
  65.4886048  16.2027647  57.3356219  66.2295761  16.8034801  57.2560681
  65.7203971  15.4605285  56.7774262  60.6327386  21.3884015  55.6134449
  60.5180901  20.4869272  55.9141548  59.7771904  21.6347711  55.2619265
  69.4343211  12.2308750  51.6120501  69.0907480  13.1210392  51.5359611
  69.8022174  12.0410408  50.7490086  69.3993494  22.2217361  40.1192936
  68.8840117  22.9921966  40.3581323  69.1270802  21.5482498  40.7425997
  66.9840605  17.0667062  45.1778174  66.1282201  16.6773913  44.9983813
  67.3967557  17.1459023  44.3177960  68.5139751  14.6013405  49.5769734
  68.0104547  14.5643541  48.7637539  68.8070358  15.5106148  49.6366391
  64.7582637  14.6852135  48.5835916  65.6235634  14.4894944  48.2241805
  64.8260146  14.4562487  49.5105272  74.3727768  24.9749716  42.0546109
  73.5957211  24.6360876  41.6101271  75.0519249  24.9802339  41.3801074
  69.1879797  20.0944454  41.9452717  68.8829933  20.4090603  42.7962860
  70.1410239  20.1725873  41.9880050  62.3644956  16.9154343  45.9552282
  62.9388708  16.6929525  45.2225475  62.9515939  16.9843038  46.7080884
  71.4224534  22.8028070  46.7616659  71.9356415  23.4358062  47.2638369
  72.0725757  22.2029266  46.3960019  62.6914543  18.9458804  39.9748168
  61.8551856  19.2833491  40.2957442  62.5519313  18.8107784  39.0375305
  64.6667624  13.7895592  44.6827352  64.0132036  13.4744609  44.0583967
  64.6248098  13.1671332  45.4087175  67.9005364  20.2777526  49.0075000
  66.9827926  20.4992473  48.8496688  68.3165508  20.3523836  48.1486707
  68.6840412  21.6768941  44.1377680  69.4312231  22.1890338  43.8284802
  68.9532002  21.3552994  44.9982073  72.1886330  27.7834071  44.8895802
  71.7348657  26.9424981  44.9460992  71.5580297  28.4195470  45.2270582
  71.1319249  18.7126058  46.1196469  70.3942006  18.2003444  46.4506712
  71.3846023  18.2726439  45.3079746  71.2330877  11.4902310  46.7138238
  71.5389754  10.6299673  46.4264153  71.9583482  12.0819930  46.5137232
  57.5255233  21.8932996  45.1019836  57.3279633  21.3002357  44.3770903
  56.9701897  21.5885206  45.8195775  65.5051956  21.7856103  47.2214429
  65.5600566  20.8329939  47.1456906  64.6943158  21.9415542  47.7055728
  63.4444316  20.4033162  44.9804808  62.6312182  20.7027333  45.3870000
  63.9403311  20.0088851  45.6979291  69.0418528  20.8674987  53.8119702
  69.3967916  21.0946460  54.6714168  69.6890659  21.1993364  53.1896957
  62.9358391  17.9751518  50.5966043  63.5757770  17.8340277  49.8989007
  62.1035922  17.6886031  50.2204645  60.0201458  21.4197030  42.7860788
  59.0899047  21.3581485  43.0030751  60.1158930  20.8972983  41.9897430
  59.9387008  17.9451843  45.3739030  60.1993825  18.8597176  45.2648191
  60.7604180  17.4776285  45.5235643  61.4111933  19.3589600  52.5437855
  62.0834986  19.1506962  51.8950503  60.5841719  19.1611686  52.1043087
  67.3137505  15.9851541  54.5603515  66.6665420  16.6841491  54.4667992
  68.0838520  16.4187685  54.9279764  67.4901639  23.8232306  52.6200335
  68.4193699  23.9743465  52.4469302  67.0692669  23.9116327  51.7648982
  67.8395186  27.2264573  47.7787711  67.5045019  27.1865343  48.6745360
  67.3399132  26.5609289  47.3058121  61.8139430  22.6332203  53.3040292
  61.6759228  21.9012442  53.9051831  62.7244354  22.5441103  53.0224479
  70.7754378  24.5720607  38.0524770  70.1583548  23.8467435  37.9557823
  70.3070866  25.3329968  37.7091844  64.4421731  22.3452162  52.7923971
  65.1521349  21.7045354  52.7510590  64.3991039  22.5965057  53.7150152
  63.1550665  19.3317380  54.6119611  62.6188022  18.8808119  55.2641207
  62.5667373  19.4663289  53.8690075  61.4499208  36.0981429  48.5064269
  61.6895806  36.7299954  49.1843288  60.6068405  35.7469470  48.7929629
  62.5652924  18.7906032  37.1746075  61.6882390  18.6694832  36.8108321
  63.0410677  17.9992110  36.9224963  54.0855064  23.5783191  47.2687582
  54.7726104  23.2644921  46.6808597  53.9303193  24.4824556  46.9954833
  58.8889786  18.4673388  51.6972605  58.8047975  17.8599057  50.9623015
  58.0672492  18.9582406  51.6982102  69.0613500  16.9526951  47.0642800
  69.5582199  16.1996914  46.7443871  68.2900481  16.9891268  46.4986010
  70.1443281  25.7098639  44.6381224  69.2099559  25.8300101  44.4685928
  70.3219949  24.8071105  44.3741234  65.6448469  19.0944334  46.7914485
  65.2746256  18.5415375  47.4795391  66.1407561  18.4902468  46.2389485
  73.5315832  21.5515958  45.1731258  73.9976284  22.3843950  45.0991561
  73.9823332  21.0860939  45.8776516  71.5032495  13.9196545  49.2122159
  70.5895574  14.1500772  49.3804366  71.9325596  14.0034989  50.0636192
  71.2738953  22.1086437  51.7122053  70.6210403  22.3562344  51.0574506
  71.6519333  21.2950575  51.3784531  67.3226526  22.8506248  58.1988090
  66.6467163  22.7500377  58.8690466  68.1454160  22.6945462  58.6624088
  59.0705385  29.0878184  50.8200606  59.6558822  28.3421872  50.9528510
  58.8730224  29.3982141  51.7037270  53.6623040  21.6583785  49.5405049
  53.7007140  21.1247375  50.3342167  53.1563333  21.1318990  48.9216026
  61.0413802  16.5048325  53.0367591  61.1055129  17.3663156  52.6244989
  60.9780923  15.8922327  52.3039950  60.5166075  18.5771458  56.6840625
  61.1438114  18.1948535  57.2978150  59.6593994  18.3585660  57.0496318
  57.2931618  20.3847887  42.6158980  57.5885059  19.4758565  42.5626034
  56.3919653  20.3635626  42.2939983  60.8225865  18.4603883  48.5986529
  60.1012450  19.0739851  48.4594002  61.6119120  18.9961648  48.5203175
  63.6252178  15.7958310  54.8727181  64.1486580  16.0420606  55.6353490
  63.4064511  16.6278345  54.4530318  59.0219459  18.0661984  42.7398305
  58.6932165  17.1859363  42.5573411  59.3758830  18.0109653  43.6274695
  62.1361282  18.3534954  43.1073783  62.4757355  18.8820876  42.3852391
  62.5833403  18.6915360  43.8832350  64.8304723  16.7372005  52.5576851
  64.4901543  15.9379818  52.9597531  64.1243729  17.0373716  51.9853684
  65.4821195  13.8221317  51.0104174  66.3047264  13.3481796  50.8883064
  65.7259258  14.6011801  51.5102860  64.1229429  16.8509576  41.3067076
  64.8437792  17.2290829  40.8030793  63.4994734  17.5698453  41.4102054
  68.2660552  17.5554725  42.2425408  68.4824167  18.4379363  41.9414236
  67.7854619  17.1640938  41.5131050  63.0059774  20.5140438  48.8196153
  62.8604354  20.8280741  49.7120434  62.5284977  21.1325338  48.2667051
  64.8656157  17.5042986  48.8677042  64.8517725  16.6084079  48.5309340
  65.5828585  17.5113650  49.5015328  66.7182287  17.9380326  50.9130170
  66.4600065  18.8597397  50.9114500  66.1867328  17.5410761  51.6030634
  57.4805436  23.0545782  51.7583814  56.9358904  23.8305590  51.8904088
  58.3584786  23.4016587  51.6002935  64.2693053  16.3857366  44.1364612
  64.3908964  15.4574013  44.3355500  63.9795095  16.3996052  43.2242928
  67.1384243  14.0712277  47.2731332  67.1605940  14.1351610  46.3183312
  67.5552302  13.2316785  47.4671838  58.2671458  22.1815679  54.6513971
  57.5253194  22.3298314  55.2378601  57.9464202  22.4423944  53.7880720
  74.5495072  27.8097583  42.3204484  75.0746396  28.1484856  41.5953804
  74.4617424  26.8744599  42.1367619  58.7128071  30.0681107  46.6824365
  59.5386091  29.7684879  46.3023009  58.3622123  29.2988730  47.1314154
  56.9136676  27.9867434  47.6413299  56.0768585  27.5589608  47.4597300
  56.8860322  28.1799877  48.5784090  63.7534132  17.8989364  58.3454545
  63.8022288  18.7751487  57.9632315  64.2956646  17.3566757  57.7726188
  71.6490615  21.2753881  56.2547717  72.5500478  21.1360346  55.9631715
  71.7238590  21.4408336  57.1945895  65.9833421  18.6520736  55.1000904
  65.1136730  18.9454302  54.8283492  66.2192901  19.2361181  55.8208167
  74.1092238  22.8352509  53.6510490  74.5846359  23.0280156  52.8429342
  73.1857803  22.8911695  53.4053874  68.6872454  14.8700353  52.6166324
  69.2054398  15.6061380  52.2912813  68.3327587  15.1764346  53.4513083
  60.2671392  19.7305034  40.7327730  59.5740637  19.8049389  40.0767766
  60.0223144  18.9665378  41.2549247  68.9385049  11.2900636  48.1367221
  69.2186802  10.6223825  48.7627647  69.7235655  11.4829731  47.6241884
  72.8093907  19.7118270  51.8838796  73.7611330  19.8116367  51.9051020
  72.6397357  18.9196538  52.3936880  70.8308286  16.7973853  52.0698197
  70.2358218  17.0778865  51.3744685  70.5457983  17.2867754  52.8414938
  75.2881985  22.9324389  50.9981095  75.2558305  21.9940390  51.1840779
  75.8982608  23.0108426  50.2646920  67.1265316  21.8020442  37.0408299
  68.0724420  21.6726650  37.1096717  66.7479560  21.0635104  37.5177728
  75.4376473  19.7235433  51.0439379  74.9215522  18.9393889  50.8569307
  76.3216422  19.3954149  51.2085898  73.0987200  13.4676448  47.0035191
  72.9012021  13.1591536  47.8878523  73.7086906  14.1938087  47.1333121
  67.0104008  25.8538188  58.5008956  67.9307018  26.0316787  58.6949003
  66.9753591  24.9094234  58.3488656  65.3108233  19.7270419  36.9763185
  64.4039688  19.4303531  37.0525898  65.5884214  19.4300237  36.1097471
  56.2286173  21.0476782  47.4262231  55.9088957  20.1942090  47.1336605
  55.6819601  21.2625360  48.1820198  60.0066081  23.7639223  51.1431738
  60.2252090  24.6956331  51.1619771  60.4191854  23.4047197  51.9286541
  66.9270298  14.2707308  43.1307426  66.1171027  13.9254393  43.5062672
  67.6154715  13.9614852  43.7195038  68.8560847  13.3485355  44.7531723
  69.4091885  13.7680809  45.4121746  69.0930933  12.4221103  44.7954679
  64.8793946  19.3372429  60.5334487  64.7790673  20.2866786  60.4646578
  64.6615488  19.0090668  59.6610557  64.0807017  16.5857354  37.1175164
  64.9426181  16.9112252  37.3770981  64.2657361  15.7988850  36.6048230
  56.0974433  24.6679694  49.3955353  55.4037904  24.2533646  48.8825307
  56.8447424  24.7100230  48.7988772  72.2339654  15.4585880  44.2610387
  71.6538323  16.1170684  43.8788439  71.9675586  14.6363225  43.8497804
  70.6843220  14.8590938  46.4631707  71.1842998  14.9707473  45.6546026
  71.3278828  14.5551991  47.1032516  64.7425216  22.7669568  59.3499548
  64.2592298  23.5669928  59.5563437  64.8286155  22.7777512  58.3966992
  58.0111176  24.5997947  47.2721368  57.9881864  24.6985635  46.3203251
  58.3211812  25.4463098  47.5938534  60.6698553  26.6574102  51.3867982
  61.6241807  26.6258045  51.3197914  60.4711077  26.1964726  52.2018208
  61.2597936  25.2275218  53.9538780  62.0790825  25.7219297  53.9773617
  61.5334743  24.3107187  53.9256347  71.0164532  17.6185971  43.3166735
  70.1290387  17.9035621  43.0986930  71.4318521  17.4579734  42.4694012
  74.3679068  17.6432492  47.0321074  75.1439458  18.1328944  47.3045691
  73.6427202  18.0690546  47.4892944  76.8051627  18.3560111  48.0895015
  77.3996117  18.1155847  47.3788323  76.8778210  17.6367241  48.7168551
  59.0248782  32.1993722  48.4038180  58.8903250  31.4394123  47.8376178
  58.6080845  32.9234622  47.9366969  70.1607745  27.3830645  37.4114755
  70.8643595  27.5880648  38.0272411  69.4370394  27.9507407  37.6763839
  70.9905556  23.1340507  43.5317025  70.9340757  23.5909058  42.6924658
  71.5433898  22.3731191  43.3539868  74.8010361  18.9230238  44.3567145
  74.5447296  18.5226874  45.1875352  74.1763229  19.6374032  44.2317284
  79.1122699  21.6626312  46.8638436  78.5522257  21.7319501  47.6369998
  78.5066203  21.4867296  46.1437932  71.7240335  24.3245288  40.8269554
  71.6689139  24.1589559  39.8857999  71.0986390  25.0321321  40.9831744
  56.5132850  19.5613352  54.6530977  57.1591713  19.0512306  55.1418202
  56.3050001  20.2982034  55.2274402  65.0336460  13.8253397  40.4054873
  65.0215130  14.7695237  40.5623144  65.9259882  13.6423542  40.1114334
  68.8488580  10.4196173  44.6600810  68.0820976   9.8654660  44.8057492
  69.2599285  10.4918042  45.5214961  60.8530341  16.7080969  58.7505991
  61.7161802  16.3517774  58.9609315  60.2795751  16.3694864  59.4381395
  91.5345874  39.1656704  47.4066888  90.7809582  38.5964102  47.2510892
  91.6693415  39.1319368  48.3537523  75.8730215  29.1545315  40.4054873
  75.8608885  30.0987154  40.5623144  76.7653637  28.9715460  40.1114334
  94.0147588  45.0423004  51.9949187  93.6830913  45.9118415  51.7710402
  93.4193202  44.7259288  52.6743217  95.7737898  47.9634529  50.8520411
  95.1312278  48.2567062  50.2060206  95.2692826  47.8487449  51.6573608
  90.7714036  47.8855738  49.7896131  89.9098515  48.1836992  50.0812869
  90.7976471  48.1026137  48.8577164  90.1927260  45.2597241  49.5769734
  89.6892056  45.2227376  48.7637539  90.4857867  46.1689984  49.6366391
  92.8106758  49.3709893  46.1196469  92.0729515  48.8587279  46.4506712
  93.0633532  48.9310274  45.3079746  92.9118386  42.1486145  46.7138238
  93.2177262  41.2883508  46.4264153  93.6370990  42.7403765  46.5137232
  90.7401009  47.6110787  47.0642800  91.2369708  46.8580749  46.7443871
  89.9687990  47.6475103  46.4986010  95.2103341  52.2099793  45.1731258
  95.6763793  53.0427785  45.0991561  95.6610841  51.7444775  45.8776516
  93.1820004  44.5780380  49.2122159  92.2683083  44.8084607  49.3804366
  93.6113105  44.6618824  50.0636192  97.5392559  58.3703730  55.1830432
  97.2477367  58.7333711  56.0193893  96.9264690  57.6570738  55.0043764
  90.3659963  45.5284188  52.6166324  90.8841907  46.2645215  52.2912813
  90.0115096  45.8348182  53.4513083  90.6172557  41.9484471  48.1367221
  90.8974311  41.2807660  48.7627647  91.4023164  42.1413567  47.6241884
  94.7774709  44.1260284  47.0035191  94.5799530  43.8175372  47.8878523
  95.3874415  44.8521923  47.1333121 100.8661341  52.7932094  50.7361583
 100.1394504  52.6588059  50.1278075 100.4508627  53.1008923  51.5418301
  93.9127163  46.1169716  44.2610387  93.3325832  46.7754520  43.8788439
  93.6463095  45.2947060  43.8497804  92.3630729  45.5174773  46.4631707
  92.8630507  45.6291308  45.6546026  93.0066337  45.2135826  47.1032516
  92.6952041  48.2769806  43.3166735  91.8077896  48.5619457  43.0986930
  93.1106030  48.1163569  42.4694012  96.0466577  48.3016327  47.0321074
  96.8226967  48.7912779  47.3045691  95.3214711  48.7274381  47.4892944
  98.4839136  49.0143946  48.0895015  99.0783626  48.7739682  47.3788323
  98.5565719  48.2951077  48.7168551  96.4797870  49.5814074  44.3567145
  96.2234805  49.1810709  45.1875352  95.8550738  50.2957868  44.2317284
 100.7910208  52.3210147  46.8638436 100.2309766  52.3903336  47.6369998
 100.1853712  52.1451132  46.1437932 102.3766227  68.9966661  49.5568392
 103.0144637  68.8773408  48.8531732 102.2587070  69.9447505  49.6156344
  99.6675716  70.1028941  55.4516122  99.6564357  69.7081739  54.5796626
  99.8296355  69.3695013  56.0449894 100.6242307  74.4700533  40.7941272
  99.9730287  75.0554614  40.4075286 101.4186670  75.0006728  40.8536310
  96.3882977  72.8866053  54.3995306  96.0972843  73.7911683  54.2841972
  97.0239962  72.9282580  55.1139376 102.1017573  72.1590965  41.3310257
 101.4663406  72.2325592  42.0431161 101.7714979  72.7484564  40.6529336
 107.3315922  66.6593348  47.5354578 108.0641094  66.0892565  47.7692408
 106.5755278  66.2714949  47.9761084 104.8541343  60.3714922  51.9949187
 104.5224667  61.2410333  51.7710402 104.2586956  60.0551206  52.6743217
 101.3472862  72.5727468  51.3945100 101.0473585  73.4752507  51.2860907
 101.0023922  72.3059651  52.2466253 104.7470006  65.0910008  49.0742537
 103.8386883  65.0225417  48.7801298 104.6957602  65.5681953  49.9024363
  98.5686750  66.5668147  40.7125936  98.4486375  67.0125198  41.5511417
  97.8739338  66.9153464  40.1539474  96.3293642  79.3371789  44.3616067
  96.2517672  80.2879614  44.4404548  95.7255286  78.9917661  45.0190994
  98.8210872  66.5099654  57.0177434  98.0444206  67.0693574  57.0080299
  99.4601435  66.9956437  57.5392304 106.6131652  63.2926447  50.8520411
 105.9706033  63.5858980  50.2060206 106.1086581  63.1779367  51.6573608
 104.2671816  67.0389620  41.5406270 105.1789672  67.2717007  41.3653968
 103.7581463  67.6226664  40.9781349  97.0757244  69.3185107  56.5795401
  97.8171928  69.8570151  56.3030225  96.3694230  69.9451396  56.7366953
 102.5512584  71.4614248  55.1767563 102.9595940  71.0196658  54.4322195
 101.8289845  70.8866875  55.4301756  98.9043654  66.3986855  52.5501120
  99.7504849  66.8226268  52.6935769  98.8442291  65.7420479  53.2439683
 102.8741398  72.0215438  48.9319852 102.2450261  72.1861153  48.2295920
 102.4867060  72.4357048  49.7030816 106.7530630  72.9569876  46.2864216
 106.0681668  73.3368778  45.7361249 106.8374480  73.5665203  47.0196163
 102.0543099  64.0591223  54.2082293 101.8104031  64.8133283  53.6716569
 102.3303030  64.4376570  55.0429541 104.0081562  70.6029835  52.8859559
 104.2198457  71.2461595  52.2093940 103.9611310  69.7692152  52.4181489
 101.6107791  63.2147656  49.7896131 100.7492270  63.5128909  50.0812869
 101.6370226  63.4318055  48.8577164  95.8118608  66.4724755  57.3810711
  95.1817268  67.1541036  57.6146108  95.7054696  66.3607837  56.4363850
 105.1227390  73.4801791  51.0581916 105.9444834  73.0781978  50.7764598
 105.1189793  73.3770025  52.0098032  98.8883993  73.0285834  53.2142627
  98.9528426  73.4906241  54.0500799  98.1794917  72.3983199  53.3424937
 113.2133383  69.8240539  47.4066888 112.4597091  69.2547937  47.2510892
 113.3480924  69.7903204  48.3537523  95.0899351  60.7745521  59.7435962
  94.6966296  60.2211720  60.4183607  95.9065491  61.0856100  60.1342480
  93.8656293  75.3295136  45.7372285  94.0422921  76.2513100  45.5493269
  94.6613127  75.0153555  46.1666665  98.0067312  62.1903400  57.3356219
  98.7477025  62.7910554  57.2560681  98.2385234  61.4481038  56.7774262
  93.1508650  67.3759768  55.6134449  93.0362165  66.4745025  55.9141548
  92.2953167  67.6223464  55.2619265 100.2300487  75.3177508  57.2121949
  99.7864342  74.5313887  56.8942854 100.8917701  75.5056658  56.5465840
  94.9887609  76.8473310  51.7382628  95.5395034  76.7190373  50.9659622
  94.1499084  77.1468199  51.3877521 102.3281725  75.5980308  55.2403351
 102.3100201  76.4189189  54.7483620 103.2501645  75.4734383  55.4653492
  98.7854780  73.1124437  56.0826859  99.3183116  72.3512726  55.8526167
  98.2568861  72.8198089  56.8251013 101.9174757  68.2093114  40.1192936
 101.4021381  68.9797719  40.3581323 101.6452066  67.5358251  40.7425997
 106.8909031  70.9625469  42.0546109 106.1138474  70.6236629  41.6101271
 107.5700512  70.9678092  41.3801074 101.7061060  66.0820207  41.9452717
 101.4011196  66.3966356  42.7962860 102.6591503  66.1601626  41.9880050
 105.1300338  70.4359450  48.7112717 104.4724013  71.1258712  48.7992846
 105.9340737  70.8255882  49.0546704 103.9405797  68.7903823  46.7616659
 104.4537679  69.4233815  47.2638369 104.5907021  68.1905019  46.3960019
  98.2960092  70.0590640  36.5980644  97.3887154  69.8279894  36.7971793
  98.7931124  69.2628259  36.7854626 101.2028171  78.7688147  39.5177330
 100.5289870  79.0719844  40.1262288 101.5893993  79.5717228  39.1682787
 104.7067593  73.7709824  44.8895802 104.2529920  72.9300734  44.9460992
 104.0761560  74.4071223  45.2270582 103.1500533  75.6086321  45.8245620
 103.4423507  76.1691378  45.1057985 103.6599153  75.9014882  46.5798779
  99.1724414  71.7011979  38.4592713  98.7343844  70.9847838  37.9998350
  99.9134855  71.9288093  37.8977804  98.1134158  76.3866672  46.9139073
  98.0710337  76.6127519  45.9847605  99.0296857  76.1530047  47.0624874
 101.5599792  66.8550740  53.8119702 101.9149179  67.0822213  54.6714168
 102.2071923  67.1869117  53.1896957 107.2897528  69.9769176  44.5169031
 107.1515427  70.1670772  43.5890220 106.9333747  70.7388559  44.9737082
 107.3166908  72.0445703  49.5280303 107.7503415  71.9520992  50.3763357
 108.0298489  72.0203203  48.8900319 101.0494803  75.6447797  51.0613403
 101.1031825  76.2138733  51.8291119 100.1809584  75.8149682  50.6967440
 108.1782458  72.0869403  52.0613188 108.3718348  72.9915214  52.3072463
 108.0783076  71.6276822  52.8951773  99.8318768  61.9727294  54.5603515
  99.1846683  62.6717244  54.4667992 100.6019784  62.4063438  54.9279764
 103.2397566  72.2376146  57.6354069 103.0883073  72.0086698  56.7184152
 103.2302246  73.1946748  57.6485414 100.0082903  69.8108059  52.6200335
 100.9374963  69.9619218  52.4469302  99.5873933  69.8992080  51.7648982
  98.8071234  73.8358723  50.3898873  98.6682320  73.4677508  51.2624811
  98.0185831  74.3506363  50.2182831  99.4019386  78.9367820  41.7324409
  99.5771142  78.4655863  42.5470032  98.7152174  79.5633586  41.9605670
 103.2935641  70.5596360  38.0524770 102.6764812  69.8343188  37.9557823
 102.8252130  71.3205721  37.7091844  96.9602994  68.3327915  52.7923971
  97.6702613  67.6921108  52.7510590  96.9172302  68.5840810  53.7150152
 104.9489773  75.2695269  55.7130551 104.8902319  74.5854489  55.0461134
 105.3509291  76.0114259  55.2611177  93.9680472  82.0857183  48.5064269
  94.2077070  82.7175707  49.1843288  93.1249668  81.7345223  48.7929629
 104.9507180  73.2334853  53.9444530 104.0633959  72.8960774  54.0670929
 105.5205731  72.5017884  54.1813296  98.4808334  77.8936305  50.9105773
  98.4078505  78.6991276  51.4225078  98.0385727  78.0928271  50.0853795
  98.2698113  77.1308075  44.4208595  97.4865635  77.6729755  44.5146820
  98.9690858  77.6482055  44.8202836 109.4324521  68.6443070  48.7061092
 109.4214397  69.5267785  48.3355025 108.5641900  68.2914621  48.5115629
 100.9407017  77.7923139  53.0663932 101.6534989  78.4270604  52.9939834
 100.4497046  77.8887005  52.2503934 102.6624544  71.6974392  44.6381224
 101.7280823  71.8175854  44.4685928 102.8401213  70.7946858  44.3741234
 106.0497095  67.5391711  45.1731258 106.5157548  68.3719703  45.0991561
 106.5004596  67.0736693  45.8776516  95.9918931  75.5417582  53.8869503
  96.6928390  76.1754065  54.0398897  95.5214046  75.8832314  53.1265142
 104.1173326  73.8835532  42.1717410 104.3933170  73.7692127  43.0811284
 103.2477825  73.4853017  42.1329583 103.7920217  68.0962190  51.7122053
 103.1391667  68.3438097  51.0574506 104.1700597  67.2826328  51.3784531
 100.7527391  78.1321883  45.8150224 100.9349785  77.3143539  46.2777976
 101.5760377  78.3489575  45.3775114 101.0869556  77.0590068  43.0765272
 101.6157322  76.5482523  42.4635434 101.3497776  76.7432598  43.9410805
  99.8407790  68.8382001  58.1988090  99.1648427  68.7376130  58.8690466
 100.6635424  68.6821215  58.6624088  91.5886649  75.0753937  50.8200606
  92.1740086  74.3297625  50.9528510  91.3911487  75.3857894  51.7037270
  94.4425304  78.1105185  45.8363048  93.7735679  78.5951313  45.3527088
  94.3038174  78.3574405  46.7506427  98.5830573  80.1448928  52.4345706
  99.1348881  80.3080550  53.1994792  98.9236766  80.7353366  51.7625731
  93.0347338  64.5647211  56.6840625  93.6619377  64.1824288  57.2978150
  92.1775257  64.3461413  57.0496318 103.4341447  74.9710186  58.2894361
 103.9781351  75.5840144  57.7949316 102.8528292  75.5289764  58.8061374
 101.7198960  78.0930904  49.4209389 101.5950099  77.2920644  48.9120334
 102.3778051  78.5877097  48.9323359 103.7833868  75.8939924  51.0488939
 102.8364204  75.7745275  50.9767265 104.1316641  75.0062422  51.1315200
  96.1433442  61.7834063  54.8727181  96.6667843  62.0296359  55.6353490
  95.9245775  62.6154098  54.4530318 100.7880302  75.6892640  47.2493291
 100.6405264  74.7609348  47.4300861 101.6133795  75.7112731  46.7650366
 104.3914423  76.5121199  48.3358164 105.3160971  76.3064060  48.1982615
 104.2229727  76.2637600  49.2447505  97.3485987  62.7247758  52.5576851
  97.0082807  61.9255571  52.9597531  96.6424993  63.0249469  51.9853684
 104.1809740  77.0306866  43.6920255 104.3546617  76.4653289  42.9394108
 104.6738631  77.8307761  43.5099745 110.0349131  69.7943289  45.3110555
 110.4780277  69.0450615  44.9129678 109.1575641  69.7853426  44.9284287
 105.1684912  76.3473631  40.7917153 105.8635817  76.9680323  41.0104468
 105.5108062  75.4968982  41.0669531 107.0676335  73.7973336  42.3204484
 107.5927659  74.1360609  41.5953804 106.9798688  72.8620352  42.1367619
  98.7296384  77.7107410  54.4494361  99.0383510  77.4656557  55.3217060
  99.5271866  77.9154048  53.9613231  98.7516996  79.8645320  46.6799737
  98.3121986  79.3721698  47.3732594  99.5025113  79.3218287  46.4391813
  91.2309335  76.0556860  46.6824365  92.0567355  75.7560632  46.3023009
  90.8803387  75.2864483  47.1314154  96.1990868  75.4083329  48.7522039
  95.5770877  74.7454034  48.4524267  96.8695735  75.4344461  48.0695687
  96.2715396  63.8865117  58.3454545  96.3203551  64.7627240  57.9632315
  96.8137910  63.3442510  57.7726188 106.7570241  74.4306240  57.6255682
 105.9665785  74.4130379  57.0860181 106.5203596  74.9694534  58.3804719
 106.8768116  71.2798706  54.9388411 106.9266121  71.1148714  55.8803933
 106.7682040  70.4125965  54.5486291  95.7604375  73.9587252  42.2280500
  95.9092495  74.6422716  41.5747172  96.5670818  73.9392342  42.7429955
 104.1671879  67.2629634  56.2547717 105.0681741  67.1236099  55.9631715
 104.2419853  67.4284089  57.1945895  98.5014684  64.6396489  55.1000904
  97.6317993  64.9330055  54.8283492  98.7374164  65.2236934  55.8208167
 108.3786313  73.6995648  55.1830432 108.0871121  74.0625628  56.0193893
 107.7658444  72.9862656  55.0043764 109.5781995  71.2648528  47.7033002
 110.4128887  71.7038332  47.8670563 109.7141124  70.7887181  46.8841248
 106.6273501  68.8228263  53.6510490 107.1027623  69.0155909  52.8429342
 105.7039067  68.8787448  53.4053874 101.2053718  60.8576106  52.6166324
 101.7235662  61.5937133  52.2912813 100.8508851  61.1640099  53.4513083
  99.2599780  76.4535382  39.6992247  98.6873748  77.0725570  39.2462719
  99.8332574  77.0034744  40.2332169 105.3275170  65.6994023  51.8838796
 106.2792593  65.7992120  51.9051020 105.1578621  64.9072291  52.3936880
 103.3489550  62.7849606  52.0698197 102.7539482  63.0654619  51.3744685
 103.0639247  63.2743507  52.8414938 102.4797040  76.7372533  40.8300829
 103.4127713  76.6718094  41.0333705 102.3920253  77.5728799  40.3715362
 105.1085057  76.0538403  37.7904777 105.0298688  75.7198267  38.6840535
 105.9294724  76.5460171  37.7896249 107.8063248  68.9200142  50.9981095
 107.7739568  67.9816143  51.1840779 108.4163872  68.9984179  50.2646920
  99.6446579  67.7896195  37.0408299 100.5905684  67.6602403  37.1096717
  99.2660824  67.0510857  37.5177728 107.9557737  65.7111186  51.0439379
 107.4396785  64.9269642  50.8569307 108.8397685  65.3829902  51.2085898
 113.6239798  69.9816149  50.1387132 114.3543186  69.7201437  50.6994836
 113.0146743  69.2444871  50.1789200 111.7055095  68.1224012  50.7361583
 110.9788259  67.9879977  50.1278075 111.2902382  68.4300840  51.5418301
  99.5285272  71.8413941  58.5008956 100.4488281  72.0192540  58.6949003
  99.4934855  70.8969987  58.3488656  97.3975209  65.3248182  60.5334487
  97.2971936  66.2742539  60.4646578  97.1796751  64.9966421  59.6610557
  97.2606479  68.7545321  59.3499548  96.7773561  69.5545681  59.5563437
  97.3467418  68.7653266  58.3966992 106.8860331  63.6308245  47.0321074
 107.6620722  64.1204697  47.3045691 106.1608466  64.0566299  47.4892944
 109.3232890  64.3435864  48.0895015 109.9177381  64.1031600  47.3788323
 109.3959474  63.6242994  48.7168551  91.5430046  78.1869475  48.4038180
  91.4084514  77.4269876  47.8376178  91.1262108  78.9110375  47.9366969
 102.6789009  73.3706398  37.4114755 103.3824859  73.5756401  38.0272411
 101.9551657  73.9383160  37.6763839 103.5086819  69.1216260  43.5317025
 103.4522020  69.5784811  42.6924658 104.0615161  68.3606944  43.3539868
 107.3191625  64.9105992  44.3567145 107.0628559  64.5102627  45.1875352
 106.6944493  65.6249785  44.2317284 111.6303963  67.6502065  46.8638436
 111.0703521  67.7195254  47.6369998 111.0247466  67.4743049  46.1437932
  94.6999172  79.0838792  48.6156622  94.5831556  80.0284224  48.5135313
  93.8791618  78.7812353  49.0042422 104.5875706  73.8088928  39.4613215
 105.4221310  73.3770126  39.2790690 104.4260049  73.6370941  40.3890110
 104.2421598  70.3121041  40.8269554 104.1870402  70.1465312  39.8857999
 103.6167654  71.0197074  40.9831744 101.5567505  72.6169953  60.1523117
 102.4258665  72.7910605  59.7909752 101.0774257  73.4364370  60.0298847
  95.7253686  79.7367054  51.8312551  96.6280932  79.7690664  52.1479046
  95.4991056  78.8067505  51.8458887  97.4807288  78.4898040  48.4922630
  96.5302919  78.4899902  48.3787002  97.7839774  77.7430775  47.9758664
  93.3711604  62.6956722  58.7505991  94.2343066  62.3393527  58.9609315
  92.7977015  62.3570617  59.4381395 113.2159981  84.3258579  49.5568392
 113.8538391  84.2065326  48.8531732 113.0980824  85.2739423  49.6156344
 110.0249688  84.2786007  49.4929917 109.6868199  84.1627071  48.6050451
 110.8939456  83.8777172  49.4730923 105.8836503  86.1321483  45.4826808
 105.3201368  86.0411420  44.7143095 105.7688898  85.3121388  45.9629300
 110.5069471  85.4320859  55.4516122 110.4958111  85.0373657  54.5796626
 110.6690110  84.6986931  56.0449894 103.4300935  87.6272675  48.3211028
 104.2222227  87.2863499  47.9057327 103.6697585  87.7367650  49.2413181
 111.4636062  89.7992451  40.7941272 110.8124042  90.3846531  40.4075286
 112.2580425  90.3298646  40.8536310 105.3891689  86.8881588  41.1928407
 106.1622565  86.3410575  41.0541283 105.7417088  87.7525837  41.4042868
 107.2276732  88.2157970  54.3995306 106.9366598  89.1203601  54.2841972
 107.8633716  88.2574498  55.1139376 108.1532938  85.5934819  50.9896666
 108.7496511  85.3690841  50.2753629 108.2107910  84.8519564  51.5922114
 107.7257967  83.0474254  38.8246857 107.9783488  82.5255775  38.0630320
 106.7882526  82.8840400  38.9273540 112.7701250  82.0510033  46.6321600
 113.5564339  81.6329456  46.2812017 113.0339954  82.9556125  46.8003248
 112.9411327  87.4882883  41.3310257 112.3057160  87.5617509  42.0431161
 112.6108733  88.0776482  40.6529336 118.1709677  81.9885266  47.5354578
 118.9034849  81.4184483  47.7692408 117.4149033  81.6006866  47.9761084
 107.4454256  84.9502360  41.0271232 107.3290514  84.2747264  41.6952316
 107.5556516  84.4634734  40.2103385 109.7885797  84.4112507  44.7317921
 109.4244004  83.8843128  45.4430842 110.6452912  84.0210976  44.5584406
 115.6935097  75.7006840  51.9949187 115.3618422  76.5702251  51.7710402
 115.0980711  75.3843124  52.6743217 109.4291284  79.4402407  39.7279269
 109.5965686  80.3082643  40.0949740 109.2388453  79.6029689  38.8040559
 112.1866617  87.9019386  51.3945100 111.8867340  88.8044425  51.2860907
 111.8417676  87.6351569  52.2466253 105.6379098  84.3533183  47.4281804
 104.7129595  84.2209397  47.6359496 105.8863511  85.1327402  47.9251747
 115.5863761  80.4201926  49.0742537 114.6780638  80.3517334  48.7801298
 115.5351356  80.8973871  49.9024363 109.4080504  81.8960064  40.7125936
 109.2880130  82.3417115  41.5511417 108.7133093  82.2445382  40.1539474
 102.9987909  83.9966456  48.2625593 103.1280290  84.2500935  49.1765005
 102.3185361  84.5894164  47.9430248 107.1687397  94.6663706  44.3616067
 107.0911426  95.6171531  44.4404548 106.5649040  94.3209579  45.0190994
 109.6604626  81.8391572  57.0177434 108.8837960  82.3985492  57.0080299
 110.2995189  82.3248355  57.5392304 117.4525407  78.6218364  50.8520411
 116.8099787  78.9150898  50.2060206 116.9480335  78.5071285  51.6573608
 115.1065571  82.3681538  41.5406270 116.0183427  82.6008924  41.3653968
 114.5975218  82.9518582  40.9781349 107.9150999  84.6477025  56.5795401
 108.6565683  85.1862069  56.3030225 107.2087984  85.2743314  56.7366953
 113.3906338  86.7906165  55.1767563 113.7989694  86.3488576  54.4322195
 112.6683600  86.2158793  55.4301756 109.7437408  81.7278772  52.5501120
 110.5898603  82.1518186  52.6935769 109.6836046  81.0712397  53.2439683
 113.7135153  87.3507356  48.9319852 113.0844015  87.5153070  48.2295920
 113.3260815  87.7648966  49.7030816 117.5924385  88.2861794  46.2864216
 116.9075423  88.6660695  45.7361249 117.6768234  88.8957121  47.0196163
 112.8936854  79.3883141  54.2082293 112.6497785  80.1425201  53.6716569
 113.1696784  79.7668488  55.0429541 114.8475316  85.9321753  52.8859559
 115.0592212  86.5753513  52.2093940 114.8005065  85.0984069  52.4181489
 112.4501545  78.5439574  49.7896131 111.5886024  78.8420827  50.0812869
 112.4763980  78.7609972  48.8577164 109.2663115  87.0881764  46.1969937
 109.7301460  87.3669467  45.4074559 109.0019913  86.1865209  46.0143028
 106.1587196  86.6353246  49.1349700 106.7288553  87.0640514  48.4967185
 106.7495308  86.3535830  49.8333886 108.2032001  83.2104917  43.0059502
 108.9056044  83.6625960  43.4733428 107.8712629  82.5688735  43.6339395
 106.6512362  81.8016673  57.3810711 106.0211023  82.4832954  57.6146108
 106.5448450  81.6899755  56.4363850 101.9457335  81.4688469  48.3076636
 101.1556389  81.7245998  47.8316746 102.4368582  82.2836807  48.4128676
 115.9621144  88.8093708  51.0581916 116.7838588  88.4073896  50.7764598
 115.9583547  88.7061943  52.0098032 103.8972080  81.8333048  45.2660112
 103.1003243  81.9451743  45.7843608 103.6697672  82.1719701  44.4001003
 109.7277748  88.3577752  53.2142627 109.7922180  88.8198159  54.0500799
 109.0188672  87.7275117  53.3424937 100.2295038  81.7218960  50.7391626
 100.4803076  82.6065970  51.0049202 100.7654586  81.5423561  49.9666718
 109.4425765  90.0245859  43.0821607 109.3071440  90.8697395  43.5106455
 109.9835578  90.2265137  42.3187541 105.9293105  76.1037439  59.7435962
 105.5360051  75.5503638  60.4183607 106.7459245  76.4148017  60.1342480
 102.8955163  87.5421297  43.6549532 103.4079683  88.3364547  43.8055097
 103.5477876  86.8447588  43.5883134 104.7050048  90.6587053  45.7372285
 104.8816676  91.5805018  45.5493269 105.5006881  90.3445473  46.1666665
 108.8461066  77.5195318  57.3356219 109.5870779  78.1202471  57.2560681
 109.0778989  76.7772956  56.7774262 103.9902404  82.7051685  55.6134449
 103.8755919  81.8036943  55.9141548 103.1346922  82.9515382  55.2619265
 111.0694242  90.6469426  57.2121949 110.6258096  89.8605804  56.8942854
 111.7311455  90.8348576  56.5465840 105.8281363  92.1765227  51.7382628
 106.3788788  92.0482291  50.9659622 104.9892839  92.4760116  51.3877521
 113.1675480  90.9272226  55.2403351 113.1493955  91.7481107  54.7483620
 114.0895400  90.8026301  55.4653492 109.6248534  88.4416355  56.0826859
 110.1576871  87.6804643  55.8526167 109.0962615  88.1490007  56.8251013
 112.7918229  73.5476421  51.6120501 112.4482498  74.4378063  51.5359611
 113.1597192  73.3578079  50.7490086 100.8604080  85.8709951  44.4309103
 101.6979302  86.2806960  44.2142811 101.0382347  84.9309394  44.4009297
 112.7568512  83.5385032  40.1192936 112.2415135  84.3089637  40.3581323
 112.4845820  82.8650168  40.7425997 110.3415623  78.3834733  45.1778174
 109.4857219  77.9941583  44.9983813 110.7542575  78.4626694  44.3177960
 111.8714769  75.9181076  49.5769734 111.3679565  75.8811211  48.7637539
 112.1645376  76.8273819  49.6366391 108.1157655  76.0019806  48.5835916
 108.9810652  75.8062615  48.2241805 108.1835164  75.7730158  49.5105272
 117.7302786  86.2917387  42.0546109 116.9532229  85.9528546  41.6101271
 118.4094267  86.2970010  41.3801074 112.5454815  81.4112124  41.9452717
 112.2404950  81.7258273  42.7962860 113.4985257  81.4893544  41.9880050
 110.9901247  87.5702348  43.5945671 110.4622608  86.8355107  43.2818908
 110.4888749  88.3477024  43.3485639 115.9694093  85.7651368  48.7112717
 115.3117767  86.4550629  48.7992846 116.7734492  86.1547800  49.0546704
 105.7219974  78.2322014  45.9552282 106.2963726  78.0097195  45.2225475
 106.3090957  78.3010708  46.7080884 114.7799552  84.1195741  46.7616659
 115.2931433  84.7525733  47.2638369 115.4300775  83.5196936  46.3960019
 106.0489561  80.2626475  39.9748168 105.2126874  80.6001161  40.2957442
 105.9094331  80.1275455  39.0375305 108.0242642  75.1063263  44.6827352
 107.3707054  74.7912280  44.0583967 107.9823116  74.4839003  45.4087175
 109.1353847  85.3882558  36.5980644 108.2280909  85.1571811  36.7971793
 109.6324879  84.5920177  36.7854626 112.0421926  94.0980065  39.5177330
 111.3683625  94.4011762  40.1262288 112.4287748  94.9009145  39.1682787
 111.2580382  81.5945196  49.0075000 110.3402944  81.8160143  48.8496688
 111.6740526  81.6691507  48.1486707 112.0415430  82.9936612  44.1377680
 112.7887249  83.5058009  43.8284802 112.3107020  82.6720665  44.9982073
 110.3142080  85.4895153  41.1204634 109.4053300  85.2054185  41.2177104
 110.3437164  85.9094231  40.2607941 115.5461348  89.1001742  44.8895802
 115.0923675  88.2592652  44.9460992 114.9155314  89.7363141  45.2270582
 114.4894267  80.0293728  46.1196469 113.7517024  79.5171114  46.4506712
 114.7421041  79.5894110  45.3079746 113.9894287  90.9378239  45.8245620
 114.2817261  91.4983296  45.1057985 114.4992908  91.2306800  46.5798779
 114.5905895  72.8069980  46.7138238 114.8964771  71.9467344  46.4264153
 115.3158499  73.3987600  46.5137232 100.8830251  83.2100667  45.1019836
 100.6854651  82.6170028  44.3770903 100.3276915  82.9052877  45.8195775
 108.8626974  83.1023773  47.2214429 108.9175584  82.1497610  47.1456906
 108.0518176  83.2583212  47.7055728 110.0118168  87.0303896  38.4592713
 109.5737598  86.3139755  37.9998350 110.7528609  87.2580011  37.8977804
 106.8019334  81.7200833  44.9804808 105.9887200  82.0195004  45.3870000
 107.2978329  81.3256522  45.6979291 108.9527912  91.7158590  46.9139073
 108.9104091  91.9419436  45.9847605 109.8690611  91.4821965  47.0624874
 112.3993546  82.1842657  53.8119702 112.7542934  82.4114131  54.6714168
 113.0465677  82.5161034  53.1896957 118.1291283  85.3061093  44.5169031
 117.9909182  85.4962689  43.5890220 117.7727502  86.0680476  44.9737082
 106.2933409  79.2919189  50.5966043 106.9332788  79.1507948  49.8989007
 105.4610940  79.0053702  50.2204645 118.1560663  87.3737620  49.5280303
 118.5897169  87.2812909  50.3763357 118.8692243  87.3495121  48.8900319
 107.0693713  88.5921619  46.7101036 107.8634311  88.0971939  46.5083611
 106.3585405  88.0639482  46.3468741 111.8888557  90.9739715  51.0613403
 111.9425580  91.5430651  51.8291119 111.0203339  91.1441600  50.6967440
 103.3776476  82.7364701  42.7860788 102.4474065  82.6749156  43.0030751
 103.4733948  82.2140653  41.9897430 103.2962026  79.2619514  45.3739030
 103.5568843  80.1764847  45.2648191 104.1179198  78.7943956  45.5235643
 104.7686951  80.6757271  52.5437855 105.4410004  80.4674633  51.8950503
 103.9416737  80.4779357  52.1043087 119.0176212  87.4161321  52.0613188
 119.2112102  88.3207132  52.3072463 118.9176830  86.9568740  52.8951773
 110.6712523  77.3019212  54.5603515 110.0240438  78.0009161  54.4667992
 111.4413538  77.7355356  54.9279764 114.0791321  87.5668064  57.6354069
 113.9276827  87.3378615  56.7184152 114.0696000  88.5238665  57.6485414
 110.8476657  85.1399977  52.6200335 111.7768717  85.2911136  52.4469302
 110.4267687  85.2283997  51.7648982 109.6464989  89.1650641  50.3898873
 109.5076075  88.7969425  51.2624811 108.8579585  89.6798280  50.2182831
 110.2413141  94.2659737  41.7324409 110.4164897  93.7947781  42.5470032
 109.5545929  94.8925504  41.9605670 111.1970204  88.5432244  47.7787711
 110.8620037  88.5033014  48.6745360 110.6974150  87.8776960  47.3058121
 105.1714448  83.9499874  53.3040292 105.0334246  83.2180113  53.9051831
 106.0819372  83.8608774  53.0224479 114.1329396  85.8888278  38.0524770
 113.5158566  85.1635106  37.9557823 113.6645884  86.6497638  37.7091844
 107.7996749  83.6619833  52.7923971 108.5096367  83.0213025  52.7510590
 107.7566057  83.9132728  53.7150152 115.7883527  90.5987186  55.7130551
 115.7296074  89.9146406  55.0461134 116.1903046  91.3406176  55.2611177
 106.5125683  80.6485051  54.6119611 105.9763040  80.1975789  55.2641207
 105.9242391  80.7830960  53.8690075 104.8074226  97.4149100  48.5064269
 105.0470824  98.0467624  49.1843288 103.9643423  97.0637140  48.7929629
 105.9227942  80.1073702  37.1746075 105.0457408  79.9862503  36.8108321
 106.3985695  79.3159781  36.9224963 115.7900935  88.5626770  53.9444530
 114.9027713  88.2252692  54.0670929 116.3599486  87.8309802  54.1813296
  97.4430082  84.8950862  47.2687582  98.1301122  84.5812592  46.6808597
  97.2878211  85.7992227  46.9954833 102.2464804  79.7841059  51.6972605
 102.1622993  79.1766728  50.9623015 101.4247510  80.2750077  51.6982102
 109.3202088  93.2228223  50.9105773 109.2472260  94.0283194  51.4225078
 108.8779481  93.4220188  50.0853795 109.1091868  92.4599993  44.4208595
 108.3259390  93.0021673  44.5146820 109.8084613  92.9773972  44.8202836
 112.4188518  78.2694622  47.0642800 112.9157217  77.5164584  46.7443871
 111.6475499  78.3058939  46.4986010 120.2718275  83.9734988  48.7061092
 120.2608151  84.8559703  48.3355025 119.4035655  83.6206538  48.5115629
 111.7800772  93.1215057  53.0663932 112.4928744  93.7562521  52.9939834
 111.2890800  93.2178923  52.2503934 113.5018299  87.0266309  44.6381224
 112.5674577  87.1467772  44.4685928 113.6794967  86.1238776  44.3741234
 109.0023487  80.4112005  46.7914485 108.6321274  79.8583045  47.4795391
 109.4982579  79.8070139  46.2389485 116.8890850  82.8683629  45.1731258
 117.3551302  83.7011620  45.0991561 117.3398350  82.4028610  45.8776516
 106.8312685  90.8709500  53.8869503 107.5322145  91.5045983  54.0398897
 106.3607800  91.2124232  53.1265142 114.9567081  89.2127450  42.1717410
 115.2326925  89.0984044  43.0811284 114.0871580  88.8144935  42.1329583
 114.8607513  75.2364216  49.2122159 113.9470592  75.4668442  49.3804366
 115.2900614  75.3202660  50.0636192 114.6313971  83.4254108  51.7122053
 113.9785421  83.6730015  51.0574506 115.0094351  82.6118246  51.3784531
 111.5921145  93.4613801  45.8150224 111.7743540  92.6435457  46.2777976
 112.4154131  93.6781493  45.3775114 111.9263311  92.3881986  43.0765272
 112.4551077  91.8774440  42.4635434 112.1891530  92.0724516  43.9410805
 110.6801544  84.1673919  58.1988090 110.0042181  84.0668048  58.8690466
 111.5029178  84.0113132  58.6624088 102.4280403  90.4045855  50.8200606
 103.0133840  89.6589543  50.9528510 102.2305242  90.7149812  51.7037270
 105.2819058  93.4397103  45.8363048 104.6129434  93.9243230  45.3527088
 105.1431928  93.6866323  46.7506427  97.0198058  82.9751455  49.5405049
  97.0582157  82.4415046  50.3342167  96.5138351  82.4486661  48.9216026
 109.4224327  95.4740846  52.4345706 109.9742635  95.6372468  53.1994792
 109.7630520  96.0645284  51.7625731 104.3988820  77.8215996  53.0367591
 104.4630147  78.6830827  52.6244989 104.3355940  77.2089998  52.3039950
 103.8741093  79.8939128  56.6840625 104.5013132  79.5116206  57.2978150
 103.0169012  79.6753330  57.0496318 114.2735201  90.3002104  58.2894361
 114.8175105  90.9132062  57.7949316 113.6922046  90.8581682  58.8061374
 100.6506636  81.7015558  42.6158980 100.9460077  80.7926236  42.5626034
  99.7494671  81.6803297  42.2939983 112.5592714  93.4222822  49.4209389
 112.4343854  92.6212561  48.9120334 113.2171805  93.9169015  48.9323359
 104.1800883  79.7771554  48.5986529 103.4587468  80.3907522  48.4594002
 104.9694138  80.3129319  48.5203175 114.6227623  91.2231842  51.0488939
 113.6757958  91.1037193  50.9767265 114.9710396  90.3354340  51.1315200
 106.9827196  77.1125981  54.8727181 107.5061598  77.3588277  55.6353490
 106.7639529  77.9446015  54.4530318 102.3794477  79.3829655  42.7398305
 102.0507183  78.5027034  42.5573411 102.7333848  79.3277324  43.6274695
 111.6274056  91.0184558  47.2493291 111.4799018  90.0901265  47.4300861
 112.4527549  91.0404649  46.7650366 105.4936300  79.6702625  43.1073783
 105.8332373  80.1988546  42.3852391 105.9408421  80.0083031  43.8832350
 115.2308178  91.8413117  48.3358164 116.1554725  91.6355978  48.1982615
 115.0623481  91.5929518  49.2447505 108.1879741  78.0539676  52.5576851
 107.8476561  77.2547489  52.9597531 107.4818747  78.3541387  51.9853684
 108.8396213  75.1388988  51.0104174 109.6622282  74.6649466  50.8883064
 109.0834276  75.9179472  51.5102860 107.4804447  78.1677247  41.3067076
 108.2012810  78.5458499  40.8030793 106.8569752  78.8866123  41.4102054
 111.6235570  78.8722396  42.2425408 111.8399185  79.7547033  41.9414236
 111.1429637  78.4808609  41.5131050 106.3634792  81.8308109  48.8196153
 106.2179372  82.1448412  49.7120434 105.8859995  82.4493009  48.2667051
 108.2231175  78.8210657  48.8677042 108.2092743  77.9251750  48.5309340
 108.9403603  78.8281321  49.5015328 110.0757305  79.2547997  50.9130170
 109.8175083  80.1765068  50.9114500 109.5442346  78.8578432  51.6030634
 115.0203494  92.3598784  43.6920255 115.1940372  91.7945207  42.9394108
 115.5132385  93.1599679  43.5099745 100.8380454  84.3713453  51.7583814
 100.2933922  85.1473261  51.8904088 101.7159804  84.7184258  51.6002935
 107.6268070  77.7025037  44.1364612 107.7483982  76.7741683  44.3355500
 107.3370113  77.7163723  43.2242928 110.4959261  75.3879947  47.2731332
 110.5180958  75.4519281  46.3183312 110.9127320  74.5484456  47.4671838
 120.8742885  85.1235207  45.3110555 121.3174031  84.3742532  44.9129678
 119.9969395  85.1145343  44.9284287 116.0078667  91.6765549  40.7917153
 116.7029571  92.2972241  41.0104468 116.3501817  90.8260900  41.0669531
 101.6246476  83.4983349  54.6513971 100.8828212  83.6465985  55.2378601
 101.3039220  83.7591615  53.7880720 117.9070090  89.1265254  42.3204484
 118.4321414  89.4652527  41.5953804 117.8192442  88.1912269  42.1367619
 109.5690138  93.0399328  54.4494361 109.8777265  92.7948474  55.3217060
 110.3665620  93.2445966  53.9613231 109.5910750  95.1937237  46.6799737
 109.1515741  94.7013616  47.3732594 110.3418867  94.6510205  46.4391813
 102.0703089  91.3848778  46.6824365 102.8961109  91.0852550  46.3023009
 101.7197141  90.6156401  47.1314154 107.0384623  90.7375246  48.7522039
 106.4164632  90.0745951  48.4524267 107.7089489  90.7636378  48.0695687
 100.2711694  89.3035105  47.6413299  99.4343603  88.8757279  47.4597300
 100.2435340  89.4967548  48.5784090 107.1109150  79.2157034  58.3454545
 107.1597306  80.0919157  57.9632315 107.6531664  78.6734427  57.7726188
 117.5963996  89.7598158  57.6255682 116.8059539  89.7422297  57.0860181
 117.3597350  90.2986451  58.3804719 117.7161871  86.6090624  54.9388411
 117.7659876  86.4440631  55.8803933 117.6075794  85.7417883  54.5486291
 106.5998129  89.2879170  42.2280500 106.7486250  89.9714634  41.5747172
 107.4064573  89.2684260  42.7429955 115.0065633  82.5921552  56.2547717
 115.9075496  82.4528017  55.9631715 115.0813608  82.7576007  57.1945895
 109.3408438  79.9688407  55.1000904 108.4711748  80.2621973  54.8283492
 109.5767919  80.5528852  55.8208167 119.2180068  89.0287566  55.1830432
 118.9264876  89.3917546  56.0193893 118.6052199  88.3154574  55.0043764
 120.4175750  86.5940445  47.7033002 121.2522641  87.0330249  47.8670563
 120.5534879  86.1179099  46.8841248 117.4667256  84.1520180  53.6510490
 117.9421377  84.3447826  52.8429342 116.5432821  84.2079366  53.4053874
 104.3550762  85.3144347  43.2341568 104.1096804  84.4106677  43.4321779
 104.5246677  85.3161498  42.2921046 112.0447472  76.1868024  52.6166324
 112.5629416  76.9229051  52.2912813 111.6902605  76.4932017  53.4513083
 103.6246410  81.0472705  40.7327730 102.9315655  81.1217060  40.0767766
 103.3798162  80.2833049  41.2549247 112.2960066  72.6068306  48.1367221
 112.5761820  71.9391495  48.7627647 113.0810673  72.7997402  47.6241884
 110.0993535  91.7827300  39.6992247 109.5267502  92.4017487  39.2462719
 110.6726329  92.3326662  40.2332169 116.1668925  81.0285940  51.8838796
 117.1186348  81.1284038  51.9051020 115.9972375  80.2364209  52.3936880
 114.1883304  78.1141523  52.0698197 113.5933236  78.3946536  51.3744685
 113.9033001  78.6035424  52.8414938 113.3190795  92.0664450  40.8300829
 114.2521468  92.0010012  41.0333705 113.2314008  92.9020717  40.3715362
 115.9478811  91.3830321  37.7904777 115.8692443  91.0490184  38.6840535
 116.7688478  91.8752089  37.7896249 118.6457003  84.2492060  50.9981095
 118.6133323  83.3108061  51.1840779 119.2557626  84.3276097  50.2646920
 110.4840333  83.1188113  37.0408299 111.4299438  82.9894321  37.1096717
 110.1054578  82.3802775  37.5177728 118.7951491  81.0403103  51.0439379
 118.2790540  80.2561560  50.8569307 119.6791440  80.7121820  51.2085898
 116.4562218  74.7844119  47.0035191 116.2587039  74.4759207  47.8878523
 117.0661924  75.5105758  47.1333121 110.3679026  87.1705859  58.5008956
 111.2882035  87.3484458  58.6949003 110.3328609  86.2261904  58.3488656
 108.6683251  81.0438089  36.9763185 107.7614706  80.7471202  37.0525898
 108.9459232  80.7467907  36.1097471  99.5861191  82.3644453  47.4262231
  99.2663975  81.5109761  47.1336605  99.0394619  82.5793031  48.1820198
 103.3641099  85.0806894  51.1431738 103.5827108  86.0124002  51.1619771
 103.7766872  84.7214868  51.9286541 110.2845316  75.5874979  43.1307426
 109.4746045  75.2422064  43.5062672 110.9729733  75.2782523  43.7195038
 112.2135865  74.6653026  44.7531723 112.7666903  75.0848479  45.4121746
 112.4505951  73.7388774  44.7954679 108.2368964  80.6540099  60.5334487
 108.1365691  81.6034456  60.4646578 108.0190506  80.3258338  59.6610557
 107.4382035  77.9025025  37.1175164 108.3001199  78.2279923  37.3770981
 107.6232379  77.1156520  36.6048230  99.4549451  85.9847364  49.3955353
  98.7612922  85.5701317  48.8825307 100.2022442  86.0267901  48.7988772
 115.5914672  76.7753551  44.2610387 115.0113341  77.4338355  43.8788439
 115.3250604  75.9530896  43.8497804 114.0418238  76.1758609  46.4631707
 114.5418016  76.2875143  45.6546026 114.6853846  75.8719662  47.1032516
 108.1000234  84.0837238  59.3499548 107.6167316  84.8837598  59.5563437
 108.1861173  84.0945183  58.3966992 101.3686194  85.9165618  47.2721368
 101.3456882  86.0153305  46.3203251 101.6786830  86.7630769  47.5938534
 104.0273571  87.9741773  51.3867982 104.9816825  87.9425715  51.3197914
 103.8286095  87.5132397  52.2018208 104.6172954  86.5442889  53.9538780
 105.4365843  87.0386968  53.9773617 104.8909761  85.6274857  53.9256347
 114.3739550  78.9353641  43.3166735 113.4865405  79.2203292  43.0986930
 114.7893539  78.7747405  42.4694012 117.7254086  78.9600162  47.0321074
 118.5014476  79.4496615  47.3045691 117.0002220  79.3858217  47.4892944
 120.1626645  79.6727782  48.0895015 120.7571135  79.4323518  47.3788323
 120.2353228  78.9534912  48.7168551 102.3823800  93.5161393  48.4038180
 102.2478268  92.7561793  47.8376178 101.9655862  94.2402292  47.9366969
 113.5182763  88.6998316  37.4114755 114.2218613  88.9048319  38.0272411
 112.7945412  89.2675078  37.6763839 114.3480573  84.4508177  43.5317025
 114.2915775  84.9076729  42.6924658 114.9008916  83.6898862  43.3539868
 118.1585379  80.2397909  44.3567145 117.9022314  79.8394545  45.1875352
 117.5338247  80.9541703  44.2317284 122.4697717  82.9793982  46.8638436
 121.9097275  83.0487172  47.6369998 121.8641221  82.8034967  46.1437932
 105.5392926  94.4130710  48.6156622 105.4225310  95.3576142  48.5135313
 104.7185372  94.1104271  49.0042422 115.4269461  89.1380845  39.4613215
 116.2615065  88.7062044  39.2790690 115.2653804  88.9662859  40.3890110
 115.0815353  85.6412959  40.8269554 115.0264157  85.4757230  39.8857999
 114.4561408  86.3488991  40.9831744  99.8707868  80.8781023  54.6530977
 100.5166731  80.3679977  55.1418202  99.6625019  81.6149705  55.2274402
 112.3961260  87.9461870  60.1523117 113.2652420  88.1202523  59.7909752
 111.9168011  88.7656287  60.0298847 108.3911478  75.1421068  40.4054873
 108.3790148  76.0862907  40.5623144 109.2834900  74.9591213  40.1114334
 106.5647440  95.0658971  51.8312551 107.4674687  95.0982582  52.1479046
 106.3384810  94.1359422  51.8458887 108.3201042  93.8189958  48.4922630
 107.3696673  93.8191820  48.3787002 108.6233528  93.0722693  47.9758664
 112.2063598  71.7363844  44.6600810 111.4395994  71.1822331  44.8057492
 112.6174303  71.8085713  45.5214961 104.2105359  78.0248640  58.7505991
 105.0736820  77.6685445  58.9609315 103.6370769  77.6862535  59.4381395
 120.8643442  99.6077924  49.4929917 120.5261954  99.4918989  48.6050451
 121.7333210  99.2069090  49.4730923 116.7230258 101.4613401  45.4826808
 116.1595123 101.3703338  44.7143095 116.6082653 100.6413305  45.9629300
 121.3463225 100.7612776  55.4516122 121.3351866 100.3665574  54.5796626
 121.5083864 100.0278849  56.0449894 114.2694690 102.9564592  48.3211028
 115.0615982 102.6155417  47.9057327 114.5091340 103.0659568  49.2413181
 116.2285444 102.2173506  41.1928407 117.0016320 101.6702493  41.0541283
 116.5810842 103.0817755  41.4042868 118.0670486 103.5449888  54.3995306
 117.7760352 104.4495519  54.2841972 118.7027470 103.5866416  55.1139376
 118.9926693 100.9226737  50.9896666 119.5890265 100.6982759  50.2753629
 119.0501665 100.1811482  51.5922114 118.5651721  98.3766172  38.8246857
 118.8177242  97.8547693  38.0630320 117.6276280  98.2132317  38.9273540
 118.2848010 100.2794278  41.0271232 118.1684268  99.6039181  41.6952316
 118.3950270  99.7926652  40.2103385 120.6279551  99.7404425  44.7317921
 120.2637758  99.2135046  45.4430842 121.4846667  99.3502894  44.5584406
 120.2685038  94.7694325  39.7279269 120.4359440  95.6374561  40.0949740
 120.0782207  94.9321606  38.8040559 116.4772853  99.6825100  47.4281804
 115.5523349  99.5501314  47.6359496 116.7257266 100.4619320  47.9251747
 120.2474259  97.2251982  40.7125936 120.1273884  97.6709033  41.5511417
 119.5526847  97.5737300  40.1539474 113.8381664  99.3258374  48.2625593
 113.9674045  99.5792853  49.1765005 113.1579115  99.9186082  47.9430248
 120.4998381  97.1683489  57.0177434 119.7231715  97.7277409  57.0080299
 121.1388944  97.6540272  57.5392304 118.7544753  99.9768943  56.5795401
 119.4959437 100.5153987  56.3030225 118.0481739 100.6035231  56.7366953
 120.5831163  97.0570690  52.5501120 121.4292358  97.4810103  52.6935769
 120.5229800  96.4004314  53.2439683 120.1056869 102.4173682  46.1969937
 120.5695215 102.6961385  45.4074559 119.8413667 101.5157126  46.0143028
 116.9980950 101.9645163  49.1349700 117.5682307 102.3932432  48.4967185
 117.5889062 101.6827748  49.8333886 119.0425755  98.5396834  43.0059502
 119.7449799  98.9917878  43.4733428 118.7106384  97.8980653  43.6339395
 117.4906117  97.1308591  57.3810711 116.8604777  97.8124872  57.6146108
 117.3842205  97.0191672  56.4363850 112.7851089  96.7980387  48.3076636
 111.9950143  97.0537915  47.8316746 113.2762337  97.6128725  48.4128676
 114.7365835  97.1624966  45.2660112 113.9396998  97.2743660  45.7843608
 114.5091427  97.5011618  44.4001003 120.5671502 103.6869669  53.2142627
 120.6315935 104.1490077  54.0500799 119.8582426 103.0567034  53.3424937
 111.0688792  97.0510877  50.7391626 111.3196831  97.9357887  51.0049202
 111.6048341  96.8715479  49.9666718 120.2819520 105.3537777  43.0821607
 120.1465195 106.1989313  43.5106455 120.8229332 105.5557054  42.3187541
 116.7686860  91.4329357  59.7435962 116.3753805  90.8795555  60.4183607
 117.5853000  91.7439935  60.1342480 113.7348917 102.8713215  43.6549532
 114.2473438 103.6656465  43.8055097 114.3871630 102.1739505  43.5883134
 115.5443802 105.9878971  45.7372285 115.7210430 106.9096936  45.5493269
 116.3400636 105.6737390  46.1666665 119.6854821  92.8487236  57.3356219
 120.4264534  93.4494389  57.2560681 119.9172743  92.1064874  56.7774262
 114.8296159  98.0343603  55.6134449 114.7149674  97.1328860  55.9141548
 113.9740676  98.2807300  55.2619265 116.6675117 107.5057145  51.7382628
 117.2182543 107.3774208  50.9659622 115.8286593 107.8052034  51.3877521
 120.4642289 103.7708273  56.0826859 120.9970625 103.0096561  55.8526167
 119.9356370 103.4781925  56.8251013 111.6997834 101.2001869  44.4309103
 112.5373056 101.6098878  44.2142811 111.8776102 100.2601311  44.4009297
 121.1809377  93.7126651  45.1778174 120.3250974  93.3233501  44.9983813
 121.5936329  93.7918611  44.3177960 118.9551410  91.3311724  48.5835916
 119.8204407  91.1354532  48.2241805 119.0228919  91.1022075  49.5105272
 121.8295001 102.8994265  43.5945671 121.3016363 102.1647025  43.2818908
 121.3282504 103.6768942  43.3485639 116.5613729  93.5613932  45.9552282
 117.1357481  93.3389113  45.2225475 117.1484711  93.6302626  46.7080884
 116.8883316  95.5918393  39.9748168 116.0520628  95.9293079  40.2957442
 116.7488086  95.4567372  39.0375305 118.8636397  90.4355180  44.6827352
 118.2100809  90.1204198  44.0583967 118.8216871  89.8130921  45.4087175
 119.9747601 100.7174475  36.5980644 119.0674663 100.4863729  36.7971793
 120.4718633  99.9212095  36.7854626 121.1535835 100.8187070  41.1204634
 120.2447054 100.5346103  41.2177104 121.1830919 101.2386149  40.2607941
 111.7224005  98.5392584  45.1019836 111.5248405  97.9461945  44.3770903
 111.1670669  98.2344795  45.8195775 119.7020729  98.4315691  47.2214429
 119.7569339  97.4789527  47.1456906 118.8911931  98.5875130  47.7055728
 120.8511923 102.3595814  38.4592713 120.4131353 101.6431673  37.9998350
 121.5922364 102.5871929  37.8977804 117.6413089  97.0492751  44.9804808
 116.8280954  97.3486921  45.3870000 118.1372083  96.6548439  45.6979291
 117.1327164  94.6211106  50.5966043 117.7726543  94.4799865  49.8989007
 116.3004694  94.3345620  50.2204645 117.9087467 103.9213537  46.7101036
 118.7028066 103.4263857  46.5083611 117.1979160 103.3931400  46.3468741
 114.2170231  98.0656618  42.7860788 113.2867819  98.0041074  43.0030751
 114.3127703  97.5432571  41.9897430 114.1355780  94.5911431  45.3739030
 114.3962597  95.5056764  45.2648191 114.9572952  94.1235874  45.5235643
 115.6080705  96.0049188  52.5437855 116.2803759  95.7966551  51.8950503
 114.7810492  95.8071274  52.1043087 121.5106277  92.6311129  54.5603515
 120.8634192  93.3301079  54.4667992 122.2807293  93.0647273  54.9279764
 120.4858743 104.4942559  50.3898873 120.3469829 104.1261343  51.2624811
 119.6973340 105.0090198  50.2182831 122.0363959 103.8724161  47.7787711
 121.7013791 103.8324931  48.6745360 121.5367904 103.2068877  47.3058121
 116.0108203  99.2791791  53.3040292 115.8728001  98.5472030  53.9051831
 116.9213126  99.1900691  53.0224479 118.6390503  98.9911751  52.7923971
 119.3490122  98.3504943  52.7510590 118.5959811  99.2424646  53.7150152
 117.3519437  95.9776969  54.6119611 116.8156794  95.5267707  55.2641207
 116.7636146  96.1122877  53.8690075 116.7621696  95.4365620  37.1746075
 115.8851163  95.3154421  36.8108321 117.2379449  94.6451698  36.9224963
 108.2823836 100.2242780  47.2687582 108.9694876  99.9104510  46.6808597
 108.1271965 101.1284144  46.9954833 113.0858558  95.1132976  51.6972605
 113.0016747  94.5058646  50.9623015 112.2641265  95.6041995  51.6982102
 119.8417241  95.7403923  46.7914485 119.4715029  95.1874963  47.4795391
 120.3376334  95.1362056  46.2389485 117.6706440 106.2001418  53.8869503
 118.3715899 106.8337901  54.0398897 117.2001555 106.5416149  53.1265142
 121.5195299  99.4965836  58.1988090 120.8435936  99.3959966  58.8690466
 122.3422933  99.3405050  58.6624088 113.2674158 105.7337773  50.8200606
 113.8527595 104.9881461  50.9528510 113.0698996 106.0441730  51.7037270
 116.1212813 108.7689020  45.8363048 115.4523188 109.2535148  45.3527088
 115.9825683 109.0158241  46.7506427 107.8591812  98.3043373  49.5405049
 107.8975912  97.7706964  50.3342167 107.3532105  97.7778579  48.9216026
 115.2382575  93.1507914  53.0367591 115.3023901  94.0122744  52.6244989
 115.1749695  92.5381915  52.3039950 114.7134847  95.2231046  56.6840625
 115.3406886  94.8408123  57.2978150 113.8562766  95.0045248  57.0496318
 111.4900390  97.0307475  42.6158980 111.7853831  96.1218154  42.5626034
 110.5888426  97.0095215  42.2939983 115.0194637  95.1063472  48.5986529
 114.2981223  95.7199439  48.4594002 115.8087893  95.6421237  48.5203175
 117.8220951  92.4417898  54.8727181 118.3455352  92.6880195  55.6353490
 117.6033284  93.2737933  54.4530318 113.2188232  94.7121573  42.7398305
 112.8900938  93.8318952  42.5573411 113.5727602  94.6569242  43.6274695
 116.3330055  94.9994543  43.1073783 116.6726127  95.5280464  42.3852391
 116.7802175  95.3374949  43.8832350 119.0273496  93.3831593  52.5576851
 118.6870316  92.5839406  52.9597531 118.3212502  93.6833304  51.9853684
 119.6789967  90.4680906  51.0104174 120.5016037  89.9941384  50.8883064
 119.9228031  91.2471390  51.5102860 118.3198202  93.4969164  41.3067076
 119.0406564  93.8750417  40.8030793 117.6963506  94.2158041  41.4102054
 117.2028546  97.1600026  48.8196153 117.0573127  97.4740330  49.7120434
 116.7253750  97.7784927  48.2667051 119.0624929  94.1502574  48.8677042
 119.0486498  93.2543668  48.5309340 119.7797357  94.1573238  49.5015328
 120.9151060  94.5839915  50.9130170 120.6568838  95.5056985  50.9114500
 120.3836100  94.1870349  51.6030634 111.6774208  99.7005371  51.7583814
 111.1327676 100.4765179  51.8904088 112.5553558 100.0476175  51.6002935
 118.4661825  93.0316955  44.1364612 118.5877736  92.1033601  44.3355500
 118.1763867  93.0455641  43.2242928 121.3353015  90.7171865  47.2731332
 121.3574712  90.7811198  46.3183312 121.7521074  89.8776374  47.4671838
 112.4640230  98.8275267  54.6513971 111.7221966  98.9757902  55.2378601
 112.1432974  99.0883533  53.7880720 112.9096844 106.7140696  46.6824365
 113.7354864 106.4144468  46.3023009 112.5590896 105.9448318  47.1314154
 117.8778377 106.0667164  48.7522039 117.2558386 105.4037869  48.4524267
 118.5483244 106.0928296  48.0695687 111.1105449 104.6327022  47.6413299
 110.2737357 104.2049197  47.4597300 111.0829094 104.8259466  48.5784090
 117.9502905  94.5448952  58.3454545 117.9991060  95.4211075  57.9632315
 118.4925419  94.0026345  57.7726188 117.4391884 104.6171087  42.2280500
 117.5880004 105.3006552  41.5747172 118.2458327 104.5976177  42.7429955
 120.1802193  95.2980325  55.1000904 119.3105502  95.5913891  54.8283492
 120.4161673  95.8820769  55.8208167 115.1944517 100.6436265  43.2341568
 114.9490559  99.7398595  43.4321779 115.3640431 100.6453415  42.2921046
 114.4640164  96.3764623  40.7327730 113.7709409  96.4508978  40.0767766
 114.2191916  95.6124966  41.2549247 121.3234088  98.4480031  37.0408299
 122.2693193  98.3186239  37.1096717 120.9448333  97.7094693  37.5177728
 121.2072781 102.4997777  58.5008956 122.1275790 102.6776376  58.6949003
 121.1722364 101.5553822  58.3488656 119.5077005  96.3730007  36.9763185
 118.6008461  96.0763120  37.0525898 119.7852986  96.0759825  36.1097471
 110.4254946  97.6936370  47.4262231 110.1057730  96.8401679  47.1336605
 109.8788374  97.9084949  48.1820198 114.2034853 100.4098811  51.1431738
 114.4220863 101.3415919  51.1619771 114.6160627 100.0506786  51.9286541
 121.1239071  90.9166897  43.1307426 120.3139799  90.5713982  43.5062672
 121.8123488  90.6074440  43.7195038 119.0762718  95.9832017  60.5334487
 118.9759445  96.9326374  60.4646578 118.8584260  95.6550256  59.6610557
 118.2775790  93.2316942  37.1175164 119.1394954  93.5571841  37.3770981
 118.4626134  92.4448438  36.6048230 110.2943206 101.3139282  49.3955353
 109.6006677 100.8993235  48.8825307 111.0416197 101.3559818  48.7988772
 118.9393988  99.4129156  59.3499548 118.4561070 100.2129516  59.5563437
 119.0254927  99.4237101  58.3966992 112.2079948 101.2457536  47.2721368
 112.1850636 101.3445223  46.3203251 112.5180585 102.0922686  47.5938534
 114.8667326 103.3033691  51.3867982 115.8210579 103.2717633  51.3197914
 114.6679849 102.8424314  52.2018208 115.4566708 101.8734807  53.9538780
 116.2759597 102.3678885  53.9773617 115.7303516 100.9566775  53.9256347
 113.2217555 108.8453310  48.4038180 113.0872023 108.0853711  47.8376178
 112.8049617 109.5694210  47.9366969 110.7101622  96.2072941  54.6530977
 111.3560486  95.6971895  55.1418202 110.5018773  96.9441622  55.2274402
 119.2305233  90.4712985  40.4054873 119.2183903  91.4154825  40.5623144
 120.1228655  90.2883131  40.1114334 115.0499113  93.3540558  58.7505991
 115.9130575  92.9977363  58.9609315 114.4764524  93.0154453  59.4381395
  52.9718625  -4.9733760  31.0861374  52.8942655  -4.0225935  31.1649855
  52.3680269  -5.3187887  31.7436300  50.6105455  -2.2248366  35.2309576
  50.8502053  -1.5929841  35.9088595  49.7674652  -2.5760326  35.5174935
  51.0850287  -6.2000363  32.5608355  50.4160663  -5.7154236  32.0772395
  50.9463157  -5.9531143  33.4751733  55.2255556  -4.1656620  39.1591013
  55.7773864  -4.0024998  39.9240098  55.5661749  -3.5752182  38.4871038
  55.3941979  -4.4460228  33.4045044  54.9546969  -4.9383850  34.0977901
  56.1450096  -4.9887261  33.1637119  48.1855029  -6.1236073  35.1283486
  48.0509497  -6.8835672  34.5621484  47.7687091  -5.3995173  34.6612275
  51.3424155  -5.2266756  35.3401929  51.2256539  -4.2821324  35.2380619
  50.5216601  -5.5293195  35.7287728  52.3678669  -4.5738494  38.5557858
  53.2705916  -4.5414884  38.8724352  52.1416039  -5.5038043  38.5704193
  66.6674671  -0.0319541  36.2175223  66.3293182  -0.1478477  35.3295758
  67.5364439  -0.4328376  36.1976229  62.5261486   1.8215935  32.2072114
  61.9626352   1.7305872  31.4388402  62.4113882   1.0015840  32.6874607
  67.1494454   1.1215310  42.1761429  67.1383095   0.7268109  41.3041932
  67.3115093   0.3881383  42.7695200  60.0725918   3.3167127  35.0456335
  60.8647210   2.9757951  34.6302634  60.3122569   3.4262102  35.9658488
  68.1061045   5.4886903  27.5186579  67.4549025   6.0740983  27.1320593
  68.9005408   6.0193098  27.5781617  62.0316672   2.5776040  27.9173713
  62.8047548   2.0305027  27.7786589  62.3842071   3.4420289  28.1288175
  63.8701715   3.9052422  41.1240613  63.5791581   4.8098053  41.0087279
  64.5058699   3.9468950  41.8384682  64.7957922   1.2829271  37.7141972
  65.3921494   1.0585293  36.9998935  64.8532893   0.5414016  38.3167420
  64.3682950  -1.2631294  25.5492163  64.6208471  -1.7849773  24.7875626
  63.4307509  -1.4265148  25.6518847  69.5836310   3.1777335  28.0555563
  68.9482143   3.2511961  28.7676468  69.2533717   3.7670934  27.3774643
  64.0879239   0.6396812  27.7516538  63.9715497  -0.0358285  28.4197623
  64.1981499   0.1529186  26.9348691  66.4310780   0.1006959  31.4563228
  66.0668987  -0.4262420  32.1676149  67.2877896  -0.2894572  31.2829713
  68.8291600   3.5913838  38.1190406  68.5292323   4.4938877  38.0106214
  68.4842660   3.3246021  38.9711559  62.2804081   0.0427635  34.1527111
  61.3554578  -0.0896151  34.3604803  62.5288495   0.8221854  34.6497053
  59.6412893  -0.3139092  34.9870900  59.7705274  -0.0604613  35.9010312
  58.9610344   0.2788616  34.6675555  63.8112380  10.3558158  31.0861374
  63.7336410  11.3065983  31.1649855  63.2074023  10.0104031  31.7436300
  64.5575982   0.3371477  43.3040708  65.2990666   0.8756521  43.0275532
  63.8512967   0.9637766  43.4612260  70.0331322   2.4800617  41.9012870
  70.4414678   2.0383028  41.1567502  69.3108583   1.9053245  42.1547062
  70.3560136   3.0401808  35.6565158  69.7268999   3.2047522  34.9541226
  69.9685798   3.4543418  36.4276122  74.2349368   3.9756246  33.0109522
  73.5500406   4.3555147  32.4606555  74.3193217   4.5851572  33.7441470
  71.4900300   1.6216205  39.6104866  71.7017195   2.2647965  38.9339247
  71.4430048   0.7878521  39.1426796  65.9088098   2.7776216  32.9215243
  66.3726444   3.0563919  32.1319866  65.6444896   1.8759661  32.7388334
  62.8012179   2.3247698  35.8595007  63.3713536   2.7534966  35.2212491
  63.3920291   2.0430282  36.5579192  64.8456984  -1.1000632  29.7304809
  65.5481027  -0.6479588  30.1978735  64.5137613  -1.7416813  30.3584702
  63.2937346  -2.5088875  44.1056018  62.6636006  -1.8272594  44.3391415
  63.1873434  -2.6205793  43.1609156  58.5882318  -2.8417079  35.0321942
  57.7981372  -2.5859550  34.5562053  59.0793565  -2.0268741  35.1373983
  72.6046128   4.4988160  37.7827223  73.4263571   4.0968348  37.5009905
  72.6008530   4.3956394  38.7343339  60.5397063  -2.4772500  31.9905419
  59.7428227  -2.3653805  32.5088915  60.3122656  -2.1385847  31.1246309
  66.3702731   4.0472204  39.9387934  66.4347164   4.5092611  40.7746105
  65.6613655   3.4169568  40.0670243  56.8720021  -2.5886588  37.4636933
  57.1228059  -1.7039579  37.7294509  57.4079569  -2.7681987  36.6912025
  66.0850749   5.7140311  29.8066914  65.9496424   6.5591847  30.2351762
  66.6260561   5.9159589  29.0432848  59.5380146   3.2315749  30.3794839
  60.0504667   4.0258999  30.5300404  60.1902859   2.5342040  30.3128440
  61.3475031   6.3481505  32.4617592  61.5241659   7.2699470  32.2738576
  62.1431864   6.0339925  32.8911972  60.6327387  -1.6053863  42.3379755
  60.5180903  -2.5068606  42.6386854  59.7771905  -1.3590166  41.9864572
  67.7119225   6.3363878  43.9367256  67.2683079   5.5500256  43.6188160
  68.3736439   6.5243028  43.2711147  62.4706346   7.8659679  38.4627934
  63.0213771   7.7376742  37.6904928  61.6317822   8.1654568  38.1122827
  69.8100463   6.6166677  41.9648657  69.7918939   7.4375559  41.4728926
  70.7320383   6.4920753  42.1898798  66.2673517   4.1310807  42.8072166
  66.8001854   3.3699095  42.5771474  65.7387598   3.8384459  43.5496320
  57.5029063   1.5604403  31.1554409  58.3404285   1.9701412  30.9388117
  57.6807331   0.6203846  31.1254603  74.3727769   1.9811839  28.7791416
  73.5957212   1.6422998  28.3346578  75.0519250   1.9864462  28.1046381
  67.6326230   3.2596799  30.3190978  67.1047592   2.5249559  30.0064215
  67.1313733   4.0371476  30.0730946  72.6119076   1.4545820  35.4358024
  71.9542750   2.1445081  35.5238153  73.4159475   1.8442252  35.7792010
  65.7778830   1.0777010  23.3225951  64.8705892   0.8466263  23.5217100
  66.2749862   0.2814629  23.5099932  68.6846909   9.7874517  26.2422637
  68.0108608  10.0906214  26.8507595  69.0712731  10.5903597  25.8928094
  66.9567064   1.1789605  27.8449941  66.0478283   0.8948637  27.9422410
  66.9862147   1.5988683  26.9853248  72.1886331   4.7896194  31.6141108
  71.7348658   3.9487104  31.6706299  71.5580298   5.4257592  31.9515888
  70.6319270   6.6272691  32.5490926  70.9242245   7.1877748  31.8303292
  71.1417891   6.9201252  33.3044086  57.5255234  -1.1004881  31.8265143
  57.3279634  -1.6935521  31.1016209  56.9701898  -1.4052671  32.5441082
  66.6543151   2.7198348  25.1838019  66.2162581   2.0034207  24.7243657
  67.3953592   2.9474463  24.6223111  65.5952896   7.4053042  33.6384380
  65.5529074   7.6313888  32.7092912  66.5115594   7.1716416  33.7870181
  74.7985646   3.0632072  36.2525609  75.2322153   2.9707361  37.1008663
  75.5117227   3.0389573  35.6145625  63.7118696   4.2816071  33.4346342
  64.5059295   3.7866391  33.2328917  63.0010389   3.7533934  33.0714048
  68.5313541   6.6634166  37.7858710  68.5850563   7.2325103  38.5536426
  67.6628322   6.8336051  37.4212747  60.0201460  -1.5740847  29.5106095
  59.0899048  -1.6356392  29.7276057  60.1158932  -2.0964895  28.7142736
  75.6601195   3.1055773  38.7858495  75.8537085   4.0101583  39.0317770
  75.5601814   2.6463192  39.6197080  70.7216304   3.2562516  44.3599375
  70.5701810   3.0273067  43.4429459  70.7120984   4.2133117  44.3730720
  67.4901640   0.8294428  39.3445642  68.4193700   0.9805588  39.1714609
  67.0692671   0.9178449  38.4894288  66.2889972   4.8545093  37.1144179
  66.1501058   4.4863877  37.9870118  65.5004569   5.3692732  36.9428137
  66.8838124   9.9554189  28.4569716  67.0589880   9.4842233  29.2715339
  66.1970912  10.5819956  28.6850977  67.8395187   4.2326696  34.5033017
  67.5045020   4.1927466  35.3990667  67.3399133   3.5671411  34.0303427
  61.8139431  -0.3605674  40.0285598  61.6759229  -1.0925436  40.6297137
  62.7244355  -0.4496774  39.7469786  70.7754379   1.5782730  24.7770077
  70.1583550   0.8529558  24.6803130  70.3070868   2.3392090  24.4337151
  64.4421732  -0.6485715  39.5169278  65.1521351  -1.2892523  39.4755896
  64.3991040  -0.3972820  40.4395459  72.4308511   6.2881638  42.4375857
  72.3721057   5.6040858  41.7706440  72.8328029   7.0300628  41.9856483
  61.4499210  13.1043552  35.2309576  61.6895808  13.7362076  35.9088595
  60.6068406  12.7531592  35.5174935  72.4325918   4.2521222  40.6689837
  71.5452697   3.9147144  40.7916236  73.0024469   3.5204253  40.9058602
  54.0855065   0.5845314  33.9932888  54.7726105   0.2707044  33.4053904
  53.9303194   1.4886679  33.7200140  65.9627071   8.9122675  37.6351080
  65.8897243   9.7177646  38.1470385  65.5204465   9.1114640  36.8099102
  65.7516851   8.1494445  31.1453902  64.9684373   8.6916125  31.2392126
  66.4509596   8.6668424  31.5448143  68.4225755   8.8109509  39.7909239
  69.1353727   9.4456973  39.7185140  67.9315784   8.9073375  38.9749241
  70.1443282   2.7160761  31.3626530  69.2099561   2.8362224  31.1931235
  70.3219950   1.8133228  31.0986540  63.4737668   6.5603952  40.6114810
  64.1747128   7.1940435  40.7644204  63.0032783   6.9018684  39.8510449
  71.5992064   4.9021902  28.8962717  71.8751908   4.7878496  29.8056591
  70.7296563   4.5039387  28.8574890  68.2346128   9.1508253  32.5395530
  68.4168523   8.3329909  33.0023283  69.0579114   9.3675945  32.1020420
  68.5688294   8.0776438  29.8010579  69.0976060   7.5668892  29.1880741
  68.8316513   7.7618968  30.6656112  67.3226527  -0.1431629  44.9233397
  66.6467164  -0.2437500  45.5935772  68.1454161  -0.2992416  45.3869394
  59.0705387   6.0940307  37.5445912  59.6558823   5.3483995  37.6773816
  58.8730225   6.4044264  38.4282576  61.9244042   9.1291554  32.5608355
  61.2554417   9.6137682  32.0772395  61.7856911   9.3760775  33.4751733
  53.6623041  -1.3354093  36.2650355  53.7007141  -1.8690502  37.0587474
  53.1563334  -1.8618887  35.6461333  66.0649310  11.1635298  39.1591013
  66.6167618  11.3266919  39.9240098  66.4055504  11.7539736  38.4871038
  70.9160185   5.9896555  45.0139667  71.4600089   6.6026514  44.5194622
  70.3347029   6.5476134  45.5306680  57.2931619  -2.6089991  29.3404287
  57.5885060  -3.5179312  29.2871341  56.3919655  -2.6302251  29.0185289
  69.2017698   9.1117273  36.1454695  69.0768837   8.3107013  35.6365641
  69.8596789   9.6063467  35.6568665  71.2652606   6.9126294  37.7734245
  70.3182942   6.7931645  37.7012572  71.6135379   6.0248792  37.8560507
  68.2699039   6.7079010  33.9738597  68.1224002   5.7795717  34.1546168
  69.0952533   6.7299101  33.4895673  71.8733161   7.5307569  35.0603470
  72.7979709   7.3250430  34.9227921  71.7048464   7.2823970  35.9692812
  63.0059775  -2.4797439  35.5441459  62.8604356  -2.1657136  36.4365741
  62.5284979  -1.8612539  34.9912358  71.6628477   8.0493236  30.4165562
  71.8365355   7.4839658  29.6639414  72.1557369   8.8494131  30.2345052
  57.4805437   0.0607905  38.4829121  56.9358905   0.8367713  38.6149395
  58.3584787   0.4078710  38.3248242  72.6503650   7.3660000  27.5162460
  73.3454554   7.9866693  27.7349775  72.9926800   6.5155352  27.7914838
  58.2671459  -0.8122199  41.3759277  57.5253195  -0.6639563  41.9623908
  57.9464203  -0.5513933  40.5126027  74.5495073   4.8159706  29.0449791
  75.0746397   5.1546979  28.3199111  74.4617426   3.8806721  28.8612925
  66.2115122   8.7293780  41.1739667  66.5202248   8.4842926  42.0462367
  67.0090604   8.9340418  40.6858538  66.2335734  10.8831689  33.4045044
  65.7940724  10.3908068  34.0977901  66.9843851  10.3404657  33.1637119
  58.7128073   7.0743230  33.4069672  59.5386093   6.7747002  33.0268316
  58.3622125   6.3050852  33.8559461  63.6809606   6.4269698  35.4767346
  63.0589615   5.7640403  35.1769573  64.3514473   6.4530830  34.7940993
  56.9136678   4.9929557  34.3658606  56.0768586   4.5651731  34.1842607
  56.8860323   5.1862000  35.3029397  74.2388979   5.4492610  44.3500989
  73.4484523   5.4316748  43.8105488  74.0022334   5.9880903  45.1050025
  74.3586854   2.2985076  41.6633717  74.4084859   2.1335083  42.6049240
  74.2500777   1.4312335  41.2731598  63.2423113   4.9773622  28.9525806
  63.3911233   5.6609086  28.2992479  64.0489556   4.9578712  29.4675262
  75.8605051   4.7182017  41.9075739  75.5689859   5.0811998  42.7439200
  75.2477182   4.0049026  41.7289071  60.9975746   1.0038799  29.9586875
  60.7521788   0.1001129  30.1567085  61.1671660   1.0055950  29.0166353
  66.7418518   7.4721752  26.4237554  66.1692485   8.0911939  25.9708025
  67.3151312   8.0221114  26.9577476  69.9615778   7.7558902  27.5546136
  70.8946451   7.6904464  27.7579011  69.8738991   8.5915169  27.0960669
  72.5903795   7.0724773  24.5150083  72.5117426   6.7384636  25.4085841
  73.4113462   7.5646540  24.5141556  67.0104009   2.8600311  45.2254263
  67.9307019   3.0378910  45.4194310  66.9753592   1.9156356  45.0733962
  56.2286174  -1.9461095  34.1507538  55.9088959  -2.7995787  33.8581912
  55.6819602  -1.7312517  34.9065505  60.0066082   0.7701346  37.8677044
  60.2252092   1.7018453  37.8865078  60.4191856   0.4109320  38.6531848
  56.0974434   1.6741816  36.1200659  55.4037906   1.2595769  35.6070614
  56.8447425   1.7162353  35.5234078  64.7425217  -0.2268310  46.0744855
  64.2592299   0.5732050  46.2808744  64.8286156  -0.2160365  45.1212299
  58.0111177   1.6060070  33.9966674  57.9881865   1.7047757  33.0448557
  58.3211813   2.4525221  34.3183840  60.6698555   3.6636225  38.1113289
  61.6241808   3.6320167  38.0443220  60.4711078   3.2026849  38.9263514
  61.2597937   2.2337341  40.6784086  62.0790826   2.7281420  40.7018924
  61.5334745   1.3169309  40.6501654  59.0248784   9.2055844  35.1283486
  58.8903251   8.4456245  34.5621484  58.6080846   9.9296744  34.6612275
  70.1607747   4.3892768  24.1360062  70.8643597   4.5942770  24.7517717
  69.4370395   4.9569530  24.4009145  62.1817909  10.1025161  35.3401929
  62.0650294  11.0470594  35.2380619  61.3610356   9.7998723  35.7287728
  72.0694444   4.8275297  26.1858522  72.9040048   4.3956496  26.0035997
  71.9078787   4.6557311  27.1135416  71.7240336   1.3307410  27.5514861
  71.6689140   1.1651682  26.6103305  71.0986391   2.0383443  27.7077051
  56.5132851  -3.4324525  41.3776283  57.1591715  -3.9425571  41.8663508
  56.3050002  -2.6955844  41.9519709  69.0386243   3.6356322  46.8768424
  69.9077403   3.8096975  46.5155059  68.5592995   4.4550739  46.7544153
  63.2072424  10.7553423  38.5557858  64.1099670  10.7877034  38.8724352
  62.9809794   9.8253874  38.5704193  64.9626026   9.5084410  35.2167936
  64.0121657   9.5086271  35.1032308  65.2658512   8.7617144  34.7003971
  80.6978719  15.3444948  36.2813699  81.3357129  15.2251696  35.5777039
  80.5799562  16.2925792  36.3401651  77.5068425  15.2972376  36.2175223
  77.1686937  15.1813441  35.3295758  78.3758193  14.8963541  36.1976229
  73.3655241  17.1507853  32.2072114  72.8020106  17.0597790  31.4388402
  73.2507636  16.3307757  32.6874607  77.9888208  16.4507228  42.1761429
  77.9776849  16.0560026  41.3041932  78.1508848  15.7173301  42.7695200
  70.9119673  18.6459044  35.0456335  71.7040965  18.3049869  34.6302634
  71.1516323  18.7554019  35.9658488  78.9454800  20.8178820  27.5186579
  78.2942779  21.4032901  27.1320593  79.7399163  21.3485015  27.5781617
  72.8710427  17.9067958  27.9173713  73.6441303  17.3596945  27.7786589
  73.2235826  18.7712207  28.1288175  74.7095469  19.2344340  41.1240613
  74.4185335  20.1389971  41.0087279  75.3452454  19.2760868  41.8384682
  75.6351676  16.6121188  37.7141972  76.2315249  16.3877211  36.9998935
  75.6926648  15.8705934  38.3167420  75.2076705  14.0660624  25.5492163
  75.4602225  13.5442145  24.7875626  74.2701264  13.9026769  25.6518847
  80.2519987  13.0696402  33.3566907  81.0383077  12.6515825  33.0057324
  80.5158692  13.9742494  33.5248555  80.4230065  18.5069252  28.0555563
  79.7875898  18.5803879  28.7676468  80.0927471  19.0962851  27.3774643
  85.6528415  13.0071635  34.2599885  86.3853587  12.4370852  34.4937715
  84.8967770  12.6193236  34.7006391  74.9272993  15.9688730  27.7516538
  74.8109252  15.2933633  28.4197623  75.0375253  15.4821104  26.9348691
  77.2704534  15.4298877  31.4563228  76.9062742  14.9029498  32.1676149
  78.1271650  15.0397346  31.2829713  83.1753835   6.7193209  38.7194494
  82.8437160   7.5888620  38.4955709  82.5799448   6.4029493  39.3988524
  76.9110021  10.4588776  26.4524576  77.0784424  11.3269013  26.8195047
  76.7207190  10.6216058  25.5285865  79.6685355  18.9205755  38.1190406
  79.3686078  19.8230794  38.0106214  79.3236414  18.6537939  38.9711559
  73.1197836  15.3719552  34.1527111  72.1948332  15.2395766  34.3604803
  73.3682249  16.1513771  34.6497053  83.0682498  11.4388296  35.7987844
  82.1599376  11.3703704  35.5046605  83.0170094  11.9160241  36.6269669
  76.8899242  12.9146434  27.4371243  76.7698867  13.3603485  28.2756723
  76.1951831  13.2631752  26.8784781  70.4806647  15.0152826  34.9870900
  70.6099028  15.2687305  35.9010312  69.8004098  15.6080534  34.6675555
  74.6506134  25.6850076  31.0861374  74.5730164  26.6357901  31.1649855
  74.0467778  25.3395948  31.7436300  77.1423364  12.8577941  43.7422741
  76.3656698  13.4171861  43.7325606  77.7813927  13.3434724  44.2637611
  84.9344145   9.6404734  37.5765718  84.2918525   9.9337267  36.9305512
  84.4299073   9.5257654  38.3818914  82.5884308  13.3867907  28.2651577
  83.5002164  13.6195294  28.0899274  82.0793955  13.9704951  27.7026656
  75.3969736  15.6663395  43.3040708  76.1384421  16.2048439  43.0275532
  74.6906722  16.2929683  43.4612260  80.8725076  17.8092535  41.9012870
  81.2808432  17.3674946  41.1567502  80.1502338  17.2345163  42.1547062
  77.2256146  12.7465142  39.2746426  78.0717341  13.1704555  39.4181075
  77.1654784  12.0898766  39.9684990  81.1953891  18.3693726  35.6565158
  80.5662753  18.5339440  34.9541226  80.8079553  18.7835335  36.4276122
  85.0743123  19.3048163  33.0109522  84.3894161  19.6847065  32.4606555
  85.1586972  19.9143490  33.7441470  80.3755591  10.4069510  40.9327600
  80.1316523  11.1611571  40.3961876  80.6515522  10.7854858  41.7674847
  82.3294054  16.9508123  39.6104866  82.5410949  17.5939882  38.9339247
  82.2823802  16.1170439  39.1426796  79.9320283   9.5625943  36.5141438
  79.0704762   9.8607197  36.8058175  79.9582718   9.7796342  35.5822470
  76.7481853  18.1068134  32.9215243  77.2120198  18.3855837  32.1319866
  76.4838651  17.2051578  32.7388334  73.6405934  17.6539615  35.8595007
  74.2107291  18.0826884  35.2212491  74.2314045  17.3722200  36.5579192
  75.6850739  14.2291286  29.7304809  76.3874782  14.6812330  30.1978735
  75.3531367  13.5875105  30.3584702  74.1331100  12.8203043  44.1056018
  73.5029761  13.5019324  44.3391415  74.0267188  12.7086124  43.1609156
  69.4276073  12.4874839  35.0321942  68.6375127  12.7432367  34.5562053
  69.9187320  13.3023177  35.1373983  83.4439882  19.8280078  37.7827223
  84.2657326  19.4260265  37.5009905  83.4402285  19.7248312  38.7343339
  71.3790818  12.8519418  31.9905419  70.5821981  12.9638112  32.5088915
  71.1516410  13.1906070  31.1246309  77.2096486  19.3764121  39.9387934
  77.2740918  19.8384528  40.7746105  76.5007409  18.7461486  40.0670243
  67.7113776  12.7405329  37.4636933  67.9621814  13.6252339  37.7294509
  68.2473324  12.5609931  36.6912025  91.5345875  16.1718826  34.1312194
  90.7809584  15.6026224  33.9756199  91.6693416  16.1381491  35.0782829
  76.9244503  21.0432229  29.8066914  76.7890178  21.8883764  30.2351762
  77.4654316  21.2451506  29.0432848  73.4111843   7.1223809  46.4681269
  73.0178788   6.5690007  47.1428913  74.2277983   7.4334387  46.8587787
  70.3773901  18.5607667  30.3794839  70.8898421  19.3550917  30.5300404
  71.0296613  17.8633957  30.3128440  72.1868785  21.6773423  32.4617592
  72.3635414  22.5991388  32.2738576  72.9825619  21.3631842  32.8911972
  76.3279804   8.5381688  44.0601526  77.0689517   9.1388841  43.9805988
  76.5597727   7.7959325  43.5019568  71.4721142  13.7238055  42.3379755
  71.3574657  12.8223312  42.6386854  70.6165660  13.9701752  41.9864572
  78.5512980  21.6655795  43.9367256  78.1076834  20.8792174  43.6188160
  79.2130193  21.8534946  43.2711147  73.3100101  23.1951597  38.4627934
  73.8607526  23.0668660  37.6904928  72.4711577  23.4946486  38.1122827
  80.6494218  21.9458595  41.9648657  80.6312693  22.7667476  41.4728926
  81.5714138  21.8212670  42.1898798  77.1067272  19.4602725  42.8072166
  77.6395609  18.6991013  42.5771474  76.5781353  19.1676376  43.5496320
  80.2736967   4.5662791  38.3365807  79.9301236   5.4564432  38.2604918
  80.6415929   4.3764448  37.4735392  68.3422817  16.8896321  31.1554409
  69.1798039  17.2993329  30.9388117  68.5201085  15.9495763  31.1254603
  80.2387250  14.5571402  26.8438242  79.7233873  15.3276006  27.0826630
  79.9664558  13.8836538  27.4671304  77.8234361   9.4021102  31.9023481
  76.9675957   9.0127953  31.7229120  78.2361312   9.4813063  31.0423266
  79.3533507   6.9367446  36.3015041  78.8498303   6.8997581  35.4882846
  79.6464114   7.8460188  36.3611697  75.5976393   7.0206175  35.3081222
  76.4629390   6.8248984  34.9487112  75.6653902   6.7916527  36.2350579
  85.2121524  17.3103756  28.7791416  84.4350966  16.9714916  28.3346578
  85.8913005  17.3156380  28.1046381  80.0273553  12.4298494  28.6698024
  79.7223688  12.7444643  29.5208167  80.9803995  12.5079914  28.7125357
  78.4719985  18.5888717  30.3190978  77.9441346  17.8541477  30.0064215
  77.9707487  19.3663393  30.0730946  83.4512831  16.7837738  35.4358024
  82.7936505  17.4736999  35.5238153  84.2553230  17.1734170  35.7792010
  73.2038712   9.2508383  32.6797589  73.7782464   9.0283565  31.9470782
  73.7909695   9.3197078  33.4326190  82.2618289  15.1382110  33.4861966
  82.7750171  15.7712102  33.9883675  82.9119513  14.5383306  33.1205326
  73.5308299  11.2812844  26.6993474  72.6945612  11.6187531  27.0202749
  73.3913069  11.1461824  25.7620611  75.5061380   6.1249632  31.4072659
  74.8525792   5.8098649  30.7829273  75.4641854   5.5025373  32.1332481
  76.6172585  16.4068927  23.3225951  75.7099646  16.1758181  23.5217100
  77.1143617  15.6106547  23.5099932  79.5240664  25.1166435  26.2422637
  78.8502362  25.4198131  26.8507595  79.9106486  25.9195515  25.8928094
  78.7399120  12.6131566  35.7320306  77.8221682  12.8346513  35.5741994
  79.1559264  12.6877876  34.8732014  79.5234168  14.0122982  30.8622986
  80.2705987  14.5244379  30.5530108  79.7925758  13.6907034  31.7227380
  77.7960818  16.5081522  27.8449941  76.8872037  16.2240555  27.9422410
  77.8255902  16.9280601  26.9853248  83.0280086  20.1188112  31.6141108
  82.5742413  19.2779022  31.6706299  82.3974052  20.7549510  31.9515888
  81.9713005  11.0480098  32.8441776  81.2335762  10.5357484  33.1752018
  82.2239779  10.6080479  32.0325053  81.4713025  21.9564608  32.5490926
  81.7635999  22.5169666  31.8303292  81.9811645  22.2493169  33.3044086
  68.3648989  14.2287036  31.8265143  68.1673388  13.6356397  31.1016209
  67.8095653  13.9239247  32.5441082  76.3445712  14.1210143  33.9459736
  76.3994322  13.1683979  33.8702213  75.5336914  14.2769582  34.4301034
  77.4936906  18.0490266  25.1838019  77.0556336  17.3326125  24.7243657
  78.2347347  18.2766381  24.6223111  74.2838072  12.7387203  31.7050115
  73.4705938  13.0381373  32.1115307  74.7797066  12.3442891  32.4224597
  76.4346650  22.7344960  33.6384380  76.3922829  22.9605806  32.7092912
  77.3509349  22.5008334  33.7870181  79.8812284  13.2029027  40.5365009
  80.2361672  13.4300500  41.3959475  80.5284415  13.5347404  39.9142264
  85.6110021  16.3247463  31.2414338  85.4727919  16.5149059  30.3135527
  85.2546240  17.0866846  31.6982389  73.7752147  10.3105558  37.3211350
  74.4151526  10.1694317  36.6234313  72.9429677  10.0240072  36.9449952
  85.6379400  18.3923990  36.2525609  86.0715907  18.2999279  37.1008663
  86.3510981  18.3681490  35.6145625  74.5512451  19.6107989  33.4346342
  75.3453049  19.1158309  33.2328917  73.8404143  19.0825852  33.0714048
  79.3707295  21.9926084  37.7858710  79.4244318  22.5617020  38.5536426
  78.5022077  22.1627969  37.4212747  70.8595214  13.7551070  29.5106095
  69.9292802  13.6935526  29.7276057  70.9552686  13.2327023  28.7142736
  70.7780763  10.2805883  32.0984337  71.0387581  11.1951216  31.9893497
  71.5997936   9.8130326  32.2480949  72.2505689  11.6943640  39.2683161
  72.9228742  11.4861002  38.6195810  71.4235475  11.4965726  38.8288394
  86.4994950  18.4347691  38.7858495  86.6930840  19.3393501  39.0317770
  86.3995568  17.9755110  39.6197080  78.1531261   8.3205581  41.2848822
  77.5059176   9.0195531  41.1913298  78.9232276   8.7541725  41.6525070
  81.5610059  18.5854433  44.3599375  81.4095565  18.3564985  43.4429459
  81.5514738  19.5425035  44.3730720  78.3295395  16.1586346  39.3445642
  79.2587455  16.3097506  39.1714609  77.9086425  16.2470367  38.4894288
  77.1283727  20.1837011  37.1144179  76.9894812  19.8155795  37.9870118
  76.3398323  20.6984650  36.9428137  77.7231879  25.2846107  28.4569716
  77.8983634  24.8134150  29.2715339  77.0364667  25.9111873  28.6850977
  78.6788942  19.5618613  34.5033017  78.3438775  19.5219383  35.3990667
  78.1792888  18.8963329  34.0303427  72.6533186  14.9686243  40.0285598
  72.5152984  14.2366482  40.6297137  73.5638109  14.8795143  39.7469786
  81.6148134  16.9074648  24.7770077  80.9977304  16.1821476  24.6803130
  81.1464622  17.6684008  24.4337151  75.2815487  14.6806203  39.5169278
  75.9915105  14.0399395  39.4755896  75.2384795  14.9319097  40.4395459
  83.2702265  21.6173556  42.4375857  83.2114811  20.9332776  41.7706440
  83.6721784  22.3592546  41.9856483  73.9944421  11.6671420  41.3364917
  73.4581778  11.2162159  41.9886514  73.4061129  11.8017329  40.5935382
  73.4046679  11.1260072  23.8991381  72.5276146  11.0048873  23.5353628
  73.8804433  10.3346150  23.6470270  83.2719672  19.5813140  40.6689837
  82.3846451  19.2439062  40.7916236  83.8418224  18.8496171  40.9058602
  64.9248820  15.9137232  33.9932888  65.6119859  15.5998962  33.4053904
  64.7696948  16.8178596  33.7200140  69.7283542  10.8027428  38.4217912
  69.6441730  10.1953098  37.6868322  68.9066248  11.2936446  38.4227408
  76.8020826  24.2414592  37.6351080  76.7290997  25.0469564  38.1470385
  76.3598219  24.4406558  36.8099102  76.5910606  23.4786362  31.1453902
  75.8078127  24.0208042  31.2392126  77.2903351  23.9960342  31.5448143
  79.9007256   9.2880992  33.7888107  80.3975955   8.5350954  33.4689177
  79.1294237   9.3245308  33.2231316  87.7537013  14.9921357  35.4306399
  87.7426889  15.8746073  35.0600332  86.8854392  14.6392908  35.2360936
  80.9837036  18.0452679  31.3626530  80.0493315  18.1654141  31.1931235
  81.1613705  17.1425146  31.0986540  76.4842224  11.4298375  33.5159792
  76.1140012  10.8769415  34.2040697  76.9801317  10.8256508  32.9634792
  84.3709588  13.8869998  31.8976565  84.8370040  14.7197990  31.8236867
  84.8217088  13.4214980  32.6021823  74.3131423  21.8895870  40.6114810
  75.0140882  22.5232353  40.7644204  73.8426538  22.2310601  39.8510449
  82.4385819  20.2313819  28.8962717  82.7145663  20.1170414  29.8056591
  81.5690318  19.8331304  28.8574890  82.3426250   6.2550585  35.9367466
  81.4289330   6.4854812  36.1049673  82.7719352   6.3389029  36.7881498
  82.1132709  14.4440477  38.4367360  81.4604159  14.6916385  37.7819813
  82.4913089  13.6304615  38.1029837  79.0739883  24.4800170  32.5395530
  79.2562277  23.6621826  33.0023283  79.8972869  24.6967863  32.1020420
  79.4082048  23.4068355  29.8010579  79.9369815  22.8960810  29.1880741
  79.6710268  23.0910886  30.6656112  78.1620282  15.1860288  44.9233397
  77.4860919  15.0854418  45.5935772  78.9847916  15.0299502  45.3869394
  69.9099141  21.4232225  37.5445912  70.4952578  20.6775913  37.6773816
  69.7123979  21.7336181  38.4282576  72.7637796  24.4583472  32.5608355
  72.0948171  24.9429600  32.0772395  72.6250666  24.7052693  33.4751733
  64.5016796  13.9937825  36.2650355  64.5400895  13.4601416  37.0587474
  63.9957089  13.4673030  35.6461333  76.9043065  26.4927216  39.1591013
  77.4561373  26.6558837  39.9240098  77.2449258  27.0831653  38.4871038
  71.8807558   8.8402365  39.7612898  71.9448885   9.7017196  39.3490295
  71.8174678   8.2276367  39.0285256  71.3559831  10.9125498  43.4085932
  71.9831869  10.5302575  44.0223456  70.4987749  10.6939700  43.7741624
  81.7553939  21.3188473  45.0139667  82.2993843  21.9318431  44.5194622
  81.1740784  21.8768052  45.5306680  68.1325373  12.7201927  29.3404287
  68.4278814  11.8112606  29.2871341  67.2313409  12.6989667  29.0185289
  80.0411452  24.4409191  36.1454695  79.9162592  23.6398931  35.6365641
  80.6990543  24.9355385  35.6568665  71.6619620  10.7957924  35.3231835
  70.9406206  11.4093891  35.1839309  72.4512876  11.3315689  35.2448481
  82.1046360  22.2418211  37.7734245  81.1576696  22.1223562  37.7012572
  82.4529134  21.3540709  37.8560507  74.4645934   8.1312350  41.5972487
  74.9880336   8.3774647  42.3598796  74.2458267   8.9632385  41.1775624
  69.8613215  10.4016025  29.4643612  69.5325921   9.5213404  29.2818718
  70.2152586  10.3463693  30.3520001  79.1092794  22.0370927  33.9738597
  78.9617756  21.1087635  34.1546168  79.9346287  22.0591018  33.4895673
  72.9755038  10.6888995  29.8319090  73.3151111  11.2174916  29.1097698
  73.4227159  11.0269401  30.6077656  82.7126916  22.8599486  35.0603470
  83.6373463  22.6542348  34.9227921  82.5442219  22.6115887  35.9692812
  75.6698479   9.0726045  39.2822158  75.3295299   8.2733858  39.6842838
  74.9637485   9.3727756  38.7098991  76.3214951   6.1575358  37.7349481
  77.1441020   5.6835836  37.6128371  76.5653014   6.9365841  38.2348167
  74.9623185   9.1863616  28.0312382  75.6831548   9.5644869  27.5276099
  74.3388489   9.9052493  28.1347360  79.1054308   9.8908765  28.9670715
  79.3217922  10.7733403  28.6659543  78.6248375   9.4994979  28.2376357
  73.8453529  12.8494478  35.5441459  73.6998110  13.1634781  36.4365741
  73.3678733  13.4679379  34.9912358  75.7049912   9.8397026  35.5922349
  75.6911481   8.9438120  35.2554647  76.4222340   9.8467690  36.2260635
  77.5576043  10.2734367  37.6375476  77.2993821  11.1951437  37.6359807
  77.0261083   9.8764801  38.3275940  82.5022232  23.3785154  30.4165562
  82.6759109  22.8131576  29.6639414  82.9951123  24.1786049  30.2345052
  68.3199192  15.3899823  38.4829121  67.7752660  16.1659631  38.6149395
  69.1978541  15.7370627  38.3248242  75.1086808   8.7211407  30.8609919
  75.2302719   7.7928053  31.0600807  74.8188851   8.7350093  29.9488234
  77.9777999   6.4066317  33.9976639  77.9999695   6.4705650  33.0428618
  78.3946058   5.5670826  34.1917145  88.3561623  16.1421577  32.0355861
  88.7992769  15.3928902  31.6374985  87.4788133  16.1331713  31.6529593
  83.4897404  22.6951918  27.5162460  84.1848309  23.3158611  27.7349775
  83.8320554  21.8447269  27.7914838  69.1065213  14.5169719  41.3759277
  68.3646950  14.6652354  41.9623908  68.7857958  14.7777985  40.5126027
  85.3888827  20.1451624  29.0449791  85.9140152  20.4838896  28.3199111
  85.3011180  19.2098639  28.8612925  77.0508876  24.0585697  41.1739667
  77.3596003  23.8134844  42.0462367  77.8484358  24.2632336  40.6858538
  77.0729488  26.2123607  33.4045044  76.6334478  25.7199986  34.0977901
  77.8237605  25.6696575  33.1637119  69.5521827  22.4035148  33.4069672
  70.3779847  22.1038920  33.0268316  69.2015879  21.6342770  33.8559461
  74.5203360  21.7561616  35.4767346  73.8983370  21.0932321  35.1769573
  75.1908227  21.7822748  34.7940993  67.7530432  20.3221474  34.3658606
  66.9162341  19.8943649  34.1842607  67.7254078  20.5153918  35.3029397
  74.5927888  10.2343404  45.0699852  74.6416043  11.1105527  44.6877621
  75.1350402   9.6920797  44.4971495  85.0782734  20.7784527  44.3500989
  84.2878277  20.7608666  43.8105488  84.8416088  21.3172821  45.1050025
  85.1980609  17.6276994  41.6633717  85.2478613  17.4627001  42.6049240
  85.0894532  16.7604253  41.2731598  74.0816867  20.3065539  28.9525806
  74.2304988  20.9901004  28.2992479  74.8883311  20.2870629  29.4675262
  82.4884371  13.6107922  42.9793024  83.3894234  13.4714386  42.6877022
  82.5632345  13.7762376  43.9191201  76.8227176  10.9874776  41.8246210
  75.9530486  11.2808342  41.5528799  77.0586657  11.5715221  42.5453474
  86.6998805  20.0473935  41.9075739  86.4083614  20.4103916  42.7439200
  86.0870937  19.3340943  41.7289071  87.8994488  17.6126815  34.4278309
  88.7341379  18.0516619  34.5915869  88.0353616  17.1365468  33.6086555
  84.9485994  15.1706550  40.3755797  85.4240115  15.3634196  39.5674648
  84.0251559  15.2265736  40.1299180  71.8369500  16.3330717  29.9586875
  71.5915542  15.4293047  30.1567085  72.0065415  16.3347867  29.0166353
  79.5266210   7.2054393  39.3411631  80.0448154   7.9415420  39.0158119
  79.1721343   7.5118387  40.1758390  71.1065148  12.0659075  27.4573037
  70.4134393  12.1403429  26.8013072  70.8616900  11.3019418  27.9794553
  77.5812273  22.8013670  26.4237554  77.0086240  23.4203857  25.9708025
  78.1545066  23.3513031  26.9577476  83.6487663  12.0472310  38.6084102
  84.6005086  12.1470408  38.6296326  83.4791113  11.2550578  39.1182187
  81.6702042   9.1327893  38.7943503  81.0751974   9.4132906  38.0989992
  81.3851739   9.6221794  39.5660244  80.8009533  23.0850820  27.5546136
  81.7340206  23.0196382  27.7579011  80.7132745  23.9207087  27.0960669
  83.4297549  22.4016690  24.5150083  83.3511181  22.0676554  25.4085841
  84.2507216  22.8938458  24.5141556  86.1275740  15.2678430  37.7226402
  86.0952061  14.3294430  37.9086086  86.7376364  15.3462466  36.9892227
  77.9659071  14.1374483  23.7653606  78.9118176  14.0080691  23.8342024
  77.5873316  13.3989144  24.2423034  86.2770229  12.0589473  37.7684685
  85.7609278  11.2747930  37.5814614  87.1610177  11.7308190  37.9331205
  83.9380956   5.8030489  33.7280498  83.7405777   5.4945577  34.6123830
  84.5480661   6.5292127  33.8578428  91.9452290  16.3294436  36.8632439
  92.6755679  16.0679725  37.4240142  91.3359236  15.5923158  36.9034507
  90.0267587  14.4702299  37.4606890  89.3000751  14.3358264  36.8523382
  89.6114874  14.7779128  38.2663608  77.8497764  18.1892229  45.2254263
  78.7700773  18.3670828  45.4194310  77.8147347  17.2448274  45.0733962
  76.1501988  12.0624459  23.7008491  75.2433444  11.7657572  23.7771205
  76.4277969  11.7654277  22.8342778  67.0679929  13.3830822  34.1507538
  66.7482713  12.5296130  33.8581912  66.5213357  13.5979400  34.9065505
  70.8459836  16.0993263  37.8677044  71.0645846  17.0310371  37.8865078
  71.2585610  15.7401238  38.6531848  77.7664054   6.6061349  29.8552733
  76.9564782   6.2608434  30.2307979  78.4548471   6.2968892  30.4440344
  79.6954602   5.6839395  31.4777029  80.2485641   6.1034849  32.1367052
  79.9324689   4.7575144  31.5199985  75.7187702  11.6726469  47.2579793
  75.6184429  12.6220826  47.1891884  75.5009244  11.3444708  46.3855863
  74.9200773   8.9211394  23.8420470  75.7819937   9.2466292  24.1016288
  75.1051117   8.1342890  23.3293536  66.9368189  17.0033734  36.1200659
  66.2431660  16.5887687  35.6070614  67.6841180  17.0454270  35.5234078
  83.0733410   7.7939921  30.9855693  82.4932079   8.4524725  30.6033746
  82.8069342   6.9717265  30.5743111  81.5236976   7.1944978  33.1877014
  82.0236754   7.3061513  32.3791333  82.1672584   6.8906031  33.8277822
  75.5818972  15.1023608  46.0744855  75.0986053  15.9023968  46.2808744
  75.6679911  15.1131553  45.1212299  68.8504931  16.9351988  33.9966674
  68.8275619  17.0339675  33.0448557  69.1605568  17.7817138  34.3183840
  71.5092309  18.9928143  38.1113289  72.4635563  18.9612085  38.0443220
  71.3104833  18.5318766  38.9263514  72.0991691  17.5629259  40.6784086
  72.9184580  18.0573337  40.7018924  72.3728499  16.6461227  40.6501654
  81.8558288   9.9540011  30.0412042  80.9684143  10.2389662  29.8232237
  82.2712277   9.7933774  29.1939319  85.2072824   9.9786532  33.7566381
  85.9833214  10.4682984  34.0290998  84.4820958  10.4044586  34.2138250
  87.6445382  10.6914151  34.8140322  88.2389873  10.4509887  34.1033630
  87.7171966   9.9721282  35.4413858  69.8642538  24.5347762  35.1283486
  69.7297006  23.7748163  34.5621484  69.4474600  25.2588662  34.6612275
  81.0001501  19.7184686  24.1360062  81.7037351  19.9234688  24.7517717
  80.2764150  20.2861448  24.4009145  81.8299311  15.4694547  30.2562332
  81.7734513  15.9263098  29.4169964  82.3827654  14.7085231  30.0785175
  85.6404117  11.2584279  31.0812451  85.3841051  10.8580914  31.9120659
  85.0156985  11.9728073  30.9562591  89.9516455  13.9980352  33.5883743
  89.3916013  14.0673541  34.3615305  89.3459958  13.8221337  32.8683239
  73.0211664  25.4317079  35.3401929  72.9044048  26.3762512  35.2380619
  72.2004110  25.1290641  35.7287728  82.9088198  20.1567215  26.1858522
  83.7433802  19.7248413  26.0035997  82.7472541  19.9849229  27.1135416
  82.5634091  16.6599328  27.5514861  82.5082894  16.4943600  26.6103305
  81.9380146  17.3675361  27.7077051  67.3526606  11.8967393  41.3776283
  67.9985469  11.3866346  41.8663508  67.1443757  12.6336074  41.9519709
  79.8779998  18.9648240  46.8768424  80.7471157  19.1388892  46.5155059
  79.3986749  19.7842657  46.7544153  75.8730216   6.1607437  27.1300179
  75.8608886   7.1049277  27.2868450  76.7653638   5.9777583  26.8359641
  74.0466178  26.0845341  38.5557858  74.9493425  26.1168951  38.8724352
  73.8203548  25.1545792  38.5704193  75.8019780  24.8376328  35.2167936
  74.8515411  24.8378189  35.1032308  76.1052266  24.0909062  34.7003971
  71.6924097   9.0435010  45.4751298  72.5555558   8.6871814  45.6854622
  71.1189507   8.7048904  46.1626702  91.5372473  30.6736866  36.2813699
  92.1750883  30.5543613  35.5777039  91.4193316  31.6217710  36.3401651
  88.3462180  30.6264294  36.2175223  88.0080691  30.5105359  35.3295758
  89.2151948  30.2255459  36.1976229  86.0470459  29.3952541  25.5492163
  86.2995980  28.8734063  24.7875626  85.1095018  29.2318687  25.6518847
  91.0913742  28.3988320  33.3566907  91.8776831  27.9807743  33.0057324
  91.3552446  29.3034412  33.5248555  96.4922169  28.3363553  34.2599885
  97.2247341  27.7662770  34.4937715  95.7361525  27.9485153  34.7006391
  85.7666748  31.2980647  27.7516538  85.6503006  30.6225551  28.4197623
  85.8769008  30.8113021  26.9348691  88.1098289  30.7590794  31.4563228
  87.7456496  30.2321415  32.1676149  88.9665405  30.3689264  31.2829713
  94.0147589  22.0485127  38.7194494  93.6830914  22.9180538  38.4955709
  93.4193203  21.7321411  39.3988524  87.7503776  25.7880694  26.4524576
  87.9178178  26.6560931  26.8195047  87.5600945  25.9507976  25.5285865
  93.9076253  26.7680213  35.7987844  92.9993130  26.6995622  35.5046605
  93.8563849  27.2452158  36.6269669  87.7292997  28.2438352  27.4371243
  87.6092622  28.6895402  28.2756723  87.0345585  28.5923669  26.8784781
  87.9817119  28.1869859  43.7422741  87.2050453  28.7463779  43.7325606
  88.6207682  28.6726642  44.2637611  95.7737899  24.9696652  37.5765718
  95.1312279  25.2629185  36.9305512  95.2692828  24.8549572  38.3818914
  93.4278063  28.7159825  28.2651577  94.3395919  28.9487212  28.0899274
  92.9187710  29.2996869  27.7026656  88.0649901  28.0757059  39.2746426
  88.9111096  28.4996473  39.4181075  88.0048538  27.4190684  39.9684990
  92.0347645  33.6985643  35.6565158  91.4056508  33.8631357  34.9541226
  91.6473307  34.1127253  36.4276122  95.9136877  34.6340081  33.0109522
  95.2287915  35.0138983  32.4606555  95.9980726  35.2435408  33.7441470
  91.2149346  25.7361428  40.9327600  90.9710278  26.4903488  40.3961876
  91.4909276  26.1146775  41.7674847  90.7714038  24.8917861  36.5141438
  89.9098517  25.1899114  36.8058175  90.7976472  25.1088260  35.5822470
  86.5244493  29.5583204  29.7304809  87.2268536  30.0104247  30.1978735
  86.1925122  28.9167023  30.3584702  80.2669827  27.8166756  35.0321942
  79.4768881  28.0724285  34.5562053  80.7581074  28.6315094  35.1373983
  82.2184572  28.1811336  31.9905419  81.4215736  28.2930030  32.5088915
  81.9910165  28.5197988  31.1246309  78.5507530  28.0697247  37.4636933
  78.8015568  28.9544257  37.7294509  79.0867078  27.8901848  36.6912025
 102.3739630  31.5010744  34.1312194 101.6203338  30.9318142  33.9756199
 102.5087171  31.4673409  35.0782829  84.2505597  22.4515726  46.4681269
  83.8572543  21.8981925  47.1428913  85.0671738  22.7626305  46.8587787
  87.1673558  23.8673605  44.0601526  87.9083272  24.4680758  43.9805988
  87.3991481  23.1251243  43.5019568  91.1130721  19.8954708  38.3365807
  90.7694991  20.7856350  38.2604918  91.4809684  19.7056366  37.4735392
  91.0781004  29.8863319  26.8438242  90.5627627  30.6567924  27.0826630
  90.8058312  29.2128456  27.4671304  88.6628115  24.7313020  31.9023481
  87.8069711  24.3419871  31.7229120  89.0755067  24.8104981  31.0423266
  90.1927262  22.2659363  36.3015041  89.6892057  22.2289499  35.4882846
  90.4857869  23.1752106  36.3611697  86.4370148  22.3498093  35.3081222
  87.3023144  22.1540902  34.9487112  86.5047656  22.1208445  36.2350579
  96.0515278  32.6395674  28.7791416  95.2744721  32.3006834  28.3346578
  96.7306759  32.6448297  28.1046381  90.8667307  27.7590411  28.6698024
  90.5617443  28.0736561  29.5208167  91.8197749  27.8371831  28.7125357
  94.2906585  32.1129655  35.4358024  93.6330259  32.8028917  35.5238153
  95.0946984  32.5026087  35.7792010  84.0432467  24.5800301  32.6797589
  84.6176219  24.3575483  31.9470782  84.6303449  24.6488996  33.4326190
  93.1012044  30.4674028  33.4861966  93.6143926  31.1004020  33.9883675
  93.7513268  29.8675223  33.1205326  84.3702054  26.6104762  26.6993474
  83.5339366  26.9479449  27.0202749  84.2306823  26.4753742  25.7620611
  86.3455134  21.4541550  31.4072659  85.6919547  21.1390567  30.7829273
  86.3035608  20.8317290  32.1332481  87.4566339  31.7360845  23.3225951
  86.5493401  31.5050099  23.5217100  87.9537371  30.9398464  23.5099932
  89.5792875  27.9423484  35.7320306  88.6615436  28.1638431  35.5741994
  89.9953018  28.0169794  34.8732014  90.3627922  29.3414899  30.8622986
  91.1099741  29.8536296  30.5530108  90.6319512  29.0198952  31.7227380
  93.8673840  35.4480029  31.6141108  93.4136167  34.6070939  31.6706299
  93.2367807  36.0841428  31.9515888  92.8106760  26.3772015  32.8441776
  92.0729516  25.8649402  33.1752018  93.0633533  25.9372397  32.0325053
  92.3106779  37.2856526  32.5490926  92.6029754  37.8461583  31.8303292
  92.8205400  37.5785087  33.3044086  92.9118387  19.1548267  33.4383545
  93.2177264  18.2945631  33.1509460  93.6370992  19.7465888  33.2382539
  87.1839467  29.4502061  33.9459736  87.2388076  28.4975897  33.8702213
  86.3730669  29.6061500  34.4301034  85.1231827  28.0679120  31.7050115
  84.3099692  28.3673291  32.1115307  85.6190821  27.6734809  32.4224597
  90.7206038  28.5320945  40.5365009  91.0755426  28.7592418  41.3959475
  91.3678170  28.8639322  39.9142264  96.4503775  31.6539381  31.2414338
  96.3121674  31.8440977  30.3135527  96.0939994  32.4158763  31.6982389
  84.6145901  25.6397476  37.3211350  85.2545281  25.4986235  36.6234313
  83.7823432  25.3531989  36.9449952  96.4773155  33.7215908  36.2525609
  96.9109661  33.6291197  37.1008663  97.1904736  33.6973408  35.6145625
  81.6988969  29.0842988  29.5106095  80.7686557  29.0227443  29.7276057
  81.7946441  28.5618941  28.7142736  81.6174518  25.6097801  32.0984337
  81.8781335  26.5243134  31.9893497  82.4391690  25.1422243  32.2480949
  83.0899443  27.0235558  39.2683161  83.7622497  26.8152920  38.6195810
  82.2629230  26.8257644  38.8288394  97.3388704  33.7639608  38.7858495
  97.5324594  34.6685419  39.0317770  97.2389323  33.3047027  39.6197080
  88.9925015  23.6497499  41.2848822  88.3452930  24.3487449  41.1913298
  89.7626031  24.0833643  41.6525070  92.4541888  32.2366565  24.7770077
  91.8371059  31.5113393  24.6803130  91.9858377  32.9975926  24.4337151
  84.8338175  26.9963338  41.3364917  84.2975532  26.5454077  41.9886514
  84.2454883  27.1309247  40.5935382  84.2440434  26.4551990  23.8991381
  83.3669900  26.3340790  23.5353628  84.7198187  25.6638068  23.6470270
  80.5677296  26.1319346  38.4217912  80.4835485  25.5245015  37.6868322
  79.7460003  26.6228364  38.4227408  90.7401010  24.6172909  33.7888107
  91.2369710  23.8642872  33.4689177  89.9687992  24.6537226  33.2231316
  98.5930768  30.3213275  35.4306399  98.5820644  31.2037990  35.0600332
  97.7248147  29.9684826  35.2360936  91.8230791  33.3744597  31.3626530
  90.8887070  33.4946059  31.1931235  92.0007459  32.4717063  31.0986540
  87.3235979  26.7590292  33.5159792  86.9533766  26.2061333  34.2040697
  87.8195071  26.1548426  32.9634792  95.2103342  29.2161916  31.8976565
  95.6763794  30.0489907  31.8236867  95.6610843  28.7506897  32.6021823
  93.2779573  35.5605737  28.8962717  93.5539417  35.4462332  29.8056591
  92.4084072  35.1623222  28.8574890  93.1820005  21.5842503  35.9367466
  92.2683085  21.8146730  36.1049673  93.6113106  21.6680947  36.7881498
  92.9526463  29.7732395  38.4367360  92.2997914  30.0208302  37.7819813
  93.3306843  28.9596533  38.1029837  89.9133637  39.8092088  32.5395530
  90.0956032  38.9913744  33.0023283  90.7366623  40.0259780  32.1020420
  90.2475803  38.7360273  29.8010579  90.7763569  38.2252728  29.1880741
  90.5104022  38.4202803  30.6656112  82.7201313  24.1694283  39.7612898
  82.7842639  25.0309114  39.3490295  82.6568433  23.5568285  39.0285256
  78.9719128  28.0493845  29.3404287  79.2672569  27.1404523  29.2871341
  78.0707164  28.0281584  29.0185289  82.5013375  26.1249841  35.3231835
  81.7799961  26.7385809  35.1839309  83.2906631  26.6607606  35.2448481
  85.3039688  23.4604268  41.5972487  85.8274090  23.7066564  42.3598796
  85.0852022  24.2924303  41.1775624  80.7006969  25.7307942  29.4643612
  80.3719676  24.8505321  29.2818718  81.0546340  25.6755611  30.3520001
  83.8148793  26.0180912  29.8319090  84.1544865  26.5466833  29.1097698
  84.2620913  26.3561318  30.6077656  86.5092233  24.4017963  39.2822158
  86.1689054  23.6025776  39.6842838  85.8031240  24.7019674  38.7098991
  87.1608705  21.4867275  37.7349481  87.9834775  21.0127754  37.6128371
  87.4046769  22.2657759  38.2348167  85.8016940  24.5155534  28.0312382
  86.5225302  24.8936787  27.5276099  85.1782244  25.2344411  28.1347360
  89.9448063  25.2200683  28.9670715  90.1611677  26.1025321  28.6659543
  89.4642130  24.8286896  28.2376357  84.6847284  28.1786396  35.5441459
  84.5391865  28.4926699  36.4365741  84.2072488  28.7971296  34.9912358
  86.5443667  25.1688944  35.5922349  86.5305236  24.2730037  35.2554647
  87.2616095  25.1759608  36.2260635  88.3969798  25.6026284  37.6375476
  88.1387575  26.5243355  37.6359807  87.8654838  25.2056719  38.3275940
  93.3415986  38.7077071  30.4165562  93.5152864  38.1423494  29.6639414
  93.8344878  39.5077966  30.2345052  85.9480563  24.0503324  30.8609919
  86.0696474  23.1219970  31.0600807  85.6582605  24.0642010  29.9488234
  88.8171753  21.7358235  33.9976639  88.8393450  21.7997568  33.0428618
  89.2339812  20.8962743  34.1917145  99.1955377  31.4713494  32.0355861
  99.6386524  30.7220819  31.6374985  98.3181888  31.4623631  31.6529593
  94.3291159  38.0243836  27.5162460  95.0242063  38.6450528  27.7349775
  94.6714309  37.1739187  27.7914838  96.2282582  35.4743541  29.0449791
  96.7533906  35.8130814  28.3199111  96.1404934  34.5390557  28.8612925
  95.9176488  36.1076445  44.3500989  95.1272032  36.0900584  43.8105488
  95.6809843  36.6464739  45.1050025  96.0374363  32.9568911  41.6633717
  96.0872368  32.7918919  42.6049240  95.9288286  32.0896170  41.2731598
  93.3278125  28.9399839  42.9793024  94.2287988  28.8006304  42.6877022
  93.4026100  29.1054294  43.9191201  87.6620931  26.3166694  41.8246210
  86.7924240  26.6100260  41.5528799  87.8980411  26.9007139  42.5453474
  97.5392560  35.3765853  41.9075739  97.2477368  35.7395833  42.7439200
  96.9264691  34.6632861  41.7289071  98.7388242  32.9418733  34.4278309
  99.5735134  33.3808537  34.5915869  98.8747371  32.4657386  33.6086555
  95.7879748  30.4998467  40.3755797  96.2633870  30.6926114  39.5674648
  94.8645313  30.5557653  40.1299180  90.3659965  22.5346311  39.3411631
  90.8841908  23.2707338  39.0158119  90.0115097  22.8410304  40.1758390
  81.9458902  27.3950992  27.4573037  81.2528147  27.4695347  26.8013072
  81.7010654  26.6311336  27.9794553  90.6172559  18.9546594  34.8612527
  90.8974313  18.2869783  35.4872954  91.4023166  19.1475689  34.3487191
  94.4881417  27.3764228  38.6084102  95.4398840  27.4762325  38.6296326
  94.3184868  26.5842496  39.1182187  92.5095797  24.4619811  38.7943503
  91.9145729  24.7424823  38.0989992  92.2245493  24.9513712  39.5660244
  91.6403287  38.4142738  27.5546136  92.5733960  38.3488299  27.7579011
  91.5526500  39.2499004  27.0960669  94.2691304  37.7308608  24.5150083
  94.1904935  37.3968472  25.4085841  95.0900971  38.2230376  24.5141556
  96.9669495  30.5970347  37.7226402  96.9345815  29.6586348  37.9086086
  97.5770119  30.6754384  36.9892227  88.8052826  29.4666400  23.7653606
  89.7511930  29.3372608  23.8342024  88.4267071  28.7281062  24.2423034
  97.1163983  27.3881391  37.7684685  96.6003032  26.6039847  37.5814614
  98.0003932  27.0600107  37.9331205  94.7774710  21.1322406  33.7280498
  94.5799531  20.8237494  34.6123830  95.3874416  21.8584045  33.8578428
 102.7846045  31.6586354  36.8632439 103.5149433  31.3971642  37.4240142
 102.1752990  30.9215076  36.9034507 100.8661342  29.7994217  37.4606890
 100.1394505  29.6650182  36.8523382 100.4508629  30.1071045  38.2663608
  86.9895743  27.3916377  23.7008491  86.0827198  27.0949489  23.7771205
  87.2671724  27.0946195  22.8342778  88.6057809  21.9353266  29.8552733
  87.7958537  21.5900351  30.2307979  89.2942226  21.6260810  30.4440344
  90.5348357  21.0131313  31.4777029  91.0879396  21.4326767  32.1367052
  90.7718443  20.0867061  31.5199985  86.5581456  27.0018387  47.2579793
  86.4578183  27.9512744  47.1891884  86.3402998  26.6736626  46.3855863
  85.7594528  24.2503312  23.8420470  86.6213692  24.5758210  24.1016288
  85.9444872  23.4634808  23.3293536  93.9127164  23.1231838  30.9855693
  93.3325833  23.7816642  30.6033746  93.6463097  22.3009183  30.5743111
  92.3630730  22.5236896  33.1877014  92.8630509  22.6353430  32.3791333
  93.0066338  22.2197949  33.8277822  92.6952042  25.2831929  30.0412042
  91.8077897  25.5681579  29.8232237  93.1106031  25.1225692  29.1939319
  96.0466578  25.3078450  33.7566381  96.8226968  25.7974902  34.0290998
  95.3214712  25.7336504  34.2138250  98.4839137  26.0206069  34.8140322
  99.0783628  25.7801805  34.1033630  98.5565720  25.3013199  35.4413858
  91.8395255  35.0476603  24.1360062  92.5431106  35.2526606  24.7517717
  91.1157904  35.6153365  24.4009145  92.6693066  30.7986465  30.2562332
  92.6128267  31.2555016  29.4169964  93.2221408  30.0377149  30.0785175
  96.4797872  26.5876196  31.0812451  96.2234806  26.1872832  31.9120659
  95.8550740  27.3019990  30.9562591 100.7910210  29.3272270  33.5883743
 100.2309768  29.3965459  34.3615305 100.1853713  29.1513254  32.8683239
  93.7481953  35.4859133  26.1858522  94.5827557  35.0540331  26.0035997
  93.5866296  35.3141146  27.1135416  93.4027845  31.9891246  27.5514861
  93.3476649  31.8235517  26.6103305  92.7773900  32.6967279  27.7077051
  86.7123971  21.4899355  27.1300179  86.7002640  22.4341195  27.2868450
  87.6047392  21.3069500  26.8359641  90.5276090  18.0842131  31.3846116
  89.7608486  17.5300618  31.5302799  90.9386795  18.1564000  32.2460268
 102.3766228  46.0028784  36.2813699 103.0144638  45.8835531  35.5777039
 102.2587071  46.9509628  36.3401651  99.1855934  45.9556212  36.2175223
  98.8474446  45.8397276  35.3295758 100.0545702  45.5547377  36.1976229
  99.6675717  47.1091063  42.1761429  99.6564358  46.7143862  41.3041932
  99.8296357  46.3757136  42.7695200 100.6242309  51.4762656  27.5186579
  99.9730288  52.0616736  27.1320593 101.4186671  52.0068851  27.5781617
  94.5497936  48.5651793  27.9173713  95.3228812  48.0180780  27.7786589
  94.9023335  49.4296042  28.1288175  96.3882978  49.8928175  41.1240613
  96.0972844  50.7973806  41.0087279  97.0239963  49.9344703  41.8384682
  96.8864214  44.7244459  25.5492163  97.1389734  44.2025980  24.7875626
  95.9488773  44.5610605  25.6518847 101.9307496  43.7280237  33.3566907
 102.7170586  43.3099661  33.0057324 102.1946201  44.6326330  33.5248555
 102.1017574  49.1653088  28.0555563 101.4663407  49.2387714  28.7676468
 101.7714980  49.7546687  27.3774643 107.3315924  43.6655471  34.2599885
 108.0641096  43.0954687  34.4937715 106.5755279  43.2777071  34.7006391
  96.6060502  46.6272565  27.7516538  96.4896760  45.9517468  28.4197623
  96.7162762  46.1404939  26.9348691  98.9492043  46.0882712  31.4563228
  98.5850251  45.5613333  32.1676149  99.8059159  45.6981181  31.2829713
 104.8541344  37.3777045  38.7194494 104.5224669  38.2472456  38.4955709
 104.2586957  37.0613329  39.3988524  98.5897530  41.1172612  26.4524576
  98.7571933  41.9852848  26.8195047  98.3994699  41.2799894  25.5285865
 101.3472863  49.5789591  38.1190406 101.0473587  50.4814630  38.0106214
 101.0023923  49.3121774  38.9711559 104.7470007  42.0972131  35.7987844
 103.8386885  42.0287539  35.5046605 104.6957603  42.5744076  36.6269669
  98.5686751  43.5730269  27.4371243  98.4486376  44.0187320  28.2756723
  97.8739340  43.9215587  26.8784781  98.8210873  43.5161777  43.7422741
  98.0444207  44.0755697  43.7325606  99.4601436  44.0018560  44.2637611
 106.6131654  40.2988569  37.5765718 105.9706034  40.5921103  36.9305512
 106.1086582  40.1841490  38.3818914 104.2671817  44.0451743  28.2651577
 105.1789673  44.2779129  28.0899274 103.7581464  44.6288787  27.7026656
  97.0757245  46.3247230  43.3040708  97.8171930  46.8632274  43.0275532
  96.3694231  46.9513519  43.4612260 102.5512585  48.4676370  41.9012870
 102.9595941  48.0258781  41.1567502 101.8289847  47.8928998  42.1547062
  98.9043655  43.4048977  39.2746426  99.7504850  43.8288391  39.4181075
  98.8442293  42.7482601  39.9684990 102.8741400  49.0277561  35.6565158
 102.2450262  49.1923275  34.9541226 102.4867062  49.4419171  36.4276122
 106.7530632  49.9631999  33.0109522 106.0681670  50.3430900  32.4606555
 106.8374481  50.5727325  33.7441470 102.0543100  41.0653345  40.9327600
 101.8104032  41.8195406  40.3961876 102.3303031  41.4438693  41.7674847
 104.0081563  47.6091958  39.6104866 104.2198458  48.2523718  38.9339247
 103.9611311  46.7754274  39.1426796 101.6107792  40.2209779  36.5141438
 100.7492271  40.5191032  36.8058175 101.6370227  40.4380177  35.5822470
  97.3638248  44.8875121  29.7304809  98.0662291  45.3396165  30.1978735
  97.0318876  44.2458940  30.3584702  95.8118609  43.4786878  44.1056018
  95.1817270  44.1603159  44.3391415  95.7054697  43.3669960  43.1609156
  91.1063582  43.1458674  35.0321942  90.3162636  43.4016203  34.5562053
  91.5974829  43.9607012  35.1373983 105.1227391  50.4863913  37.7827223
 105.9444835  50.0844101  37.5009905 105.1189794  50.3832147  38.7343339
  93.0578327  43.5103253  31.9905419  92.2609490  43.6221948  32.5088915
  92.8303919  43.8489906  31.1246309  89.3901285  43.3989165  37.4636933
  89.6409323  44.2836174  37.7294509  89.9260833  43.2193766  36.6912025
 113.2133384  46.8302662  34.1312194 112.4597093  46.2610060  33.9756199
 113.3480925  46.7965326  35.0782829  98.6032012  51.7016064  29.8066914
  98.4677687  52.5467600  30.2351762  99.1441825  51.9035342  29.0432848
  98.0067313  39.1965523  44.0601526  98.7477026  39.7972676  43.9805988
  98.2385236  38.4543161  43.5019568  93.1508651  44.3821890  42.3379755
  93.0362166  43.4807148  42.6386854  92.2953169  44.6285587  41.9864572
 100.2300489  52.3239631  43.9367256  99.7864343  51.5376009  43.6188160
 100.8917702  52.5118781  43.2711147 102.3281727  52.6042431  41.9648657
 102.3100202  53.4251312  41.4728926 103.2501647  52.4796506  42.1898798
  98.7854781  50.1186560  42.8072166  99.3183118  49.3574848  42.5771474
  98.2568862  49.8260212  43.5496320 101.9524476  35.2246626  38.3365807
 101.6088745  36.1148268  38.2604918 102.3203438  35.0348284  37.4735392
 101.9174758  45.2155237  26.8438242 101.4021382  45.9859842  27.0826630
 101.6452067  44.5420373  27.4671304  99.5021870  40.0604938  31.9023481
  98.6463466  39.6711788  31.7229120  99.9148821  40.1396899  31.0423266
 101.0321016  37.5951281  36.3015041 100.5285812  37.5581416  35.4882846
 101.3251623  38.5044024  36.3611697  97.2763902  37.6790011  35.3081222
  98.1416899  37.4832820  34.9487112  97.3441411  37.4500363  36.2350579
 106.8909033  47.9687592  28.7791416 106.1138475  47.6298751  28.3346578
 107.5700514  47.9740215  28.1046381 101.7061062  43.0882329  28.6698024
 101.4011197  43.4028478  29.5208167 102.6591504  43.1663749  28.7125357
 100.1507494  49.2472552  30.3190978  99.6228855  48.5125312  30.0064215
  99.6494996  50.0247229  30.0730946 105.1300340  47.4421573  35.4358024
 104.4724014  48.1320834  35.5238153 105.9340739  47.8318005  35.7792010
  94.8826221  39.9092219  32.6797589  95.4569973  39.6867400  31.9470782
  95.4697204  39.9780913  33.4326190 103.9405798  45.7965946  33.4861966
 104.4537680  46.4295937  33.9883675 104.5907022  45.1967141  33.1205326
  95.2095808  41.9396680  26.6993474  94.3733120  42.2771366  27.0202749
  95.0700578  41.8045660  25.7620611  97.1848889  36.7833468  31.4072659
  96.5313301  36.4682485  30.7829273  97.1429363  36.1609208  32.1332481
  98.2960094  47.0652763  23.3225951  97.3887155  46.8342016  23.5217100
  98.7931126  46.2690382  23.5099932 101.2028173  55.7750270  26.2422637
 100.5289871  56.0781967  26.8507595 101.5893995  56.5779350  25.8928094
 100.4186629  43.2715401  35.7320306  99.5009191  43.4930348  35.5741994
 100.8346773  43.3461712  34.8732014 101.2021677  44.6706817  30.8622986
 101.9493496  45.1828214  30.5530108 101.4713267  44.3490870  31.7227380
  99.4748327  47.1665358  27.8449941  98.5659546  46.8824390  27.9422410
  99.5043411  47.5864436  26.9853248 104.7067595  50.7771947  31.6141108
 104.2529922  49.9362857  31.6706299 104.0761561  51.4133345  31.9515888
 103.6500514  41.7063933  32.8441776 102.9123271  41.1941319  33.1752018
 103.9027288  41.2664315  32.0325053 103.1500534  52.6148444  32.5490926
 103.4423508  53.1753501  31.8303292 103.6599154  52.9077005  33.3044086
 103.7512141  34.4840185  33.4383545 104.0571018  33.6237549  33.1509460
 104.4764746  35.0757805  33.2382539  90.0436498  44.8870872  31.8265143
  89.8460897  44.2940232  31.1016209  89.4883162  44.5823082  32.5441082
  98.0233221  44.7793978  33.9459736  98.0781831  43.8267815  33.8702213
  97.2124423  44.9353417  34.4301034  99.1724415  48.7074101  25.1838019
  98.7343845  47.9909960  24.7243657  99.9134856  48.9350216  24.6223111
  95.9625581  43.3971038  31.7050115  95.1493447  43.6965208  32.1115307
  96.4584575  43.0026727  32.4224597 101.5599793  43.8612862  40.5365009
 101.9149180  44.0884336  41.3959475 102.2071924  44.1931239  39.9142264
 107.2897530  46.9831298  31.2414338 107.1515428  47.1732894  30.3135527
 106.9333749  47.7450681  31.6982389 107.3166909  49.0507825  36.2525609
 107.7503416  48.9583114  37.1008663 108.0298490  49.0265326  35.6145625
  92.5382723  44.4134906  29.5106095  91.6080311  44.3519361  29.7276057
  92.6340195  43.8910858  28.7142736  92.4568272  40.9389718  32.0984337
  92.7175090  41.8535052  31.9893497  93.2785445  40.4714161  32.2480949
 108.1782459  49.0931526  38.7858495 108.3718349  49.9977336  39.0317770
 108.0783077  48.6338945  39.6197080  99.8318770  38.9789417  41.2848822
  99.1846685  39.6779366  41.1913298 100.6019785  39.4125560  41.6525070
 103.2397568  49.2438269  44.3599375 103.0883074  49.0148820  43.4429459
 103.2302247  50.2008870  44.3730720 100.0082904  46.8170181  39.3445642
 100.9374964  46.9681341  39.1714609  99.5873934  46.9054202  38.4894288
  99.4019388  55.9429942  28.4569716  99.5771143  55.4717986  29.2715339
  98.7152176  56.5695709  28.6850977 100.3576451  50.2202449  34.5033017
 100.0226284  50.1803219  35.3990667  99.8580397  49.5547164  34.0303427
  94.3320695  45.6270079  40.0285598  94.1940493  44.8950317  40.6297137
  95.2425618  45.5378979  39.7469786 103.2935643  47.5658483  24.7770077
 102.6764813  46.8405311  24.6803130 102.8252131  48.3267843  24.4337151
  96.9602996  45.3390038  39.5169278  97.6702614  44.6983230  39.4755896
  96.9172304  45.5902933  40.4395459 104.9489774  52.2757391  42.4375857
 104.8902320  51.5916611  41.7706440 105.3509293  53.0176381  41.9856483
  95.6731930  42.3255256  41.3364917  95.1369287  41.8745994  41.9886514
  95.0848638  42.4601165  40.5935382  95.0834188  41.7843907  23.8991381
  94.2063655  41.6632708  23.5353628  95.5591942  40.9929986  23.6470270
 104.9507181  50.2396975  40.6689837 104.0633960  49.9022897  40.7916236
 105.5205733  49.5080006  40.9058602 101.5794765  39.9464827  33.7888107
 102.0763464  39.1934789  33.4689177 100.8081746  39.9829144  33.2231316
 109.4324522  45.6505193  35.4306399 109.4214398  46.5329908  35.0600332
 108.5641901  45.2976743  35.2360936 102.6624545  48.7036514  31.3626530
 101.7280824  48.8237977  31.1931235 102.8401214  47.8008981  31.0986540
  98.1629733  42.0882210  33.5159792  97.7927521  41.5353250  34.2040697
  98.6588826  41.4840344  32.9634792 106.0497097  44.5453834  31.8976565
 106.5157549  45.3781825  31.8236867 106.5004597  44.0798815  32.6021823
 104.1173328  50.8897655  28.8962717 104.3933172  50.7754249  29.8056591
 103.2477826  50.4915140  28.8574890 104.0213759  36.9134421  35.9367466
 103.1076839  37.1438647  36.1049673 104.4506861  36.9972865  36.7881498
 103.7920218  45.1024312  38.4367360 103.1391668  45.3500220  37.7819813
 104.1700598  44.2888451  38.1029837 100.7527392  55.1384006  32.5395530
 100.9349786  54.3205662  33.0023283 101.5760378  55.3551698  32.1020420
 101.0869557  54.0652191  29.8010579 101.6157324  53.5544645  29.1880741
 101.3497777  53.7494721  30.6656112  99.8407791  45.8444124  44.9233397
  99.1648428  45.7438253  45.5935772 100.6635425  45.6883337  45.3869394
  93.0347340  41.5709333  43.4085932  93.6619378  41.1886411  44.0223456
  92.1775258  41.3523535  43.7741624 103.4341448  51.9772309  45.0139667
 103.9781352  52.5902267  44.5194622 102.8528293  52.5351887  45.5306680
  89.8112882  43.3785762  29.3404287  90.1066323  42.4696441  29.2871341
  88.9100918  43.3573502  29.0185289 101.7198961  55.0993027  36.1454695
 101.5950101  54.2982766  35.6365641 102.3778052  55.5939220  35.6568665
 103.7833869  52.9002047  37.7734245 102.8364205  52.7807398  37.7012572
 104.1316643  52.0124545  37.8560507  91.5400724  41.0599860  29.4643612
  91.2113430  40.1797239  29.2818718  91.8940095  41.0047529  30.3520001
 100.7880303  52.6954763  33.9738597 100.6405265  51.7671470  34.1546168
 101.6133796  52.7174854  33.4895673  94.6542547  41.3472830  29.8319090
  94.9938620  41.8758751  29.1097698  95.1014668  41.6853236  30.6077656
 104.3914425  53.5183322  35.0603470 105.3160972  53.3126183  34.9227921
 104.2229728  53.2699723  35.9692812  98.0002460  36.8159193  37.7349481
  98.8228529  36.3419671  37.6128371  98.2440523  37.5949677  38.2348167
  96.6410694  39.8447452  28.0312382  97.3619057  40.2228704  27.5276099
  96.0175998  40.5636328  28.1347360 100.7841817  40.5492600  28.9670715
 101.0005431  41.4317238  28.6659543 100.3035884  40.1578814  28.2376357
  95.5241038  43.5078314  35.5441459  95.3785619  43.8218617  36.4365741
  95.0466242  44.1263214  34.9912358  97.3837421  40.4980862  35.5922349
  97.3698990  39.6021955  35.2554647  98.1009849  40.5051525  36.2260635
  99.2363552  40.9318202  37.6375476  98.9781330  41.8535273  37.6359807
  98.7048592  40.5348636  38.3275940 104.1809741  54.0368989  30.4165562
 104.3546618  53.4715411  29.6639414 104.6738632  54.8369884  30.2345052
  96.7874317  39.3795242  30.8609919  96.9090228  38.4511888  31.0600807
  96.4976360  39.3933928  29.9488234  99.6565508  37.0650152  33.9976639
  99.6787204  37.1289485  33.0428618 100.0733567  36.2254661  34.1917145
 110.0349132  46.8005412  32.0355861 110.4780278  46.0512737  31.6374985
 109.1575642  46.7915548  31.6529593 105.1684913  53.3535753  27.5162460
 105.8635818  53.9742446  27.7349775 105.5108063  52.5031105  27.7914838
  90.7852722  45.1753554  41.3759277  90.0434459  45.3236190  41.9623908
  90.4645467  45.4361820  40.5126027 107.0676336  50.8035459  29.0449791
 107.5927661  51.1422732  28.3199111 106.9798689  49.8682474  28.8612925
  96.2715397  40.8927239  45.0699852  96.3203552  41.7689362  44.6877621
  96.8137911  40.3504632  44.4971495 106.7570242  51.4368363  44.3500989
 105.9665786  51.4192501  43.8105488 106.5203597  51.9756656  45.1050025
 106.8768118  48.2860829  41.6633717 106.9266122  48.1210836  42.6049240
 106.7682041  47.4188088  41.2731598  95.7604376  50.9649375  28.9525806
  95.9092497  51.6484839  28.2992479  96.5670820  50.9454465  29.4675262
 104.1671880  44.2691757  42.9793024 105.0681743  44.1298222  42.6877022
 104.2419854  44.4346212  43.9191201  98.5014685  41.6458612  41.8246210
  97.6317995  41.9392178  41.5528799  98.7374166  42.2299057  42.5453474
 108.3786314  50.7057770  41.9075739 108.0871123  51.0687751  42.7439200
 107.7658446  49.9924779  41.7289071 109.5781997  48.2710650  34.4278309
 110.4128888  48.7100454  34.5915869 109.7141125  47.7949303  33.6086555
 106.6273503  45.8290385  40.3755797 107.1027624  46.0218031  39.5674648
 105.7039068  45.8849571  40.1299180  93.5157009  46.9914552  29.9586875
  93.2703051  46.0876882  30.1567085  93.6852924  46.9931703  29.0166353
 101.2053719  37.8638229  39.3411631 101.7235663  38.5999256  39.0158119
 100.8508852  38.1702222  40.1758390  92.7852657  42.7242910  27.4573037
  92.0921902  42.7987265  26.8013072  92.5404409  41.9603254  27.9794553
 101.4566313  34.2838511  34.8612527 101.7368067  33.6161700  35.4872954
 102.2416920  34.4767607  34.3487191  99.2599782  53.4597505  26.4237554
  98.6873749  54.0787692  25.9708025  99.8332575  54.0096867  26.9577476
 105.3275172  42.7056145  38.6084102 106.2792594  42.8054243  38.6296326
 105.1578622  41.9134414  39.1182187 103.3489551  39.7911728  38.7943503
 102.7539483  40.0716741  38.0989992 103.0639248  40.2805629  39.5660244
 102.4797042  53.7434655  27.5546136 103.4127715  53.6780217  27.7579011
 102.3920254  54.5790922  27.0960669 105.1085058  53.0600526  24.5150083
 105.0298690  52.7260389  25.4085841 105.9294725  53.5522293  24.5141556
 107.8063249  45.9262265  37.7226402 107.7739569  44.9878266  37.9086086
 108.4163873  46.0046302  36.9892227  99.6446580  44.7958318  23.7653606
 100.5905685  44.6664526  23.8342024  99.2660825  44.0572980  24.2423034
 107.9557738  42.7173308  37.7684685 107.4396787  41.9331765  37.5814614
 108.8397686  42.3892025  37.9331205 105.6168465  36.4614324  33.7280498
 105.4193286  36.1529412  34.6123830 106.2268170  37.1875963  33.8578428
 113.6239799  46.9878272  36.8632439 114.3543188  46.7263560  37.4240142
 113.0146745  46.2506994  36.9034507 111.7055096  45.1286134  37.4606890
 110.9788260  44.9942099  36.8523382 111.2902383  45.4362963  38.2663608
  99.5285273  48.8476064  45.2254263 100.4488282  49.0254663  45.4194310
  99.4934856  47.9032109  45.0733962  97.8289497  42.7208294  23.7008491
  96.9220953  42.4241407  23.7771205  98.1065478  42.4238112  22.8342778
  88.7467438  44.0414658  34.1507538  88.4270222  43.1879966  33.8581912
  88.2000866  44.2563236  34.9065505  99.4451563  37.2645184  29.8552733
  98.6352291  36.9192269  30.2307979 100.1335980  36.9552728  30.4440344
 101.3742111  36.3423231  31.4777029 101.9273150  36.7618684  32.1367052
 101.6112198  35.4158979  31.5199985  97.3975211  42.3310304  47.2579793
  97.2971938  43.2804661  47.1891884  97.1796753  42.0028543  46.3855863
  96.5988282  39.5795229  23.8420470  97.4607446  39.9050128  24.1016288
  96.7838626  38.7926725  23.3293536 104.7520918  38.4523756  30.9855693
 104.1719588  39.1108560  30.6033746 104.4856851  37.6301101  30.5743111
 103.2024485  37.8528814  33.1877014 103.7024263  37.9645348  32.3791333
 103.8460093  37.5489866  33.8277822  97.2606481  45.7607443  46.0744855
  96.7773562  46.5607803  46.2808744  97.3467420  45.7715388  45.1212299
 103.5345797  40.6123846  30.0412042 102.6471652  40.8973497  29.8232237
 103.9499786  40.4517610  29.1939319 106.8860333  40.6370367  33.7566381
 107.6620723  41.1266820  34.0290998 106.1608467  41.0628421  34.2138250
 109.3232891  41.3497987  34.8140322 109.9177382  41.1093722  34.1033630
 109.3959475  40.6305117  35.4413858 102.6789010  50.3768521  24.1360062
 103.3824860  50.5818523  24.7517717 101.9551659  50.9445283  24.4009145
 103.5086820  46.1278382  30.2562332 103.4522022  46.5846934  29.4169964
 104.0615163  45.3669067  30.0785175 107.3191626  41.9168114  31.0812451
 107.0628560  41.5164750  31.9120659 106.6944494  42.6311908  30.9562591
 111.6303964  44.6564187  33.5883743 111.0703522  44.7257377  34.3615305
 111.0247467  44.4805172  32.8683239 104.5875707  50.8151050  26.1858522
 105.4221311  50.3832249  26.0035997 104.4260050  50.6433064  27.1135416
 104.2421600  47.3183163  27.5514861 104.1870403  47.1527435  26.6103305
 103.6167655  48.0259196  27.7077051 101.5567507  49.6232075  46.8768424
 102.4258666  49.7972728  46.5155059 101.0774258  50.4426492  46.7544153
  97.5517725  36.8191272  27.1300179  97.5396395  37.7633112  27.2868450
  98.4441147  36.6361418  26.8359641 101.3669844  33.4134049  31.3846116
 100.6002240  32.8592536  31.5302799 101.7780549  33.4855918  32.2460268
  93.3711606  39.7018845  45.4751298  94.2343067  39.3455650  45.6854622
  92.7977016  39.3632740  46.1626702 113.2159982  61.3320701  36.2813699
 113.8538392  61.2127449  35.5777039 113.0980825  62.2801545  36.3401651
 110.0249689  61.2848129  36.2175223 109.6868200  61.1689194  35.3295758
 110.8939457  60.8839294  36.1976229 105.8836504  63.1383606  32.2072114
 105.3201370  63.0473543  31.4388402 105.7688900  62.3183510  32.6874607
 110.5069472  62.4382981  42.1761429 110.4958113  62.0435779  41.3041932
 110.6690111  61.7049054  42.7695200 103.4300936  64.6334797  35.0456335
 104.2222228  64.2925622  34.6302634 103.6697587  64.7429772  35.9658488
 111.4636063  66.8054574  27.5186579 110.8124043  67.3908654  27.1320593
 112.2580426  67.3360768  27.5781617 105.3891690  63.8943711  27.9173713
 106.1622566  63.3472698  27.7786589 105.7417089  64.7587960  28.1288175
 107.2276733  65.2220093  41.1240613 106.9366599  66.1265724  41.0087279
 107.8633717  65.2636621  41.8384682 108.1532940  62.5996941  37.7141972
 108.7496512  62.3752964  36.9998935 108.2107911  61.8581687  38.3167420
 107.7257968  60.0536377  25.5492163 107.9783489  59.5317898  24.7875626
 106.7882527  59.8902522  25.6518847 112.7701251  59.0572155  33.3566907
 113.5564340  58.6391578  33.0057324 113.0339955  59.9618247  33.5248555
 112.9411328  64.4945005  28.0555563 112.3057161  64.5679632  28.7676468
 112.6108735  65.0838604  27.3774643 118.1709678  58.9947388  34.2599885
 118.9034850  58.4246605  34.4937715 117.4149034  58.6068989  34.7006391
 107.4454257  61.9564483  27.7516538 107.3290515  61.2809386  28.4197623
 107.5556517  61.4696857  26.9348691 109.7885798  61.4174630  31.4563228
 109.4244005  60.8905251  32.1676149 110.6452914  61.0273099  31.2829713
 115.6935098  52.7068962  38.7194494 115.3618423  53.5764373  38.4955709
 115.0980712  52.3905246  39.3988524 109.4291285  56.4464530  26.4524576
 109.5965687  57.3144766  26.8195047 109.2388454  56.6091811  25.5285865
 112.1866618  64.9081508  38.1190406 111.8867341  65.8106547  38.0106214
 111.8417677  64.6413692  38.9711559 105.6379099  61.3595305  34.1527111
 104.7129596  61.2271519  34.3604803 105.8863513  62.1389525  34.6497053
 115.5863762  57.4264049  35.7987844 114.6780639  57.3579457  35.5046605
 115.5351358  57.9035994  36.6269669 109.4080506  58.9022187  27.4371243
 109.2880131  59.3479238  28.2756723 108.7133094  59.2507505  26.8784781
 102.9987910  61.0028579  34.9870900 103.1280292  61.2563058  35.9010312
 102.3185362  61.5956287  34.6675555 107.1687398  71.6725829  31.0861374
 107.0911427  72.6233654  31.1649855 106.5649041  71.3271701  31.7436300
 109.6604628  58.8453694  43.7422741 108.8837962  59.4047614  43.7325606
 110.2995191  59.3310477  44.2637611 117.4525408  55.6280487  37.5765718
 116.8099788  55.9213020  36.9305512 116.9480337  55.5133407  38.3818914
 115.1065572  59.3743660  28.2651577 116.0183428  59.6071047  28.0899274
 114.5975219  59.9580704  27.7026656 107.9151000  61.6539148  43.3040708
 108.6565684  62.1924192  43.0275532 107.2087985  62.2805436  43.4612260
 113.3906339  63.7968288  41.9012870 113.7989696  63.3550699  41.1567502
 112.6683601  63.2220916  42.1547062 109.7437410  58.7340895  39.2746426
 110.5898605  59.1580308  39.4181075 109.6836047  58.0774519  39.9684990
 113.7135154  64.3569479  35.6565158 113.0844017  64.5215193  34.9541226
 113.3260816  64.7711088  36.4276122 117.5924386  65.2923917  33.0109522
 116.9075424  65.6722818  32.4606555 117.6768235  65.9019243  33.7441470
 112.8936855  56.3945263  40.9327600 112.6497787  57.1487324  40.3961876
 113.1696785  56.7730611  41.7674847 114.8475318  62.9383876  39.6104866
 115.0592213  63.5815635  38.9339247 114.8005066  62.1046192  39.1426796
 112.4501547  55.5501696  36.5141438 111.5886026  55.8482950  36.8058175
 112.4763981  55.7672095  35.5822470 109.2663116  64.0943887  32.9215243
 109.7301462  64.3731590  32.1319866 109.0019914  63.1927331  32.7388334
 106.1587197  63.6415368  35.8595007 106.7288554  64.0702637  35.2212491
 106.7495309  63.3597953  36.5579192 108.2032002  60.2167039  29.7304809
 108.9056045  60.6688083  30.1978735 107.8712631  59.5750858  30.3584702
 106.6512364  58.8078796  44.1056018 106.0211024  59.4895077  44.3391415
 106.5448451  58.6961877  43.1609156 101.9457336  58.4750592  35.0321942
 101.1556390  58.7308120  34.5562053 102.4368583  59.2898930  35.1373983
 115.9621146  65.8155831  37.7827223 116.7838589  65.4136018  37.5009905
 115.9583548  65.7124065  38.7343339 103.8972081  58.8395171  31.9905419
 103.1003245  58.9513865  32.5088915 103.6697674  59.1781823  31.1246309
 109.7277749  65.3639874  39.9387934 109.7922182  65.8260281  40.7746105
 109.0188673  64.7337239  40.0670243 109.4425767  67.0307982  29.8066914
 109.3071441  67.8759517  30.2351762 109.9835579  67.2327259  29.0432848
 105.9293106  53.1099562  46.4681269 105.5360052  52.5565760  47.1428913
 106.7459247  53.4210140  46.8587787 102.8955164  64.5483420  30.3794839
 103.4079685  65.3426670  30.5300404 103.5477877  63.8509710  30.3128440
 104.7050049  67.6649176  32.4617592 104.8816677  68.5867141  32.2738576
 105.5006882  67.3507595  32.8911972 108.8461067  54.5257441  44.0601526
 109.5870781  55.1264594  43.9805988 109.0778990  53.7835078  43.5019568
 111.0694243  67.6531548  43.9367256 110.6258097  66.8667927  43.6188160
 111.7311457  67.8410699  43.2711147 105.8281364  69.1827350  38.4627934
 106.3788789  69.0544413  37.6904928 104.9892840  69.4822239  38.1122827
 113.1675481  67.9334348  41.9648657 113.1493956  68.7543229  41.4728926
 114.0895401  67.8088423  42.1898798 109.6248535  65.4478478  42.8072166
 110.1576872  64.6866766  42.5771474 109.0962616  65.1552129  43.5496320
 112.7918230  50.5538544  38.3365807 112.4482500  51.4440185  38.2604918
 113.1597193  50.3640201  37.4735392 112.7568513  60.5447155  26.8438242
 112.2415136  61.3151759  27.0826630 112.4845821  59.8712291  27.4671304
 110.3415624  55.3896856  31.9023481 109.4857220  55.0003706  31.7229120
 110.7542576  55.4688816  31.0423266 111.8714771  52.9243199  36.3015041
 111.3679566  52.8873334  35.4882846 112.1645378  53.8335941  36.3611697
 108.1157657  53.0081928  35.3081222 108.9810653  52.8124737  34.9487112
 108.1835165  52.7792280  36.2350579 117.7302787  63.2979509  28.7791416
 116.9532230  62.9590669  28.3346578 118.4094268  63.3032133  28.1046381
 112.5454816  58.4174247  28.6698024 112.2404952  58.7320396  29.5208167
 113.4985258  58.4955667  28.7125357 110.9901248  64.5764470  30.3190978
 110.4622610  63.8417230  30.0064215 110.4888751  65.3539146  30.0730946
 115.9694094  62.7713491  35.4358024 115.3117768  63.4612752  35.5238153
 116.7734493  63.1609923  35.7792010 105.7219976  55.2384136  32.6797589
 106.2963728  55.0159318  31.9470782 106.3090958  55.3072831  33.4326190
 114.7799553  61.1257863  33.4861966 115.2931435  61.7587855  33.9883675
 115.4300777  60.5259059  33.1205326 106.0489563  57.2688597  26.6993474
 105.2126875  57.6063284  27.0202749 105.9094332  57.1337577  25.7620611
 108.0242643  52.1125385  31.4072659 107.3707056  51.7974402  30.7829273
 107.9823117  51.4901126  32.1332481 109.1353848  62.3944680  23.3225951
 108.2280910  62.1633934  23.5217100 109.6324880  61.5982300  23.5099932
 112.0421927  71.1042188  26.2422637 111.3683626  71.4073884  26.8507595
 112.4287749  71.9071268  25.8928094 111.2580384  58.6007319  35.7320306
 110.3402945  58.8222266  35.5741994 111.6740527  58.6753629  34.8732014
 112.0415431  59.9998735  30.8622986 112.7887250  60.5120132  30.5530108
 112.3107021  59.6782787  31.7227380 110.3142082  62.4957275  27.8449941
 109.4053301  62.2116308  27.9422410 110.3437165  62.9156354  26.9853248
 115.5461349  66.1063865  31.6141108 115.0923676  65.2654775  31.6706299
 114.9155316  66.7425263  31.9515888 114.4894269  57.0355851  32.8441776
 113.7517025  56.5233237  33.1752018 114.7421042  56.5956232  32.0325053
 113.9894288  67.9440361  32.5490926 114.2817263  68.5045419  31.8303292
 114.4992909  68.2368922  33.3044086 114.5905896  49.8132103  33.4383545
 114.8964773  48.9529466  33.1509460 115.3158501  50.4049723  33.2382539
 108.8626976  60.1085896  33.9459736 108.9175585  59.1559732  33.8702213
 108.0518178  60.2645335  34.4301034 110.0118169  64.0366019  25.1838019
 109.5737599  63.3201878  24.7243657 110.7528610  64.2642134  24.6223111
 106.8019336  58.7262956  31.7050115 105.9887201  59.0257126  32.1115307
 107.2978330  58.3318644  32.4224597 108.9527913  68.7220713  33.6384380
 108.9104092  68.9481559  32.7092912 109.8690612  68.4884087  33.7870181
 112.3993547  59.1904780  40.5365009 112.7542935  59.4176253  41.3959475
 113.0465678  59.5223157  39.9142264 118.1291284  62.3123216  31.2414338
 117.9909183  62.5024812  30.3135527 117.7727503  63.0742599  31.6982389
 106.2933410  56.2981311  37.3211350 106.9332790  56.1570070  36.6234313
 105.4610941  56.0115825  36.9449952 118.1560664  64.3799743  36.2525609
 118.5897170  64.2875032  37.1008663 118.8692245  64.3557243  35.6145625
 107.0693714  65.5983742  33.4346342 107.8634313  65.1034062  33.2328917
 106.3585407  65.0701605  33.0714048 111.8888559  67.9801837  37.7858710
 111.9425581  68.5492773  38.5536426 111.0203340  68.1503722  37.4212747
 103.3776478  59.7426823  29.5106095 102.4474066  59.6811279  29.7276057
 103.4733950  59.2202776  28.7142736 103.2962027  56.2681636  32.0984337
 103.5568844  57.1826969  31.9893497 104.1179199  55.8006079  32.2480949
 104.7686952  57.6819393  39.2683161 105.4410006  57.4736755  38.6195810
 103.9416739  57.4841479  38.8288394 119.0176213  64.4223444  38.7858495
 119.2112103  65.3269254  39.0317770 118.9176832  63.9630863  39.6197080
 110.6712524  54.3081334  41.2848822 110.0240439  55.0071284  41.1913298
 111.4413540  54.7417478  41.6525070 114.0791322  64.5730186  44.3599375
 113.9276828  64.3440738  43.4429459 114.0696002  65.5300788  44.3730720
 110.8476658  62.1462099  39.3445642 111.7768718  62.2973259  39.1714609
 110.4267688  62.2346120  38.4894288 109.6464990  66.1712764  37.1144179
 109.5076076  65.8031548  37.9870118 108.8579586  66.6860403  36.9428137
 110.2413142  71.2721860  28.4569716 110.4164898  70.8009903  29.2715339
 109.5545930  71.8987626  28.6850977 111.1970205  65.5494366  34.5033017
 110.8620038  65.5095136  35.3990667 110.6974151  64.8839082  34.0303427
 105.1714449  60.9561996  40.0285598 105.0334247  60.2242235  40.6297137
 106.0819373  60.8670896  39.7469786 114.1329397  62.8950401  24.7770077
 113.5158568  62.1697229  24.6803130 113.6645885  63.6559761  24.4337151
 107.7996750  60.6681956  39.5169278 108.5096369  60.0275148  39.4755896
 107.7566058  60.9194850  40.4395459 115.7883529  67.6049309  42.4375857
 115.7296075  66.9208529  41.7706440 116.1903047  68.3468299  41.9856483
 106.5125684  57.6547173  41.3364917 105.9763041  57.2037912  41.9886514
 105.9242392  57.7893082  40.5935382 104.8074227  74.4211223  35.2309576
 105.0470826  75.0529747  35.9088595 103.9643424  74.0699263  35.5174935
 105.9227943  57.1135825  23.8991381 105.0457409  56.9924626  23.5353628
 106.3985696  56.3221903  23.6470270 115.7900936  65.5688893  40.6689837
 114.9027715  65.2314815  40.7916236 116.3599487  64.8371924  40.9058602
 102.2464805  56.7903181  38.4217912 102.1622994  56.1828851  37.6868322
 101.4247512  57.2812199  38.4227408 109.3202089  70.2290345  37.6351080
 109.2472261  71.0345317  38.1470385 108.8779482  70.4282311  36.8099102
 109.1091869  69.4662115  31.1453902 108.3259391  70.0083795  31.2392126
 109.8084614  69.9836095  31.5448143 112.4188519  55.2756745  33.7888107
 112.9157219  54.5226707  33.4689177 111.6475501  55.3121061  33.2231316
 120.2718276  60.9797110  35.4306399 120.2608153  61.8621826  35.0600332
 119.4035656  60.6268661  35.2360936 111.7800773  70.1277179  39.7909239
 112.4928745  70.7624644  39.7185140 111.2890802  70.2241045  38.9749241
 113.5018300  64.0328432  31.3626530 112.5674579  64.1529894  31.1931235
 113.6794968  63.1300899  31.0986540 109.0023488  57.4174128  33.5159792
 108.6321275  56.8645168  34.2040697 109.4982580  56.8132261  32.9634792
 116.8890851  59.8745751  31.8976565 117.3551303  60.7073743  31.8236867
 117.3398352  59.4090733  32.6021823 106.8312686  67.8771623  40.6114810
 107.5322146  68.5108106  40.7644204 106.3607801  68.2186354  39.8510449
 114.9567082  66.2189573  28.8962717 115.2326926  66.1046167  29.8056591
 114.0871581  65.8207057  28.8574890 114.8607514  52.2426338  35.9367466
 113.9470594  52.4730565  36.1049673 115.2900615  52.3264782  36.7881498
 114.6313972  60.4316230  38.4367360 113.9785423  60.6792138  37.7819813
 115.0094352  59.6180368  38.1029837 111.5921146  70.4675923  32.5395530
 111.7743541  69.6497579  33.0023283 112.4154132  70.6843616  32.1020420
 111.9263312  69.3944108  29.8010579 112.4551078  68.8836563  29.1880741
 112.1891531  69.0786639  30.6656112 110.6801545  61.1736041  44.9233397
 110.0042182  61.0730171  45.5935772 111.5029179  61.0175255  45.3869394
 102.4280404  67.4107978  37.5445912 103.0133841  66.6651666  37.6773816
 102.2305243  67.7211934  38.4282576 105.2819060  70.4459225  32.5608355
 104.6129435  70.9305353  32.0772395 105.1431929  70.6928446  33.4751733
 109.4224328  72.4802969  39.1591013 109.9742636  72.6434590  39.9240098
 109.7630522  73.0707407  38.4871038 104.3988822  54.8278118  39.7612898
 104.4630148  55.6892949  39.3490295 104.3355942  54.2152120  39.0285256
 103.8741094  56.9001251  43.4085932 104.5013133  56.5178328  44.0223456
 103.0169013  56.6815453  43.7741624 114.2735203  67.3064226  45.0139667
 114.8175107  67.9194184  44.5194622 113.6922047  67.8643805  45.5306680
 112.5592716  70.4284944  36.1454695 112.4343855  69.6274684  35.6365641
 113.2171807  70.9231138  35.6568665 104.1800884  56.7833677  35.3231835
 103.4587470  57.3969644  35.1839309 104.9694140  57.3191442  35.2448481
 114.6227624  68.2293964  37.7734245 113.6757959  68.1099315  37.7012572
 114.9710397  67.3416462  37.8560507 106.9827197  54.1188103  41.5972487
 107.5061599  54.3650400  42.3598796 106.7639531  54.9508138  41.1775624
 102.3794478  56.3891778  29.4643612 102.0507185  55.5089157  29.2818718
 102.7333849  56.3339446  30.3520001 111.6274057  68.0246681  33.9738597
 111.4799020  67.0963388  34.1546168 112.4527551  68.0466771  33.4895673
 105.4936302  56.6764748  29.8319090 105.8332374  57.2050669  29.1097698
 105.9408422  57.0145154  30.6077656 115.2308179  68.8475239  35.0603470
 116.1554727  68.6418101  34.9227921 115.0623482  68.5991640  35.9692812
 108.1879742  55.0601798  39.2822158 107.8476563  54.2609611  39.6842838
 107.4818749  55.3603509  38.7098991 108.8396214  52.1451111  37.7349481
 109.6622283  51.6711589  37.6128371 109.0834278  52.9241594  38.2348167
 107.4804449  55.1739369  28.0312382 108.2012811  55.5520622  27.5276099
 106.8569753  55.8928246  28.1347360 111.6235572  55.8784518  28.9670715
 111.8399186  56.7609156  28.6659543 111.1429639  55.4870732  28.2376357
 106.3634793  58.8370231  35.5441459 106.2179374  59.1510534  36.4365741
 105.8859997  59.4555132  34.9912358 108.2231176  55.8272779  35.5922349
 108.2092745  54.9313873  35.2554647 108.9403604  55.8343443  36.2260635
 110.0757307  56.2610120  37.6375476 109.8175084  57.1827190  37.6359807
 109.5442347  55.8640554  38.3275940 115.0203495  69.3660907  30.4165562
 115.1940373  68.8007329  29.6639414 115.5132387  70.1661802  30.2345052
 100.8380455  61.3775576  38.4829121 100.2933923  62.1535384  38.6149395
 101.7159805  61.7246380  38.3248242 107.6268072  54.7087160  30.8609919
 107.7483983  53.7803806  31.0600807 107.3370114  54.7225846  29.9488234
 110.4959262  52.3942070  33.9976639 110.5180959  52.4581403  33.0428618
 110.9127321  51.5546579  34.1917145 120.8742886  62.1297330  32.0355861
 121.3174032  61.3804655  31.6374985 119.9969397  62.1207466  31.6529593
 116.0078668  68.6827671  27.5162460 116.7029572  69.3034364  27.7349775
 116.3501818  67.8323022  27.7914838 117.9070091  66.1327377  29.0449791
 118.4321415  66.4714649  28.3199111 117.8192443  65.1974392  28.8612925
 109.5690140  70.0461450  41.1739667 109.8777266  69.8010597  42.0462367
 110.3665622  70.2508089  40.6858538 109.5910752  72.1999360  33.4045044
 109.1515742  71.7075739  34.0977901 110.3418869  71.6572328  33.1637119
 102.0703091  68.3910901  33.4069672 102.8961111  68.0914673  33.0268316
 101.7197143  67.6218523  33.8559461 107.0384624  67.7437369  35.4767346
 106.4164633  67.0808074  35.1769573 107.7089491  67.7698501  34.7940993
 107.1109151  56.2219157  45.0699852 107.1597307  57.0981280  44.6877621
 107.6531665  55.6796550  44.4971495 117.5963997  66.7660280  44.3500989
 116.8059541  66.7484419  43.8105488 117.3597352  67.3048574  45.1050025
 117.7161872  63.6152747  41.6633717 117.7659877  63.4502754  42.6049240
 117.6075795  62.7480006  41.2731598 106.5998131  66.2941292  28.9525806
 106.7486251  66.9776757  28.2992479 107.4064574  66.2746382  29.4675262
 115.0065634  59.5983675  42.9793024 115.9075497  59.4590140  42.6877022
 115.0813609  59.7638129  43.9191201 109.3408440  56.9750529  41.8246210
 108.4711749  57.2684095  41.5528799 109.5767920  57.5590974  42.5453474
 119.2180069  66.0349688  41.9075739 118.9264877  66.3979669  42.7439200
 118.6052200  65.3216696  41.7289071 120.4175751  63.6002568  34.4278309
 121.2522643  64.0392372  34.5915869 120.5534880  63.1241221  33.6086555
 117.4667257  61.1582303  40.3755797 117.9421379  61.3509949  39.5674648
 116.5432822  61.2141489  40.1299180 104.3550764  62.3206470  29.9586875
 104.1096806  61.4168800  30.1567085 104.5246678  62.3223620  29.0166353
 112.0447474  53.1930146  39.3411631 112.5629417  53.9291173  39.0158119
 111.6902606  53.4994140  40.1758390 103.6246411  58.0534828  27.4573037
 102.9315656  58.1279183  26.8013072 103.3798163  57.2895171  27.9794553
 112.2960068  49.6130429  34.8612527 112.5761822  48.9453618  35.4872954
 113.0810675  49.8059524  34.3487191 110.0993536  68.7889423  26.4237554
 109.5267503  69.4079610  25.9708025 110.6726330  69.3388784  26.9577476
 116.1668926  58.0348063  38.6084102 117.1186349  58.1346161  38.6296326
 115.9972377  57.2426331  39.1182187 114.1883306  55.1203646  38.7943503
 113.5933238  55.4008659  38.0989992 113.9033002  55.6097547  39.5660244
 113.3190796  69.0726573  27.5546136 114.2521469  69.0072135  27.7579011
 113.2314009  69.9082840  27.0960669 115.9478813  68.3892443  24.5150083
 115.8692444  68.0552307  25.4085841 116.7688479  68.8814211  24.5141556
 118.6457004  61.2554183  37.7226402 118.6133324  60.3170183  37.9086086
 119.2557628  61.3338219  36.9892227 110.4840335  60.1250236  23.7653606
 111.4299439  59.9956444  23.8342024 110.1054580  59.3864897  24.2423034
 118.7951492  58.0465226  37.7684685 118.2790541  57.2623683  37.5814614
 119.6791441  57.7183943  37.9331205 116.4562219  51.7906242  33.7280498
 116.2587040  51.4821330  34.6123830 117.0661925  52.5167880  33.8578428
 110.3679027  64.1767982  45.2254263 111.2882037  64.3546581  45.4194310
 110.3328610  63.2324027  45.0733962 108.6683252  58.0500212  23.7008491
 107.7614707  57.7533325  23.7771205 108.9459233  57.7530030  22.8342778
 103.3641100  62.0869016  37.8677044 103.5827110  63.0186124  37.8865078
 103.7766874  61.7276991  38.6531848 110.2845318  52.5937102  29.8552733
 109.4746046  52.2484187  30.2307979 110.9729735  52.2844645  30.4440344
 112.2135866  51.6715148  31.4777029 112.7666905  52.0910602  32.1367052
 112.4505952  50.7450897  31.5199985 108.2368965  57.6602222  47.2579793
 108.1365692  58.6096579  47.1891884 108.0190507  57.3320461  46.3855863
 107.4382037  54.9087147  23.8420470 108.3001201  55.2342045  24.1016288
 107.6232381  54.1218643  23.3293536 115.5914673  53.7815674  30.9855693
 115.0113342  54.4400478  30.6033746 115.3250606  52.9593018  30.5743111
 114.0418239  53.1820731  33.1877014 114.5418018  53.2937266  32.3791333
 114.6853847  52.8781784  33.8277822 108.1000235  61.0899361  46.0744855
 107.6167317  61.8899721  46.2808744 108.1861174  61.1007306  45.1212299
 104.0273573  64.9803896  38.1113289 104.9816826  64.9487838  38.0443220
 103.8286096  64.5194519  38.9263514 104.6172955  63.5505012  40.6784086
 105.4365844  64.0449090  40.7018924 104.8909763  62.6336980  40.6501654
 114.3739551  55.9415764  30.0412042 113.4865406  56.2265415  29.8232237
 114.7893540  55.7809527  29.1939319 117.7254087  55.9662285  33.7566381
 118.5014477  56.4558737  34.0290998 117.0002221  56.3920339  34.2138250
 120.1626646  56.6789904  34.8140322 120.7571137  56.4385640  34.1033630
 120.2353229  55.9597035  35.4413858 102.3823801  70.5223515  35.1283486
 102.2478269  69.7623916  34.5621484 101.9655864  71.2464415  34.6612275
 113.5182764  65.7060439  24.1360062 114.2218615  65.9110441  24.7517717
 112.7945413  66.2737201  24.4009145 114.3480575  61.4570300  30.2562332
 114.2915776  61.9138851  29.4169964 114.9008917  60.6960985  30.0785175
 118.1585381  57.2460032  31.0812451 117.9022315  56.8456667  31.9120659
 117.5338249  57.9603826  30.9562591 122.4697719  59.9856105  33.5883743
 121.9097276  60.0549294  34.3615305 121.8641222  59.8097090  32.8683239
 105.5392927  71.4192832  35.3401929 105.4225311  72.3638265  35.2380619
 104.7185374  71.1166394  35.7287728 115.4269462  66.1442968  26.1858522
 116.2615066  65.7124166  26.0035997 115.2653805  65.9724982  27.1135416
 115.0815354  62.6475081  27.5514861 115.0264158  62.4819353  26.6103305
 114.4561409  63.3551114  27.7077051 112.3961261  64.9523993  46.8768424
 113.2652421  65.1264645  46.5155059 111.9168013  65.7718410  46.7544153
 108.3911480  52.1483190  27.1300179 108.3790149  53.0925030  27.2868450
 109.2834901  51.9653336  26.8359641 106.5647441  72.0721094  38.5557858
 107.4674688  72.1044704  38.8724352 106.3384812  71.1421545  38.5704193
 108.3201043  70.8252081  35.2167936 107.3696674  70.8253942  35.1032308
 108.6233530  70.0784815  34.7003971 112.2063599  48.7425967  31.3846116
 111.4395995  48.1884454  31.5302799 112.6174304  48.8147836  32.2460268
 104.2105360  55.0310763  45.4751298 105.0736822  54.6747567  45.6854622
 103.6370771  54.6924657  46.1626702 120.8643443  76.6140047  36.2175223
 120.5261955  76.4981112  35.3295758 121.7333211  76.2131212  36.1976229
 116.7230259  78.4675523  32.2072114 116.1595124  78.3765460  31.4388402
 116.6082654  77.6475428  32.6874607 121.3463226  77.7674899  42.1761429
 121.3351867  77.3727697  41.3041932 121.5083866  77.0340971  42.7695200
 114.2694691  79.9626715  35.0456335 115.0615983  79.6217540  34.6302634
 114.5091341  80.0721690  35.9658488 116.2285445  79.2235628  27.9173713
 117.0016321  78.6764615  27.7786589 116.5810844  80.0879878  28.1288175
 118.0670487  80.5512011  41.1240613 117.7760353  81.4557641  41.0087279
 118.7027472  80.5928538  41.8384682 118.9926694  77.9288859  37.7141972
 119.5890266  77.7044882  36.9998935 119.0501666  77.1873605  38.3167420
 118.5651723  75.3828294  25.5492163 118.8177243  74.8609816  24.7875626
 117.6276282  75.2194440  25.6518847 118.2848011  77.2856400  27.7516538
 118.1684269  76.6101304  28.4197623 118.3950271  76.7988774  26.9348691
 120.6279552  76.7466548  31.4563228 120.2637760  76.2197168  32.1676149
 121.4846668  76.3565017  31.2829713 120.2685039  71.7756447  26.4524576
 120.4359442  72.6436684  26.8195047 120.0782208  71.9383729  25.5285865
 116.4772854  76.6887223  34.1527111 115.5523350  76.5563437  34.3604803
 116.7257267  77.4681442  34.6497053 120.2474260  74.2314105  27.4371243
 120.1273885  74.6771155  28.2756723 119.5526849  74.5799422  26.8784781
 113.8381665  76.3320497  34.9870900 113.9674046  76.5854975  35.9010312
 113.1579116  76.9248205  34.6675555 118.0081152  87.0017746  31.0861374
 117.9305182  87.9525572  31.1649855 117.4042796  86.6563619  31.7436300
 120.4998382  74.1745612  43.7422741 119.7231716  74.7339532  43.7325606
 121.1388945  74.6602395  44.2637611 118.7544754  76.9831065  43.3040708
 119.4959439  77.5216109  43.0275532 118.0481740  77.6097354  43.4612260
 120.5831164  74.0632812  39.2746426 121.4292359  74.4872226  39.4181075
 120.5229802  73.4066437  39.9684990 120.1056871  79.4235804  32.9215243
 120.5695216  79.7023507  32.1319866 119.8413669  78.5219249  32.7388334
 116.9980952  78.9707286  35.8595007 117.5682309  79.3994554  35.2212491
 117.5889063  78.6889871  36.5579192 119.0425757  75.5458957  29.7304809
 119.7449800  75.9980000  30.1978735 118.7106385  74.9042776  30.3584702
 117.4906118  74.1370713  44.1056018 116.8604779  74.8186994  44.3391415
 117.3842206  74.0253795  43.1609156 112.7851091  73.8042509  35.0321942
 111.9950145  74.0600038  34.5562053 113.2762338  74.6190847  35.1373983
 114.7365836  74.1687089  31.9905419 113.9396999  74.2805783  32.5088915
 114.5091428  74.5073741  31.1246309 120.5671504  80.6931792  39.9387934
 120.6315936  81.1552199  40.7746105 119.8582427  80.0629157  40.0670243
 111.0688794  74.0573000  37.4636933 111.3196832  74.9420010  37.7294509
 111.6048342  73.8777601  36.6912025 120.2819521  82.3599899  29.8066914
 120.1465196  83.2051435  30.2351762 120.8229334  82.5619177  29.0432848
 116.7686861  68.4391479  46.4681269 116.3753806  67.8857678  47.1428913
 117.5853001  68.7502058  46.8587787 113.7348919  79.8775337  30.3794839
 114.2473439  80.6718588  30.5300404 114.3871631  79.1801628  30.3128440
 115.5443803  82.9941094  32.4617592 115.7210432  83.9159058  32.2738576
 116.3400637  82.6799513  32.8911972 119.6854822  69.8549358  44.0601526
 120.4264535  70.4556511  43.9805988 119.9172745  69.1126996  43.5019568
 114.8296160  75.0405726  42.3379755 114.7149675  74.1390983  42.6386854
 113.9740678  75.2869422  41.9864572 116.6675119  84.5119268  38.4627934
 117.2182544  84.3836331  37.6904928 115.8286595  84.8114157  38.1122827
 120.4642290  80.7770395  42.8072166 120.9970627  80.0158684  42.5771474
 119.9356371  80.4844047  43.5496320 111.6997835  78.2063992  31.1554409
 112.5373057  78.6161000  30.9388117 111.8776103  77.2663434  31.1254603
 121.1809379  70.7188773  31.9023481 120.3250975  70.3295624  31.7229120
 121.5936330  70.7980734  31.0423266 118.9551411  68.3373846  35.3081222
 119.8204408  68.1416655  34.9487112 119.0228920  68.1084198  36.2350579
 121.8295002  79.9056388  30.3190978 121.3016364  79.1709147  30.0064215
 121.3282505  80.6831064  30.0730946 116.5613730  70.5676054  32.6797589
 117.1357482  70.3451236  31.9470782 117.1484713  70.6364749  33.4326190
 116.8883317  72.5980515  26.6993474 116.0520629  72.9355202  27.0202749
 116.7488087  72.4629495  25.7620611 118.8636398  67.4417303  31.4072659
 118.2100810  67.1266320  30.7829273 118.8216872  66.8193043  32.1332481
 119.9747603  77.7236598  23.3225951 119.0674664  77.4925852  23.5217100
 120.4718635  76.9274217  23.5099932 121.1535836  77.8249193  27.8449941
 120.2447055  77.5408226  27.9422410 121.1830920  78.2448272  26.9853248
 111.7224006  75.5454707  31.8265143 111.5248406  74.9524068  31.1016209
 111.1670670  75.2406917  32.5441082 119.7020730  75.4377814  33.9459736
 119.7569340  74.4851650  33.8702213 118.8911932  75.5937253  34.4301034
 120.8511924  79.3657937  25.1838019 120.4131354  78.6493796  24.7243657
 121.5922365  79.5934051  24.6223111 117.6413090  74.0554873  31.7050115
 116.8280956  74.3549044  32.1115307 118.1372084  73.6610562  32.4224597
 119.7921668  84.0512630  33.6384380 119.7497847  84.2773477  32.7092912
 120.7084367  83.8176005  33.7870181 117.1327165  71.6273229  37.3211350
 117.7726544  71.4861988  36.6234313 116.3004695  71.3407742  36.9449952
 117.9087469  80.9275659  33.4346342 118.7028067  80.4325979  33.2328917
 117.1979161  80.3993522  33.0714048 114.2170232  75.0718741  29.5106095
 113.2867820  75.0103196  29.7276057 114.3127704  74.5494694  28.7142736
 114.1355781  71.5973554  32.0984337 114.3962599  72.5118887  31.9893497
 114.9572954  71.1297996  32.2480949 115.6080707  73.0111311  39.2683161
 116.2803760  72.8028673  38.6195810 114.7810493  72.8133397  38.8288394
 121.5106279  69.6373252  41.2848822 120.8634194  70.3363202  41.1913298
 122.2807294  70.0709396  41.6525070 120.4858745  81.5004681  37.1144179
 120.3469830  81.1323466  37.9870118 119.6973341  82.0152321  36.9428137
 121.0806897  86.6013778  28.4569716 121.2558652  86.1301821  29.2715339
 120.3939685  87.2279544  28.6850977 122.0363960  80.8786284  34.5033017
 121.7013792  80.8387054  35.3990667 121.5367906  80.2131000  34.0303427
 116.0108204  76.2853914  40.0285598 115.8728002  75.5534153  40.6297137
 116.9213127  76.1962814  39.7469786 118.6390505  75.9973873  39.5169278
 119.3490123  75.3567065  39.4755896 118.5959813  76.2486768  40.4395459
 117.3519438  72.9839091  41.3364917 116.8156796  72.5329830  41.9886514
 116.7636147  73.1185000  40.5935382 115.6467982  89.7503140  35.2309576
 115.8864580  90.3821665  35.9088595 114.8037178  89.3991180  35.5174935
 116.7621697  72.4427743  23.8991381 115.8851164  72.3216543  23.5353628
 117.2379451  71.6513821  23.6470270 108.2823838  77.2304902  33.9932888
 108.9694877  76.9166632  33.4053904 108.1271966  78.1346267  33.7200140
 113.0858560  72.1195099  38.4217912 113.0016748  71.5120768  37.6868322
 112.2641266  72.6104117  38.4227408 120.1595844  85.5582263  37.6351080
 120.0866015  86.3637234  38.1470385 119.7173237  85.7574229  36.8099102
 119.9485623  84.7954033  31.1453902 119.1653145  85.3375713  31.2392126
 120.6478369  85.3128013  31.5448143 119.8417242  72.7466045  33.5159792
 119.4715030  72.1937086  34.2040697 120.3376335  72.1424179  32.9634792
 117.6706441  83.2063540  40.6114810 118.3715900  83.8400023  40.7644204
 117.2001556  83.5478272  39.8510449 121.5195300  76.5027959  44.9233397
 120.8435937  76.4022088  45.5935772 122.3422934  76.3467173  45.3869394
 113.2674159  82.7399895  37.5445912 113.8527596  81.9943583  37.6773816
 113.0698997  83.0503852  38.4282576 116.1212814  85.7751143  32.5608355
 115.4523189  86.2597270  32.0772395 115.9825684  86.0220363  33.4751733
 107.8591814  75.3105496  36.2650355 107.8975913  74.7769086  37.0587474
 107.3532107  74.7840701  35.6461333 120.2618083  87.8094886  39.1591013
 120.8136391  87.9726508  39.9240098 120.6024276  88.3999324  38.4871038
 115.2382576  70.1570036  39.7612898 115.3023902  71.0184867  39.3490295
 115.1749696  69.5444038  39.0285256 114.7134849  72.2293169  43.4085932
 115.3406887  71.8470246  44.0223456 113.8562767  72.0107371  43.7741624
 111.4900391  74.0369598  29.3404287 111.7853832  73.1280276  29.2871341
 110.5888427  74.0157337  29.0185289 115.0194638  72.1125594  35.3231835
 114.2981224  72.7261562  35.1839309 115.8087894  72.6483359  35.2448481
 117.8220952  69.4480021  41.5972487 118.3455354  69.6942317  42.3598796
 117.6033285  70.2800056  41.1775624 113.2188233  71.7183695  29.4643612
 112.8900939  70.8381074  29.2818718 113.5727604  71.6631364  30.3520001
 116.3330056  72.0056665  29.8319090 116.6726129  72.5342587  29.1097698
 116.7802176  72.3437071  30.6077656 119.0273497  70.3893716  39.2822158
 118.6870317  69.5901529  39.6842838 118.3212503  70.6895427  38.7098991
 119.6789969  67.4743028  37.7349481 120.5016038  67.0003507  37.6128371
 119.9228032  68.2533512  38.2348167 118.3198203  70.5031287  28.0312382
 119.0406566  70.8812540  27.5276099 117.6963507  71.2220164  28.1347360
 117.2028547  74.1662149  35.5441459 117.0573128  74.4802452  36.4365741
 116.7253751  74.7847049  34.9912358 119.0624930  71.1564697  35.5922349
 119.0486499  70.2605790  35.2554647 119.7797358  71.1635361  36.2260635
 120.9151061  71.5902037  37.6375476 120.6568839  72.5119108  37.6359807
 120.3836101  71.1932472  38.3275940 111.6774210  76.7067493  38.4829121
 111.1327678  77.4827301  38.6149395 112.5553559  77.0538298  38.3248242
 118.4661826  70.0379077  30.8609919 118.5877737  69.1095723  31.0600807
 118.1763869  70.0517763  29.9488234 121.3353017  67.7233988  33.9976639
 121.3574713  67.7873321  33.0428618 121.7521076  66.8838496  34.1917145
 112.4640231  75.8337390  41.3759277 111.7221967  75.9820025  41.9623908
 112.1432976  76.0945655  40.5126027 120.4083894  85.3753368  41.1739667
 120.7171021  85.1302515  42.0462367 121.2059376  85.5800006  40.6858538
 120.4304506  87.5291278  33.4045044 119.9909496  87.0367656  34.0977901
 121.1812623  86.9864245  33.1637119 112.9096845  83.7202818  33.4069672
 113.7354865  83.4206590  33.0268316 112.5590897  82.9510441  33.8559461
 117.8778378  83.0729287  35.4767346 117.2558388  82.4099992  35.1769573
 118.5483245  83.0990419  34.7940993 111.1105450  81.6389145  34.3658606
 110.2737358  81.2111319  34.1842607 111.0829096  81.8321588  35.3029397
 117.9502906  71.5511075  45.0699852 117.9991061  72.4273197  44.6877621
 118.4925420  71.0088468  44.4971495 117.4391885  81.6233210  28.9525806
 117.5880006  82.3068674  28.2992479 118.2458329  81.6038300  29.4675262
 120.1802194  72.3042447  41.8246210 119.3105504  72.5976013  41.5528799
 120.4161675  72.8882892  42.5453474 115.1944518  77.6498388  29.9586875
 114.9490560  76.7460718  30.1567085 115.3640433  77.6515538  29.0166353
 114.4640166  73.3826745  27.4573037 113.7709411  73.4571100  26.8013072
 114.2191918  72.6187089  27.9794553 120.9387291  84.1181340  26.4237554
 120.3661258  84.7371528  25.9708025 121.5120084  84.6680702  26.9577476
 121.3234089  75.4542153  23.7653606 122.2693194  75.3248361  23.8342024
 120.9448334  74.7156815  24.2423034 121.2072782  79.5059899  45.2254263
 122.1275791  79.6838498  45.4194310 121.1722365  78.5615945  45.0733962
 119.5077006  73.3792130  23.7008491 118.6008462  73.0825242  23.7771205
 119.7852987  73.0821948  22.8342778 110.4254947  74.6998493  34.1507538
 110.1057731  73.8463801  33.8581912 109.8788375  74.9147071  34.9065505
 114.2034854  77.4160934  37.8677044 114.4220864  78.3478042  37.8865078
 114.6160628  77.0568908  38.6531848 121.1239072  67.9229019  29.8552733
 120.3139800  67.5776104  30.2307979 121.8123489  67.6136563  30.4440344
 119.0762720  72.9894140  47.2579793 118.9759447  73.9388497  47.1891884
 118.8584262  72.6612379  46.3855863 118.2775791  70.2379065  23.8420470
 119.1394955  70.5633963  24.1016288 118.4626135  69.4510561  23.3293536
 110.2943207  78.3201404  36.1200659 109.6006678  77.9055357  35.6070614
 111.0416198  78.3621941  35.5234078 118.9393990  76.4191279  46.0744855
 118.4561071  77.2191639  46.2808744 119.0254929  76.4299223  45.1212299
 112.2079949  78.2519658  33.9966674 112.1850637  78.3507346  33.0448557
 112.5180586  79.0984809  34.3183840 114.8667327  80.3095813  38.1113289
 115.8210581  80.2779756  38.0443220 114.6679851  79.8486437  38.9263514
 115.4566709  78.8796929  40.6784086 116.2759598  79.3741008  40.7018924
 115.7303517  77.9628897  40.6501654 113.2217556  85.8515433  35.1283486
 113.0872024  85.0915834  34.5621484 112.8049618  86.5756333  34.6612275
 116.3786682  86.7484750  35.3401929 116.2619066  87.6930182  35.2380619
 115.5579128  86.4458311  35.7287728 110.7101624  73.2135063  41.3776283
 111.3560487  72.7034017  41.8663508 110.5018775  73.9503745  41.9519709
 119.2305234  67.4775108  27.1300179 119.2183904  68.4216948  27.2868450
 120.1228656  67.2945253  26.8359641 117.4041196  87.4013012  38.5557858
 118.3068443  87.4336622  38.8724352 117.1778566  86.4713463  38.5704193
 119.1594798  86.1543998  35.2167936 118.2090429  86.1545860  35.1032308
 119.4627284  85.4076733  34.7003971 115.0499115  70.3602680  45.4751298
 115.9130576  70.0039485  45.6854622 114.4764525  70.0216575  46.1626702
 121.9082548  89.3864918  37.4636933 122.1590586  90.2711927  37.7294509
 122.4442096  89.2069519  36.6912025 119.1217592  92.5596820  33.9932888
 119.8088632  92.2458550  33.4053904 118.9665721  93.4638185  33.7200140
 118.6985568  90.6397413  36.2650355 118.7369668  90.1061004  37.0587474
 118.1925861  90.1132619  35.6461333 121.9499205  96.9681063  34.3658606
 121.1131113  96.5403237  34.1842607 121.9222850  97.1613506  35.3029397
 121.2648701  90.0290411  34.1507538 120.9451486  89.1755719  33.8581912
 120.7182129  90.2438989  34.9065505 121.1336961  93.6493322  36.1200659
 120.4400433  93.2347275  35.6070614 121.8809952  93.6913859  35.5234078
 121.5495378  88.5426981  41.3776283 122.1954242  88.0325935  41.8663508
 121.3412529  89.2795663  41.9519709  74.6506136   2.6912198  17.8106681
  74.5730165   3.6420023  17.8895161  74.0467779   2.3458071  18.4681607
  72.2892965   5.4397592  21.9554883  72.5289564   6.0716117  22.6333901
  71.4462162   5.0885632  22.2420242  72.7637797   1.4645595  19.2853661
  72.0948173   1.9491722  18.8017701  72.6250667   1.7114815  20.1997040
  76.9043066   3.4989338  25.8836320  77.4561374   3.6620960  26.6485405
  77.2449260   4.0893776  25.2116344  77.0729489   3.2185729  20.1290351
  76.6334480   2.7262108  20.8223207  77.8237606   2.6758697  19.8882426
  69.8642539   1.5409885  21.8528793  69.7297007   0.7810286  21.2866791
  69.4474602   2.2650785  21.3857582  73.0211665   2.4379202  22.0647236
  72.9044049   3.3824634  21.9625926  72.2004111   2.1352763  22.4533035
  74.0466179   3.0907464  25.2803164  74.9493426   3.1231074  25.5969659
  73.8203549   2.1607915  25.2949500  88.3462181   7.6326417  22.9420530
  88.0080693   7.5167481  22.0541065  89.2151949   7.2317582  22.9221536
  84.2048997   9.4861893  18.9317421  83.6413862   9.3951830  18.1633709
  84.0901392   8.6661798  19.4119913  88.8281964   8.7861268  28.9006735
  88.8170605   8.3914067  28.0287239  88.9902604   8.0527341  29.4940507
  81.7513429  10.9813085  21.7701641  82.5434721  10.6403909  21.3547941
  81.9910079  11.0908060  22.6903795  89.7848555  13.1532861  14.2431886
  89.1336535  13.7386941  13.8565900  90.5792918  13.6839056  14.3026923
  83.7104183  10.2421998  14.6419020  84.4835059   9.6950985  14.5031896
  84.0629581  11.1066247  14.8533481  85.5489225  11.5698380  27.8485919
  85.2579091  12.4744011  27.7332586  86.1846210  11.6114908  28.5629989
  86.4745432   8.9475229  24.4387279  87.0709004   8.7231251  23.7244242
  86.5320404   8.2059974  25.0412727  85.7666749   8.3042770  14.4761845
  85.6503007   7.6287673  15.1442929  85.8769009   7.8175144  13.6593998
  88.1098290   7.7652917  18.1808534  87.7456497   7.2383538  18.8921456
  88.9665406   7.3751386  18.0075020  90.5079110  11.2559796  24.8435713
  90.2079833  12.1584834  24.7351520  90.1630170  10.9891979  25.6956866
  83.9591592   7.7073593  20.8772417  83.0342088   7.5749807  21.0850109
  84.2076005   8.4867812  21.3742360  81.3200403   7.3506866  21.7116207
  81.4492784   7.6041345  22.6255618  80.6397854   7.9434574  21.3920862
  85.4899890  18.0204116  17.8106681  85.4123920  18.9711941  17.8895161
  84.8861534  17.6749989  18.4681607  86.2363492   8.0017435  30.0286015
  86.9778177   8.5402479  29.7520838  85.5300478   8.6283724  30.1857566
  91.7118832  10.1446575  28.6258176  92.1202188   9.7028986  27.8812809
  90.9896093   9.5699203  28.8792369  92.0347646  10.7047766  22.3810465
  91.4056509  10.8693480  21.6786533  91.6473309  11.1189375  23.1521429
  95.9136878  11.6402204  19.7354829  95.2287916  12.0201105  19.1851862
  95.9980728  12.2497530  20.4686777  93.1687810   9.2862163  26.3350172
  93.3804705   9.9293923  25.6584553  93.1217558   8.4524479  25.8672102
  87.5875608  10.4422174  19.6460550  88.0513954  10.7209877  18.8565173
  87.3232406   9.5405619  19.4633641  84.4799689   9.9893656  22.5840313
  85.0501046  10.4180924  21.9457798  85.0707801   9.7076240  23.2824499
  86.5244494   6.5645326  16.4550115  87.2268538   7.0166370  16.9224042
  86.1925123   5.9229145  17.0830008  84.9724856   5.1557083  30.8301325
  84.3423516   5.8373364  31.0636721  84.8660944   5.0440165  29.8854463
  80.2669828   4.8228879  21.7567249  79.4768882   5.0786408  21.2807359
  80.7581076   5.6377217  21.8619289  94.2833638  12.1634118  24.5072530
  95.1051082  11.7614305  24.2255211  94.2796041  12.0602352  25.4588645
  82.2184574   5.1873458  18.7150726  81.4215737   5.2992153  19.2334221
  81.9910166   5.5260110  17.8491616  88.0490241  11.7118161  26.6633240
  88.1134674  12.1738569  27.4991412  87.3401165  11.0815526  26.7915550
  78.5507531   5.0759369  24.1882240  78.8015570   5.9606379  24.4539816
  79.0867080   4.8963971  23.4157331  87.7638259  13.3786269  16.5312220
  87.6283934  14.2237805  16.9597068  88.3048071  13.5805547  15.7678154
  81.2167656  10.8961707  17.1040146  81.7292177  11.6904957  17.2545710
  81.8690369  10.1987997  17.0373747  83.0262541  14.0127463  19.1862899
  83.2029169  14.9345428  18.9983883  83.8219375  13.6985883  19.6157279
  82.3114898   6.0592095  29.0625062  82.1968413   5.1577352  29.3632161
  81.4559415   6.3055792  28.7109878  89.3906735  14.0009835  30.6612563
  88.9470590  13.2146214  30.3433467  90.0523949  14.1888986  29.9956453
  84.1493857  15.5305637  25.1873241  84.7001282  15.4022700  24.4150235
  83.3105332  15.8300526  24.8368134  91.4887973  14.2812635  28.6893964
  91.4706449  15.1021516  28.1974233  92.4107893  14.1566711  28.9144105
  87.9461028  11.7956765  29.5317472  88.4789364  11.0345053  29.3016780
  87.4175109  11.5030417  30.2741627  79.1816573   9.2250361  17.8799716
  80.0191795   9.6347370  17.6633424  79.3594841   8.2849803  17.8499910
  89.3113740  10.9242757  17.0436284  88.7835102  10.1895517  16.7309522
  88.8101243  11.7017434  16.7976253  94.2906586   9.1191778  22.1603331
  93.6330261   9.8091039  22.2483459  95.0946986   9.5088210  22.5037317
  90.3634419  17.4520475  12.9667943  89.6896118  17.7552172  13.5752901
  90.7500241  18.2549555  12.6173400  93.8673841  12.4542152  18.3386415
  93.4136168  11.6133062  18.3951605  93.2367808  13.0903550  18.6761195
  92.3106781  14.2918649  19.2736233  92.6029755  14.8523706  18.5548599
  92.8205401  14.5847210  20.0289392  79.2042744   6.5641077  18.5510450
  79.0067144   5.9710437  17.8261516  78.6489408   6.2593287  19.2686388
  87.2740406  15.0699000  20.3629686  87.2316585  15.2959846  19.4338218
  88.1903105  14.8362374  20.5115487  96.4773156  10.7278030  22.9770916
  96.9109663  10.6353319  23.8253970  97.1904737  10.7035531  22.3390932
  85.3906207  11.9462029  20.1591649  86.1846805  11.4512349  19.9574224
  84.6797899  11.4179892  19.7959355  90.2101051  14.3280124  24.5104017
  90.2638073  14.8971061  25.2781732  89.3415832  14.4982009  24.1458054
  81.6988970   6.0905111  16.2351402  80.7686558   6.0289566  16.4521364
  81.7946442   5.5681063  15.4388043  97.3388706  10.7701731  25.5103801
  97.5324596  11.6747541  25.7563076  97.2389324  10.3109150  26.3442386
  92.4003814  10.9208474  31.0844682  92.2489321  10.6919025  30.1674766
  92.3908494  11.8779075  31.0976027  89.1689151   8.4940386  26.0690948
  90.0981211   8.6451546  25.8959916  88.7480181   8.5824407  25.2139595
  87.9677483  12.5191051  23.8389486  87.8288568  12.1509835  24.7115424
  87.1792079  13.0338690  23.6673444  88.5625634  17.6200147  15.1815023
  88.7377390  17.1488190  15.9960645  87.8758423  18.2465913  15.4096283
  89.5182698  11.8972653  21.2278324  89.1832530  11.8573423  22.1235974
  89.0186643  11.2317369  20.7548734  83.4926942   7.3040284  26.7530905
  83.3546740   6.5720522  27.3542444  84.4031865   7.2149184  26.4715093
  86.1209242   7.0160243  26.2414585  86.8308861   6.3753435  26.2001203
  86.0778550   7.2673138  27.1640765  94.1096021  13.9527596  29.1621164
  94.0508567  13.2686816  28.4951747  94.5115539  14.6946586  28.7101790
  83.1286720  20.7689510  21.9554883  83.3683318  21.4008034  22.6333901
  82.2855916  20.4177550  22.2420242  94.1113428  11.9167180  27.3935144
  93.2240207  11.5793102  27.5161542  94.6811979  11.1850211  27.6303909
  75.7642575   8.2491272  20.7178195  76.4513615   7.9353002  20.1299210
  75.6090704   9.1532637  20.4445446  87.6414582  16.5768632  24.3596387
  87.5684753  17.3823604  24.8715691  87.1991975  16.7760598  23.5344408
  87.4304361  15.8140402  17.8699208  86.6471883  16.3562083  17.9637433
  88.1297106  16.3314382  18.2693449  90.1013265  16.4755466  26.5154545
  90.8141237  17.1102931  26.4430447  89.6103294  16.5719332  25.6994547
  91.8230792  10.3806719  18.0871837  90.8887071  10.5008182  17.9176541
  92.0007461   9.4779186  17.8231847  85.1525179  14.2249910  27.3360116
  85.8534638  14.8586393  27.4889510  84.6820294  14.5664642  26.5755755
  89.9133639  16.8154211  19.2640837  90.0956033  15.9975867  19.7268589
  90.7366625  17.0321903  18.8265727  90.2475804  15.7422396  16.5255885
  90.7763570  15.2314850  15.9126047  90.5104024  15.4264926  17.3901418
  89.0014038   7.5214328  31.6478704  88.3254675   7.4208458  32.3181079
  89.8241672   7.3653542  32.1114701  80.7492897  13.7586265  24.2691219
  81.3346334  13.0129953  24.4019123  80.5517735  14.0690222  25.1527883
  83.6031552  16.7937512  19.2853661  82.9341927  17.2783640  18.8017701
  83.4644422  17.0406733  20.1997040  75.3410551   6.3291865  22.9895662
  75.3794651   5.7955456  23.7832780  74.8350844   5.8027071  22.3706639
  87.7436821  18.8281256  25.8836320  88.2955129  18.9912877  26.6485405
  88.0843014  19.4185694  25.2116344  92.5947695  13.6542513  31.7384974
  93.1387599  14.2672472  31.2439929  92.0134540  14.2122092  32.2551987
  78.9719129   5.0555967  16.0649593  79.2672570   4.1466646  16.0116647
  78.0707165   5.0343707  15.7430596  90.8805208  16.7763231  22.8700002
  90.7556347  15.9752971  22.3610947  91.5384299  17.2709425  22.3813972
  92.9440116  14.5772252  24.4979552  91.9970452  14.4577603  24.4257879
  93.2922889  13.6894750  24.5805813  89.9486550  14.3724968  20.6983904
  89.8011512  13.4441675  20.8791474  90.7740043  14.3945058  20.2140979
  93.5520671  15.1953526  21.7848777  94.4767219  14.9896388  21.6473228
  93.3835975  14.9469928  22.6938118  84.6847285   5.1848519  22.2686766
  84.5391866   5.4988822  23.1611047  84.2072489   5.8033419  21.7157665
  93.3415988  15.7139194  17.1410868  93.5152865  15.1485616  16.3884721
  93.8344879  16.5140089  16.9590358  79.1592947   7.7253863  25.2074427
  78.6146415   8.5013671  25.3394701  80.0372297   8.0724667  25.0493549
  79.9458969   6.8523759  28.1004584  79.2040705   7.0006395  28.6869214
  79.6251714   7.1132025  27.2371333  87.8902632  16.3939738  27.8984974
  88.1989758  16.1488884  28.7707674  88.6878114  16.5986376  27.4103844
  87.9123244  18.5477647  20.1290351  87.4728234  18.0554026  20.8223207
  88.6631361  18.0050615  19.8882426  80.3915583  14.7389188  20.1314979
  81.2173603  14.4392960  19.7513622  80.0409635  13.9696810  20.5804767
  85.3597116  14.0915656  22.2012652  84.7377125  13.4286361  21.9014880
  86.0301983  14.1176788  21.5186300  78.5924188  12.6575514  21.0903912
  77.7556096  12.2297689  20.9087913  78.5647833  12.8507958  22.0274703
  95.9176489  13.1138568  31.0746295  95.1272033  13.0962706  30.5350795
  95.6809844  13.6526861  31.8295332  96.0374364   9.9631034  28.3879024
  96.0872369   9.7981041  29.3294547  95.9288288   9.0958293  27.9976905
  84.9210623  12.6419580  15.6771113  85.0698743  13.3255044  15.0237786
  85.7277066  12.6224670  16.1920569  97.5392561  12.3827975  28.6321045
  97.2477369  12.7457956  29.4684506  96.9264692  11.6694984  28.4534377
  82.6763256   8.6684757  16.6832182  82.4309298   7.7647087  16.8812392
  82.8459171   8.6701908  15.7411660  88.4206029  15.1367710  13.1482860
  87.8479996  15.7557897  12.6953332  88.9938822  15.6867072  13.6822782
  91.6403288  15.4204860  14.2791442  92.5733961  15.3550422  14.4824318
  91.5526501  16.2561127  13.8205975  88.6891520  10.5246269  31.9499570
  89.6094529  10.7024868  32.1439616  88.6541103   9.5802314  31.7979269
  77.9073685   5.7184863  20.8752844  77.5876469   4.8650171  20.5827218
  77.3607113   5.9333441  21.6310812  81.6853592   8.4347304  24.5922351
  81.9039602   9.3664411  24.6110385  82.0979366   8.0755278  25.3777155
  77.7761945   9.3387774  22.8445966  77.0825416   8.9241727  22.3315920
  78.5234936   9.3808311  22.2479385  86.4212727   7.4377648  32.7990161
  85.9379809   8.2378008  33.0054050  86.5073667   7.4485593  31.8457605
  79.6898687   9.2706028  20.7211981  79.6669375   9.3693715  19.7693864
  79.9999324  10.1171179  21.0429147  82.3486065  11.3282183  24.8358595
  83.3029319  11.2966125  24.7688527  82.1498589  10.8672807  25.6508821
  82.9385447   9.8983299  27.4029393  83.7578336  10.3927378  27.4264230
  83.2122255   8.9815267  27.3746960  80.7036294  16.8701802  21.8528793
  80.5690762  16.1102203  21.2866791  80.2868356  17.5942702  21.3857582
  83.8605420  17.7671119  22.0647236  83.7437804  18.7116552  21.9625926
  83.0397866  17.4644681  22.4533035  78.1920361   4.2321433  28.1021590
  78.8379225   3.7220387  28.5908815  77.9837512   4.9690114  28.6765015
  90.7173754  11.3002280  33.6013730  91.5864913  11.4742933  33.2400365
  90.2380505  12.1196697  33.4789460  84.8859934  18.4199381  25.2803164
  85.7887180  18.4522992  25.5969659  84.6597304  17.4899832  25.2949500
  86.6413536  17.1730368  21.9413243  85.6909167  17.1732229  21.8277615
  86.9446022  16.4263102  21.4249277 102.3766229  23.0090906  23.0059005
 103.0144639  22.8897654  22.3022345 102.2587072  23.9571750  23.0646957
  99.1855936  22.9618334  22.9420530  98.8474447  22.8459399  22.0541065
 100.0545704  22.5609499  22.9221536  95.0442751  24.8153811  18.9317421
  94.4807616  24.7243748  18.1633709  94.9295146  23.9953715  19.4119913
  99.6675719  24.1153186  28.9006735  99.6564359  23.7205984  28.0287239
  99.8296358  23.3819259  29.4940507  92.5907183  26.3105002  21.7701641
  93.3828475  25.9695827  21.3547941  92.8303833  26.4199977  22.6903795
 100.6242310  28.4824778  14.2431886  99.9730290  29.0678859  13.8565900
 101.4186673  29.0130973  14.3026923  94.5497937  25.5713916  14.6419020
  95.3228813  25.0242903  14.5031896  94.9023336  26.4358165  14.8533481
  96.3882980  26.8990298  27.8485919  96.0972846  27.8035929  27.7332586
  97.0239964  26.9406825  28.5629989  97.3139187  24.2767146  24.4387279
  97.9102759  24.0523169  23.7244242  97.3714158  23.5351892  25.0412727
 101.9307498  20.7342360  20.0812213 102.7170587  20.3161783  19.7302630
 102.1946202  21.6388452  20.2493862  96.6060504  23.6334688  14.4761845
  96.4896762  22.9579591  15.1442929  96.7162764  23.1467062  13.6593998
  98.9492045  23.0944835  18.1808534  98.5850252  22.5675456  18.8921456
  99.8059161  22.7043304  18.0075020 104.8541345  14.3839167  25.4439800
 104.5224670  15.2534578  25.2201015 104.2586959  14.0675451  26.1233831
 101.3472865  26.5851713  24.8435713 101.0473588  27.4876752  24.7351520
 101.0023924  26.3183897  25.6956866  94.7985346  23.0365510  20.8772417
  93.8735843  22.9041724  21.0850109  95.0469759  23.8159729  21.3742360
 104.7470009  19.1034254  22.5233150 103.8386886  19.0349662  22.2291911
 104.6957604  19.5806198  23.3514976  92.1594157  22.6798784  21.7116207
  92.2886538  22.9333263  22.6255618  91.4791609  23.2726492  21.3920862
  96.3293645  33.3496034  17.8106681  96.2517674  34.3003859  17.8895161
  95.7255288  33.0041906  18.4681607  98.8210874  20.5223899  30.4668048
  98.0444208  21.0817819  30.4570912  99.4601437  21.0080682  30.9882918
 106.6131655  17.3050692  24.3011024 105.9706035  17.5983225  23.6550819
 106.1086583  17.1903612  25.1064221  97.0757247  23.3309352  30.0286015
  97.8171931  23.8694396  29.7520838  96.3694232  23.9575641  30.1857566
 102.5512586  25.4738493  28.6258176 102.9595942  25.0320903  27.8812809
 101.8289848  24.8991120  28.8792369  98.9043656  20.4111100  25.9991733
  99.7504852  20.8350513  26.1426382  98.8442294  19.7544724  26.6930296
 102.8741401  26.0339684  22.3810465 102.2450263  26.1985398  21.6786533
 102.4867063  26.4481293  23.1521429 106.7530633  26.9694121  19.7354829
 106.0681671  27.3493023  19.1851862 106.8374482  27.5789448  20.4686777
 102.0543102  18.0715468  27.6572907 101.8104034  18.8257529  27.1207182
 102.3303032  18.4500816  28.4920154 104.0081564  24.6154080  26.3350172
 104.2198460  25.2585840  25.6584553 103.9611313  23.7816397  25.8672102
 101.6107793  17.2271901  23.2386744 100.7492272  17.5253155  23.5303482
 101.6370228  17.4442300  22.3067777  98.4269363  25.7714092  19.6460550
  98.8907708  26.0501795  18.8565173  98.1626161  24.8697536  19.4633641
  95.3193444  25.3185573  22.5840313  95.8894801  25.7472842  21.9457798
  95.9101556  25.0368158  23.2824499  97.3638249  21.8937244  16.4550115
  98.0662292  22.3458288  16.9224042  97.0318877  21.2521063  17.0830008
  95.8118610  20.4849001  30.8301325  95.1817271  21.1665282  31.0636721
  95.7054698  20.3732082  29.8854463  91.1063583  20.1520797  21.7567249
  90.3162637  20.4078325  21.2807359  91.5974830  20.9669135  21.8619289
 105.1227392  27.4926036  24.5072530 105.9444836  27.0906223  24.2255211
 105.1189795  27.3894270  25.4588645  93.0578328  20.5165376  18.7150726
  92.2609491  20.6284070  19.2334221  92.8303920  20.8552028  17.8491616
  98.8883996  27.0410079  26.6633240  98.9528428  27.5030486  27.4991412
  98.1794920  26.4107444  26.7915550  89.3901286  20.4051287  24.1882240
  89.6409324  21.2898297  24.4539816  89.9260834  20.2255889  23.4157331
  98.6032013  28.7078187  16.5312220  98.4677688  29.5529722  16.9597068
  99.1441826  28.9097464  15.7678154  95.0899353  14.7869767  33.1926576
  94.6966299  14.2335965  33.8674220  95.9065493  15.0980345  33.5833093
  92.0561411  26.2253625  17.1040146  92.5685931  27.0196875  17.2545710
  92.7084124  25.5279915  17.0373747  93.8656296  29.3419381  19.1862899
  94.0422924  30.2637346  18.9983883  94.6613129  29.0277800  19.6157279
  98.0067314  16.2027646  30.7846832  98.7477027  16.8034799  30.7051295
  98.2385237  15.4605283  30.2264875  93.1508652  21.3884013  29.0625062
  93.0362167  20.4869270  29.3632161  92.2953170  21.6347710  28.7109878
 100.2300490  29.3301753  30.6612563  99.7864344  28.5438132  30.3433467
 100.8917703  29.5180904  29.9956453  94.9887611  30.8597555  25.1873241
  95.5395036  30.7314618  24.4150235  94.1499087  31.1592444  24.8368134
 102.3281728  29.6104553  28.6893964 102.3100203  30.4313434  28.1974233
 103.2501648  29.4858628  28.9144105  98.7854782  27.1248683  29.5317472
  99.3183119  26.3636971  29.3016780  98.2568863  26.8322334  30.2741627
 101.9524477  12.2308749  25.0611114 101.6088746  13.1210390  24.9850225
 102.3203440  12.0410406  24.1980699  90.0210328  24.5542279  17.8799716
  90.8585550  24.9639287  17.6633424  90.1988595  23.6141721  17.8499910
 101.0321017  14.6013404  23.0260347 100.5285813  14.5643539  22.2128152
 101.3251624  15.5106146  23.0857004  97.2763903  14.6852133  22.0326529
  98.1416900  14.4894942  21.6732418  97.3441412  14.4562485  22.9595886
 100.1507495  26.2534675  17.0436284  99.6228856  25.5187435  16.7309522
  99.6494997  27.0309351  16.7976253 105.1300341  24.4483696  22.1603331
 104.4724015  25.1382957  22.2483459 105.9340740  24.8380127  22.5037317
  94.8826222  16.9154341  19.4042896  95.4569974  16.6929523  18.6716089
  95.4697205  16.9843036  20.1571497 103.9405800  22.8028068  20.2107272
 104.4537681  23.4358060  20.7128982 104.5907023  22.2029264  19.8450632
 101.2028174  32.7812393  12.9667943 100.5289873  33.0844089  13.5752901
 101.5893996  33.5841473  12.6173400 100.4186630  20.2777524  22.4565613
  99.5009192  20.4992471  22.2987301 100.8346774  20.3523834  21.5977320
 104.7067596  27.7834070  18.3386415 104.2529923  26.9424980  18.3951605
 104.0761563  28.4195468  18.6761195 103.1500535  29.6210566  19.2736233
 103.4423509  30.1815623  18.5548599 103.6599156  29.9139127  20.0289392
  90.0436499  21.8932994  18.5510450  89.8460899  21.3002355  17.8261516
  89.4883163  21.5885205  19.2686388  98.0233222  21.7856101  20.6705043
  98.0781832  20.8329937  20.5947519  97.2124424  21.9415540  21.1546341
  95.9625582  20.4033161  18.4295422  95.1493448  20.7027331  18.8360614
  96.4584577  20.0088849  19.1469904  98.1134160  30.3990917  20.3629686
  98.0710339  30.6251764  19.4338218  99.0296859  30.1654292  20.5115487
 101.5599794  20.8674985  27.2610315 101.9149182  21.0946458  28.1204781
 102.2071925  21.1993362  26.6387571  95.4539657  17.9751516  24.0456657
  96.0939036  17.8340275  23.3479620  94.6217188  17.6886029  23.6695259
 107.3166911  26.0569948  22.9770916 107.7503417  25.9645237  23.8253970
 108.0298491  26.0327448  22.3390932  96.2299961  27.2753946  20.1591649
  97.0240560  26.7804267  19.9574224  95.5191653  26.7471810  19.7959355
 101.0494805  29.6572042  24.5104017 101.1031828  30.2262978  25.2781732
 100.1809587  29.8273927  24.1458054  92.5382724  21.4197028  16.2351402
  91.6080313  21.3581484  16.4521364  92.6340196  20.8972981  15.4388043
  92.4568274  17.9451841  18.8229643  92.7175091  18.8597174  18.7138804
  93.2785446  17.4776284  18.9726256  93.9293199  19.3589598  25.9928468
  94.6016252  19.1506960  25.3441117  93.1022985  19.1611684  25.5533700
 108.1782460  26.0993649  25.5103801 108.3718350  27.0039459  25.7563076
 108.0783078  25.6401068  26.3442386  99.8318771  15.9851539  28.0094129
  99.1846686  16.6841489  27.9158605 100.6019786  16.4187683  28.3770377
 103.2397569  26.2500391  31.0844682 103.0883075  26.0210943  30.1674766
 103.2302248  27.2070993  31.0976027 100.0082905  23.8232304  26.0690948
 100.9374965  23.9743464  25.8959916  99.5873935  23.9116325  25.2139595
  98.8071237  27.8482968  23.8389486  98.6682323  27.4801753  24.7115424
  98.0185833  28.3630608  23.6673444  99.4019389  32.9492065  15.1815023
  99.5771145  32.4780108  15.9960645  98.7152177  33.5757831  15.4096283
 100.3576452  27.2264571  21.2278324 100.0226285  27.1865341  22.1235974
  99.8580398  26.5609287  20.7548734  94.3320696  22.6332201  26.7530905
  94.1940494  21.9012440  27.3542444  95.2425620  22.5441101  26.4715093
  96.9602997  22.3452161  26.2414585  97.6702615  21.7045353  26.2001203
  96.9172305  22.5965055  27.1640765 104.9489775  29.2819514  29.1621164
 104.8902322  28.5978734  28.4951747 105.3509294  30.0238504  28.7101790
  95.6731931  19.3317378  28.0610224  95.1369288  18.8808117  28.7131820
  95.0848639  19.4663287  27.3180688  93.9680474  36.0981428  21.9554883
  94.2077072  36.7299952  22.6333901  93.1249671  35.7469468  22.2420242
 104.9507183  27.2459098  27.3935144 104.0633961  26.9085020  27.5161542
 105.5205734  26.5142129  27.6303909  86.6036330  23.5783190  20.7178195
  87.2907370  23.2644920  20.1299210  86.4484459  24.4824554  20.4445446
  91.4071052  18.4673386  25.1463219  91.3229241  17.8599056  24.4113629
  90.5853758  18.9582404  25.1472715  98.4808336  31.9060550  24.3596387
  98.4078508  32.7115522  24.8715691  98.0385729  32.1052516  23.5344408
  98.2698116  31.1432320  17.8699208  97.4865638  31.6854000  17.9637433
  98.9690861  31.6606300  18.2693449 100.9407020  31.8047384  26.5154545
 101.6534992  32.4394849  26.4430447 100.4497048  31.9011250  25.6994547
 102.6624547  25.7098637  18.0871837 101.7280825  25.8300099  17.9176541
 102.8401215  24.8071104  17.8231847  98.1629735  19.0944333  20.2405098
  97.7927522  18.5415373  20.9286004  98.6588827  18.4902466  19.6880098
  95.9918933  29.5541828  27.3360116  96.6928393  30.1878311  27.4889510
  95.5214048  29.8956559  26.5755755 103.7920219  22.1086435  25.1612667
 103.1391669  22.3562343  24.5065119 104.1700599  21.2950573  24.8275144
 100.7527393  32.1446128  19.2640837 100.9349788  31.3267784  19.7268589
 101.5760379  32.3613821  18.8265727 101.0869559  31.0714313  16.5255885
 101.6157325  30.5606768  15.9126047 101.3497778  30.7556844  17.3901418
  99.8407792  22.8506246  31.6478704  99.1648429  22.7500375  32.3181079
 100.6635426  22.6945460  32.1114701  91.5886651  29.0878183  24.2691219
  92.1740088  28.3421871  24.4019123  91.3911490  29.3982139  25.1527883
  94.4425306  32.1229430  19.2853661  93.7735682  32.6075558  18.8017701
  94.3038176  32.3698651  20.1997040  86.1804306  21.6583783  22.9895662
  86.2188405  21.1247374  23.7832780  85.6744599  21.1318988  22.3706639
  98.5830575  34.1573174  25.8836320  99.1348883  34.3204795  26.6485405
  98.9236769  34.7477611  25.2116344  93.5595068  16.5048323  26.4858204
  93.6236395  17.3663154  26.0735602  93.4962189  15.8922325  25.7530563
  93.0347341  18.5771456  30.1331239  93.6619380  18.1948533  30.7468763
  92.1775260  18.3585658  30.4986931 103.4341449  28.9834431  31.7384974
 103.9781353  29.5964389  31.2439929 102.8528294  29.5414010  32.2551987
  89.8112884  20.3847885  16.0649593  90.1066325  19.4758563  16.0116647
  88.9100919  20.3635625  15.7430596 101.7198962  32.1055149  22.8700002
 101.5950102  31.3044889  22.3610947 102.3778053  32.6001342  22.3813972
  93.3407131  18.4603882  22.0477142  92.6193716  19.0739849  21.9084615
  94.1300386  18.9961646  21.9693788 103.7833871  29.9064169  24.4979552
 102.8364206  29.7869520  24.4257879 104.1316644  29.0186667  24.5805813
  96.1433444  15.7958308  28.3217794  96.6667846  16.0420605  29.0844103
  95.9245777  16.6278343  27.9020931  91.5400725  18.0661983  16.1888919
  91.2113431  17.1859362  16.0064025  91.8940096  18.0109651  17.0765308
 100.7880304  29.7016885  20.6983904 100.6405266  28.7733593  20.8791474
 101.6133798  29.7236976  20.2140979  94.6542548  18.3534953  16.5564396
  94.9938621  18.8820874  15.8343005  95.1014669  18.6915359  17.3322963
 104.3914426  30.5245444  21.7848777 105.3160973  30.3188305  21.6473228
 104.2229729  30.2761845  22.6938118  97.3485989  16.7372003  26.0067464
  97.0082809  15.9379816  26.4088144  96.6424995  17.0373714  25.4344298
  98.0002461  13.8221316  24.4594787  98.8228530  13.3481794  24.3373678
  98.2440524  14.6011799  24.9593474  95.5241040  20.5140436  22.2686766
  95.3785620  20.8280739  23.1611047  95.0466243  21.1325337  21.7157665
  97.3837423  17.5042984  22.3167656  97.3698991  16.6084078  21.9799953
  98.1009851  17.5113648  22.9505942  99.2363553  17.9380324  24.3620783
  98.9781331  18.8597395  24.3605113  98.7048594  17.5410759  25.0521247
 104.1809742  31.0431112  17.1410868 104.3546620  30.4777534  16.3884721
 104.6738633  31.8432006  16.9590358  89.9986702  23.0545781  25.2074427
  89.4540170  23.8305589  25.3394701  90.8766052  23.4016585  25.0493549
  96.7874319  16.3857365  17.5855226  96.9090230  15.4574011  17.7846113
  96.4976361  16.3996051  16.6733541  90.7852724  22.1815677  28.1004584
  90.0434460  22.3298312  28.6869214  90.4645468  22.4423943  27.2371333
  98.7296386  31.7231655  27.8984974  99.0383513  31.4780802  28.7707674
  99.5271868  31.9278294  27.4103844  98.7516998  33.8769565  20.1290351
  98.3121989  33.3845944  20.8223207  99.5025115  33.3342532  19.8882426
  91.2309337  30.0681106  20.1314979  92.0567357  29.7684878  19.7513622
  90.8803389  29.2988728  20.5804767  96.1990871  29.4207574  22.2012652
  95.5770880  28.7578279  21.9014880  96.8695737  29.4468706  21.5186300
  89.4317942  27.9867432  21.0903912  88.5949851  27.5589606  20.9087913
  89.4041588  28.1799875  22.0274703  96.2715398  17.8989362  31.7945158
  96.3203554  18.7751485  31.4122928  96.8137912  17.3566755  31.2216801
 106.7570244  28.4430485  31.0746295 105.9665787  28.4254624  30.5350795
 106.5203598  28.9818779  31.8295332 106.8768119  25.2922952  28.3879024
 106.9266124  25.1272959  29.3294547 106.7682042  24.4250211  27.9976905
  95.7604377  27.9711497  15.6771113  95.9092498  28.6546962  15.0237786
  96.5670821  27.9516587  16.1920569 104.1671881  21.2753880  29.7038331
 105.0681744  21.1360344  29.4122328 104.2419856  21.4408334  30.6436508
  98.5014686  18.6520734  28.5491517  97.6317996  18.9454300  28.2774105
  98.7374167  19.2361179  29.2698781 108.3786316  27.7119893  28.6321045
 108.0871124  28.0749874  29.4684506 107.7658447  26.9986901  28.4534377
 106.6273504  22.8352508  27.1001103 107.1027625  23.0280154  26.2919955
 105.7039069  22.8911694  26.8544487  93.5157010  23.9976675  16.6832182
  93.2703052  23.0939005  16.8812392  93.6852925  23.9993825  15.7411660
 101.2053720  14.8700351  26.0656937 101.7235664  15.6061378  25.7403426
 100.8508853  15.1764345  26.9003696  92.7852658  19.7305032  14.1818343
  92.0921903  19.8049387  13.5258379  92.5404410  18.9665376  14.7039860
  99.2599783  30.4659628  13.1482860  98.6873750  31.0849815  12.6953332
  99.8332577  31.0158989  13.6822782 105.3275173  19.7118268  25.3329409
 106.2792596  19.8116365  25.3541633 105.1578623  18.9196536  25.8427493
 103.3489552  16.7973851  25.5188810 102.7539484  17.0778864  24.8235299
 103.0639249  17.2867752  26.2905551 102.4797043  30.7496778  14.2791442
 103.4127716  30.6842340  14.4824318 102.3920256  31.5853045  13.8205975
 107.8063251  22.9324387  24.4471709 107.7739571  21.9940388  24.6331392
 108.4163874  23.0108424  23.7137534  99.5285274  25.8538187  31.9499570
 100.4488283  26.0316786  32.1439616  99.4934857  24.9094232  31.7979269
  88.7467439  21.0476780  20.8752844  88.4270223  20.1942088  20.5827218
  88.2000867  21.2625358  21.6310812  92.5247347  23.7639221  24.5922351
  92.7433356  24.6956329  24.6110385  92.9373120  23.4047196  25.3777155
  97.3975212  19.3372427  33.9825100  97.2971939  20.2866784  33.9137191
  97.1796754  19.0090666  33.1101170  88.6155699  24.6679692  22.8445966
  87.9219170  24.2533645  22.3315920  89.3628690  24.7100228  22.2479385
  97.2606482  22.7669566  32.7990161  96.7773564  23.5669926  33.0054050
  97.3467421  22.7777511  31.8457605  90.5292442  24.5997946  20.7211981
  90.5063130  24.6985633  19.7693864  90.8393078  25.4463096  21.0429147
  93.1879819  26.6574101  24.8358595  94.1423073  26.6258043  24.7688527
  92.9892343  26.1964724  25.6508821  93.7779202  25.2275217  27.4029393
  94.5972091  25.7219295  27.4264230  94.0516009  24.3107185  27.3746960
  91.5430048  32.1993720  21.8528793  91.4084516  31.4394121  21.2866791
  91.1262110  32.9234620  21.3857582  94.6999174  33.0963037  22.0647236
  94.5831558  34.0408470  21.9625926  93.8791620  32.7936599  22.4533035
  89.0314116  19.5613350  28.1021590  89.6772979  19.0512304  28.5908815
  88.8231267  20.2982032  28.6765015 101.5567508  26.6294198  33.6013730
 102.4258668  26.8034850  33.2400365 101.0774259  27.4488615  33.4789460
  95.7253688  33.7491299  25.2803164  96.6280935  33.7814909  25.5969659
  95.4991058  32.8191750  25.2949500  97.4807290  32.5022285  21.9413243
  96.5302921  32.5024147  21.8277615  97.7839776  31.7555020  21.4249277
  93.3711607  16.7080968  32.1996604  94.2343068  16.3517772  32.4099929
  92.7977017  16.3694862  32.8872008 113.2159984  38.3382824  23.0059005
 113.8538394  38.2189571  22.3022345 113.0980827  39.2863668  23.0646957
 110.0249690  38.2910252  22.9420530 109.6868202  38.1751317  22.0541065
 110.8939458  37.8901417  22.9221536 105.8836506  40.1445728  18.9317421
 105.3201371  40.0535665  18.1633709 105.7688901  39.3245633  19.4119913
 110.5069473  39.4445104  28.9006735 110.4958114  39.0497902  28.0287239
 110.6690112  38.7111176  29.4940507 103.4300938  41.6396920  21.7701641
 104.2222230  41.2987745  21.3547941 103.6697588  41.7491895  22.6903795
 111.4636064  43.8116696  14.2431886 110.8124044  44.3970777  13.8565900
 112.2580427  44.3422891  14.3026923 105.3891692  40.9005833  14.6419020
 106.1622568  40.3534820  14.5031896 105.7417090  41.7650083  14.8533481
 107.2276734  42.2282216  27.8485919 106.9366600  43.1327846  27.7332586
 107.8633719  42.2698743  28.5629989 108.1532941  39.6059064  24.4387279
 108.7496513  39.3815086  23.7244242 108.2107913  38.8643810  25.0412727
 112.7701252  36.0634278  20.0812213 113.5564341  35.6453701  19.7302630
 113.0339957  36.9680370  20.2493862 107.4454258  38.9626605  14.4761845
 107.3290516  38.2871509  15.1442929 107.5556518  38.4758979  13.6593998
 109.7885799  38.4236752  18.1808534 109.4244006  37.8967373  18.8921456
 110.6452915  38.0335221  18.0075020 115.6935100  29.7131085  25.4439800
 115.3618424  30.5826496  25.2201015 115.0980713  29.3967369  26.1233831
 112.1866619  41.9143631  24.8435713 111.8867342  42.8168670  24.7351520
 111.8417679  41.6475814  25.6956866 105.6379101  38.3657428  20.8772417
 104.7129597  38.2333642  21.0850109 105.8863514  39.1451647  21.3742360
 115.5863763  34.4326171  22.5233150 114.6780640  34.3641580  22.2291911
 115.5351359  34.9098116  23.3514976 102.9987912  38.0090701  21.7116207
 103.1280293  38.2625180  22.6255618 102.3185363  38.6018409  21.3920862
 107.1687399  48.6787951  17.8106681 107.0911429  49.6295776  17.8895161
 106.5649043  48.3333824  18.4681607 109.6604629  35.8515817  30.4668048
 108.8837963  36.4109737  30.4570912 110.2995192  36.3372600  30.9882918
 117.4525409  32.6342610  24.3011024 116.8099790  32.9275143  23.6550819
 116.9480338  32.5195530  25.1064221 107.9151001  38.6601270  30.0286015
 108.6565685  39.1986314  29.7520838 107.2087987  39.2867559  30.1857566
 113.3906341  40.8030411  28.6258176 113.7989697  40.3612821  27.8812809
 112.6683602  40.2283038  28.8792369 109.7437411  35.7403017  25.9991733
 110.5898606  36.1642431  26.1426382 109.6836048  35.0836642  26.6930296
 113.7135155  41.3631601  22.3810465 113.0844018  41.5277315  21.6786533
 113.3260817  41.7773211  23.1521429 117.5924387  42.2986039  19.7354829
 116.9075425  42.6784940  19.1851862 117.6768237  42.9081366  20.4686777
 112.8936856  33.4007386  27.6572907 112.6497788  34.1549446  27.1207182
 113.1696787  33.7792733  28.4920154 114.8475319  39.9445998  26.3350172
 115.0592214  40.5877758  25.6584553 114.8005067  39.1108315  25.8672102
 112.4501548  32.5563819  23.2386744 111.5886027  32.8545072  23.5303482
 112.4763983  32.7734218  22.3067777 109.2663117  41.1006009  19.6460550
 109.7301463  41.3793712  18.8565173 109.0019915  40.1989454  19.4633641
 106.1587198  40.6477491  22.5840313 106.7288555  41.0764759  21.9457798
 106.7495310  40.3660076  23.2824499 108.2032003  37.2229162  16.4550115
 108.9056047  37.6750205  16.9224042 107.8712632  36.5812981  17.0830008
 106.6512365  35.8140918  30.8301325 106.0211025  36.4957199  31.0636721
 106.5448453  35.7024000  29.8854463 101.9457337  35.4812714  21.7567249
 101.1556391  35.7370243  21.2807359 102.4368585  36.2961052  21.8619289
 115.9621147  42.8217954  24.5072530 116.7838591  42.4198141  24.2255211
 115.9583550  42.7186188  25.4588645 103.8972083  35.8457294  18.7150726
 103.1003246  35.9575988  19.2334221 103.6697675  36.1843946  17.8491616
 109.7277750  42.3701997  26.6633240 109.7922183  42.8322404  27.4991412
 109.0188674  41.7399362  26.7915550 100.2295040  35.7343205  24.1882240
 100.4803079  36.6190215  24.4539816 100.7654589  35.5547806  23.4157331
 109.4425768  44.0370104  16.5312220 109.3071443  44.8821640  16.9597068
 109.9835580  44.2389382  15.7678154 105.9293108  30.1161684  33.1926576
 105.5360053  29.5627883  33.8674220 106.7459248  30.4272263  33.5833093
 102.8955165  41.5545542  17.1040146 103.4079686  42.3488793  17.2545710
 103.5477878  40.8571833  17.0373747 104.7050050  44.6711299  19.1862899
 104.8816678  45.5929263  18.9983883 105.5006884  44.3569718  19.6157279
 108.8461069  31.5319563  30.7846832 109.5870782  32.1326716  30.7051295
 109.0778991  30.7897201  30.2264875 103.9902407  36.7175931  29.0625062
 103.8755922  35.8161188  29.3632161 103.1346924  36.9639627  28.7109878
 111.0694244  44.6593671  30.6612563 110.6258099  43.8730049  30.3433467
 111.7311458  44.8472821  29.9956453 105.8281366  46.1889472  25.1873241
 106.3788791  46.0606536  24.4150235 104.9892841  46.4884361  24.8368134
 113.1675482  44.9396471  28.6893964 113.1493958  45.7605352  28.1974233
 114.0895402  44.8150546  28.9144105 109.6248537  42.4540600  29.5317472
 110.1576873  41.6928888  29.3016780 109.0962618  42.1614252  30.2741627
 112.7918232  27.5600666  25.0611114 112.4482501  28.4502308  24.9850225
 113.1597194  27.3702324  24.1980699 100.8604082  39.8834197  17.8799716
 101.6979304  40.2931205  17.6633424 101.0382350  38.9433639  17.8499910
 111.8714772  29.9305321  23.0260347 111.3679567  29.8935457  22.2128152
 112.1645379  30.8398064  23.0857004 108.1157658  30.0144051  22.0326529
 108.9810655  29.8186860  21.6732418 108.1835167  29.7854403  22.9595886
 110.9901249  41.5826593  17.0436284 110.4622611  40.8479352  16.7309522
 110.4888752  42.3601269  16.7976253 115.9694095  39.7775613  22.1603331
 115.3117770  40.4674875  22.2483459 116.7734494  40.1672045  22.5037317
 105.7219977  32.2446259  19.4042896 106.2963729  32.0221441  18.6716089
 106.3090959  32.3134954  20.1571497 114.7799554  38.1319986  20.2107272
 115.2931436  38.7649978  20.7128982 115.4300778  37.5321181  19.8450632
 112.0421928  48.1104310  12.9667943 111.3683627  48.4136007  13.5752901
 112.4287750  48.9133391  12.6173400 111.2580385  35.6069441  22.4565613
 110.3402946  35.8284388  22.2987301 111.6740529  35.6815752  21.5977320
 115.5461350  43.1125987  18.3386415 115.0923677  42.2716897  18.3951605
 114.9155317  43.7487386  18.6761195 113.9894290  44.9502484  19.2736233
 114.2817264  45.5107541  18.5548599 114.4992910  45.2431045  20.0289392
 100.8830253  37.2224912  18.5510450 100.6854653  36.6294273  17.8261516
 100.3276917  36.9177122  19.2686388 108.8626977  37.1148018  20.6705043
 108.9175587  36.1621855  20.5947519 108.0518179  37.2707458  21.1546341
 106.8019337  35.7325078  18.4295422 105.9887202  36.0319249  18.8360614
 107.2978331  35.3380767  19.1469904 108.9527915  45.7282835  20.3629686
 108.9104094  45.9543681  19.4338218 109.8690614  45.4946210  20.5115487
 112.3993549  36.1966903  27.2610315 112.7542936  36.4238376  28.1204781
 113.0465680  36.5285279  26.6387571 106.2933412  33.3043434  24.0456657
 106.9332791  33.1632193  23.3479620 105.4610942  33.0177947  23.6695259
 118.1560665  41.3861866  22.9770916 118.5897172  41.2937155  23.8253970
 118.8692246  41.3619366  22.3390932 107.0693716  42.6045864  20.1591649
 107.8634314  42.1096184  19.9574224 106.3585408  42.0763727  19.7959355
 111.8888560  44.9863960  24.5104017 111.9425582  45.5554896  25.2781732
 111.0203341  45.1565845  24.1458054 103.3776479  36.7488946  16.2351402
 102.4474067  36.6873401  16.4521364 103.4733951  36.2264899  15.4388043
 103.2962028  33.2743759  18.8229643 103.5568845  34.1889092  18.7138804
 104.1179200  32.8068201  18.9726256 104.7686953  34.6881516  25.9928468
 105.4410007  34.4798878  25.3441117 103.9416740  34.4903602  25.5533700
 119.0176215  41.4285566  25.5103801 119.2112105  42.3331377  25.7563076
 118.9176833  40.9692985  26.3442386 110.6712525  31.3143457  28.0094129
 110.0240440  32.0133406  27.9158605 111.4413541  31.7479601  28.3770377
 114.0791323  41.5792309  31.0844682 113.9276830  41.3502861  30.1674766
 114.0696003  42.5362910  31.0976027 110.8476660  39.1524222  26.0690948
 111.7768720  39.3035381  25.8959916 110.4267690  39.2408243  25.2139595
 109.6464991  43.1774886  23.8389486 109.5076077  42.8093671  24.7115424
 108.8579588  43.6922526  23.6673444 110.2413143  48.2783983  15.1815023
 110.4164899  47.8072026  15.9960645 109.5545931  48.9049749  15.4096283
 111.1970207  42.5556489  21.2278324 110.8620039  42.5157259  22.1235974
 110.6974152  41.8901205  20.7548734 105.1714451  37.9624119  26.7530905
 105.0334249  37.2304358  27.3542444 106.0819374  37.8733019  26.4715093
 107.7996751  37.6744078  26.2414585 108.5096370  37.0337270  26.2001203
 107.7566059  37.9256973  27.1640765 115.7883530  44.6111432  29.1621164
 115.7296076  43.9270652  28.4951747 116.1903048  45.3530422  28.7101790
 106.5125685  34.6609296  28.0610224 105.9763042  34.2100035  28.7131820
 105.9242394  34.7955205  27.3180688 104.8074229  51.4273345  21.9554883
 105.0470827  52.0591870  22.6333901 103.9643425  51.0761385  22.2420242
 115.7900937  42.5751015  27.3935144 114.9027716  42.2376937  27.5161542
 116.3599488  41.8434047  27.6303909  97.4430084  38.9075107  20.7178195
  98.1301124  38.5936837  20.1299210  97.2878213  39.8116472  20.4445446
 102.2464806  33.7965304  25.1463219 102.1622995  33.1890973  24.4113629
 101.4247513  34.2874322  25.1472715 109.3202091  47.2352468  24.3596387
 109.2472262  48.0407439  24.8715691 108.8779484  47.4344434  23.5344408
 109.1091870  46.4724238  17.8699208 108.3259392  47.0145918  17.9637433
 109.8084615  46.9898217  18.2693449 111.7800774  47.1339302  26.5154545
 112.4928746  47.7686767  26.4430447 111.2890803  47.2303168  25.6994547
 113.5018301  41.0390555  18.0871837 112.5674580  41.1592017  17.9176541
 113.6794970  40.1363021  17.8231847 109.0023489  34.4236250  20.2405098
 108.6321277  33.8707291  20.9286004 109.4982582  33.8194384  19.6880098
 106.8312688  44.8833745  27.3360116 107.5322147  45.5170228  27.4889510
 106.3607803  45.2248477  26.5755755 114.6313974  37.4378353  25.1612667
 113.9785424  37.6854260  24.5065119 115.0094354  36.6242491  24.8275144
 111.5921148  47.4738046  19.2640837 111.7743542  46.6559702  19.7268589
 112.4154134  47.6905738  18.8265727 111.9263313  46.4006231  16.5255885
 112.4551079  45.8898686  15.9126047 112.1891533  46.0848761  17.3901418
 110.6801547  38.1798164  31.6478704 110.0042184  38.0792293  32.3181079
 111.5029181  38.0237378  32.1114701 102.4280406  44.4170100  24.2691219
 103.0133843  43.6713788  24.4019123 102.2305244  44.7274057  25.1527883
 105.2819061  47.4521348  19.2853661 104.6129436  47.9367475  18.8017701
 105.1431931  47.6990568  20.1997040  97.0198060  36.9875701  22.9895662
  97.0582160  36.4539291  23.7832780  96.5138353  36.4610906  22.3706639
 109.4224330  49.4865091  25.8836320 109.9742638  49.6496713  26.6485405
 109.7630523  50.0769529  25.2116344 104.3988823  31.8340241  26.4858204
 104.4630149  32.6955072  26.0735602 104.3355943  31.2214243  25.7530563
 103.8741095  33.9063374  30.1331239 104.5013134  33.5240451  30.7468763
 103.0169014  33.6877576  30.4986931 114.2735204  44.3126349  31.7384974
 114.8175108  44.9256307  31.2439929 113.6922049  44.8705927  32.2551987
 100.6506638  35.7139803  16.0649593 100.9460079  34.8050481  16.0116647
  99.7494674  35.6927542  15.7430596 112.5592717  47.4347067  22.8700002
 112.4343856  46.6336807  22.3610947 113.2171808  47.9293260  22.3813972
 104.1800885  33.7895799  22.0477142 103.4587471  34.4031767  21.9084615
 104.9694141  34.3253564  21.9693788 114.6227625  45.2356087  24.4979552
 113.6757961  45.1161438  24.4257879 114.9710398  44.3478585  24.5805813
 106.9827199  31.1250226  28.3217794 107.5061600  31.3712522  29.0844103
 106.7639532  31.9570261  27.9020931 102.3794480  33.3953900  16.1888919
 102.0507186  32.5151279  16.0064025 102.7333850  33.3401569  17.0765308
 111.6274059  45.0308803  20.6983904 111.4799021  44.1025511  20.8791474
 112.4527552  45.0528894  20.2140979 105.4936303  33.6826870  16.5564396
 105.8332375  34.2112791  15.8343005 105.9408423  34.0207276  17.3322963
 115.2308180  45.8537362  21.7848777 116.1554728  45.6480223  21.6473228
 115.0623484  45.6053763  22.6938118 108.1879744  32.0663921  26.0067464
 107.8476564  31.2671734  26.4088144 107.4818750  32.3665632  25.4344298
 108.8396215  29.1513233  24.4594787 109.6622285  28.6773712  24.3373678
 109.0834279  29.9303717  24.9593474 106.3634794  35.8432354  22.2686766
 106.2179375  36.1572657  23.1611047 105.8859998  36.4617254  21.7157665
 108.2231177  32.8334902  22.3167656 108.2092746  31.9375995  21.9799953
 108.9403605  32.8405566  22.9505942 110.0757308  33.2672242  24.3620783
 109.8175086  34.1889313  24.3605113 109.5442348  32.8702677  25.0521247
 115.0203497  46.3723029  17.1410868 115.1940374  45.8069452  16.3884721
 115.5132388  47.1723924  16.9590358 100.8380456  38.3837698  25.2074427
 100.2933924  39.1597506  25.3394701 101.7159806  38.7308503  25.0493549
 107.6268073  31.7149282  17.5855226 107.7483984  30.7865928  17.7846113
 107.3370115  31.7287968  16.6733541 101.6246478  37.5107595  28.1004584
 100.8828214  37.6590230  28.6869214 101.3039223  37.7715860  27.2371333
 109.5690141  47.0523573  27.8984974 109.8777267  46.8072720  28.7707674
 110.3665623  47.2570211  27.4103844 109.5910753  49.2061482  20.1290351
 109.1515743  48.7137861  20.8223207 110.3418870  48.6634450  19.8882426
 102.0703092  45.3973023  20.1314979 102.8961112  45.0976795  19.7513622
 101.7197144  44.6280646  20.5804767 107.0384625  44.7499492  22.2012652
 106.4164634  44.0870197  21.9014880 107.7089492  44.7760623  21.5186300
 100.2711697  43.3159350  21.0903912  99.4343605  42.8881524  20.9087913
 100.2435342  43.5091793  22.0274703 107.1109153  33.2281280  31.7945158
 107.1597308  34.1043402  31.4122928 107.6531667  32.6858673  31.2216801
 117.5963998  43.7722403  31.0746295 116.8059542  43.7546542  30.5350795
 117.3597353  44.3110697  31.8295332 117.7161873  40.6214869  28.3879024
 117.7659878  40.4564877  29.3294547 117.6075797  39.7542128  27.9976905
 106.5998132  43.3003415  15.6771113 106.7486252  43.9838879  15.0237786
 107.4064575  43.2808505  16.1920569 115.0065636  36.6045797  29.7038331
 115.9075498  36.4652262  29.4122328 115.0813610  36.7700252  30.6436508
 109.3408441  33.9812652  28.5491517 108.4711750  34.2746218  28.2774105
 109.5767921  34.5653097  29.2698781 119.2180070  43.0411811  28.6321045
 118.9264878  43.4041791  29.4684506 118.6052201  42.3278819  28.4534377
 117.4667258  38.1644425  27.1001103 117.9421380  38.3572072  26.2919955
 116.5432824  38.2203611  26.8544487 104.3550765  39.3268593  16.6832182
 104.1096807  38.4230923  16.8812392 104.5246679  39.3285743  15.7411660
 112.0447475  30.1992269  26.0656937 112.5629419  30.9353296  25.7403426
 111.6902608  30.5056262  26.9003696 103.6246412  35.0596950  14.1818343
 102.9315657  35.1341305  13.5258379 103.3798164  34.2957294  14.7039860
 110.0993537  45.7951545  13.1482860 109.5267505  46.4141733  12.6953332
 110.6726331  46.3450907  13.6822782 116.1668927  35.0410185  25.3329409
 117.1186350  35.1408283  25.3541633 115.9972378  34.2488454  25.8427493
 114.1883307  32.1265769  25.5188810 113.5933239  32.4070781  24.8235299
 113.9033004  32.6159670  26.2905551 113.3190797  46.0788696  14.2791442
 114.2521470  46.0134257  14.4824318 113.2314010  46.9144962  13.8205975
 118.6457005  38.2616305  24.4471709 118.6133325  37.3232306  24.6331392
 119.2557629  38.3400342  23.7137534 110.3679029  41.1830104  31.9499570
 111.2882038  41.3608703  32.1439616 110.3328612  40.2386150  31.7979269
  99.5861194  36.3768698  20.8752844  99.2663978  35.5234006  20.5827218
  99.0394622  36.5917276  21.6310812 103.3641101  39.0931139  24.5922351
 103.5827111  40.0248247  24.6110385 103.7766875  38.7339113  25.3777155
 108.2368966  34.6664345  33.9825100 108.1365693  35.6158702  33.9137191
 108.0190508  34.3382584  33.1101170  99.4549454  39.9971609  22.8445966
  98.7612925  39.5825562  22.3315920 100.2022445  40.0392146  22.2479385
 108.1000236  38.0961484  32.7990161 107.6167318  38.8961844  33.0054050
 108.1861175  38.1069428  31.8457605 101.3686196  39.9289863  20.7211981
 101.3456884  40.0277550  19.7693864 101.6786833  40.7755014  21.0429147
 104.0273574  41.9866018  24.8358595 104.9816827  41.9549961  24.7688527
 103.8286098  41.5256642  25.6508821 104.6172956  40.5567134  27.4029393
 105.4365845  41.0511213  27.4264230 104.8909764  39.6399102  27.3746960
 102.3823803  47.5285638  21.8528793 102.2478271  46.7686039  21.2866791
 101.9655865  48.2526538  21.3857582 105.5392929  48.4254955  22.0647236
 105.4225313  49.3700387  21.9625926 104.7185375  48.1228516  22.4533035
  99.8707870  34.8905268  28.1021590 100.5166734  34.3804222  28.5908815
  99.6625021  35.6273950  28.6765015 112.3961263  41.9586116  33.6013730
 113.2652422  42.1326768  33.2400365 111.9168014  42.7780532  33.4789460
 106.5647443  49.0783217  25.2803164 107.4674689  49.1106827  25.5969659
 106.3384813  48.1483668  25.2949500 108.3201045  47.8314203  21.9413243
 107.3696676  47.8316065  21.8277615 108.6233531  47.0846938  21.4249277
 104.2105361  32.0372885  32.1996604 105.0736823  31.6809690  32.4099929
 103.6370772  31.6986780  32.8872008 120.8643445  53.6202170  22.9420530
 120.5261956  53.5043234  22.0541065 121.7333213  53.2193335  22.9221536
 116.7230260  55.4737646  18.9317421 116.1595125  55.3827583  18.1633709
 116.6082655  54.6537551  19.4119913 121.3463228  54.7737021  28.9006735
 121.3351868  54.3789820  28.0287239 121.5083867  54.0403094  29.4940507
 114.2694692  56.9688838  21.7701641 115.0615984  56.6279662  21.3547941
 114.5091342  57.0783813  22.6903795 116.2285446  56.2297751  14.6419020
 117.0016322  55.6826738  14.5031896 116.5810845  57.0942000  14.8533481
 118.0670489  57.5574133  27.8485919 117.7760355  58.4619764  27.7332586
 118.7027473  57.5990661  28.5629989 118.9926696  54.9350982  24.4387279
 119.5890268  54.7107004  23.7244242 119.0501667  54.1935727  25.0412727
 118.2848013  54.2918523  14.4761845 118.1684271  53.6163426  15.1442929
 118.3950273  53.8050897  13.6593998 120.6279554  53.7528670  18.1808534
 120.2637761  53.2259291  18.8921456 121.4846669  53.3627139  18.0075020
 116.4772855  53.6949346  20.8772417 115.5523352  53.5625560  21.0850109
 116.7257268  54.4743565  21.3742360 113.8381666  53.3382619  21.7116207
 113.9674047  53.5917098  22.6255618 113.1579118  53.9310327  21.3920862
 118.0081154  64.0079869  17.8106681 117.9305183  64.9587694  17.8895161
 117.4042797  63.6625742  18.4681607 120.4998383  51.1807734  30.4668048
 119.7231717  51.7401655  30.4570912 121.1388946  51.6664517  30.9882918
 118.7544756  53.9893188  30.0286015 119.4959440  54.5278232  29.7520838
 118.0481741  54.6159477  30.1857566 120.5831165  51.0694935  25.9991733
 121.4292360  51.4934349  26.1426382 120.5229803  50.4128559  26.6930296
 120.1056872  56.4297927  19.6460550 120.5695217  56.7085630  18.8565173
 119.8413670  55.5281372  19.4633641 116.9980953  55.9769409  22.5840313
 117.5682310  56.4056677  21.9457798 117.5889065  55.6951993  23.2824499
 119.0425758  52.5521079  16.4550115 119.7449801  53.0042123  16.9224042
 118.7106386  51.9104898  17.0830008 117.4906119  51.1432836  30.8301325
 116.8604780  51.8249117  31.0636721 117.3842207  51.0315918  29.8854463
 112.7851092  50.8104632  21.7567249 111.9950146  51.0662161  21.2807359
 113.2762339  51.6252970  21.8619289 114.7365837  51.1749211  18.7150726
 113.9397000  51.2867906  19.2334221 114.5091429  51.5135864  17.8491616
 120.5671505  57.6993915  26.6633240 120.6315937  58.1614322  27.4991412
 119.8582429  57.0691279  26.7915550 111.0688795  51.0635122  24.1882240
 111.3196833  51.9482132  24.4539816 111.6048343  50.8839724  23.4157331
 120.2819522  59.3662022  16.5312220 120.1465197  60.2113558  16.9597068
 120.8229335  59.5681300  15.7678154 116.7686862  45.4453602  33.1926576
 116.3753808  44.8919800  33.8674220 117.5853002  45.7564180  33.5833093
 113.7348920  56.8837460  17.1040146 114.2473440  57.6780710  17.2545710
 114.3871633  56.1863751  17.0373747 115.5443805  60.0003216  19.1862899
 115.7210433  60.9221181  18.9983883 116.3400638  59.6861636  19.6157279
 119.6854823  46.8611481  30.7846832 120.4264536  47.4618634  30.7051295
 119.9172746  46.1189119  30.2264875 114.8296161  52.0467848  29.0625062
 114.7149676  51.1453105  29.3632161 113.9740679  52.2931545  28.7109878
 116.6675120  61.5181390  25.1873241 117.2182545  61.3898453  24.4150235
 115.8286596  61.8176279  24.8368134 120.4642291  57.7832518  29.5317472
 120.9970628  57.0220806  29.3016780 119.9356372  57.4906170  30.2741627
 111.6997837  55.2126114  17.8799716 112.5373059  55.6223123  17.6633424
 111.8776104  54.2725557  17.8499910 118.9551412  45.3435969  22.0326529
 119.8204409  45.1478777  21.6732418 119.0228921  45.1146321  22.9595886
 121.8295004  56.9118510  17.0436284 121.3016365  56.1771270  16.7309522
 121.3282506  57.6893187  16.7976253 116.5613731  47.5738177  19.4042896
 117.1357483  47.3513358  18.6716089 117.1484714  47.6426871  20.1571497
 111.7224008  52.5516830  18.5510450 111.5248408  51.9586190  17.8261516
 111.1670672  52.2469040  19.2686388 119.7020731  52.4439936  20.6705043
 119.7569341  51.4913773  20.5947519 118.8911933  52.5999375  21.1546341
 117.6413091  51.0616996  18.4295422 116.8280957  51.3611166  18.8360614
 118.1372086  50.6672685  19.1469904 119.7921669  61.0574753  20.3629686
 119.7497848  61.2835599  19.4338218 120.7084368  60.8238127  20.5115487
 117.1327166  48.6335351  24.0456657 117.7726545  48.4924111  23.3479620
 116.3004697  48.3469865  23.6695259 117.9087470  57.9337782  20.1591649
 118.7028068  57.4388102  19.9574224 117.1979162  57.4055645  19.7959355
 114.2170233  52.0780864  16.2351402 113.2867822  52.0165319  16.4521364
 114.3127705  51.5556816  15.4388043 114.1355783  48.6035676  18.8229643
 114.3962600  49.5181010  18.7138804 114.9572955  48.1360119  18.9726256
 115.6080708  50.0173434  25.9928468 116.2803761  49.8090796  25.3441117
 114.7810494  49.8195520  25.5533700 121.5106280  46.6435374  28.0094129
 120.8634195  47.3425324  27.9158605 122.2807295  47.0771518  28.3770377
 120.4858746  58.5066804  23.8389486 120.3469832  58.1385588  24.7115424
 119.6973342  59.0214443  23.6673444 121.0806898  63.6075900  15.1815023
 121.2558654  63.1363943  15.9960645 120.3939686  64.2341666  15.4096283
 122.0363961  57.8848407  21.2278324 121.7013794  57.8449176  22.1235974
 121.5367907  57.2193122  20.7548734 116.0108205  53.2916037  26.7530905
 115.8728003  52.5596275  27.3542444 116.9213129  53.2024937  26.4715093
 118.6390506  53.0035996  26.2414585 119.3490124  52.3629188  26.2001203
 118.5959814  53.2548891  27.1640765 117.3519440  49.9901214  28.0610224
 116.8156797  49.5391952  28.7131820 116.7636148  50.1247123  27.3180688
 115.6467983  66.7565263  21.9554883 115.8864581  67.3883787  22.6333901
 114.8037180  66.4053303  22.2420242 108.2823839  54.2367025  20.7178195
 108.9694879  53.9228755  20.1299210 108.1271968  55.1408390  20.4445446
 113.0858561  49.1257221  25.1463219 113.0016750  48.5182891  24.4113629
 112.2641267  49.6166240  25.1472715 120.1595845  62.5644385  24.3596387
 120.0866017  63.3699357  24.8715691 119.7173238  62.7636351  23.5344408
 119.9485625  61.8016156  17.8699208 119.1653147  62.3437836  17.9637433
 120.6478370  62.3190135  18.2693449 119.8417244  49.7528168  20.2405098
 119.4715031  49.1999208  20.9286004 120.3376336  49.1486301  19.6880098
 117.6706442  60.2125663  27.3360116 118.3715902  60.8462146  27.4889510
 117.2001557  60.5540395  26.5755755 121.5195301  53.5090081  31.6478704
 120.8435938  53.4084211  32.3181079 122.3422935  53.3529295  32.1114701
 113.2674160  59.7462018  24.2691219 113.8527597  59.0005706  24.4019123
 113.0698999  60.0565975  25.1527883 116.1212815  62.7813265  19.2853661
 115.4523191  63.2659393  18.8017701 115.9825685  63.0282486  20.1997040
 107.8591815  52.3167618  22.9895662 107.8975914  51.7831209  23.7832780
 107.3532108  51.7902824  22.3706639 120.2618084  64.8157009  25.8836320
 120.8136392  64.9788630  26.6485405 120.6024277  65.4061447  25.2116344
 115.2382577  47.1632159  26.4858204 115.3023904  48.0246990  26.0735602
 115.1749698  46.5506160  25.7530563 114.7134850  49.2355291  30.1331239
 115.3406889  48.8532369  30.7468763 113.8562769  49.0169493  30.4986931
 111.4900393  51.0431720  16.0649593 111.7853834  50.1342399  16.0116647
 110.5888428  51.0219460  15.7430596 115.0194640  49.1187717  22.0477142
 114.2981225  49.7323685  21.9084615 115.8087895  49.6545482  21.9693788
 117.8220953  46.4542143  28.3217794 118.3455355  46.7004440  29.0844103
 117.6033286  47.2862178  27.9020931 113.2188234  48.7245818  16.1888919
 112.8900940  47.8443197  16.0064025 113.5727605  48.6693487  17.0765308
 116.3330057  49.0118788  16.5564396 116.6726130  49.5404709  15.8343005
 116.7802178  49.3499194  17.3322963 119.0273498  47.3955839  26.0067464
 118.6870318  46.5963652  26.4088144 118.3212504  47.6957549  25.4344298
 119.6789970  44.4805151  24.4594787 120.5016039  44.0065629  24.3373678
 119.9228033  45.2595635  24.9593474 117.2028549  51.1724272  22.2686766
 117.0573129  51.4864575  23.1611047 116.7253752  51.7909172  21.7157665
 119.0624932  48.1626820  22.3167656 119.0486500  47.2667913  21.9799953
 119.7797360  48.1697483  22.9505942 120.9151062  48.5964160  24.3620783
 120.6568840  49.5181230  24.3605113 120.3836103  48.1994594  25.0521247
 111.6774211  53.7129616  25.2074427 111.1327679  54.4889424  25.3394701
 112.5553561  54.0600421  25.0493549 118.4661828  47.0441200  17.5855226
 118.5877739  46.1157846  17.7846113 118.1763870  47.0579886  16.6733541
 112.4640233  52.8399512  28.1004584 111.7221969  52.9882148  28.6869214
 112.1432977  53.1007778  27.2371333 120.4083895  62.3815491  27.8984974
 120.7171022  62.1364637  28.7707674 121.2059377  62.5862129  27.4103844
 120.4304507  64.5353400  20.1290351 119.9909498  64.0429779  20.8223207
 121.1812624  63.9926368  19.8882426 112.9096846  60.7264941  20.1314979
 113.7354866  60.4268713  19.7513622 112.5590898  59.9572563  20.5804767
 117.8778380  60.0791409  22.2012652 117.2558389  59.4162114  21.9014880
 118.5483246  60.1052541  21.5186300 111.1105451  58.6451267  21.0903912
 110.2737360  58.2173442  20.9087913 111.0829097  58.8383711  22.0274703
 117.9502907  48.5573197  31.7945158 117.9991063  49.4335320  31.4122928
 118.4925421  48.0150590  31.2216801 117.4391886  58.6295333  15.6771113
 117.5880007  59.3130797  15.0237786 118.2458330  58.6100423  16.1920569
 120.1802195  49.3104570  28.5491517 119.3105505  49.6038136  28.2774105
 120.4161676  49.8945015  29.2698781 115.1944519  54.6560510  16.6832182
 114.9490561  53.7522840  16.8812392 115.3640434  54.6577661  15.7411660
 114.4640167  50.3888868  14.1818343 113.7709412  50.4633223  13.5258379
 114.2191919  49.6249211  14.7039860 120.9387292  61.1243463  13.1482860
 120.3661259  61.7433650  12.6953332 121.5120086  61.6742825  13.6822782
 121.2072783  56.5122022  31.9499570 122.1275792  56.6900621  32.1439616
 121.1722366  55.5678067  31.7979269 110.4254948  51.7060616  20.8752844
 110.1057732  50.8525924  20.5827218 109.8788376  51.9209194  21.6310812
 114.2034856  54.4223057  24.5922351 114.4220865  55.3540164  24.6110385
 114.6160629  54.0631031  25.3777155 119.0762721  49.9956262  33.9825100
 118.9759448  50.9450619  33.9137191 118.8584263  49.6674501  33.1101170
 110.2943208  55.3263527  22.8445966 109.6006679  54.9117480  22.3315920
 111.0416199  55.3684064  22.2479385 118.9393991  53.4253401  32.7990161
 118.4561073  54.2253761  33.0054050 119.0254930  53.4361346  31.8457605
 112.2079951  55.2581781  20.7211981 112.1850639  55.3569468  19.7693864
 112.5180587  56.1046932  21.0429147 114.8667328  57.3157936  24.8358595
 115.8210582  57.2841878  24.7688527 114.6679852  56.8548560  25.6508821
 115.4566711  55.8859052  27.4029393 116.2759600  56.3803131  27.4264230
 115.7303518  54.9691020  27.3746960 113.2217557  62.8577555  21.8528793
 113.0872025  62.0977956  21.2866791 112.8049619  63.5818455  21.3857582
 116.3786683  63.7546872  22.0647236 116.2619067  64.6992305  21.9625926
 115.5579129  63.4520434  22.4533035 110.7101625  50.2197186  28.1021590
 111.3560488  49.7096140  28.5908815 110.5018776  50.9565867  28.6765015
 117.4041197  64.4075134  25.2803164 118.3068444  64.4398745  25.5969659
 117.1778567  63.4775585  25.2949500 119.1594799  63.1606121  21.9413243
 118.2090430  63.1607982  21.8277615 119.4627285  62.4138855  21.4249277
 115.0499116  47.3664803  32.1996604 115.9130577  47.0101608  32.4099929
 114.4764526  47.0278698  32.8872008 121.9082549  66.3927040  24.1882240
 122.1590588  67.2774050  24.4539816 122.4442098  66.2131642  23.4157331
 119.1217593  69.5658943  20.7178195 119.8088633  69.2520673  20.1299210
 118.9665722  70.4700307  20.4445446 118.6985569  67.6459536  22.9895662
 118.7369669  67.1123127  23.7832780 118.1925862  67.1194741  22.3706639
 121.9499206  73.9743185  21.0903912 121.1131114  73.5465360  20.9087913
 121.9222851  74.1675629  22.0274703 121.2648703  67.0352533  20.8752844
 120.9451487  66.1817841  20.5827218 120.7182131  67.2501111  21.6310812
 121.1336963  70.6555445  22.8445966 120.4400434  70.2409398  22.3315920
 121.8809954  70.6975981  22.2479385 121.5495379  65.5489103  28.1021590
 122.1954243  65.0388057  28.5908815 121.3412530  66.2857785  28.6765015
   4.8195833  54.4948625 100.5085658   4.0659541  53.9256023 100.3529663
   4.9543374  54.4611290 101.4556293   1.6411581  54.4651375  98.4129325
   2.0842727  53.7158700  98.0148448   0.7638091  54.4561512  98.0303057
   1.1844445  55.9356614 100.8051773   2.0191337  56.3746418 100.9689333
   1.3203574  55.4595267  99.9860019   5.2302248  54.6524235 103.2405903
   5.9605637  54.3909523 103.8013606   4.6209194  53.9152957 103.2807971
   3.3117545  52.7932098 103.8380354   2.5850709  52.6588063 103.2296845
   2.8964832  53.1008926 104.6437072   0.9295340  49.0143950 101.1913785
   1.5239831  48.7739686 100.4807094   1.0021924  48.2951080 101.8187322
   3.2366413  52.3210151  99.9657207   2.6765971  52.3903340 100.7388769
   2.6309916  52.1451135  99.2456703   4.8222431  68.9966665 102.6587162
   5.4600841  68.8773412 101.9550502   4.7043274  69.9447509 102.7175114
   1.6312138  68.9494093 102.5948687   1.2930649  68.8335157 101.7069222
   2.5001906  68.5485258 102.5749693   3.0698512  74.4700537  93.8960043
   2.4186492  75.0554617  93.5094057   3.8642875  75.0006732  93.9555080
   4.3763700  66.7218118  99.7340370   5.1626789  66.3037542  99.3830787
   4.6402404  67.6264211  99.9022019   4.5473777  72.1590969  94.4329027
   3.9119610  72.2325595  95.1449932   4.2171184  72.7484568  93.7548106
   9.7772127  66.6593352 100.6373349  10.5097299  66.0892568 100.8711178
   9.0211483  66.2714952 101.0779854   1.3948247  69.0820593  97.8336691
   1.0306454  68.5551214  98.5449613   2.2515363  68.6919062  97.6603177
   7.2997547  60.3714926 105.0967957   6.9680872  61.2410337 104.8729172
   6.7043161  60.0551210 105.7761988   1.0353734  64.1110493  92.8298040
   1.2028136  64.9790729  93.1968511   0.8450903  64.2737775  91.9059329
   3.7929067  72.5727472 104.4963870   3.4929790  73.4752511 104.3879677
   3.4480126  72.3059655 105.3485023   7.1926211  65.0910012 102.1761307
   6.2843088  65.0225420 101.8820068   7.1413806  65.5681957 103.0043133
   9.0587857  63.2926450 103.9539181   8.4162237  63.5858983 103.3078976
   8.5542786  63.1779371 104.7592378   6.7128021  67.0389623  94.6425041
   7.6245877  67.2717010  94.4672738   6.2037668  67.6226668  94.0800119
   4.9968788  71.4614251 108.2786333   5.4052144  71.0196662 107.5340966
   4.2746050  70.8866879 108.5320526   1.3499858  66.3986858 105.6519890
   2.1961054  66.8226272 105.7954539   1.2898496  65.7420482 106.3458453
   5.3197603  72.0215442 102.0338622   4.6906465  72.1861156 101.3314690
   4.9323265  72.4357052 102.8049586   9.1986835  72.9569880  99.3882986
   8.5137873  73.3368781  98.8380019   9.2830684  73.5665206 100.1214934
   4.4999304  64.0591226 107.3101064   4.2560236  64.8133287 106.7735340
   4.7759234  64.4376574 108.1448311   6.4537766  70.6029839 105.9878329
   6.6654662  71.2461599 105.3112710   6.4067515  69.7692155 105.5200259
   4.0563995  63.2147659 102.8914902   3.1948474  63.5128913 103.1831639
   4.0826430  63.4318058 101.9595934   0.8725565  71.7589850  99.2988707
   1.3363910  72.0377553  98.5093330   0.6082363  70.8573295  99.1161798
   7.5683594  73.4801794 104.1600687   8.3901038  73.0781982 103.8783368
   7.5645997  73.3770028 105.1116803  15.6589587  69.8240543 100.5085658
  14.9053296  69.2547941 100.3529663  15.7937129  69.7903207 101.4556293
   1.0488215  74.6953945  96.1840378   0.9133890  75.5405481  96.6125225
   1.5898028  74.8973223  95.4206311   4.3980679  58.2184507 104.7139271
   4.0544948  59.1086149 104.6378382   4.7659642  58.0286165 103.8508856
   4.3630962  68.2093118  93.2211706   3.8477585  68.9797723  93.4600094
   4.0908270  67.5358254  93.8444768   1.9478073  63.0542819  98.2796945
   1.0919669  62.6649669  98.1002583   2.3605025  63.1334780  97.4196730
   3.4777219  60.5889162 102.6788504   2.9742015  60.5519297 101.8656310
   3.7707826  61.4981905 102.7385161   9.3365236  70.9625473  95.1564880
   8.5594679  70.6236632  94.7120042  10.0156717  70.9678096  94.4819845
   4.1517265  66.0820210  95.0471487   3.8467401  66.3966359  95.8981631
   5.1047707  66.1601630  95.0898820   2.5963697  72.2410433  96.6964441
   2.0685058  71.5063193  96.3837679   2.0951200  73.0185110  96.4504410
   7.5756543  70.4359454 101.8131488   6.9180217  71.1258715 101.9011616
   8.3796942  70.8255886 102.1565474   6.3862002  68.7903827  99.8635429
   6.8993883  69.4233818 100.3657139   7.0363226  68.1905022  99.4978789
   3.6484376  78.7688151  92.6196101   2.9746075  79.0719848  93.2281058
   4.0350198  79.5717231  92.2701558   2.8642832  66.2653282 102.1093770
   1.9465394  66.4868229 101.9515458   3.2802976  66.3399593 101.2505477
   3.6477880  67.6644698  97.2396450   4.3949699  68.1766095  96.9303572
   3.9169470  67.3428751  98.1000844   1.9204530  70.1603239  94.2223404
   1.0115750  69.8762271  94.3195874   1.9499614  70.5802317  93.3626711
   7.1523798  73.7709828  97.9914572   6.6986125  72.9300738  98.0479762
   6.5217765  74.4071226  98.3289352   6.0956717  64.7001814  99.2215239
   5.3579474  64.1879200  99.5525482   6.3483491  64.2602196  98.4098516
   5.5956737  75.6086325  98.9264390   5.8879711  76.1691382  98.2076756
   6.1055358  75.9014886  99.6817549   6.1968345  57.4778066  99.8157009
   6.5027222  56.6175430  99.5282924   6.9220950  58.0695686  99.6156003
   1.6180618  71.7011982  91.5611483   1.1800048  70.9847841  91.1017120
   2.3591059  71.9288097  90.9996574   0.5590362  76.3866676 100.0157843
   0.5166541  76.6127522  99.0866375   1.4753061  76.1530050 100.1643644
   4.0055996  66.8550743 106.9138473   4.3605384  67.0822217 107.7732938
   4.6528127  67.1869120 106.2915728   9.7353733  69.9769179  97.6187802
   9.5971632  70.1670775  96.6908991   9.3789952  70.7388562  98.0755853
   9.7623113  72.0445706 102.6299073  10.1959619  71.9520995 103.4782127
  10.4754693  72.0203207 101.9919089   3.4951008  75.6447800 104.1632174
   3.5488030  76.2138737 104.9309890   2.6265789  75.8149685 103.7986211
  10.6238662  72.0869407 105.1631958  10.8174552  72.9915217 105.4091233
  10.5239280  71.6276826 105.9970544   2.2774973  61.9727298 107.6622286
   1.6302888  62.6717247 107.5686762   3.0475988  62.4063441 108.0298534
   2.4539107  69.8108062 105.7219106   3.3831167  69.9619222 105.5488073
   2.0330137  69.8992083 104.8667752   1.8475591  78.9367823  94.8343180
   2.0227347  78.4655866  95.6488802   1.1608379  79.5633590  95.0624440
   2.8032654  73.2140330 100.8806481   2.4682487  73.1741099 101.7764131
   2.3036600  72.5485045 100.4076891   5.7391846  70.5596364  91.1543541
   5.1221016  69.8343192  91.0576593   5.2708334  71.3205724  90.8110615
   7.3945978  75.2695272 108.8149321   7.3358524  74.5854492 108.1479904
   7.7965496  76.0114262 108.3629947   7.3963385  73.2334856 107.0463301
   6.5090164  72.8960778 107.1689700   7.9661936  72.5017887 107.2832066
   4.0250968  62.9402708 100.1661571   4.5219667  62.1872670  99.8462641
   3.2537949  62.9767025  99.6004780  11.8780725  68.6443074 101.8079862
  11.8670602  69.5267789 101.4373795  11.0098105  68.2914624 101.6134399
   5.1080749  71.6974395  97.7399994   4.1737027  71.8175858  97.5704698
   5.2857417  70.7946862  97.4760004   8.4953300  67.5391714  98.2750028
   8.9613752  68.3719706  98.2010331   8.9460800  67.0736696  98.9795287
   6.5629531  73.8835536  95.2736180   6.8389375  73.7692130  96.1830054
   5.6934030  73.4853021  95.2348353   6.4669963  59.9072301 102.3140930
   5.5533042  60.1376528 102.4823137   6.8963064  59.9910746 103.1654962
   6.2376421  68.0962193 104.8140824   5.5847871  68.3438101 104.1593276
   6.6156801  67.2826332 104.4803301   3.1983595  78.1321887  98.9168994
   3.3805990  77.3143543  99.3796746   4.0216581  78.3489579  98.4793884
   3.5325761  77.0590072  96.1784042   4.0613527  76.5482526  95.5654205
   3.7953980  76.7432602  97.0429575   4.1655164  78.0930907 102.5228159
   4.0406304  77.2920647 102.0139104   4.8234255  78.5877101 102.0342129
   6.2290073  75.8939928 104.1507709   5.2820408  75.7745279 104.0786036
   6.5772846  75.0062426 104.2333970   3.2336506  75.6892644 100.3512061
   3.0861468  74.7609351 100.5319631   4.0590000  75.7112734  99.8669136
   6.8370628  76.5121203 101.4376934   7.7617175  76.3064064 101.3001385
   6.6685931  76.2637604 102.3466275   3.2298020  63.5430481  95.3444178
   3.4461635  64.4255119  95.0433007   2.7492088  63.1516695  94.6149820
   1.6819755  63.9256083 104.0148940   1.4237533  64.8473153 104.0133270
   1.1504796  63.5286517 104.7049404   6.6265944  77.0306870  96.7939025
   6.8002822  76.4653292  96.0412878   7.1194835  77.8307765  96.6118515
   2.1021711  60.0588033 100.3750103   2.1243408  60.1227366  99.4202082
   2.5189770  59.2192542 100.5690609  12.4805335  69.7943293  98.4129325
  12.9236481  69.0450618  98.0148448  11.6031846  69.7853429  98.0303057
   7.6141117  76.3473634  93.8935924   8.3092021  76.9680327  94.1123238
   7.9564267  75.4968986  94.1688302   9.5132540  73.7973340  95.4223254
  10.0383864  74.1360613  94.6972574   9.4254892  72.8620355  95.2386389
   1.1973200  79.8645323  99.7818508   0.7578191  79.3721702 100.4751364
   1.9481317  79.3218291  99.5410583   9.3224321  71.2798710 108.0407181
   9.3722326  71.1148717 108.9822704   9.2138244  70.4125969 107.6505062
   6.6128083  67.2629638 109.3566488   7.5137946  67.1236103 109.0650485
   6.6876058  67.4284093 110.2964665  10.8242518  73.6995651 108.2849203
  10.5327326  74.0625632 109.1212663  10.2114649  72.9862660 108.1062535
  12.0238200  71.2648531 100.8051773  12.8585091  71.7038335 100.9689333
  12.1597329  70.7887184  99.9860019   9.0729706  68.8228266 106.7529260
   9.5483827  69.0155912 105.9448112   8.1495271  68.8787452 106.5072644
   3.6509922  60.8576110 105.7185094   4.1691866  61.5937137 105.3931583
   3.2965055  61.1640103 106.5531854   3.9022517  57.2776392 101.2385991
   4.1824270  56.6099581 101.8646418   4.6873123  57.4705488 100.7260655
   1.7055985  76.4535386  92.8011017   1.1329952  77.0725573  92.3481489
   2.2788779  77.0034748  93.3350939   7.7731375  65.6994026 104.9857566
   8.7248798  65.7992124 105.0069790   7.6034825  64.9072295 105.4955650
   5.7945754  62.7849609 105.1716967   5.1995686  63.0654622 104.4763456
   5.5095451  63.2743510 105.9433708   4.9253245  76.7372536  93.9319600
   5.8583918  76.6718098  94.1352475   4.8376458  77.5728803  93.4734132
   7.5541262  76.0538407  90.8923547   7.4754893  75.7198270  91.7859305
   8.3750928  76.5460174  90.8915019  10.2519453  68.9200146 104.0999866
  10.2195773  67.9816147 104.2859550  10.8620076  68.9984183 103.3665691
   2.0902784  67.7896199  90.1427070   3.0361888  67.6602407  90.2115488
   1.7117028  67.0510861  90.6196498  10.4013941  65.7111189 104.1458149
   9.8852990  64.9269646 103.9588078  11.2853890  65.3829906 104.3104668
   8.0624668  59.4552205 100.1053962   7.8649489  59.1467293 100.9897294
   8.6724374  60.1813844 100.2351891  16.0696003  69.9816153 103.2405903
  16.7999391  69.7201441 103.8013606  15.4602948  69.2444875 103.2807971
  14.1511300  68.1224015 103.8380354  13.4244463  67.9879980 103.2296845
  13.7358587  68.4300844 104.6437072   1.8907766  60.2583065  96.2326196
   1.0808495  59.9130150  96.6081442   2.5792183  59.9490609  96.8213808
   3.8198315  59.3361112  97.8550493   4.3729353  59.7556565  98.5140516
   4.0568401  58.4096860  97.8973449   7.1977122  61.4461637  97.3629157
   6.6175791  62.1046441  96.9807210   6.9313054  60.6238981  96.9516575
   5.6480688  60.8466695  99.5650478   6.1480467  60.9583229  98.7564796
   6.2916296  60.5427747 100.2051286   5.9802000  63.6061727  96.4185505
   5.0927855  63.8911378  96.2005700   6.3955989  63.4455491  95.5712782
   9.3316536  63.6308248 100.1339845  10.1076926  64.1204701 100.4064462
   8.6064670  64.0566302 100.5911714  11.7689095  64.3435867 101.1913785
  12.3633585  64.1031603 100.4807094  11.8415678  63.6242998 101.8187322
   5.1245213  73.3706402  90.5133525   5.8281063  73.5756404  91.1291181
   4.4007862  73.9383164  90.7782609   5.9543024  69.1216263  96.6335796
   5.8978225  69.5784815  95.7943428   6.5071366  68.3606948  96.4558638
   9.7647829  64.9105995  97.4585915   9.5084764  64.5102631  98.2894123
   9.1400698  65.6249789  97.3336054  14.0760167  67.6502068  99.9657207
  13.5159725  67.7195258 100.7388769  13.4703671  67.4743053  99.2456703
   7.0331911  73.8088931  92.5631986   7.8677515  73.3770130  92.3809460
   6.8716254  73.6370945  93.4908880   6.6877803  70.3121044  93.9288325
   6.6326607  70.1465316  92.9876769   6.0623858  71.0197077  94.0850515
   3.8126048  56.4071930  97.7619580   3.0458444  55.8530417  97.9076262
   4.2236753  56.4793799  98.6233732  15.6616186  84.3258582 102.6587162
  16.2994596  84.2065330 101.9550502  15.5437029  85.2739426 102.7175114
  12.4705892  84.2786010 102.5948687  12.1324404  84.1627075 101.7069222
  13.3395660  83.8777175 102.5749693   8.3292708  86.1321487  98.5845578
   7.7657573  86.0411424  97.8161866   8.2145103  85.3121391  99.0648070
  13.9092266  89.7992454  93.8960043  13.2580246  90.3846535  93.5094057
  14.7036629  90.3298649  93.9555080   7.8347894  86.8881592  94.2947177
   8.6078770  86.3410579  94.1560053   8.1873293  87.7525841  94.5061639
  10.5989143  85.5934822 104.0915436  11.1952715  85.3690845 103.3772399
  10.6564115  84.8519568 104.6940884  10.1714171  83.0474258  91.9265627
  10.4239692  82.5255779  91.1649090   9.2338731  82.8840403  92.0292311
  15.2157454  82.0510036  99.7340370  16.0020543  81.6329459  99.3830787
  15.4796159  82.9556128  99.9022019  15.3867532  87.4882886  94.4329027
  14.7513365  87.5617513  95.1449932  15.0564938  88.0776485  93.7548106
  20.6165881  81.9885269 100.6373349  21.3491053  81.4184486 100.8711178
  19.8605237  81.6006870 101.0779854   9.8910460  84.9502364  94.1290002
   9.7746718  84.2747267  94.7971086  10.0012720  84.4634738  93.3122155
  12.2342001  84.4112511  97.8336691  11.8700208  83.8843132  98.5449613
  13.0909117  84.0210980  97.6603177  18.1391302  75.7006843 105.0967957
  17.8074627  76.5702254 104.8729172  17.5436915  75.3843127 105.7761988
  11.8747488  79.4402410  92.8298040  12.0421890  80.3082647  93.1968511
  11.6844657  79.6029692  91.9059329  14.6322821  87.9019389 104.4963870
  14.3323544  88.8044428 104.3879677  14.2873881  87.6351573 105.3485023
   8.0835303  84.3533186 100.5300575   7.1585799  84.2209400 100.7378266
   8.3319716  85.1327405 101.0270517  18.0319965  80.4201930 102.1761307
  17.1236842  80.3517338 101.8820068  17.9807561  80.8973875 103.0043133
  11.8536709  81.8960068  93.8144707  11.7336334  82.3417119  94.6530187
  11.1589297  82.2445386  93.2558245   9.6143601  94.6663710  97.4634838
   9.5367631  95.6171535  97.5423318   9.0105245  94.3209582  98.1209764
  19.8981611  78.6218368 103.9539181  19.2555992  78.9150901 103.3078976
  19.3936540  78.5071288 104.7592378  17.5521775  82.3681541  94.6425041
  18.4639631  82.6008928  94.4672738  17.0431422  82.9518585  94.0800119
  15.8362543  86.7906169 108.2786333  16.2445899  86.3488580 107.5340966
  15.1139804  86.2158797 108.5320526  12.1893613  81.7278776 105.6519890
  13.0354808  82.1518189 105.7954539  12.1292251  81.0712400 106.3458453
  16.1591357  87.3507360 102.0338622  15.5300220  87.5153074 101.3314690
  15.7717020  87.7648969 102.8049586  20.0380589  88.2861797  99.3882986
  19.3531627  88.6660699  98.8380019  20.1224439  88.8957124 100.1214934
  15.3393058  79.3883144 107.3101064  15.0953990  80.1425205 106.7735340
  15.6152989  79.7668492 108.1448311  17.2931521  85.9321756 105.9878329
  17.5048416  86.5753516 105.3112710  17.2461269  85.0984073 105.5200259
  14.8957750  78.5439577 102.8914902  14.0342229  78.8420831 103.1831639
  14.9220185  78.7609976 101.9595934  11.7119319  87.0881768  99.2988707
  12.1757665  87.3669471  98.5093330  11.4476117  86.1865212  99.1161798
   8.6043400  86.6353249 102.2368470   9.1744757  87.0640518 101.5985955
   9.1951512  86.3535834 102.9352656  10.6488205  83.2104920  96.1078272
  11.3512249  83.6625964  96.5752199  10.3168834  82.5688739  96.7358165
   4.3913539  81.4688473 101.4095406   3.6012593  81.7246001 100.9335517
   4.8824787  82.2836811 101.5147446  18.4077349  88.8093712 104.1600687
  19.2294793  88.4073899 103.8783368  18.4039752  88.7061946 105.1116803
   6.3428285  81.8333052  98.3678883   5.5459448  81.9451746  98.8862378
   6.1153877  82.1719704  97.5019773  26.4983342  85.1532460 100.5085658
  25.7447050  84.5839858 100.3529663  26.6330883  85.1195125 101.4556293
  11.8881970  90.0245863  96.1840378  11.7527645  90.8697398  96.6125225
  12.4291782  90.2265140  95.4206311   5.3411367  87.5421301  96.7568303
   5.8535888  88.3364551  96.9073867   5.9934080  86.8447591  96.6901904
   7.1506252  90.6587057  98.8391056   7.3272880  91.5805022  98.6512040
   7.9463086  90.3445476  99.2685436  11.2917271  77.5195322 110.4374989
  12.0326984  78.1202475 110.3579452  11.5235193  76.7772959 109.8793032
  15.2374434  73.5476425 104.7139271  14.8938703  74.4378066 104.6378382
  15.6053396  73.3578082 103.8508856   3.3060284  85.8709955  97.5327873
   4.1435506  86.2806963  97.3161581   3.4838552  84.9309397  97.5028067
  15.2024716  83.5385036  93.2211706  14.6871340  84.3089640  93.4600094
  14.9302025  82.8650172  93.8444768  12.7871827  78.3834736  98.2796945
  11.9313424  77.9941587  98.1002583  13.1998779  78.4626697  97.4196730
  14.3170974  75.9181080 102.6788504  13.8135770  75.8811215 101.8656310
  14.6101581  76.8273822 102.7385161  10.5613860  76.0019809 101.6854686
  11.4266857  75.8062618 101.3260575  10.6291369  75.7730161 102.6124043
  20.1758990  86.2917390  95.1564880  19.3988433  85.9528550  94.7120042
  20.8550471  86.2970014  94.4819845  14.9911019  81.4112128  95.0471487
  14.6861155  81.7258277  95.8981631  15.9441462  81.4893548  95.0898820
  13.4357451  87.5702351  96.6964441  12.9078813  86.8355111  96.3837679
  12.9344954  88.3477027  96.4504410  18.4150297  85.7651372 101.8131488
  17.7573972  86.4550633 101.9011616  19.2190697  86.1547804 102.1565474
   8.1676179  78.2322017  99.0571053   8.7419931  78.0097199  98.3244246
   8.7547161  78.3010712  99.8099654  17.2255756  84.1195744  99.8635429
  17.7387638  84.7525736 100.3657139  17.8756980  83.5196940  99.4978789
   8.4945766  80.2626478  93.0766938   7.6583078  80.6001165  93.3976213
   8.3550536  80.1275458  92.1394075  10.4698847  75.1063266  97.7846122
   9.8163259  74.7912283  97.1602737  10.4279321  74.4839007  98.5105945
  11.5810051  85.3882561  89.6999414  10.6737113  85.1571815  89.8990563
  12.0781083  84.5920181  89.8873396  14.4878130  94.0980069  92.6196101
  13.8139829  94.4011765  93.2281058  14.8743952  94.9009149  92.2701558
  13.7036587  81.5945200 102.1093770  12.7859148  81.8160147 101.9515458
  14.1196731  81.6691510 101.2505477  14.4871635  82.9936616  97.2396450
  15.2343454  83.5058013  96.9303572  14.7563224  82.6720668  98.1000844
  12.7598285  85.4895156  94.2223404  11.8509504  85.2054189  94.3195874
  12.7893369  85.9094235  93.3626711  17.9917552  89.1001746  97.9914572
  17.5379879  88.2592656  98.0479762  17.3611519  89.7363144  98.3289352
  16.9350472  80.0293732  99.2215239  16.1973229  79.5171118  99.5525482
  17.1877245  79.5894113  98.4098516  16.4350492  90.9378242  98.9264390
  16.7273466  91.4983300  98.2076756  16.9449112  91.2306803  99.6817549
  17.0362099  72.8069984  99.8157009  17.3420976  71.9467347  99.5282924
  17.7614704  73.3987604  99.6156003   3.3286455  83.2100670  98.2038607
   3.1310855  82.6170031  97.4789673   2.7733119  82.9052881  98.9214545
  11.3083179  83.1023777 100.3233200  11.3631789  82.1497613 100.2475676
  10.4974381  83.2583216 100.8074498  12.4574373  87.0303900  91.5611483
  12.0193803  86.3139759  91.1017120  13.1984814  87.2580015  90.9996574
   9.2475539  81.7200837  98.0823579   8.4343404  82.0195007  98.4888771
   9.7434533  81.3256525  98.7998061  11.3984117  91.7158594 100.0157843
  11.3560296  91.9419440  99.0866375  12.3146816  91.4821968 100.1643644
  14.8449751  82.1842661 106.9138473  15.1999138  82.4114134 107.7732938
  15.4921882  82.5161038 106.2915728  20.5747488  85.3061097  97.6187802
  20.4365386  85.4962693  96.6908991  20.2183706  86.0680480  98.0755853
   8.7389614  79.2919192 103.6984814   9.3788993  79.1507951 103.0007777
   7.9067144  79.0053705 103.3223416  20.6016867  87.3737624 102.6299073
  21.0353374  87.2812913 103.4782127  21.3148448  87.3495124 101.9919089
   9.5149918  88.5921623  99.8119806  10.3090516  88.0971943  99.6102381
   8.8041610  88.0639486  99.4487512  14.3344762  90.9739718 104.1632174
  14.3881784  91.5430654 104.9309890  13.4659543  91.1441603 103.7986211
   5.8232681  82.7364704  95.8879559   4.8930269  82.6749160  96.1049521
   5.9190153  82.2140657  95.0916200   5.7418230  79.2619517  98.4757800
   6.0025047  80.1764850  98.3666961   6.5635402  78.7943960  98.6254413
  21.4632417  87.4161325 105.1631958  21.6568307  88.3207135 105.4091233
  21.3633035  86.9568744 105.9970544  13.1168727  77.3019215 107.6622286
  12.4696642  78.0009165 107.5686762  13.8869743  77.7355359 108.0298534
  13.2932862  85.1399980 105.7219106  14.2224922  85.2911140 105.5488073
  12.8723892  85.2284001 104.8667752  12.0921194  89.1650645 103.4917643
  11.9532279  88.7969429 104.3643581  11.3035790  89.6798284 103.3201601
  12.6869346  94.2659741  94.8343180  12.8621101  93.7947784  95.6488802
  12.0002134  94.8925507  95.0624440  13.6426409  88.5432247 100.8806481
  13.3076241  88.5033017 101.7764131  13.1430354  87.8776963 100.4076891
  16.5785600  85.8888282  91.1543541  15.9614771  85.1635110  91.0576593
  16.1102089  86.6497642  90.8110615  18.2339732  90.5987190 108.8149321
  18.1752278  89.9146410 108.1479904  18.6359250  91.3406180 108.3629947
   8.3684146  80.1073706  90.2764845   7.4913613  79.9862507  89.9127092
   8.8441899  79.3159784  90.0243734  18.2357139  88.5626774 107.0463301
  17.3483918  88.2252696 107.1689700  18.8055690  87.8309805 107.2832066
  11.5548072  92.4599996  97.5227365  10.7715594  93.0021676  97.6165590
  12.2540817  92.9773976  97.9221607  14.8644722  78.2694626 100.1661571
  15.3613422  77.5164588  99.8462641  14.0931704  78.3058942  99.6004780
  22.7174480  83.9734991 101.8079862  22.7064356  84.8559707 101.4373795
  21.8491859  83.6206542 101.6134399  15.9474503  87.0266313  97.7399994
  15.0130782  87.1467775  97.5704698  16.1251172  86.1238780  97.4760004
  11.4479691  80.4112009  99.8933255  11.0777479  79.8583049 100.5814161
  11.9438784  79.8070142  99.3408255  19.3347054  82.8683632  98.2750028
  19.8007507  83.7011624  98.2010331  19.7854555  82.4028614  98.9795287
  17.4023286  89.2127453  95.2736180  17.6783129  89.0984048  96.1830054
  16.5327784  88.8144938  95.2348353  17.3063717  75.2364219 102.3140930
  16.3926797  75.4668446 102.4823137  17.7356819  75.3202663 103.1654962
  17.0770176  83.4254111 104.8140824  16.4241626  83.6730019 104.1593276
  17.4550556  82.6118249 104.4803301  14.0377350  93.4613804  98.9168994
  14.2199744  92.6435460  99.3796746  14.8610336  93.6781497  98.4793884
  14.3719515  92.3881989  96.1784042  14.9007281  91.8774444  95.5654205
  14.6347735  92.0724520  97.0429575   6.8445025  77.8215999 106.1386361
   6.9086351  78.6830830 105.7263759   6.7812145  77.2090001 105.4058720
   3.0962840  81.7015561  95.7177751   3.3916281  80.7926240  95.6644804
   2.1950876  81.6803301  95.3958753  15.0048919  93.4222825 102.5228159
  14.8800058  92.6212565 102.0139104  15.6628010  93.9169019 102.0342129
   6.6257087  79.7771558 101.7005299   5.9043673  80.3907525 101.5612772
   7.4150343  80.3129322 101.6221945  17.0683827  91.2231845 104.1507709
  16.1214163  91.1037196 104.0786036  17.4166600  90.3354343 104.2333970
   9.4283401  77.1125984 107.9745951   9.9517802  77.3588281 108.7372260
   9.2095734  77.9446019 107.5549088   4.8250682  79.3829659  95.8417076
   4.4963388  78.5027038  95.6592182   5.1790052  79.3277327  96.7293465
  14.0730261  91.0184561 100.3512061  13.9255223  90.0901269 100.5319631
  14.8983754  91.0404652  99.8669136   7.9392505  79.6702629  96.2092553
   8.2788577  80.1988550  95.4871162   8.3864625  80.0083035  96.9851120
  17.6764382  91.8413120 101.4376934  18.6010930  91.6355982 101.3001385
  17.5079686  91.5929521 102.3466275  10.6335946  78.0539679 105.6595621
  10.2932766  77.2547492 106.0616301   9.9274952  78.3541390 105.0872455
  11.2852417  75.1388992 104.1122944  12.1078487  74.6649470 103.9901835
  11.5290481  75.9179475 104.6121631   9.9260652  78.1677250  94.4085846
  10.6469014  78.5458503  93.9049563   9.3025956  78.8866127  94.5120824
  14.0691775  78.8722399  95.3444178  14.2855389  79.7547037  95.0433007
  13.5885842  78.4808613  94.6149820   8.8090996  81.8308112 101.9214923
   8.6635577  82.1448415 102.8139205   8.3316200  82.4493013 101.3685822
  10.6687379  78.8210660 101.9695813  10.6548948  77.9251754 101.6328111
  11.3859807  78.8281324 102.6034099  12.5213510  79.2548001 104.0148940
  12.2631288  80.1765071 104.0133270  11.9898550  78.8578435 104.7049404
  17.4659699  92.3598788  96.7939025  17.6396576  91.7945210  96.0412878
  17.9588590  93.1599683  96.6118515  10.0724275  77.7025041  97.2383383
  10.1940186  76.7741687  97.4374270   9.7826317  77.7163727  96.3261698
  12.9415465  75.3879951 100.3750103  12.9637162  75.4519284  99.4202082
  13.3583524  74.5484460 100.5690609  23.3199090  85.1235211  98.4129325
  23.7630236  84.3742536  98.0148448  22.4425600  85.1145347  98.0303057
  18.4534871  91.6765552  93.8935924  19.1485776  92.2972245  94.1123238
  18.7958021  90.8260903  94.1688302  20.3526294  89.1265258  95.4223254
  20.8777618  89.4652530  94.6972574  20.2648647  88.1912273  95.2386389
  12.0366955  95.1937241  99.7818508  11.5971945  94.7013620 100.4751364
  12.7875072  94.6510209  99.5410583  20.1618075  86.6090628 108.0407181
  20.2116080  86.4440635 108.9822704  20.0531999  85.7417887 107.6505062
   9.0454334  89.2879173  95.3299270   9.1942454  89.9714638  94.6765943
   9.8520777  89.2684263  95.8448726  17.4521838  82.5921556 109.3566488
  18.3531700  82.4528020 109.0650485  17.5269812  82.7576010 110.2964665
  11.7864643  79.9688410 108.2019674  10.9167952  80.2621976 107.9302263
  12.0224123  80.5528855 108.9226938  21.6636272  89.0287569 108.2849203
  21.3721080  89.3917550 109.1212663  21.0508403  88.3154577 108.1062535
  22.8631954  86.5940449 100.8051773  23.6978846  87.0330253 100.9689333
  22.9991083  86.1179102  99.9860019  19.9123460  84.1520184 106.7529260
  20.3877582  84.3447830 105.9448112  18.9889026  84.2079370 106.5072644
   6.8006967  85.3144351  96.3360339   6.5553009  84.4106681  96.5340549
   6.9702882  85.3161501  95.3939817  14.4903677  76.1868027 105.7185094
  15.0085621  76.9229054 105.3931583  14.1358810  76.4932021 106.5531854
   6.0702615  81.0472709  93.8346500   5.3771859  81.1217063  93.1786536
   5.8254366  80.2833052  94.3568017  14.7416271  72.6068310 101.2385991
  15.0218025  71.9391499 101.8646418  15.5266878  72.7997405 100.7260655
  12.5449740  91.7827304  92.8011017  11.9723707  92.4017491  92.3481489
  13.1182533  92.3326665  93.3350939  18.6125129  81.0285944 104.9857566
  19.5642552  81.1284041 105.0069790  18.4428580  80.2364212 105.4955650
  16.6339509  78.1141527 105.1716967  16.0389441  78.3946540 104.4763456
  16.3489206  78.6035428 105.9433708  15.7646999  92.0664454  93.9319600
  16.6977672  92.0010016  94.1352475  15.6770212  92.9020721  93.4734132
  18.3935016  91.3830324  90.8923547  18.3148648  91.0490188  91.7859305
  19.2144683  91.8752092  90.8915019  21.0913207  84.2492064 104.0999866
  21.0589527  83.3108064 104.2859550  21.7013831  84.3276100 103.3665691
  12.9296538  83.1188116  90.1427070  13.8755643  82.9894325  90.2115488
  12.5510783  82.3802778  90.6196498  21.2407696  81.0403107 104.1458149
  20.7246744  80.2561564 103.9588078  22.1247644  80.7121824 104.3104668
  18.9018423  74.7844123 100.1053962  18.7043244  74.4759211 100.9897294
  19.5118128  75.5105761 100.2351891  26.9089757  85.3108070 103.2405903
  27.6393146  85.0493358 103.8013606  26.2996703  84.5736792 103.2807971
  24.9905054  83.4515933 103.8380354  24.2638218  83.3171898 103.2296845
  24.5752341  83.7592762 104.6437072  11.1139455  81.0438093  90.0781955
  10.2070911  80.7471206  90.1544669  11.3915436  80.7467911  89.2116241
  12.7301521  75.5874983  96.2326196  11.9202249  75.2422068  96.6081442
  13.4185938  75.2782526  96.8213808  14.6592069  74.6653029  97.8550493
  15.2123108  75.0848483  98.5140516  14.8962156  73.7388778  97.8973449
   9.8838240  77.9025028  90.2193934  10.7457404  78.2279926  90.4789752
  10.0688584  77.1156524  89.7067000  18.0370876  76.7753555  97.3629157
  17.4569545  77.4338359  96.9807210  17.7706809  75.9530899  96.9516575
  16.4874443  76.1758612  99.5650478  16.9874221  76.2875147  98.7564796
  17.1310051  75.8719665 100.2051286  16.8195754  78.9353645  96.4185505
  15.9321609  79.2203296  96.2005700  17.2349743  78.7747408  95.5712782
  20.1710290  78.9600166 100.1339845  20.9470681  79.4496618 100.4064462
  19.4458425  79.3858220 100.5911714  22.6082849  79.6727785 101.1913785
  23.2027340  79.4323521 100.4807094  22.6809433  78.9534916 101.8187322
  15.9638968  88.6998320  90.5133525  16.6674818  88.9048322  91.1291181
  15.2401617  89.2675082  90.7782609  16.7936778  84.4508181  96.6335796
  16.7371979  84.9076732  95.7943428  17.3465121  83.6898865  96.4558638
  20.6041584  80.2397913  97.4585915  20.3478518  79.8394548  98.2894123
  19.9794452  80.9541707  97.3336054  24.9153922  82.9793986  99.9657207
  24.3553480  83.0487175 100.7388769  24.3097425  82.8034971  99.2456703
  17.8725665  89.1380849  92.5631986  18.7071269  88.7062047  92.3809460
  17.7110008  88.9662863  93.4908880  17.5271557  85.6412962  93.9288325
  17.4720361  85.4757234  92.9876769  16.9017613  86.3488995  94.0850515
  10.8367683  75.1421071  93.5073643  10.8246353  76.0862911  93.6641914
  11.7291105  74.9591217  93.2133104  14.6519802  71.7363848  97.7619580
  13.8852198  71.1822334  97.9076262  15.0630507  71.8085717  98.6233732
  26.5009940  99.6550500 102.6587162  27.1388350  99.5357247 101.9550502
  26.3830783 100.6031344 102.7175114  23.3099647  99.6077928 102.5948687
  22.9718158  99.4918993 101.7069222  24.1789415  99.2069093 102.5749693
  19.1686462 101.4613404  98.5845578  18.6051327 101.3703341  97.8161866
  19.0538857 100.6413309  99.0648070  24.7486021 105.1284372  93.8960043
  24.0974001 105.7138453  93.5094057  25.5430384 105.6590567  93.9555080
  18.6741648 102.2173509  94.2947177  19.4472524 101.6702496  94.1560053
  19.0267047 103.0817759  94.5061639  21.4382898 100.9226740 104.0915436
  22.0346470 100.6982762 103.3772399  21.4957869 100.1811486 104.6940884
  21.0107926  98.3766175  91.9265627  21.2633447  97.8547697  91.1649090
  20.0732485  98.2132321  92.0292311  26.0551209  97.3801954  99.7340370
  26.8414298  96.9621377  99.3830787  26.3189913  98.2848046  99.9022019
  26.2261286 102.8174804  94.4329027  25.5907119 102.8909431  95.1449932
  25.8958693 103.4068403  93.7548106  31.4559636  97.3177187 100.6373349
  32.1884808  96.7476404 100.8711178  30.6998992  96.9298787 101.0779854
  20.7304215 100.2794281  94.1290002  20.6140473  99.6039185  94.7971086
  20.8406475  99.7926655  93.3122155  23.0735756  99.7404428  97.8336691
  22.7093963  99.2135049  98.5449613  23.9302872  99.3502898  97.6603177
  28.9785056  91.0298761 105.0967957  28.6468381  91.8994172 104.8729172
  28.3830670  90.7135045 105.7761988  22.7141243  94.7694328  92.8298040
  22.8815645  95.6374565  93.1968511  22.5238412  94.9321610  91.9059329
  25.4716576 103.2311307 104.4963870  25.1717299 104.1336346 104.3879677
  25.1267635 102.9643490 105.3485023  18.9229057  99.6825104 100.5300575
  17.9979554  99.5501318 100.7378266  19.1713470 100.4619323 101.0270517
  28.8713720  95.7493847 102.1761307  27.9630597  95.6809256 101.8820068
  28.8201315  96.2265792 103.0043133  22.6930463  97.2251986  93.8144707
  22.5730089  97.6709036  94.6530187  21.9983052  97.5737303  93.2558245
  20.4537356 109.9955627  97.4634838  20.3761385 110.9463453  97.5423318
  19.8498999 109.6501500  98.1209764  30.7375366  93.9510286 103.9539181
  30.0949746  94.2442819 103.3078976  30.2330294  93.8363206 104.7592378
  28.3915530  97.6973459  94.6425041  29.3033386  97.9300846  94.4672738
  27.8825177  98.2810503  94.0800119  26.6756297 102.1198087 108.2786333
  27.0839653 101.6780497 107.5340966  25.9533559 101.5450714 108.5320526
  23.0287367  97.0570693 105.6519890  23.8748563  97.4810107 105.7954539
  22.9686005  96.4004318 106.3458453  26.9985112 102.6799277 102.0338622
  26.3693974 102.8444991 101.3314690  26.6110774 103.0940887 102.8049586
  30.8774344 103.6153715  99.3882986  30.1925382 103.9952617  98.8380019
  30.9618193 104.2249042 100.1214934  26.1786813  94.7175062 107.3101064
  25.9347745  95.4717122 106.7735340  26.4546743  95.0960409 108.1448311
  28.1325275 101.2613674 105.9878329  28.3442171 101.9045434 105.3112710
  28.0855024 100.4275991 105.5200259  25.7351504  93.8731495 102.8914902
  24.8735983  94.1712748 103.1831639  25.7613939  94.0901894 101.9595934
  22.5513074 102.4173685  99.2988707  23.0151419 102.6961388  98.5093330
  22.2869872 101.5157130  99.1161798  19.4437155 101.9645167 102.2368470
  20.0138512 102.3932435 101.5985955  20.0345267 101.6827752 102.9352656
  21.4881960  98.5396838  96.1078272  22.1906003  98.9917881  96.5752199
  21.1562588  97.8980657  96.7358165  15.2307294  96.7980390 101.4095406
  14.4406348  97.0537919 100.9335517  15.7218541  97.6128728 101.5147446
  29.2471103 104.1385630 104.1600687  30.0688547 103.7365817 103.8783368
  29.2433506 104.0353864 105.1116803  17.1822039  97.1624970  98.3678883
  16.3853202  97.2743664  98.8862378  16.9547631  97.5011622  97.5019773
  37.3377096 100.4824378 100.5085658  36.5840805  99.9131776 100.3529663
  37.4724638 100.4487043 101.4556293  22.7275724 105.3537780  96.1840378
  22.5921399 106.1989316  96.6125225  23.2685537 105.5557058  95.4206311
  16.1805122 102.8713218  96.7568303  16.6929642 103.6656469  96.9073867
  16.8327835 102.1739509  96.6901904  17.9900007 105.9878975  98.8391056
  18.1666635 106.9096939  98.6512040  18.7856840 105.6737394  99.2685436
  22.1311025  92.8487239 110.4374989  22.8720738  93.4494392 110.3579452
  22.3628948  92.1064877 109.8793032  26.0768188  88.8768342 104.7139271
  25.7332457  89.7669984 104.6378382  26.4447151  88.6870000 103.8508856
  14.1454039 101.2001873  97.5327873  14.9829261 101.6098881  97.3161581
  14.3232306 100.2601315  97.5028067  26.0418471  98.8676953  93.2211706
  25.5265094  99.6381558  93.4600094  25.7695779  98.1942090  93.8444768
  23.6265582  93.7126654  98.2796945  22.7707178  93.3233505  98.1002583
  24.0392534  93.7918615  97.4196730  25.1564728  91.2472997 102.6788504
  24.6529524  91.2103133 101.8656310  25.4495335  92.1565740 102.7385161
  21.4007614  91.3311727 101.6854686  22.2660611  91.1354536 101.3260575
  21.4685123  91.1022079 102.6124043  31.0152745 101.6209308  95.1564880
  30.2382188 101.2820468  94.7120042  31.6944226 101.6261931  94.4819845
  25.8304774  96.7404045  95.0471487  25.5254910  97.0550195  95.8981631
  26.7835216  96.8185465  95.0898820  24.2751206 102.8994269  96.6964441
  23.7472567 102.1647028  96.3837679  23.7738709 103.6768945  96.4504410
  29.2544052 101.0943289 101.8131488  28.5967726 101.7842551 101.9011616
  30.0584451 101.4839721 102.1565474  19.0069933  93.5613935  99.0571053
  19.5813685  93.3389117  98.3244246  19.5940916  93.6302630  99.8099654
  28.0649511  99.4487662  99.8635429  28.5781392 100.0817654 100.3657139
  28.7150734  98.8488857  99.4978789  19.3339521  95.5918396  93.0766938
  18.4976833  95.9293083  93.3976213  19.1944290  95.4567376  92.1394075
  21.3092601  90.4355184  97.7846122  20.6557013  90.1204201  97.1602737
  21.2673075  89.8130924  98.5105945  22.4203806 100.7174479  89.6999414
  21.5130868 100.4863732  89.8990563  22.9174838  99.9212098  89.8873396
  25.3271885 109.4271986  92.6196101  24.6533584 109.7303683  93.2281058
  25.7137707 110.2301067  92.2701558  24.5430341  96.9237118 102.1093770
  23.6252903  97.1452065 101.9515458  24.9590485  96.9983428 101.2505477
  25.3265389  98.3228533  97.2396450  26.0737208  98.8349930  96.9303572
  25.5956979  98.0012586  98.1000844  23.5992039 100.8187074  94.2223404
  22.6903259 100.5346107  94.3195874  23.6287123 101.2386152  93.3626711
  28.8311307 104.4293663  97.9914572  28.3773634 103.5884573  98.0479762
  28.2005274 105.0655062  98.3289352  27.7744226  95.3585649  99.2215239
  27.0366983  94.8463036  99.5525482  28.0271000  94.9186031  98.4098516
  27.2744246 106.2670160  98.9264390  27.5667220 106.8275217  98.2076756
  27.7842867 106.5598721  99.6817549  27.8755854  88.1361901  99.8157009
  28.1814731  87.2759265  99.5282924  28.6008459  88.7279522  99.6156003
  14.1680210  98.5392588  98.2038607  13.9704610  97.9461949  97.4789673
  13.6126874  98.2344798  98.9214545  22.1476933  98.4315695 100.3233200
  22.2025543  97.4789531 100.2475676  21.3368135  98.5875134 100.8074498
  23.2968127 102.3595818  91.5611483  22.8587557 101.6431677  91.1017120
  24.0378568 102.5871932  90.9996574  20.0869293  97.0492754  98.0823579
  19.2737159  97.3486925  98.4888771  20.5828288  96.6548443  98.7998061
  22.2377871 107.0450511 100.0157843  22.1954050 107.2711357  99.0866375
  23.1540570 106.8113886 100.1643644  25.6843505  97.5134579 106.9138473
  26.0392893  97.7406052 107.7732938  26.3315636  97.8452956 106.2915728
  31.4141242 100.6353015  97.6187802  31.2759141 100.8254611  96.6908991
  31.0577461 101.3972397  98.0755853  19.5783368  94.6211110 103.6984814
  20.2182747  94.4799869 103.0007777  18.7460899  94.3345623 103.3223416
  31.4410622 102.7029542 102.6299073  31.8747128 102.6104831 103.4782127
  32.1542202 102.6787042 101.9919089  20.3543672 103.9213540  99.8119806
  21.1484271 103.4263860  99.6102381  19.6435364 103.3931403  99.4487512
  25.1738517 106.3031636 104.1632174  25.2275539 106.8722572 104.9309890
  24.3053298 106.4733521 103.7986211  16.6626435  98.0656622  95.8879559
  15.7324024  98.0041077  96.1049521  16.7583907  97.5432575  95.0916200
  16.5811985  94.5911435  98.4757800  16.8418802  95.5056768  98.3666961
  17.4029157  94.1235877  98.6254413  32.3026171 102.7453242 105.1631958
  32.4962061 103.6499053 105.4091233  32.2026789 102.2860661 105.9970544
  23.9562482  92.6311133 107.6622286  23.3090397  93.3301083 107.5686762
  24.7263497  93.0647277 108.0298534  24.1326616 100.4691898 105.7219106
  25.0618676 100.6203057 105.5488073  23.7117646 100.5575919 104.8667752
  22.9314948 104.4942562 103.4917643  22.7926034 104.1261347 104.3643581
  22.1429544 105.0090202 103.3201601  23.5263100 109.5951659  94.8343180
  23.7014856 109.1239702  95.6488802  22.8395888 110.2217425  95.0624440
  24.4820163 103.8724165 100.8806481  24.1469996 103.8324935 101.7764131
  23.9824109 103.2068881 100.4076891  27.4179355 101.2180199  91.1543541
  26.8008525 100.4927027  91.0576593  26.9495843 101.9789560  90.8110615
  29.0733486 105.9279108 108.8149321  29.0146033 105.2438328 108.1479904
  29.4753005 106.6698098 108.3629947  19.2077901  95.4365624  90.2764845
  18.3307367  95.3154424  89.9127092  19.6835654  94.6451702  90.0243734
  29.0750894 103.8918692 107.0463301  28.1877673 103.5544613 107.1689700
  29.6449445 103.1601723 107.2832066  22.3941827 107.7891914  97.5227365
  21.6109349 108.3313594  97.6165590  23.0934572 108.3065894  97.9221607
  25.7038477  93.5986543 100.1661571  26.2007176  92.8456506  99.8462641
  24.9325458  93.6350860  99.6004780  33.5568234  99.3026909 101.8079862
  33.5458111 100.1851624 101.4373795  32.6885614  98.9498460 101.6134399
  26.7868258 102.3558231  97.7399994  25.8524536 102.4759693  97.5704698
  26.9644926 101.4530697  97.4760004  22.2873446  95.7403926  99.8933255
  21.9171233  95.1874967 100.5814161  22.7832538  95.1362060  99.3408255
  30.1740809  98.1975550  98.2750028  30.6401261  99.0303541  98.2010331
  30.6248309  97.7320531  98.9795287  28.2417040 104.5419371  95.2736180
  28.5176884 104.4275966  96.1830054  27.3721539 104.1436856  95.2348353
  28.1457472  90.5656137 102.3140930  27.2320551  90.7960364 102.4823137
  28.5750573  90.6494581 103.1654962  27.9163930  98.7546029 104.8140824
  27.2635380  99.0021936 104.1593276  28.2944310  97.9410167 104.4803301
  24.8771104 108.7905722  98.9168994  25.0593499 107.9727378  99.3796746
  25.7004090 109.0073414  98.4793884  25.2113270 107.7173907  96.1784042
  25.7401036 107.2066362  95.5654205  25.4741489 107.4016437  97.0429575
  17.6838779  93.1507917 106.1386361  17.7480106  94.0122748 105.7263759
  17.6205900  92.5381919 105.4058720  13.9356595  97.0307479  95.7177751
  14.2310036  96.1218157  95.6644804  13.0344630  97.0095218  95.3958753
  25.8442673 108.7514743 102.5228159  25.7193813 107.9504483 102.0139104
  26.5021764 109.2460936 102.0342129  17.4650842  95.1063475 101.7005299
  16.7437427  95.7199443 101.5612772  18.2544097  95.6421240 101.6221945
  27.9077582 106.5523763 104.1507709  26.9607917 106.4329114 104.0786036
  28.2560355 105.6646261 104.2333970  20.2677155  92.4417902 107.9745951
  20.7911557  92.6880198 108.7372260  20.0489488  93.2737937 107.5549088
  15.6644436  94.7121576  95.8417076  15.3357142  93.8318955  95.6592182
  16.0183807  94.6569245  96.7293465  24.9124015 106.3476479 100.3512061
  24.7648977 105.4193187 100.5319631  25.7377509 106.3696570  99.8669136
  18.7786259  94.9994546  96.2092553  19.1182332  95.5280467  95.4871162
  19.2258380  95.3374952  96.9851120  28.5158137 107.1705038 101.4376934
  29.4404684 106.9647899 101.3001385  28.3473440 106.9221439 102.3466275
  21.4729700  93.3831597 105.6595621  21.1326521  92.5839410 106.0616301
  20.7668706  93.6833308 105.0872455  22.1246172  90.4680909 104.1122944
  22.9472241  89.9941388 103.9901835  22.3684235  91.2471393 104.6121631
  20.7654406  93.4969168  94.4085846  21.4862769  93.8750421  93.9049563
  20.1419711  94.2158045  94.5120824  24.9085529  94.2014317  95.3444178
  25.1249144  95.0838955  95.0433007  24.4279596  93.8100530  94.6149820
  19.6484751  97.1600030 101.9214923  19.5029331  97.4740333 102.8139205
  19.1709954  97.7784930 101.3685822  21.5081134  94.1502578 101.9695813
  21.4942702  93.2543671 101.6328111  22.2253562  94.1573242 102.6034099
  23.3607264  94.5839918 104.0148940  23.1025042  95.5056989 104.0133270
  22.8292305  94.1870353 104.7049404  28.3053453 107.6890705  96.7939025
  28.4790331 107.1237128  96.0412878  28.7982344 108.4891600  96.6118515
  20.9118030  93.0316958  97.2383383  21.0333941  92.1033604  97.4374270
  20.6220072  93.0455644  96.3261698  23.7809220  90.7171869 100.3750103
  23.8030917  90.7811202  99.4202082  24.1977279  89.8776377 100.5690609
  34.1592844 100.4527128  98.4129325  34.6023990  99.7034453  98.0148448
  33.2819355 100.4437265  98.0303057  29.2928626 107.0057470  93.8935924
  29.9879530 107.6264162  94.1123238  29.6351776 106.1552821  94.1688302
  31.1920049 104.4557175  95.4223254  31.7171373 104.7944448  94.6972574
  31.1042401 103.5204191  95.2386389  22.8760709 110.5229159  99.7818508
  22.4365700 110.0305537 100.4751364  23.6268826 109.9802126  99.5410583
  31.0011830 101.9382545 108.0407181  31.0509835 101.7732553 108.9822704
  30.8925753 101.0709804 107.6505062  19.8848088 104.6171091  95.3299270
  20.0336209 105.3006555  94.6765943  20.6914532 104.5976181  95.8448726
  28.2915592  97.9213473 109.3566488  29.1925455  97.7819938 109.0650485
  28.3663567  98.0867928 110.2964665  22.6258398  95.2980328 108.2019674
  21.7561707  95.5913894 107.9302263  22.8617878  95.8820773 108.9226938
  32.5030027 104.3579487 108.2849203  32.2114835 104.7209467 109.1212663
  31.8902158 103.6446495 108.1062535  33.7025709 101.9232367 100.8051773
  34.5372600 102.3622171 100.9689333  33.8384838 101.4471020  99.9860019
  30.7517215  99.4812101 106.7529260  31.2271336  99.6739748 105.9448112
  29.8282780  99.5371287 106.5072644  17.6400721 100.6436269  96.3360339
  17.3946763  99.7398599  96.5340549  17.8096636 100.6453419  95.3939817
  25.3297431  91.5159945 105.7185094  25.8479375  92.2520972 105.3931583
  24.9752564  91.8223938 106.5531854  16.9096369  96.3764626  93.8346500
  16.2165614  96.4508981  93.1786536  16.6648121  95.6124970  94.3568017
  25.5810026  87.9360228 101.2385991  25.8611779  87.2683417 101.8646418
  26.3660632  88.1289323 100.7260655  23.3843494 107.1119221  92.8011017
  22.8117461 107.7309409  92.3481489  23.9576288 107.6618583  93.3350939
  29.4518884  96.3577862 104.9857566  30.4036307  96.4575959 105.0069790
  29.2822334  95.5656130 105.4955650  27.4733263  93.4433445 105.1716967
  26.8783195  93.7238457 104.4763456  27.1882960  93.9327346 105.9433708
  26.6040754 107.3956372  93.9319600  27.5371427 107.3301933  94.1352475
  26.5163967 108.2312638  93.4734132  29.2328770 106.7122242  90.8923547
  29.1542402 106.3782105  91.7859305  30.0538437 107.2044010  90.8915019
  31.9306962  99.5783981 104.0999866  31.8983282  98.6399982 104.2859550
  32.5407585  99.6568018 103.3665691  23.7690293  98.4480034  90.1427070
  24.7149397  98.3186242  90.2115488  23.3904537  97.7094696  90.6196498
  32.0801450  96.3695025 104.1458149  31.5640499  95.5853481 103.9588078
  32.9641399  96.0413741 104.3104668  29.7412177  90.1136040 100.1053962
  29.5436998  89.8051128 100.9897294  30.3511883  90.8397679 100.2351891
  37.7483512 100.6399988 103.2405903  38.4786900 100.3785276 103.8013606
  37.1390457  99.9028710 103.2807971  35.8298809  98.7807851 103.8380354
  35.1031972  98.6463816 103.2296845  35.4146096  99.0884679 104.6437072
  21.9533210  96.3730011  90.0781955  21.0464665  96.0763123  90.1544669
  22.2309191  96.0759829  89.2116241  23.5695275  90.9166900  96.2326196
  22.7596004  90.5713985  96.6081442  24.2579692  90.6074444  96.8213808
  25.4985824  89.9944947  97.8550493  26.0516862  90.4140401  98.5140516
  25.7355910  89.0680695  97.8973449  20.7231994  93.2316946  90.2193934
  21.5851158  93.5571844  90.4789752  20.9082338  92.4448442  89.7067000
  28.8764631  92.1045472  97.3629157  28.2963300  92.7630276  96.9807210
  28.6100563  91.2822817  96.9516575  27.3268197  91.5050530  99.5650478
  27.8267976  91.6167064  98.7564796  27.9703805  91.2011583 100.2051286
  27.6589509  94.2645563  96.4185505  26.7715364  94.5495213  96.2005700
  28.0743498  94.1039326  95.5712782  31.0104045  94.2892084 100.1339845
  31.7864435  94.7788536 100.4064462  30.2852179  94.7150138 100.5911714
  33.4476604  95.0019703 101.1913785  34.0421094  94.7615439 100.4807094
  33.5203187  94.2826833 101.8187322  26.8032722 104.0290237  90.5133525
  27.5068572 104.2340240  91.1291181  26.0795371 104.5966999  90.7782609
  27.6330533  99.7800099  96.6335796  27.5765734 100.2368650  95.7943428
  28.1858875  99.0190783  96.4558638  31.4435338  95.5689830  97.4585915
  31.1872273  95.1686466  98.2894123  30.8188206  96.2833624  97.3336054
  35.7547676  98.3085904  99.9657207  35.1947234  98.3779093 100.7388769
  35.1491180  98.1326888  99.2456703  28.7119420 104.4672766  92.5631986
  29.5465024 104.0353965  92.3809460  28.5503763 104.2954780  93.4908880
  28.3665312 100.9704880  93.9288325  28.3114116 100.8049151  92.9876769
  27.7411367 101.6780913  94.0850515  21.6761437  90.4712989  93.5073643
  21.6640107  91.4154829  93.6641914  22.5684859  90.2883134  93.2133104
  25.4913557  87.0655765  97.7619580  24.7245953  86.5114252  97.9076262
  25.9024262  87.1377634  98.6233732  37.3403695 114.9842418 102.6587162
  37.9782105 114.8649165 101.9550502  37.2224538 115.9323262 102.7175114
  34.1493401 114.9369846 102.5948687  33.8111913 114.8210910 101.7069222
  35.0183169 114.5361011 102.5749693  31.8501680 113.7058093  91.9265627
  32.1027201 113.1839614  91.1649090  30.9126240 113.5424239  92.0292311
  36.8944963 112.7093871  99.7340370  37.6808052 112.2913295  99.3830787
  37.1583668 113.6139964  99.9022019  42.2953390 112.6469105 100.6373349
  43.0278562 112.0768321 100.8711178  41.5392746 112.2590705 101.0779854
  33.9129510 115.0696346  97.8336691  33.5487717 114.5426967  98.5449613
  34.7696626 114.6794815  97.6603177  39.8178811 106.3590679 105.0967957
  39.4862136 107.2286090 104.8729172  39.2224424 106.0426963 105.7761988
  33.5534997 110.0986246  92.8298040  33.7209399 110.9666482  93.1968511
  33.3632166 110.2613528  91.9059329  39.7107474 111.0785765 102.1761307
  38.8024351 111.0101173 101.8820068  39.6595070 111.5557710 103.0043133
  33.5324218 112.5543903  93.8144707  33.4123843 113.0000954  94.6530187
  32.8376806 112.9029221  93.2558245  41.5769120 109.2802203 103.9539181
  40.9343501 109.5734736 103.3078976  41.0724049 109.1655124 104.7592378
  39.2309284 113.0265377  94.6425041  40.1427140 113.2592763  94.4672738
  38.7218931 113.6102421  94.0800119  37.5150052 117.4490004 108.2786333
  37.9233408 117.0072415 107.5340966  36.7927313 116.8742632 108.5320526
  33.8681122 112.3862611 105.6519890  34.7142317 112.8102025 105.7954539
  33.8079759 111.7296235 106.3458453  37.0180567 110.0466979 107.3101064
  36.7741499 110.8009040 106.7735340  37.2940498 110.4252327 108.1448311
  38.9719030 116.5905592 105.9878329  39.1835925 117.2337352 105.3112710
  38.9248778 115.7567908 105.5200259  36.5745259 109.2023412 102.8914902
  35.7129738 109.5004666 103.1831639  36.6007694 109.4193811 101.9595934
  32.3275714 113.8688755  96.1078272  33.0299758 114.3209799  96.5752199
  31.9956343 113.2272574  96.7358165  26.0701048 112.1272308 101.4095406
  25.2800102 112.3829837 100.9335517  26.5612296 112.9420646 101.5147446
  28.0215794 112.4916887  98.3678883  27.2246957 112.6035582  98.8862378
  27.7941386 112.8303540  97.5019773  48.1770851 115.8116296 100.5085658
  47.4234559 115.2423694 100.3529663  48.3118392 115.7778960 101.4556293
  32.9704780 108.1779157 110.4374989  33.7114493 108.7786310 110.3579452
  33.2022702 107.4356795 109.8793032  36.9161943 104.2060260 104.7139271
  36.5726212 105.0961902 104.6378382  37.2840905 104.0161918 103.8508856
  36.8812225 114.1968871  93.2211706  36.3658849 114.9673476  93.4600094
  36.6089534 113.5234007  93.8444768  34.4659336 109.0418572  98.2796945
  33.6100933 108.6525422  98.1002583  34.8786288 109.1210533  97.4196730
  35.9958483 106.5764915 102.6788504  35.4923279 106.5395050 101.8656310
  36.2889090 107.4857658 102.7385161  32.2401369 106.6603645 101.6854686
  33.1054366 106.4646453 101.3260575  32.3078878 106.4313997 102.6124043
  41.8546499 116.9501226  95.1564880  41.0775942 116.6112385  94.7120042
  42.5337980 116.9553849  94.4819845  36.6698528 112.0695963  95.0471487
  36.3648664 112.3842112  95.8981631  37.6228971 112.1477383  95.0898820
  40.0937806 116.4235207 101.8131488  39.4361481 117.1134468 101.9011616
  40.8978206 116.8131639 102.1565474  29.8463688 108.8905853  99.0571053
  30.4207440 108.6681034  98.3244246  30.4334670 108.9594547  99.8099654
  38.9043265 114.7779580  99.8635429  39.4175147 115.4109571 100.3657139
  39.5544489 114.1780775  99.4978789  30.1733275 110.9210314  93.0766938
  29.3370587 111.2585000  93.3976213  30.0338045 110.7859294  92.1394075
  32.1486356 105.7647102  97.7846122  31.4950768 105.4496119  97.1602737
  32.1066830 105.1422842  98.5105945  33.2597560 116.0466397  89.6999414
  32.3524622 115.8155650  89.8990563  33.7568592 115.2504016  89.8873396
  35.3824096 112.2529035 102.1093770  34.4646657 112.4743982 101.9515458
  35.7984240 112.3275346 101.2505477  36.1659144 113.6520451  97.2396450
  36.9130963 114.1641848  96.9303572  36.4350733 113.3304504  98.1000844
  34.4385794 116.1478992  94.2223404  33.5297013 115.8638024  94.3195874
  34.4680878 116.5678070  93.3626711  38.6137981 110.6877567  99.2215239
  37.8760738 110.1754953  99.5525482  38.8664754 110.2477949  98.4098516
  38.7149608 103.4653819  99.8157009  39.0208485 102.6051183  99.5282924
  39.4402213 104.0571439  99.6156003  32.9870688 113.7607612 100.3233200
  33.0419298 112.8081449 100.2475676  32.1761890 113.9167051 100.8074498
  30.9263048 112.3784672  98.0823579  30.1130913 112.6778842  98.4888771
  31.4222042 111.9840361  98.7998061  36.5237260 112.8426496 106.9138473
  36.8786647 113.0697970 107.7732938  37.1709391 113.1744873 106.2915728
  42.2534996 115.9644932  97.6187802  42.1152895 116.1546528  96.6908991
  41.8971215 116.7264315  98.0755853  30.4177123 109.9503027 103.6984814
  31.0576502 109.8091787 103.0007777  29.5854653 109.6637541 103.3223416
  42.2804376 118.0321459 102.6299073  42.7140883 117.9396748 103.4782127
  42.9935957 118.0078960 101.9919089  27.5020190 113.3948540  95.8879559
  26.5717778 113.3332995  96.1049521  27.5977662 112.8724492  95.0916200
  27.4205739 109.9203352  98.4757800  27.6812556 110.8348686  98.3666961
  28.2422911 109.4527795  98.6254413  43.1419926 118.0745160 105.1631958
  43.3355816 118.9790970 105.4091233  43.0420544 117.6152579 105.9970544
  34.7956236 107.9603051 107.6622286  34.1484151 108.6593000 107.5686762
  35.5657252 108.3939194 108.0298534  34.9720371 115.7983815 105.7219106
  35.9012431 115.9494975 105.5488073  34.5511401 115.8867836 104.8667752
  38.2573109 116.5472117  91.1543541  37.6402280 115.8218945  91.0576593
  37.7889598 117.3081477  90.8110615  30.0471655 110.7657541  90.2764845
  29.1701122 110.6446342  89.9127092  30.5229408 109.9743620  90.0243734
  36.5432231 108.9278461 100.1661571  37.0400931 108.1748423  99.8462641
  35.7719213 108.9642778  99.6004780  44.3961989 114.6318827 101.8079862
  44.3851865 115.5143542 101.4373795  43.5279368 114.2790377 101.6134399
  33.1267200 111.0695844  99.8933255  32.7564988 110.5166884 100.5814161
  33.6226293 110.4653977  99.3408255  41.0134563 113.5267468  98.2750028
  41.4795016 114.3595459  98.2010331  41.4642064 113.0612449  98.9795287
  38.9851226 105.8948055 102.3140930  38.0714306 106.1252281 102.4823137
  39.4144328 105.9786499 103.1654962  38.7557685 114.0837946 104.8140824
  38.1029135 114.3313854 104.1593276  39.1338065 113.2702085 104.4803301
  28.5232534 108.4799835 106.1386361  28.5873860 109.3414666 105.7263759
  28.4599654 107.8673836 105.4058720  24.7750349 112.3599396  95.7177751
  25.0703790 111.4510075  95.6644804  23.8738385 112.3387136  95.3958753
  28.3044596 110.4355393 101.7005299  27.5831182 111.0491361 101.5612772
  29.0937852 110.9713158 101.6221945  31.1070910 107.7709820 107.9745951
  31.6305311 108.0172116 108.7372260  30.8883243 108.6029854 107.5549088
  26.5038191 110.0413494  95.8417076  26.1750897 109.1610873  95.6592182
  26.8577561 109.9861163  96.7293465  29.6180014 110.3286464  96.2092553
  29.9576086 110.8572385  95.4871162  30.0652134 110.6666870  96.9851120
  32.3123455 108.7123515 105.6595621  31.9720275 107.9131328 106.0616301
  31.6062461 109.0125225 105.0872455  32.9639926 105.7972827 104.1122944
  33.7865996 105.3233305 103.9901835  33.2077990 106.5763311 104.6121631
  31.6048161 108.8261085  94.4085846  32.3256523 109.2042338  93.9049563
  30.9813465 109.5449962  94.5120824  35.7479284 109.5306234  95.3444178
  35.9642898 110.4130872  95.0433007  35.2673351 109.1392448  94.6149820
  30.4878505 112.4891948 101.9214923  30.3423086 112.8032251 102.8139205
  30.0103709 113.1076848 101.3685822  32.3474888 109.4794496 101.9695813
  32.3336457 108.5835589 101.6328111  33.0647316 109.4865159 102.6034099
  34.2001019 109.9131836 104.0148940  33.9418797 110.8348907 104.0133270
  33.6686059 109.5162270 104.7049404  31.7511784 108.3608876  97.2383383
  31.8727695 107.4325522  97.4374270  31.4613826 108.3747562  96.3261698
  34.6202974 106.0463786 100.3750103  34.6424671 106.1103119  99.4202082
  35.0371033 105.2068295 100.5690609  44.9986599 115.7819046  98.4129325
  45.4417745 115.0326371  98.0148448  44.1213109 115.7729182  98.0303057
  41.8405584 117.2674463 108.0407181  41.8903589 117.1024470 108.9822704
  41.7319508 116.4001722 107.6505062  39.1309347 113.2505391 109.3566488
  40.0319209 113.1111856 109.0650485  39.2057321 113.4159846 110.2964665
  33.4652152 110.6272246 108.2019674  32.5955461 110.9205812 107.9302263
  33.7011632 111.2112691 108.9226938  44.5419463 117.2524284 100.8051773
  45.3766355 117.6914088 100.9689333  44.6778592 116.7762937  99.9860019
  41.5910969 114.8104019 106.7529260  42.0665091 115.0031665 105.9448112
  40.6676535 114.8663205 106.5072644  36.1691186 106.8451863 105.7185094
  36.6873130 107.5812890 105.3931583  35.8146319 107.1515856 106.5531854
  27.7490124 111.7056544  93.8346500  27.0559368 111.7800899  93.1786536
  27.5041875 110.9416887  94.3568017  36.4203780 103.2652145 101.2385991
  36.7005534 102.5975334 101.8646418  37.2054387 103.4581241 100.7260655
  40.2912638 111.6869779 104.9857566  41.2430061 111.7867877 105.0069790
  40.1216089 110.8948048 105.4955650  38.3127018 108.7725362 105.1716967
  37.7176950 109.0530375 104.4763456  38.0276715 109.2619263 105.9433708
  42.7700716 114.9075899 104.0999866  42.7377036 113.9691900 104.2859550
  43.3801340 114.9859936 103.3665691  34.6084047 113.7771952  90.1427070
  35.5543152 113.6478160  90.2115488  34.2298292 113.0386614  90.6196498
  42.9195205 111.6986942 104.1458149  42.4034253 110.9145399 103.9588078
  43.8035153 111.3705659 104.3104668  40.5805932 105.4427958 100.1053962
  40.3830753 105.1343046 100.9897294  41.1905637 106.1689597 100.2351891
  48.5877266 115.9691906 103.2405903  49.3180654 115.7077194 103.8013606
  47.9784211 115.2320628 103.2807971  46.6692563 114.1099768 103.8380354
  45.9425727 113.9755733 103.2296845  46.2539850 114.4176597 104.6437072
  32.7926964 111.7021928  90.0781955  31.8858420 111.4055041  90.1544669
  33.0702945 111.4051746  89.2116241  34.4089030 106.2458818  96.2326196
  33.5989758 105.9005903  96.6081442  35.0973447 105.9366362  96.8213808
  36.3379578 105.3236865  97.8550493  36.8910617 105.7432318  98.5140516
  36.5749665 104.3972613  97.8973449  31.5625749 108.5608863  90.2193934
  32.4244913 108.8863762  90.4789752  31.7476093 107.7740359  89.7067000
  39.7158385 107.4337390  97.3629157  39.1357054 108.0922194  96.9807210
  39.4494318 106.6114735  96.9516575  38.1661952 106.8342448  99.5650478
  38.6661730 106.9458982  98.7564796  38.8097560 106.5303500 100.2051286
  38.4983263 109.5937480  96.4185505  37.6109118 109.8787131  96.2005700
  38.9137252 109.4331244  95.5712782  41.8497799 109.6184001 100.1339845
  42.6258190 110.1080454 100.4064462  41.1245934 110.0442055 100.5911714
  44.2870358 110.3311620 101.1913785  44.8814849 110.0907356 100.4807094
  44.3596942 109.6118751 101.8187322  38.4724287 115.1092016  96.6335796
  38.4159488 115.5660568  95.7943428  39.0252629 114.3482701  96.4558638
  42.2829093 110.8981748  97.4585915  42.0266027 110.4978384  98.2894123
  41.6581961 111.6125542  97.3336054  46.5941431 113.6377821  99.9657207
  46.0340989 113.7071011 100.7388769  45.9884934 113.4618806  99.2456703
  39.2059066 116.2996797  93.9288325  39.1507870 116.1341069  92.9876769
  38.5805122 117.0072830  94.0850515  32.5155192 105.8004906  93.5073643
  32.5033862 106.7446746  93.6641914  33.4078614 105.6175052  93.2133104
  36.3307311 102.3947683  97.7619580  35.5639707 101.8406170  97.9076262
  36.7418016 102.4669552  98.6233732  47.7555697 119.5352178 104.7139271
  47.4119966 120.4253819 104.6378382  48.1234660 119.3453835 103.8508856
  49.5543363 118.7945737  99.8157009  49.8602239 117.9343100  99.5282924
  50.2795968 119.3863357  99.6156003  49.8244981 121.2239972 102.3140930
  48.9108060 121.4544199 102.4823137  50.2538082 121.3078416 103.1654962
  47.2597535 118.5944063 101.2385991  47.5399288 117.9267252 101.8646418
  48.0448141 118.7873158 100.7260655  51.4199686 120.7719876 100.1053962
  51.2224507 120.4634964 100.9897294  52.0299392 121.4981514 100.2351891
  47.1773333 120.6528782  97.8550493  47.7304371 121.0724236  98.5140516
  47.4143419 119.7264531  97.8973449  47.1701066 117.7239601  97.7619580
  46.4033462 117.1698087  97.9076262  47.5811771 117.7961470  98.6233732
   4.8195834  31.5010748  87.2330965   4.0659543  30.9318146  87.0774969
   4.9543375  31.4673412  88.1801600   1.6411582  31.4713498  85.1374632
   2.0842728  30.7220823  84.7393755   0.7638092  31.4623634  84.7548364
   1.1844447  32.9418736  87.5297079   2.0191338  33.3808540  87.6934640
   1.3203576  32.4657389  86.7105325   5.2302249  31.6586358  89.9651209
   5.9605638  31.3971646  90.5258913   4.6209195  30.9215080  90.0053277
   3.3117546  29.7994220  90.5625660   2.5850710  29.6650185  89.9542152
   2.8964833  30.1071049  91.3682378   0.9295341  26.0206072  87.9159092
   1.5239832  25.7801808  87.2052400   1.0021925  25.3013203  88.5432628
   3.2366414  29.3272273  86.6902513   2.6765972  29.3965463  87.4634075
   2.6309917  29.1513258  85.9702009   4.8222433  46.0028787  89.3832469
   5.4600843  45.8835535  88.6795809   4.7043275  46.9509631  89.4420421
   1.6312139  45.9556215  89.3193994   1.2930650  45.8397280  88.4314528
   2.5001907  45.5547380  89.2995000   2.1131922  47.1091067  95.2780199
   2.1020563  46.7143865  94.4060703   2.2752561  46.3757140  95.8713971
   3.0698513  51.4762659  80.6205349   2.4186493  52.0616740  80.2339363
   3.8642876  52.0068854  80.6800387   4.3763701  43.7280241  86.4585677
   5.1626790  43.3099664  86.1076094   4.6402405  44.6326333  86.6267325
   4.5473778  49.1653091  81.1574334   3.9119611  49.2387718  81.8695238
   4.2171185  49.7546690  80.4793413   9.7772128  43.6655474  87.3618655
  10.5097300  43.0954691  87.5956485   9.0211484  43.2777075  87.8025161
   1.3948248  46.0882716  84.5581998   1.0306455  45.5613337  85.2694919
   2.2515364  45.6981185  84.3848483   7.2997549  37.3777048  91.8213264
   6.9680873  38.2472459  91.5974479   6.7043162  37.0613332  92.5007294
   1.0353735  41.1172615  79.5543346   1.2028137  41.9852852  79.9213817
   0.8450904  41.2799897  78.6304636   3.7929068  49.5789594  91.2209177
   3.4929791  50.4814633  91.1124984   3.4480128  49.3121778  92.0730330
   7.1926212  42.0972135  88.9006614   6.2843089  42.0287543  88.6065375
   7.1413808  42.5744079  89.7288440   1.2667078  43.5161780  96.8441511
   0.4900412  44.0755700  96.8344376   1.9057641  44.0018563  97.3656382
   9.0587858  40.2988573  90.6784488   8.4162238  40.5921106  90.0324283
   8.5542787  40.1841493  91.4837685   6.7128022  44.0451746  81.3670347
   7.6245878  44.2779133  81.1918045   6.2037669  44.6288790  80.8045426
   4.9968790  48.4676374  95.0031640   5.4052146  48.0258784  94.2586272
   4.2746051  47.8929001  95.2565833   1.3499860  43.4048981  92.3765197
   2.1961055  43.8288394  92.5199846   1.2898497  42.7482605  93.0703760
   5.3197604  49.0277565  88.7583929   4.6906467  49.1923279  88.0559997
   4.9323266  49.4419174  89.5294893   9.1986836  49.9632002  86.1128293
   8.5137874  50.3430904  85.5625326   9.2830685  50.5727329  86.8460240
   4.4999305  41.0653349  94.0346370   4.2560237  41.8195410  93.4980646
   4.7759235  41.4438697  94.8693618   6.4537768  47.6091961  92.7123636
   6.6654663  48.2523721  92.0358017   6.4067516  46.7754278  92.2445566
   4.0563997  40.2209782  89.6160208   3.1948476  40.5191036  89.9076946
   4.0826431  40.4380181  88.6841241   0.8725566  48.7651973  86.0234014
   1.3363912  49.0439676  85.2338636   0.6082364  47.8635417  85.8407105
   7.5683596  50.4863917  90.8845993   8.3901039  50.0844104  90.6028675
   7.5645999  50.3832151  91.8362109   1.3340199  50.0347960  93.0406704
   1.3984632  50.4968367  93.8764876   0.6251123  49.4045325  93.1689014
  15.6589589  46.8302665  87.2330965  14.9053297  46.2610063  87.0774969
  15.7937130  46.7965330  88.1801600   1.0488217  51.7016068  82.9085684
   0.9133892  52.5467603  83.3370532   1.5898029  51.9035345  82.1451618
   2.6756693  52.3239634  97.0386026   2.2320547  51.5376013  96.7206931
   3.3373907  52.5118785  96.3729917   4.7737931  52.6042434  95.0667428
   4.7556407  53.4251315  94.5747697   5.6957851  52.4796509  95.2917569
   1.2310985  50.1186564  95.9090936   1.7639322  49.3574852  95.6790244
   0.7025066  49.8260215  96.6515090   4.3980680  35.2246630  91.4384578
   4.0544950  36.1148271  91.3623688   4.7659643  35.0348287  90.5754163
   4.3630963  45.2155241  79.9457013   3.8477586  45.9859845  80.1845400
   4.0908271  44.5420377  80.5690074   1.9478074  40.0604941  85.0042251
   1.0919670  39.6711792  84.8247890   2.3605026  40.1396902  84.1442037
   3.4777221  37.5951285  89.4033811   2.9742016  37.5581420  88.5901616
   3.7707828  38.5044027  89.4630468   9.3365237  47.9687595  81.8810186
   8.5594680  47.6298755  81.4365348  10.0156718  47.9740218  81.2065151
   4.1517266  43.0882333  81.7716794   3.8467402  43.4028482  82.6226937
   5.1047708  43.1663753  81.8144127   2.5963698  49.2472556  83.4209748
   2.0685060  48.5125316  83.1082985   2.0951201  50.0247232  83.1749716
   7.5756544  47.4421577  88.5376794   6.9180219  48.1320838  88.6256923
   8.3796943  47.8318008  88.8810781   6.3862003  45.7965949  86.5880736
   6.8993885  46.4295941  87.0902446   7.0363227  45.1967145  86.2224096
   3.6484377  55.7750273  79.3441407   2.9746076  56.0781970  79.9526365
   4.0350199  56.5779354  78.9946864   2.8642834  43.2715405  88.8339077
   1.9465395  43.4930352  88.6760765   3.2802977  43.3461715  87.9750784
   3.6477882  44.6706820  83.9641757   4.3949700  45.1828218  83.6548879
   3.9169471  44.3490873  84.8246150   1.9204532  47.1665361  80.9468711
   1.0115751  46.8824394  81.0441181   1.9499615  47.5864440  80.0872018
   7.1523799  50.7771951  84.7159879   6.6986126  49.9362861  84.7725069
   6.5217766  51.4133349  85.0534659   6.0956719  41.7063937  85.9460546
   5.3579475  41.1941323  86.2770789   6.3483492  41.2664318  85.1343823
   5.5956738  52.6148447  85.6509697   5.8879713  53.1753504  84.9322062
   6.1055359  52.9077008  86.4062856   6.1968346  34.4840189  86.5402315
   6.5027223  33.6237552  86.2528230   6.9220951  35.0757809  86.3401309
   1.6180619  48.7074105  78.2856790   1.1800049  47.9909964  77.8262427
   2.3591060  48.9350220  77.7241881   0.5590364  53.3928798  86.7403150
   0.5166542  53.6189645  85.8111682   1.4753062  53.1592173  86.8888951
   4.0055997  43.8612866  93.6383779   4.3605385  44.0884339  94.4978245
   4.6528129  44.1931243  93.0161034   9.7353734  46.9831302  84.3433108
   9.5971633  47.1732898  83.4154297   9.3789953  47.7450685  84.8001159
   9.7623114  49.0507829  89.3544380  10.1959621  48.9583118  90.2027434
  10.4754695  49.0265329  88.7164396   3.4951009  52.6509923  90.8877480
   3.5488031  53.2200859  91.6555196   2.6265790  52.8211808  90.5231517
  10.6238663  49.0931530  91.8877265  10.8174554  49.9977340  92.1336540
  10.5239282  48.6338949  92.7215850   2.2774974  38.9789420  94.3867592
   1.6302889  39.6779370  94.2932069   3.0475990  39.4125564  94.7543841
   5.6853772  49.2438272  97.4618146   5.5339279  49.0148824  96.5448229
   5.6758452  50.2008874  97.4749491   2.4539109  46.8170185  92.4464412
   3.3831169  46.9681345  92.2733379   2.0330139  46.9054206  91.5913059
   1.8475592  55.9429946  81.5588486   2.0227348  55.4717989  82.3734109
   1.1608380  56.5695712  81.7869747   2.8032655  50.2202452  87.6051788
   2.4682488  50.1803222  88.5009437   2.3036601  49.5547168  87.1322198
   5.7391847  47.5658486  77.8788847   5.1221018  46.8405315  77.7821900
   5.2708336  48.3267847  77.5355922   7.3945979  52.2757395  95.5394628
   7.3358525  51.5916615  94.8725211   7.7965497  53.0176385  95.0875254
   7.3963386  50.2396979  93.7708607   6.5090165  49.9022901  93.8935006
   7.9661937  49.5080010  94.0077373   0.9264539  54.8998431  90.7369850
   0.8534711  55.7053403  91.2489155   0.4841933  55.0990397  89.9117872
   4.0250969  39.9464831  86.8906877   4.5219669  39.1934793  86.5707948
   3.2537951  39.9829147  86.3250087  11.8780727  45.6505196  88.5325169
  11.8670603  46.5329912  88.1619102  11.0098106  45.2976747  88.3379706
   3.3863223  54.7985265  92.8928009   4.0991195  55.4332730  92.8203911
   2.8953252  54.8949131  92.0768011   5.1080750  48.7036518  84.4645301
   4.1737029  48.8237980  84.2950005   5.2857418  47.8008985  84.2005311
   8.4953301  44.5453837  84.9995335   8.9613753  45.3781829  84.9255638
   8.9460802  44.0798819  85.7040593   6.5629532  50.8897658  81.9981487
   6.8389376  50.7754253  82.9075361   5.6934031  50.4915143  81.9593660
   6.4669964  36.9134424  89.0386236   5.5533044  37.1438651  89.2068443
   6.8963065  36.9972868  89.8900269   6.2376422  45.1024316  91.5386130
   5.5847873  45.3500223  90.8838583   6.6156802  44.2888454  91.2048608
   3.1983596  55.1384009  85.6414301   3.3805991  54.3205665  86.1042053
   4.0216582  55.3551701  85.2039191   3.5325762  54.0652194  82.9029349
   4.0613528  53.5544649  82.2899511   3.7953981  53.7494725  83.7674882
   2.2863995  45.8444127  98.0252167   1.6104632  45.7438256  98.6954543
   3.1091629  45.6883341  98.4888165   1.0286778  57.1511055  92.2609783
   1.5805086  57.3142676  93.0258869   1.3692972  57.7415492  91.5889808
   5.8797653  51.9772312  98.1158438   6.4237557  52.5902270  97.6213393
   5.2984498  52.5351890  98.6325451   4.1655166  55.0993030  89.2473466
   4.0406305  54.2982770  88.7384411   4.8234257  55.5939223  88.7587436
   6.2290074  52.9002050  90.8753016   5.2820410  52.7807401  90.8031342
   6.5772847  52.0124548  90.9579277   3.2336507  52.6954766  87.0757368
   3.0861470  51.7671474  87.2564938   4.0590001  52.7174857  86.5914443
   6.8370629  53.5183325  88.1622241   7.7617177  53.3126186  88.0246692
   6.6685933  53.2699726  89.0711582   3.2298022  40.5492604  82.0689485
   3.4461636  41.4317242  81.7678313   2.7492089  40.1578817  81.3395127
   1.6819757  40.9318205  90.7394247   1.4237534  41.8535276  90.7378577
   1.1504797  40.5348640  91.4294711   6.6265945  54.0368993  83.5184332
   6.8002823  53.4715415  82.7658185   7.1194837  54.8369887  83.3363822
   2.1021712  37.0650156  87.0995409   2.1243409  37.1289489  86.1447389
   2.5189771  36.2254665  87.2935915  12.4805337  46.8005416  85.1374632
  12.9236483  46.0512741  84.7393755  11.6031847  46.7915552  84.7548364
   7.6141118  53.3535757  80.6181230   8.3092022  53.9742450  80.8368545
   7.9564268  52.5031108  80.8933608   9.5132541  50.8035463  82.1468561
  10.0383865  51.1422735  81.4217881   9.4254894  49.8682478  81.9631696
   1.1752590  54.7169536  94.2758438   1.4839716  54.4718683  95.1481137
   1.9728072  54.9216175  93.7877308   1.1973202  56.8707446  86.5063814
   0.7578192  56.3783824  87.1996671   1.9481319  56.3280413  86.2655890
   9.2026447  51.4368366  97.4519759   8.4121991  51.4192505  96.9124258
   8.9659802  51.9756660  98.2068796   9.3224322  48.2860833  94.7652488
   9.3722327  48.1210840  95.7068010   9.2138245  47.4188092  94.3750368
   6.6128084  44.2691761  96.0811794   7.5137947  44.1298225  95.7895792
   6.6876059  44.4346215  97.0209972  10.8242519  50.7057774  95.0094509
  10.5327327  51.0687755  95.8457970  10.2114650  49.9924782  94.8307841
  12.0238201  48.2710654  87.5297079  12.8585093  48.7100458  87.6934640
  12.1597330  47.7949307  86.7105325   9.0729707  45.8290389  93.4774567
   9.5483829  46.0218035  92.6693419   8.1495273  45.8849574  93.2317951
   3.6509924  37.8638232  92.4430401   4.1691868  38.5999259  92.1176890
   3.2965056  38.1702226  93.2777160   3.9022518  34.2838515  87.9631298
   4.1824272  33.6161704  88.5891724   4.6873125  34.4767610  87.4505961
   1.7055986  53.4597509  79.5256324   1.1329953  54.0787696  79.0726796
   2.2788780  54.0096870  80.0596246   7.7731376  42.7056149  91.7102873
   8.7248799  42.8054246  91.7315097   7.6034827  41.9134417  92.2200957
   5.7945756  39.7911732  91.8962274   5.1995688  40.0716745  91.2008762
   5.5095452  40.2805633  92.6679015   4.9253246  53.7434659  80.6564906
   5.8583919  53.6780220  80.8597782   4.8376459  54.5790926  80.1979439
   7.5541263  53.0600529  77.6168854   7.4754894  52.7260393  78.5104612
   8.3750930  53.5522297  77.6160326  10.2519454  45.9262268  90.8245172
  10.2195774  44.9878269  91.0104856  10.8620078  46.0046305  90.0910997
   2.0902785  44.7958321  76.8672376   3.0361890  44.6664530  76.9360794
   1.7117030  44.0572983  77.3441805  10.4013942  42.7173312  90.8703456
   9.8852991  41.9331769  90.6833384  11.2853891  42.3892028  91.0349975
   8.0624669  36.4614327  86.8299268   7.8649490  36.1529416  87.7142600
   8.6724375  37.1875966  86.9597198  16.0696004  46.9878275  89.9651209
  16.7999392  46.7263563  90.5258913  15.4602949  46.2506997  90.0053277
  14.1511301  45.1286138  90.5625660  13.4244464  44.9942103  89.9542152
  13.7358588  45.4362966  91.3682378   1.9741477  48.8476068  98.3273033
   2.8944487  49.0254667  98.5213080   1.9391060  47.9032113  98.1752733
   1.8907768  37.2645188  82.9571503   1.0808496  36.9192272  83.3326749
   2.5792185  36.9552731  83.5459115   3.8198316  36.3423234  84.5795800
   4.3729355  36.7618688  85.2385823   4.0568402  35.4158982  84.6218756
   7.1977123  38.4523759  84.0874464   6.6175792  39.1108564  83.7052516
   6.9313056  37.6301104  83.6761881   5.6480689  37.8528817  86.2895784
   6.1480468  37.9645352  85.4810103   6.2916297  37.5489870  86.9296593
   5.9802001  40.6123850  83.1430812   5.0927856  40.8973500  82.9251007
   6.3955990  40.4517613  82.2958089   9.3316537  40.6370371  86.8585151
  10.1076927  41.1266823  87.1309768   8.6064671  41.0628425  87.3157021
  11.7689096  41.3497990  87.9159092  12.3633587  41.1093726  87.2052400
  11.8415680  40.6305121  88.5432628   5.1245215  50.3768525  77.2378832
   5.8281065  50.5818527  77.8536488   4.4007863  50.9445286  77.5027916
   5.9543025  46.1278386  83.3581102   5.8978226  46.5846937  82.5188735
   6.5071367  45.3669070  83.1803945   9.7647831  41.9168118  84.1831222
   9.5084765  41.5164753  85.0139429   9.1400699  42.6311912  84.0581361
  14.0760169  44.6564191  86.6902513  13.5159727  44.7257380  87.4634075
  13.4703672  44.4805176  85.9702009   7.0331912  50.8151054  79.2877292
   7.8677516  50.3832252  79.1054767   6.8716255  50.6433067  80.2154187
   6.6877804  47.3183167  80.6533631   6.6326608  47.1527438  79.7122076
   6.0623859  48.0259200  80.8095821   4.0023711  49.6232079  99.9787194
   4.8714871  49.7972731  99.6173829   3.5230463  50.4426496  99.8562924
   3.8126049  33.4134053  84.4864887   3.0458445  32.8592539  84.6321569
   4.2236754  33.4855921  85.3479038  15.6616187  61.3320705  89.3832469
  16.2994597  61.2127452  88.6795809  15.5437030  62.2801549  89.4420421
  12.4705893  61.2848133  89.3193994  12.1324405  61.1689198  88.4314528
  13.3395662  60.8839298  89.2995000   8.3292709  63.1383609  85.3090885
   7.7657574  63.0473546  84.5407172   8.2145104  62.3183514  85.7893377
  12.9525676  62.4382985  95.2780199  12.9414317  62.0435783  94.4060703
  13.1146316  61.7049057  95.8713971   5.8757141  64.6334801  88.1475105
   6.6678433  64.2925626  87.7321404   6.1153791  64.7429776  89.0677258
  13.9092268  66.8054577  80.6205349  13.2580247  67.3908657  80.2339363
  14.7036631  67.3360772  80.6800387   7.8347895  63.8943714  81.0192484
   8.6078771  63.3472701  80.8805360   8.1873294  64.7587964  81.2306945
   9.6732937  65.2220096  94.2259383   9.3822803  66.1265727  94.1106049
  10.3089922  65.2636624  94.9403453  10.5989144  62.5996945  90.8160743
  11.1952717  62.3752967  90.1017706  10.6564116  61.8581690  91.4186191
  10.1714173  60.0536380  78.6510934  10.4239693  59.5317902  77.8894397
   9.2338732  59.8902526  78.7537617  15.2157456  59.0572159  86.4585677
  16.0020545  58.6391582  86.1076094  15.4796160  59.9618251  86.6267325
  15.3867533  64.4945009  81.1574334  14.7513366  64.5679636  81.8695238
  15.0564939  65.0838608  80.4793413  20.6165883  58.9947392  87.3618655
  21.3491055  58.4246609  87.5956485  19.8605238  58.6068992  87.8025161
   9.8910461  61.9564486  80.8535309   9.7746720  61.2809390  81.5216393
  10.0012721  61.4696860  80.0367462  12.2342002  61.4174633  84.5581998
  11.8700210  60.8905254  85.2694919  13.0909118  61.0273102  84.3848483
  18.1391303  52.7068966  91.8213264  17.8074628  53.5764377  91.5974479
  17.5436916  52.3905250  92.5007294  11.8747489  56.4464533  79.5543346
  12.0421892  57.3144769  79.9213817  11.6844658  56.6091815  78.6304636
  14.6322823  64.9081512  91.2209177  14.3323546  65.8106551  91.1124984
  14.2873882  64.6413695  92.0730330   8.0835304  61.3595309  87.2545881
   7.1585800  61.2271523  87.4623573   8.3319717  62.1389528  87.7515824
  18.0319966  57.4264052  88.9006614  17.1236844  57.3579461  88.6065375
  17.9807562  57.9035997  89.7288440  11.8536710  58.9022191  80.5390013
  11.7336335  59.3479241  81.3775494  11.1589299  59.2507508  79.9803551
   5.4444115  61.0028582  88.0889670   5.5736496  61.2563061  89.0029082
   4.7641566  61.5956290  87.7694325   9.6143602  71.6725832  84.1880144
   9.5367632  72.6233657  84.2668625   9.0105246  71.3271705  84.8455071
  12.1060832  58.8453698  96.8441511  11.3294166  59.4047618  96.8344376
  12.7451395  59.3310481  97.3656382  19.8981613  55.6280491  90.6784488
  19.2555993  55.9213024  90.0324283  19.3936541  55.5133411  91.4837685
  17.5521776  59.3743664  81.3670347  18.4639632  59.6071051  81.1918045
  17.0431423  59.9580708  80.8045426  10.3607204  61.6539151  96.4059478
  11.1021889  62.1924195  96.1294302   9.6544190  62.2805440  96.5631030
  15.8362544  63.7968292  95.0031640  16.2445900  63.3550702  94.2586272
  15.1139806  63.2220919  95.2565833  12.1893614  58.7340898  92.3765197
  13.0354809  59.1580312  92.5199846  12.1292252  58.0774523  93.0703760
  16.1591359  64.3569482  88.7583929  15.5300221  64.5215196  88.0559997
  15.7717021  64.7711092  89.5294893  15.3393059  56.3945267  94.0346370
  15.0953991  57.1487327  93.4980646  15.6152990  56.7730614  94.8693618
  17.2931522  62.9383879  92.7123636  17.5048417  63.5815639  92.0358017
  17.2461270  62.1046196  92.2445566  14.8957751  55.5501700  89.6160208
  14.0342230  55.8482953  89.9076946  14.9220186  55.7672099  88.6841241
  11.7119321  64.0943890  86.0234014  12.1757666  64.3731593  85.2338636
  11.4476119  63.1927335  85.8407105   8.6043402  63.6415372  88.9613777
   9.1744759  64.0702640  88.3231262   9.1951513  63.3597957  89.6597963
  10.6488207  60.2167043  82.8323579  11.3512250  60.6688086  83.2997505
  10.3168835  59.5750862  83.4603472   9.0968568  58.8078799  97.2074788
   8.4667229  59.4895080  97.4410185   8.9904656  58.6961881  96.2627927
   4.3913541  58.4750595  88.1340713   3.6012595  58.7308124  87.6580823
   4.8824788  59.2898933  88.2392753  18.4077350  65.8155835  90.8845993
  19.2294794  65.4136022  90.6028675  18.4039753  65.7124069  91.8362109
   6.3428286  58.8395175  85.0924189   5.5459449  58.9513869  85.6107685
   6.1153878  59.1781827  84.2265080  12.1733954  65.3639878  93.0406704
  12.2378386  65.8260285  93.8764876  11.4644877  64.7337243  93.1689014
   2.6751244  58.7281086  90.5655703   2.9259282  59.6128096  90.8313279
   3.2110792  58.5485687  89.7930795  11.8881971  67.0307985  82.9085684
  11.7527646  67.8759521  83.3370532  12.4291784  67.2327263  82.1451618
   8.3749311  53.1099565  99.5700039   7.9816256  52.5565764 100.2447684
   9.1915451  53.4210144  99.9606557   5.3411369  64.5483423  83.4813609
   5.8535889  65.3426674  83.6319174   5.9934081  63.8509714  83.4147211
   7.1506253  67.6649180  85.5636362   7.3272882  68.5867144  85.3757346
   7.9463087  67.3507599  85.9930742  11.2917272  54.5257444  97.1620296
  12.0326985  55.1264597  97.0824758  11.5235195  53.7835082  96.6038339
   6.4358610  59.7113812  95.4398526   6.3212125  58.8099069  95.7405625
   5.5803128  59.9577508  95.0883342  13.5150448  67.6531552  97.0386026
  13.0714302  66.8667930  96.7206931  14.1767661  67.8410702  96.3729917
   8.2737569  69.1827353  91.5646705   8.8244994  69.0544417  90.7923699
   7.4349045  69.4822242  91.2141598  15.6131686  67.9334352  95.0667428
  15.5950161  68.7543233  94.5747697  16.5351606  67.8088427  95.2917569
  12.0704740  65.4478481  95.9090936  12.6033077  64.6866769  95.6790244
  11.5418821  65.1552133  96.6515090  15.2374435  50.5538547  91.4384578
  14.8938704  51.4440189  91.3623688  15.6053397  50.3640205  90.5754163
   3.3060285  62.8772078  84.2573180   4.1435507  63.2869086  84.0406888
   3.4838553  61.9371520  84.2273374  15.2024718  60.5447158  79.9457013
  14.6871341  61.3151763  80.1845400  14.9302026  59.8712294  80.5690074
  12.7871829  55.3896859  85.0042251  11.9313425  55.0003709  84.8247890
  13.1998780  55.4688820  84.1442037  14.3170975  52.9243202  89.4033811
  13.8135771  52.8873337  88.5901616  14.6101582  53.8335945  89.4630468
  10.5613861  53.0081932  88.4099993  11.4266858  52.8124741  88.0505882
  10.6291370  52.7792284  89.3369349  20.1758992  63.2979513  81.8810186
  19.3988434  62.9590672  81.4365348  20.8550473  63.3032136  81.2065151
  14.9911021  58.4174250  81.7716794  14.6861156  58.7320400  82.6226937
  15.9441463  58.4955670  81.8144127  13.4357453  64.5764474  83.4209748
  12.9078814  63.8417233  83.1082985  12.9344955  65.3539150  83.1749716
  18.4150299  62.7713494  88.5376794  17.7573973  63.4612756  88.6256923
  19.2190698  63.1609926  88.8810781   8.1676180  55.2384140  85.7816359
   8.7419932  55.0159321  85.0489552   8.7547163  55.3072834  86.5344961
  17.2255757  61.1257867  86.5880736  17.7387639  61.7587859  87.0902446
  17.8756981  60.5259062  86.2224096   8.4945767  57.2688601  79.8012245
   7.6583080  57.6063288  80.1221519   8.3550537  57.1337581  78.8639382
  10.4698848  52.1125389  84.5091429   9.8163260  51.7974406  83.8848044
  10.4279322  51.4901129  85.2351252  11.5810053  62.3944684  76.4244721
  10.6737114  62.1633937  76.6235870  12.0781085  61.5982303  76.6118703
  14.4878132  71.1042191  79.3441407  13.8139830  71.4073888  79.9526365
  14.8743954  71.9071271  78.9946864  13.7036588  58.6007322  88.8339077
  12.7859150  58.8222269  88.6760765  14.1196732  58.6753633  87.9750784
  14.4871636  59.9998738  83.9641757  15.2343455  60.5120135  83.6548879
  14.7563226  59.6782791  84.8246150  12.7598286  62.4957279  80.9468711
  11.8509505  62.2116312  81.0441181  12.7893370  62.9156357  80.0872018
  17.9917554  66.1063868  84.7159879  17.5379881  65.2654778  84.7725069
  17.3611520  66.7425267  85.0534659  16.9350473  57.0355854  85.9460546
  16.1973230  56.5233241  86.2770789  17.1877247  56.5956236  85.1343823
  16.4350493  67.9440365  85.6509697  16.7273467  68.5045422  84.9322062
  16.9449113  68.2368926  86.4062856  17.0362100  49.8132106  86.5402315
  17.3420977  48.9529470  86.2528230  17.7614705  50.4049727  86.3401309
   3.3286457  60.2162793  84.9283913   3.1310856  59.6232154  84.2034980
   2.7733121  59.9115003  85.6459852  11.3083180  60.1085899  87.0478506
  11.3631790  59.1559736  86.9720983  10.4974382  60.2645339  87.5319805
  12.4574374  64.0366023  78.2856790  12.0193804  63.3201881  77.8262427
  13.1984815  64.2642137  77.7241881   9.2475540  58.7262959  84.8068885
   8.4343406  59.0257130  85.2134077   9.7434534  58.3318648  85.5243368
  11.3984118  68.7220716  86.7403150  11.3560297  68.9481562  85.8111682
  12.3146817  68.4884091  86.8888951  14.8449752  59.1904784  93.6383779
  15.1999140  59.4176257  94.4978245  15.4921883  59.5223160  93.0161034
  20.5747489  62.3123220  84.3433108  20.4365387  62.5024816  83.4154297
  20.2183708  63.0742602  84.8001159   8.7389615  56.2981315  90.4230120
   9.3788994  56.1570074  89.7253084   7.9067145  56.0115828  90.0468722
  20.6016868  64.3799747  89.3544380  21.0353375  64.2875036  90.2027434
  21.3148449  64.3557247  88.7164396   9.5149919  65.5983745  86.5365113
  10.3090517  65.1034065  86.3347688   8.8041611  65.0701608  86.1732818
  14.3344763  67.9801841  90.8877480  14.3881786  68.5492777  91.6555196
  13.4659545  68.1503726  90.5231517   5.8232682  59.7426827  82.6124865
   4.8930270  59.6811282  82.8294828   5.9190154  59.2202780  81.8161507
   5.7418231  56.2681640  85.2003107   6.0025049  57.1826973  85.0912268
   6.5635404  55.8006082  85.3499720   7.2143157  57.6819397  92.3701932
   7.8866210  57.4736759  91.7214580   6.3872943  57.4841483  91.9307164
  21.4632418  64.4223447  91.8877265  21.6568308  65.3269258  92.1336540
  21.3633036  63.9630866  92.7215850  13.1168729  54.3081338  94.3867592
  12.4696644  55.0071287  94.2932069  13.8869744  54.7417482  94.7543841
  16.5247527  64.5730190  97.4618146  16.3733033  64.3440742  96.5448229
  16.5152206  65.5300791  97.4749491  13.2932863  62.1462103  92.4464412
  14.2224923  62.2973262  92.2733379  12.8723893  62.2346123  91.5913059
  12.0921195  66.1712767  90.2162950  11.9532280  65.8031552  91.0888888
  11.3035791  66.6860407  90.0446908  12.6869347  71.2721864  81.5588486
  12.8621102  70.8009907  82.3734109  12.0002135  71.8987630  81.7869747
  13.6426410  65.5494370  87.6051788  13.3076243  65.5095140  88.5009437
  13.1430356  64.8839086  87.1322198   7.6170654  60.9562000  93.1304369
   7.4790452  60.2242239  93.7315908   8.5275577  60.8670900  92.8488556
  16.5785602  62.8950404  77.8788847  15.9614772  62.1697232  77.7821900
  16.1102090  63.6559764  77.5355922  10.2452955  60.6681959  92.6188048
  10.9552573  60.0275151  92.5774667  10.2022263  60.9194854  93.5414229
  18.2339733  67.6049312  95.5394628  18.1752279  66.9208533  94.8725211
  18.6359252  68.3468303  95.0875254   8.9581889  57.6547177  94.4383688
   8.4219246  57.2037915  95.0905284   8.3698597  57.7893086  93.6954152
   7.2530432  74.4211226  88.3328346   7.4927030  75.0529750  89.0107365
   6.4099629  74.0699266  88.6193706   8.3684148  57.1135828  77.0010152
   7.4913614  56.9924629  76.6372398   8.8441901  56.3221907  76.7489040
  18.2357141  65.5688896  93.7708607  17.3483919  65.2314818  93.8935006
  18.8055692  64.8371928  94.0077373   4.6921010  56.7903185  91.5236682
   4.6079199  56.1828854  90.7887092   3.8703716  57.2812203  91.5246179
  11.7658294  70.2290349  90.7369850  11.6928465  71.0345320  91.2489155
  11.3235687  70.4282315  89.9117872  11.5548074  69.4662119  84.2472672
  10.7715595  70.0083799  84.3410897  12.2540819  69.9836098  84.6466913
  14.8644724  55.2756748  86.8906877  15.3613423  54.5226711  86.5707948
  14.0931705  55.3121065  86.3250087  22.7174481  60.9797114  88.5325169
  22.7064357  61.8621829  88.1619102  21.8491860  60.6268665  88.3379706
  14.2256977  70.1277183  92.8928009  14.9384950  70.7624648  92.8203911
  13.7347006  70.2241049  92.0768011  15.9474504  64.0328435  84.4645301
  15.0130783  64.1529898  84.2950005  16.1251173  63.1300902  84.2005311
  11.4479692  57.4174131  86.6178562  11.0777480  56.8645172  87.3059468
  11.9438785  56.8132265  86.0653562  19.3347056  59.8745755  84.9995335
  19.8007508  60.7073746  84.9255638  19.7854556  59.4090736  85.7040593
   9.2768891  67.8771626  93.7133580   9.9778350  68.5108109  93.8662974
   8.8064006  68.2186358  92.9529219  17.4023287  66.2189576  81.9981487
  17.6783131  66.1046171  82.9075361  16.5327786  65.8207061  81.9593660
  17.3063718  52.2426342  89.0386236  16.3926798  52.4730569  89.2068443
  17.7356820  52.3264786  89.8900269  17.0770177  60.4316234  91.5386130
  16.4241627  60.6792141  90.8838583  17.4550557  59.6180372  91.2048608
  14.0377351  70.4675927  85.6414301  14.2199745  69.6497583  86.1042053
  14.8610337  70.6843619  85.2039191  14.3719516  69.3944112  82.9029349
  14.9007283  68.8836567  82.2899511  14.6347736  69.0786642  83.7674882
  13.1257750  61.1736045  98.0252167  12.4498387  61.0730174  98.6954543
  13.9485384  61.0175259  98.4888165   4.8736609  67.4107981  90.6464683
   5.4590046  66.6651669  90.7792587   4.6761447  67.7211938  91.5301347
   7.7275264  70.4459229  85.6627125   7.0585640  70.9305356  85.1791165
   7.5888134  70.6928449  86.5770504  11.8680533  72.4802972  92.2609783
  12.4198841  72.6434594  93.0258869  12.2086726  73.0707410  91.5889808
   6.8445026  54.8278122  92.8631668   6.9086353  55.6892953  92.4509066
   6.7812146  54.2152124  92.1304027   6.3197299  56.9001255  96.5104702
   6.9469337  56.5178332  97.1242227   5.4625217  56.6815457  96.8760395
  16.7191407  67.3064230  98.1158438  17.2631311  67.9194188  97.6213393
  16.1378252  67.8643808  98.6325451   3.0962841  58.7077684  82.4423057
   3.3916282  57.7988362  82.3890111   2.1950877  58.6865423  82.1204060
  15.0048920  70.4284948  89.2473466  14.8800060  69.6274688  88.7384411
  15.6628011  70.9231141  88.7587436   6.6257088  56.7833680  88.4250606
   5.9043674  57.3969648  88.2858079   7.4150344  57.3191445  88.3467252
  17.0683828  68.2293968  90.8753016  16.1214164  68.1099319  90.8031342
  17.4166602  67.3416466  90.9579277   9.4283402  54.1188107  94.6991258
   9.9517804  54.3650403  95.4617567   9.2095735  54.9508142  94.2794395
   4.8250683  56.3891781  82.5662382   4.4963389  55.5089160  82.3837488
   5.1790054  56.3339450  83.4538772  14.0730262  68.0246684  87.0757368
  13.9255224  67.0963391  87.2564938  14.8983755  68.0466775  86.5914443
   7.9392506  56.6764751  82.9337860   8.2788579  57.2050672  82.2116468
   8.3864627  57.0145157  83.7096427  17.6764384  68.8475243  88.1622241
  18.6010931  68.6418104  88.0246692  17.5079687  68.5991644  89.0711582
  10.6335947  55.0601802  92.3840928  10.2932767  54.2609615  92.7861608
   9.9274953  55.3603513  91.8117761  11.2852419  52.1451114  90.8368251
  12.1078488  51.6711592  90.7147141  11.5290482  52.9241598  91.3366937
   9.9260653  55.1739373  81.1331153  10.6469016  55.5520626  80.6294870
   9.3025957  55.8928250  81.2366131  14.0691776  55.8784522  82.0689485
  14.2855391  56.7609160  81.7678313  13.5885843  55.4870735  81.3395127
   8.8090997  58.8370235  88.6460230   8.6635578  59.1510538  89.5384511
   8.3316201  59.4555135  88.0931128  10.6687380  55.8272783  88.6941119
  10.6548949  54.9313876  88.3573417  11.3859808  55.8343447  89.3279405
  12.5213511  56.2610123  90.7394247  12.2631289  57.1827194  90.7378577
  11.9898551  55.8640558  91.4294711  17.4659700  69.3660910  83.5184332
  17.6396577  68.8007333  82.7658185  17.9588591  70.1661805  83.3363822
   3.2836660  61.3775579  91.5847891   2.7390128  62.1535387  91.7168165
   4.1616010  61.7246384  91.4267012  10.0724276  54.7087163  83.9628689
  10.1940188  53.7803809  84.1619577   9.7826319  54.7225849  83.0507005
  12.9415467  52.3942074  87.0995409  12.9637164  52.4581407  86.1447389
  13.3583526  51.5546582  87.2935915  18.4534872  68.6827675  80.6181230
  19.1485777  69.3034367  80.8368545  18.7958022  67.8323026  80.8933608
   4.0702682  60.5045476  94.4778048   3.3284418  60.6528111  95.0642678
   3.7495426  60.7653741  93.6144797  20.3526295  66.1327380  82.1468561
  20.8777620  66.4714653  81.4217881  20.2648648  65.1974396  81.9631696
  12.0146344  70.0461454  94.2758438  12.3233471  69.8010601  95.1481137
  12.8121826  70.2508092  93.7877308  12.0366956  72.1999363  86.5063814
  11.5971947  71.7075742  87.1996671  12.7875073  71.6572331  86.2655890
   4.5159295  68.3910904  86.5088442   5.3417315  68.0914676  86.1287086
   4.1653347  67.6218527  86.9578231   9.4840828  67.7437373  88.5786116
   8.8620838  67.0808078  88.2788344  10.1545695  67.7698504  87.8959764
   2.7167900  66.3097231  87.4677376   1.8799809  65.8819405  87.2861377
   2.6891546  66.5029674  88.4048167   9.5565356  56.2219161  98.1718622
   9.6053511  57.0981283  97.7896392  10.0987870  55.6796554  97.5990265
  20.0420202  66.7660284  97.4519759  19.2515745  66.7484423  96.9124258
  19.8053556  67.3048578  98.2068796  20.1618077  63.6152750  94.7652488
  20.2116082  63.4502758  95.7068010  20.0532000  62.7480009  94.3750368
   9.0454335  66.2941296  82.0544577   9.1942456  66.9776760  81.4011249
   9.8520779  66.2746386  82.5694032  17.4521839  59.5983678  96.0811794
  18.3531702  59.4590143  95.7895792  17.5269813  59.7638133  97.0209972
  11.7864644  56.9750533  94.9264981  10.9167954  57.2684099  94.6547569
  12.0224125  57.5590978  95.6472244  21.6636273  66.0349692  95.0094509
  21.3721082  66.3979672  95.8457970  21.0508405  65.3216700  94.8307841
  19.9123462  61.1582306  93.4774567  20.3877583  61.3509953  92.6693419
  18.9889027  61.2141492  93.2317951   6.8006968  62.3206474  83.0605645
   6.5553010  61.4168804  83.2585856   6.9702883  62.3223624  82.1185123
  14.4903678  53.1930150  92.4430401  15.0085622  53.9291177  92.1176890
  14.1358811  53.4994143  93.2777160   6.0702616  58.0534831  80.5591807
   5.3771861  58.1279186  79.9031843   5.8254368  57.2895175  81.0813324
  14.7416272  49.6130432  87.9631298  15.0218026  48.9453622  88.5891724
  15.5266879  49.8059528  87.4505961  12.5449741  68.7889426  79.5256324
  11.9723708  69.4079613  79.0726796  13.1182534  69.3388788  80.0596246
  18.6125131  58.0348066  91.7102873  19.5642554  58.1346164  91.7315097
  18.4428581  57.2426335  92.2200957  16.6339510  55.1203650  91.8962274
  16.0389442  55.4008662  91.2008762  16.3489207  55.6097551  92.6679015
  15.7647001  69.0726576  80.6564906  16.6977674  69.0072138  80.8597782
  15.6770213  69.9082843  80.1979439  18.3935017  68.3892447  77.6168854
  18.3148649  68.0552310  78.5104612  19.2144684  68.8814215  77.6160326
  21.0913208  61.2554186  90.8245172  21.0589529  60.3170187  91.0104856
  21.7013832  61.3338223  90.0910997  12.9296539  60.1250239  76.8672376
  13.8755644  59.9956447  76.9360794  12.5510784  59.3864901  77.3441805
  21.2407697  58.0465230  90.8703456  20.7246746  57.2623686  90.6833384
  22.1247645  57.7183946  91.0349975  18.9018424  51.7906245  86.8299268
  18.7043245  51.4821333  87.7142600  19.5118129  52.5167884  86.9597198
  26.9089758  62.3170193  89.9651209  27.6393147  62.0555481  90.5258913
  26.2996704  61.5798915  90.0053277  24.9905055  60.4578056  90.5625660
  24.2638219  60.3234020  89.9542152  24.5752342  60.7654884  91.3682378
  12.8135232  64.1767985  98.3273033  13.7338241  64.3546584  98.5213080
  12.7784815  63.2324031  98.1752733  11.1139456  58.0500215  76.8027262
  10.2070912  57.7533328  76.8789975  11.3915437  57.7530034  75.9361548
   2.0317397  59.3706579  87.2526308   1.7120181  58.5171887  86.9600682
   1.4850825  59.5855157  88.0084275   5.8097304  62.0869020  90.9695815
   6.0283314  63.0186128  90.9883848   6.2223078  61.7276994  91.7550618
  12.7301522  52.5937105  82.9571503  11.9202250  52.2484190  83.3326749
  13.4185939  52.2844649  83.5459115  14.6592070  51.6715152  84.5795800
  15.2123109  52.0910605  85.2385823  14.8962157  50.7450900  84.6218756
  10.6825170  57.6602226 100.3598564  10.5821897  58.6096583 100.2910655
  10.4646712  57.3320465  99.4874634   9.8838241  54.9087151  76.9439241
  10.7457405  55.2342049  77.2035058  10.0688585  54.1218647  76.4312307
   1.9005657  62.9909490  89.2219430   1.2069128  62.5763443  88.7089384
   2.6478648  63.0330027  88.6252849  18.0370878  53.7815677  84.0874464
  17.4569547  54.4400481  83.7052516  17.7706810  52.9593022  83.6761881
  16.4874444  53.1820735  86.2895784  16.9874222  53.2937269  85.4810103
  17.1310052  52.8781788  86.9296593  10.5456440  61.0899364  99.1763625
  10.0623521  61.8899725  99.3827514  10.6317379  61.1007309  98.2231069
   3.8142399  62.9227744  87.0985445   3.7913087  63.0215431  86.1467328
   4.1243036  63.7692895  87.4202611   6.4729777  64.9803899  91.2132059
   7.4273031  64.9487842  91.1461991   6.2742301  64.5194523  92.0282285
   7.0629159  63.5505015  93.7802857   7.8822048  64.0449094  93.8037694
   7.3365967  62.6336983  93.7520424  16.8195756  55.9415768  83.1430812
  15.9321611  56.2265418  82.9251007  17.2349745  55.7809531  82.2958089
  20.1710292  55.9662289  86.8585151  20.9470682  56.4558741  87.1309768
  19.4458426  56.3920343  87.3157021  22.6082850  56.6789908  87.9159092
  23.2027341  56.4385644  87.2052400  22.6809434  55.9597038  88.5432628
   4.8280006  70.5223519  88.2302257   4.6934474  69.7623920  87.6640255
   4.4112068  71.2464419  87.7631046  15.9638969  65.7060442  77.2378832
  16.6674819  65.9110445  77.8536488  15.2401618  66.2737204  77.5027916
  16.7936779  61.4570303  83.3581102  16.7371981  61.9138855  82.5188735
  17.3465122  60.6960988  83.1803945  20.6041585  57.2460035  84.1831222
  20.3478519  56.8456671  85.0139429  19.9794453  57.9603829  84.0581361
  24.9153923  59.9856109  86.6902513  24.3553481  60.0549298  87.4634075
  24.3097426  59.8097093  85.9702009   7.9849132  71.4192836  88.4420699
   7.8681516  72.3638268  88.3399390   7.1641578  71.1166397  88.8306499
  17.8725666  66.1442971  79.2877292  18.7071270  65.7124170  79.1054767
  17.7110009  65.9724985  80.2154187  17.5271559  62.6475085  80.6533631
  17.4720362  62.4819356  79.7122076  16.9017614  63.3551118  80.8095821
   2.3164074  57.8843149  94.4795054   2.9622937  57.3742103  94.9682279
   2.1081225  58.6211831  95.0538479  14.8417466  64.9523997  99.9787194
  15.7108625  65.1264649  99.6173829  14.3624217  65.7718413  99.8562924
  10.8367684  52.1483194  80.2318950  10.8246354  53.0925034  80.3887221
  11.7291106  51.9653339  79.9378411   9.0103646  72.0721098  91.6576628
   9.9130893  72.1044708  91.9743123   8.7841016  71.1421549  91.6722964
  10.7657248  70.8252084  88.3186707   9.8152879  70.8253946  88.2051079
  11.0689734  70.0784819  87.8022741  14.6519804  48.7425970  84.4864887
  13.8852199  48.1884457  84.6321569  15.0630509  48.8147839  85.3479038
   6.6561565  55.0310766  98.5770068   7.5193026  54.6747571  98.7873392
   6.0826975  54.6924661  99.2645472  23.3099648  76.6140051  89.3193994
  22.9718159  76.4981115  88.4314528  24.1789416  76.2131216  89.2995000
  19.1686463  78.4675527  85.3090885  18.6051329  78.3765464  84.5407172
  19.0538859  77.6475431  85.7893377  23.7919431  77.7674902  95.2780199
  23.7808072  77.3727701  94.4060703  23.9540070  77.0340975  95.8713971
  16.7150895  79.9626719  88.1475105  17.5072187  79.6217543  87.7321404
  16.9547546  80.0721694  89.0677258  24.7486022  82.1346495  80.6205349
  24.0974002  82.7200575  80.2339363  25.5430385  82.6652690  80.6800387
  18.6741649  79.2235632  81.0192484  19.4472525  78.6764619  80.8805360
  19.0267048  80.0879881  81.2306945  20.5126692  80.5512014  94.2259383
  20.2216558  81.4557645  94.1106049  21.1483676  80.5928542  94.9403453
  21.4382899  77.9288863  90.8160743  22.0346471  77.7044885  90.1017706
  21.4957870  77.1873608  91.4186191  21.0107927  75.3828298  78.6510934
  21.2633448  74.8609819  77.8894397  20.0732486  75.2194443  78.7537617
  26.2261287  79.8236927  81.1574334  25.5907120  79.8971553  81.8695238
  25.8958694  80.4130526  80.4793413  20.7304216  77.2856404  80.8535309
  20.6140474  76.6101307  81.5216393  20.8406476  76.7988778  80.0367462
  25.4716577  80.2373430  91.2209177  25.1717300  81.1398468  91.1124984
  25.1267637  79.9705613  92.0730330  18.9229058  76.6887227  87.2545881
  17.9979555  76.5563441  87.4623573  19.1713472  77.4681446  87.7515824
  16.2837870  76.3320500  88.0889670  16.4130251  76.5854979  89.0029082
  15.6035321  76.9248208  87.7694325  20.4537357  87.0017750  84.1880144
  20.3761387  87.9525575  84.2668625  19.8499000  86.6563623  84.8455071
  22.9454587  74.1745615  96.8441511  22.1687921  74.7339536  96.8344376
  23.5845150  74.6602398  97.3656382  21.2000959  76.9831069  96.4059478
  21.9415643  77.5216113  96.1294302  20.4937944  77.6097358  96.5631030
  26.6756299  79.1260209  95.0031640  27.0839655  78.6842620  94.2586272
  25.9533560  78.5512837  95.2565833  23.0287369  74.0632816  92.3765197
  23.8748564  74.4872230  92.5199846  22.9686006  73.4066440  93.0703760
  26.9985113  79.6861400  88.7583929  26.3693976  79.8507114  88.0559997
  26.6110775  80.1003009  89.5294893  26.1786814  71.7237184  94.0346370
  25.9347746  72.4779245  93.4980646  26.4546744  72.1022532  94.8693618
  28.1325277  78.2675797  92.7123636  28.3442172  78.9107557  92.0358017
  28.0855025  77.4338113  92.2445566  22.5513075  79.4235808  86.0234014
  23.0151421  79.7023511  85.2338636  22.2869873  78.5219253  85.8407105
  19.4437156  78.9707290  88.9613777  20.0138513  79.3994558  88.3231262
  20.0345268  78.6889874  89.6597963  21.4881961  75.5458960  82.8323579
  22.1906004  75.9980004  83.2997505  21.1562590  74.9042779  83.4603472
  19.9362323  74.1370717  97.2074788  19.3060983  74.8186998  97.4410185
  19.8298411  74.0253799  96.2627927  15.2307295  73.8042513  88.1340713
  14.4406349  74.0600042  87.6580823  15.7218542  74.6190851  88.2392753
  29.2471105  81.1447752  90.8845993  30.0688548  80.7427939  90.6028675
  29.2433508  81.0415986  91.8362109  17.1822040  74.1687092  85.0924189
  16.3853204  74.2805787  85.6107685  16.9547633  74.5073744  84.2265080
  23.0127708  80.6931795  93.0406704  23.0772141  81.1552203  93.8764876
  22.3038632  80.0629160  93.1689014  13.5144998  74.0573003  90.5655703
  13.7653036  74.9420013  90.8313279  14.0504546  73.8777605  89.7930795
  22.7275726  82.3599903  82.9085684  22.5921401  83.2051439  83.3370532
  23.2685538  82.5619181  82.1451618  19.2143065  68.4391483  99.5700039
  18.8210011  67.8857681 100.2447684  20.0309206  68.7502061  99.9606557
  16.1805123  79.8775341  83.4813609  16.6929644  80.6718591  83.6319174
  16.8327836  79.1801631  83.4147211  17.9900008  82.9941097  85.5636362
  18.1666636  83.9159062  85.3757346  18.7856841  82.6799517  85.9930742
  22.1311026  69.8549362  97.1620296  22.8720740  70.4556515  97.0824758
  22.3628949  69.1127000  96.6038339  17.2752364  75.0405729  95.4398526
  17.1605880  74.1390986  95.7405625  16.4196882  75.2869426  95.0883342
  24.3544202  82.9823469  97.0386026  23.9108056  82.1959848  96.7206931
  25.0161416  83.1702620  96.3729917  19.1131323  84.5119271  91.5646705
  19.6638748  84.3836334  90.7923699  18.2742799  84.8114160  91.2141598
  26.4525440  83.2626269  95.0667428  26.4343916  84.0835150  94.5747697
  27.3745360  83.1380345  95.2917569  22.9098494  80.7770399  95.9090936
  23.4426831  80.0158687  95.6790244  22.3812575  80.4844051  96.6515090
  26.0768189  65.8830465  91.4384578  25.7332459  66.7732107  91.3623688
  26.4447152  65.6932122  90.5754163  14.1454040  78.2063995  84.2573180
  14.9829262  78.6161004  84.0406888  14.3232308  77.2663437  84.2273374
  24.2751207  79.9056391  83.4209748  23.7472569  79.1709151  83.1082985
  23.7738710  80.6831068  83.1749716  19.0069935  70.5676058  85.7816359
  19.5813687  70.3451239  85.0489552  19.5940917  70.6364752  86.5344961
  19.3339522  72.5980519  79.8012245  18.4976834  72.9355205  80.1221519
  19.1944291  72.4629498  78.8639382  22.4203807  77.7236602  76.4244721
  21.5130869  77.4925855  76.6235870  22.9174839  76.9274221  76.6118703
  25.3271886  86.4334109  79.3441407  24.6533585  86.7365806  79.9526365
  25.7137708  87.2363189  78.9946864  28.8311308  81.4355786  84.7159879
  28.3773635  80.5946696  84.7725069  28.2005275  82.0717184  85.0534659
  27.2744247  83.2732283  85.6509697  27.5667222  83.8337340  84.9322062
  27.7842868  83.5660844  86.4062856  14.1680211  75.5454711  84.9283913
  13.9704611  74.9524071  84.2034980  13.6126875  75.2406921  85.6459852
  23.2968128  79.3657940  78.2856790  22.8587558  78.6493799  77.8262427
  24.0378569  79.5934055  77.7241881  20.0869295  74.0554877  84.8068885
  19.2737160  74.3549047  85.2134077  20.5828289  73.6610566  85.5243368
  22.2377873  84.0512634  86.7403150  22.1954051  84.2773480  85.8111682
  23.1540571  83.8176008  86.8888951  25.6843506  74.5196701  93.6383779
  26.0392894  74.7468174  94.4978245  26.3315638  74.8515078  93.0161034
  19.5783369  71.6273232  90.4230120  20.2182749  71.4861991  89.7253084
  18.7460900  71.3407746  90.0468722  31.4410623  79.7091664  89.3544380
  31.8747130  79.6166953  90.2027434  32.1542204  79.6849165  88.7164396
  20.3543673  80.9275663  86.5365113  21.1484272  80.4325983  86.3347688
  19.6435366  80.3993526  86.1732818  25.1738518  83.3093758  90.8877480
  25.2275540  83.8784695  91.6555196  24.3053299  83.4795643  90.5231517
  16.6626437  75.0718745  82.6124865  15.7324025  75.0103200  82.8294828
  16.7583909  74.5494697  81.8161507  16.5811986  71.5973557  85.2003107
  16.8418803  72.5118891  85.0912268  17.4029158  71.1298000  85.3499720
  18.0536911  73.0111315  92.3701932  18.7259965  72.8028677  91.7214580
  17.2266698  72.8133401  91.9307164  32.3026172  79.7515365  91.8877265
  32.4962063  80.6561175  92.1336540  32.2026791  79.2922784  92.7215850
  23.9562483  69.6373255  94.3867592  23.3090398  70.3363205  94.2932069
  24.7263499  70.0709399  94.7543841  27.3641281  79.9022108  97.4618146
  27.2126788  79.6732659  96.5448229  27.3545961  80.8592709  97.4749491
  24.1326618  77.4754020  92.4464412  25.0618678  77.6265180  92.2733379
  23.7117648  77.5638041  91.5913059  22.9314949  81.5004685  90.2162950
  22.7926035  81.1323469  91.0888888  22.1429546  82.0152324  90.0446908
  23.5263101  86.6013781  81.5588486  23.7014857  86.1301824  82.3734109
  22.8395889  87.2279547  81.7869747  24.4820164  80.8786287  87.6051788
  24.1469997  80.8387057  88.5009437  23.9824110  80.2131003  87.1322198
  18.4564408  76.2853918  93.1304369  18.3184206  75.5534156  93.7315908
  19.3669332  76.1962818  92.8488556  21.0846709  75.9973877  92.6188048
  21.7946328  75.3567069  92.5774667  21.0416017  76.2486772  93.5414229
  29.0733488  82.9341230  95.5394628  29.0146034  82.2500450  94.8725211
  29.4753006  83.6760220  95.0875254  19.7975643  72.9839095  94.4383688
  19.2613000  72.5329833  95.0905284  19.2092351  73.1185004  93.6954152
  18.0924187  89.7503144  88.3328346  18.3320785  90.3821668  89.0107365
  17.2493383  89.3991184  88.6193706  19.2077902  72.4427746  77.0010152
  18.3307368  72.3216547  76.6372398  19.6835655  71.6513824  76.7489040
  29.0750895  80.8980814  93.7708607  28.1877674  80.5606736  93.8935006
  29.6449446  80.1663845  94.0077373  10.7280042  77.2304906  87.0951659
  11.4151082  76.9166636  86.5072674  10.5728171  78.1346270  86.8218910
  15.5314764  72.1195102  91.5236682  15.4472953  71.5120772  90.7887092
  14.7097471  72.6104121  91.5246179  22.6052048  85.5582266  90.7369850
  22.5322220  86.3637238  91.2489155  22.1629442  85.7574232  89.9117872
  22.3941828  84.7954036  84.2472672  21.6109350  85.3375717  84.3410897
  23.0934573  85.3128016  84.6466913  25.0650732  85.4569100  92.8928009
  25.7778704  86.0916565  92.8203911  24.5740761  85.5532966  92.0768011
  20.1162645  83.2063544  93.7133580  20.8172105  83.8400027  93.8662974
  19.6457760  83.5478275  92.9529219  28.2417041  81.5481494  81.9981487
  28.5176885  81.4338088  82.9075361  27.3721540  81.1498979  81.9593660
  24.8771105  85.7967845  85.6414301  25.0593500  84.9789501  86.1042053
  25.7004091  86.0135537  85.2039191  25.2113271  84.7236030  82.9029349
  25.7401037  84.2128484  82.2899511  25.4741490  84.4078560  83.7674882
  23.9651504  76.5027962  98.0252167  23.2892141  76.4022092  98.6954543
  24.7879138  76.3467176  98.4888165  15.7130364  82.7399899  90.6464683
  16.2983800  81.9943587  90.7792587  15.5155202  83.0503856  91.5301347
  18.5669019  85.7751146  85.6627125  17.8979394  86.2597274  85.1791165
  18.4281888  86.0220367  86.5770504  10.3048018  75.3105499  89.3669126
  10.3432118  74.7769090  90.1606244   9.7988311  74.7840705  88.7480103
  22.7074287  87.8094890  92.2609783  23.2592595  87.9726511  93.0258869
  23.0480481  88.3999328  91.5889808  17.6838781  70.1570040  92.8631668
  17.7480107  71.0184871  92.4509066  17.6205901  69.5444041  92.1304027
  17.1591053  72.2293172  96.5104702  17.7863092  71.8470250  97.1242227
  16.3018972  72.0107374  96.8760395  27.5585162  82.6356147  98.1158438
  28.1025066  83.2486106  97.6213393  26.9772007  83.1935726  98.6325451
  13.9356596  74.0369601  82.4423057  14.2310037  73.1280280  82.3890111
  13.0344632  74.0157341  82.1204060  25.8442675  85.7576865  89.2473466
  25.7193814  84.9566605  88.7384411  26.5021766  86.2523059  88.7587436
  17.4650843  72.1125598  88.4250606  16.7437429  72.7261566  88.2858079
  18.2544099  72.6483363  88.3467252  27.9077583  83.5585886  90.8753016
  26.9607919  83.4391237  90.8031342  28.2560356  82.6708384  90.9579277
  20.2677156  69.4480024  94.6991258  20.7911558  69.6942321  95.4617567
  20.0489490  70.2800059  94.2794395  15.6644437  71.7183699  82.5662382
  15.3357144  70.8381078  82.3837488  16.0183808  71.6631368  83.4538772
  24.9124016  83.3538602  87.0757368  24.7648979  82.4255309  87.2564938
  25.7377510  83.3758692  86.5914443  18.7786261  72.0056669  82.9337860
  19.1182333  72.5342590  82.2116468  19.2258381  72.3437075  83.7096427
  28.5158138  84.1767160  88.1622241  29.4404686  83.9710022  88.0246692
  28.3473442  83.9283562  89.0711582  21.4729701  70.3893720  92.3840928
  21.1326522  69.5901533  92.7861608  20.7668708  70.6895430  91.8117761
  22.1246173  67.4743032  90.8368251  22.9472243  67.0003510  90.7147141
  22.3684237  68.2533516  91.3366937  19.6484752  74.1662153  88.6460230
  19.5029333  74.4802456  89.5384511  19.1709956  74.7847053  88.0931128
  21.5081135  71.1564701  88.6941119  21.4942704  70.2605794  88.3573417
  22.2253563  71.1635364  89.3279405  23.3607266  71.5902041  90.7394247
  23.1025043  72.5119111  90.7378577  22.8292306  71.1932475  91.4294711
  14.1230414  76.7067497  91.5847891  13.5783882  77.4827305  91.7168165
  15.0009764  77.0538301  91.4267012  14.9096436  75.8337393  94.4778048
  14.1678172  75.9820029  95.0642678  14.5889180  76.0945659  93.6144797
  22.8540099  85.3753372  94.2758438  23.1627225  85.1302518  95.1481137
  23.6515581  85.5800010  93.7877308  22.8760711  87.5291281  86.5063814
  22.4365701  87.0367660  87.1996671  23.6268828  86.9864249  86.2655890
  15.3553050  83.7202822  86.5088442  16.1811070  83.4206594  86.1287086
  15.0047102  82.9510444  86.9578231  20.3234583  83.0729290  88.5786116
  19.7014592  82.4099995  88.2788344  20.9939450  83.0990422  87.8959764
  13.5561655  81.6389148  87.4677376  12.7193563  81.2111323  87.2861377
  13.5285300  81.8321592  88.4048167  20.3959110  71.5511078  98.1718622
  20.4447266  72.4273201  97.7896392  20.9381625  71.0088471  97.5990265
  30.8813956  82.0952201  97.4519759  30.0909500  82.0776340  96.9124258
  30.6447311  82.6340495  98.2068796  31.0011831  78.9444668  94.7652488
  31.0509836  78.7794675  95.7068010  30.8925754  78.0771927  94.3750368
  19.8848090  81.6233214  82.0544577  20.0336210  82.3068678  81.4011249
  20.6914533  81.6038304  82.5694032  22.6258399  72.3042451  94.9264981
  21.7561708  72.5976017  94.6547569  22.8617879  72.8882896  95.6472244
  32.5030028  81.3641609  95.0094509  32.2114836  81.7271590  95.8457970
  31.8902159  80.6508618  94.8307841  17.6400723  77.6498391  83.0605645
  17.3946765  76.7460721  83.2585856  17.8096637  77.6515542  82.1185123
  25.3297433  68.5222068  92.4430401  25.8479376  69.2583095  92.1176890
  24.9752565  68.8286061  93.2777160  16.9096370  73.3826749  80.5591807
  16.2165615  73.4571104  79.9031843  16.6648122  72.6187092  81.0813324
  23.3843495  84.1181344  79.5256324  22.8117462  84.7371531  79.0726796
  23.9576289  84.6680706  80.0596246  26.6040755  84.4018494  80.6564906
  27.5371428  84.3364056  80.8597782  26.5163968  85.2374761  80.1979439
  23.6528986  79.5059903  98.3273033  24.5731996  79.6838502  98.5213080
  23.6178569  78.5615948  98.1752733  21.9533211  73.3792133  76.8027262
  21.0464666  73.0825246  76.8789975  22.2309192  73.0821951  75.9361548
  12.8711151  74.6998497  87.2526308  12.5513936  73.8463805  86.9600682
  12.3244580  74.9147075  88.0084275  16.6491059  77.4160938  90.9695815
  16.8677069  78.3478045  90.9883848  17.0616833  77.0568912  91.7550618
  21.5218924  72.9894143 100.3598564  21.4215651  73.9388500 100.2910655
  21.3040466  72.6612382  99.4874634  20.7231996  70.2379068  76.9439241
  21.5851160  70.5633967  77.2035058  20.9082340  69.4510564  76.4312307
  12.7399411  78.3201408  89.2219430  12.0462883  77.9055361  88.7089384
  13.4872402  78.3621945  88.6252849  21.3850194  76.4191282  99.1763625
  20.9017276  77.2191642  99.3827514  21.4711133  76.4299227  98.2231069
  14.6536154  78.2519662  87.0985445  14.6306842  78.3507349  86.1467328
  14.9636790  79.0984813  87.4202611  17.3123532  80.3095817  91.2132059
  18.2666785  80.2779759  91.1461991  17.1136055  79.8486441  92.0282285
  17.9022914  78.8796933  93.7802857  18.7215803  79.3741012  93.8037694
  18.1759722  77.9628901  93.7520424  15.6673761  85.8515436  88.2302257
  15.5328228  85.0915837  87.6640255  15.2505823  86.5756336  87.7631046
  26.8032724  81.0352360  77.2378832  27.5068574  81.2402362  77.8536488
  26.0795372  81.6029122  77.5027916  18.8242886  86.7484753  88.4420699
  18.7075271  87.6930186  88.3399390  18.0035333  86.4458315  88.8306499
  13.1557828  73.2135067  94.4795054  13.8016692  72.7034021  94.9682279
  12.9474979  73.9503748  95.0538479  25.6811220  80.2815914  99.9787194
  26.5502380  80.4556567  99.6173829  25.2017972  81.1010331  99.8562924
  19.8497401  87.4013015  91.6576628  20.7524647  87.4336626  91.9743123
  19.6234771  86.4713466  91.6722964  21.6051003  86.1544002  88.3186707
  20.6546634  86.1545863  88.2051079  21.9083489  85.4076736  87.8022741
  17.4955319  70.3602684  98.5770068  18.3586781  70.0039489  98.7873392
  16.9220730  70.0216579  99.2645472  37.3403696  91.9904540  89.3832469
  37.9782106  91.8711288  88.6795809  37.2224539  92.9385384  89.4420421
  34.1493402  91.9431968  89.3193994  33.8111914  91.8273033  88.4314528
  35.0183170  91.5423133  89.2995000  30.0080218  93.7967445  85.3090885
  29.4445083  93.7057382  84.5407172  29.8932613  92.9767349  85.7893377
  34.6313185  93.0966820  95.2780199  34.6201826  92.7019618  94.4060703
  34.7933825  92.3632893  95.8713971  27.5544650  95.2918636  88.1475105
  28.3465942  94.9509461  87.7321404  27.7941300  95.4013611  89.0677258
  35.5879777  97.4638412  80.6205349  34.9367756  98.0492493  80.2339363
  36.3824140  97.9944607  80.6800387  29.5135404  94.5527550  81.0192484
  30.2866280  94.0056537  80.8805360  29.8660803  95.4171799  81.2306945
  31.3520446  95.8803932  94.2259383  31.0610312  96.7849563  94.1106049
  31.9877431  95.9220459  94.9403453  32.2776653  93.2580780  90.8160743
  32.8740226  93.0336803  90.1017706  32.3351625  92.5165526  91.4186191
  37.0655042  95.1528844  81.1574334  36.4300875  95.2263471  81.8695238
  36.7352448  95.7422443  80.4793413  31.5697970  92.6148322  80.8535309
  31.4534229  91.9393225  81.5216393  31.6800230  92.1280696  80.0367462
  33.9129511  92.0758469  84.5581998  33.5487719  91.5489090  85.2694919
  34.7696627  91.6856938  84.3848483  36.3110332  95.5665347  91.2209177
  36.0111055  96.4690386  91.1124984  35.9661391  95.2997531  92.0730330
  29.7622813  92.0179144  87.2545881  28.8373309  91.8855358  87.4623573
  30.0107226  92.7973363  87.7515824  27.1231624  91.6612418  88.0889670
  27.2524005  91.9146897  89.0029082  26.4429075  92.2540126  87.7694325
  31.2931111 102.3309668  84.1880144  31.2155141 103.2817493  84.2668625
  30.6892755 101.9855540  84.8455071  33.7848341  89.5037533  96.8441511
  33.0081675  90.0631453  96.8344376  34.4238904  89.9894316  97.3656382
  32.0394713  92.3122986  96.4059478  32.7809398  92.8508030  96.1294302
  31.3331699  92.9389275  96.5631030  37.5150053  94.4552127  95.0031640
  37.9233409  94.0134537  94.2586272  36.7927315  93.8804754  95.2565833
  33.8681123  89.3924734  92.3765197  34.7142318  89.8164147  92.5199846
  33.8079761  88.7358358  93.0703760  37.8378868  95.0153318  88.7583929
  37.2087730  95.1799032  88.0559997  37.4504530  95.4294927  89.5294893
  41.7168100  95.9507755  86.1128293  41.0319138  96.3306657  85.5625326
  41.8011949  96.5603082  86.8460240  37.0180568  87.0529102  94.0346370
  36.7741500  87.8071163  93.4980646  37.2940499  87.4314450  94.8693618
  38.9719031  93.5967714  92.7123636  39.1835926  94.2399474  92.0358017
  38.9248779  92.7630031  92.2445566  33.3906830  94.7527726  86.0234014
  33.8545175  95.0315429  85.2338636  33.1263628  93.8511170  85.8407105
  30.2830911  94.2999207  88.9613777  30.8532268  94.7286476  88.3231262
  30.8739022  94.0181792  89.6597963  30.7756077  89.4662635  97.2074788
  30.1454738  90.1478916  97.4410185  30.6692165  89.3545716  96.2627927
  26.0701050  89.1334431  88.1340713  25.2800104  89.3891959  87.6580823
  26.5612297  89.9482769  88.2392753  40.0864859  96.4739670  90.8845993
  40.9082303  96.0719857  90.6028675  40.0827262  96.3707904  91.8362109
  28.0215795  89.4979010  85.0924189  27.2246958  89.6097704  85.6107685
  27.7941387  89.8365662  84.2265080  33.8521463  96.0223713  93.0406704
  33.9165895  96.4844120  93.8764876  33.1432386  95.3921078  93.1689014
  24.3538753  89.3864921  90.5655703  24.6046791  90.2711931  90.8313279
  24.8898301  89.2069523  89.7930795  33.5669480  97.6891821  82.9085684
  33.4315155  98.5343356  83.3370532  34.1079293  97.8911098  82.1451618
  30.0536820  83.7683401  99.5700039  29.6603765  83.2149599 100.2447684
  30.8702960  84.0793979  99.9606557  27.0198878  95.2067259  83.4813609
  27.5323398  96.0010509  83.6319174  27.6721590  94.5093549  83.4147211
  28.8293762  98.3233015  85.5636362  29.0060391  99.2450980  85.3757346
  29.6250596  98.0091434  85.9930742  32.9704781  85.1841280  97.1620296
  33.7114494  85.7848433  97.0824758  33.2022704  84.4418917  96.6038339
  28.1146119  90.3697647  95.4398526  27.9999634  89.4682904  95.7405625
  27.2590637  90.6161344  95.0883342  35.1937957  98.3115387  97.0386026
  34.7501811  97.5251766  96.7206931  35.8555170  98.4994538  96.3729917
  29.9525078  99.8411189  91.5646705  30.5032503  99.7128252  90.7923699
  29.1136554 100.1406078  91.2141598  37.2919195  98.5918187  95.0667428
  37.2737670  99.4127068  94.5747697  38.2139115  98.4672262  95.2917569
  33.7492249  96.1062317  95.9090936  34.2820586  95.3450605  95.6790244
  33.2206330  95.8135968  96.6515090  24.9847794  93.5355913  84.2573180
  25.8223016  93.9452921  84.0406888  25.1626062  92.5955355  84.2273374
  36.8812227  91.2030994  79.9457013  36.3658850  91.9735598  80.1845400
  36.6089535  90.5296130  80.5690074  32.2401370  83.6665767  88.4099993
  33.1054367  83.4708576  88.0505882  32.3078879  83.4376119  89.3369349
  41.8546501  93.9563348  81.8810186  41.0775943  93.6174508  81.4365348
  42.5337982  93.9615971  81.2065151  35.1144962  95.2348309  83.4209748
  34.5866323  94.5001069  83.1082985  34.6132464  96.0122985  83.1749716
  40.0937808  93.4297330  88.5376794  39.4361482  94.1196591  88.6256923
  40.8978207  93.8193761  88.8810781  38.9043266  91.7841702  86.5880736
  39.4175148  92.4171694  87.0902446  39.5544490  91.1842898  86.2224096
  33.2597562  93.0528519  76.4244721  32.3524623  92.8217773  76.6235870
  33.7568594  92.2566139  76.6118703  36.1665641 101.7626027  79.3441407
  35.4927339 102.0657723  79.9526365  36.5531463 102.5655107  78.9946864
  35.3824097  89.2591158  88.8339077  34.4646659  89.4806105  88.6760765
  35.7984241  89.3337468  87.9750784  34.4385795  93.1541114  80.9468711
  33.5297014  92.8700147  81.0441181  34.4680879  93.5740193  80.0872018
  39.6705063  96.7647704  84.7159879  39.2167390  95.9238614  84.7725069
  39.0399029  97.4009102  85.0534659  38.1138002  98.6024200  85.6509697
  38.4060976  99.1629257  84.9322062  38.6236622  98.8952761  86.4062856
  25.0073966  90.8746628  84.9283913  24.8098365  90.2815989  84.2034980
  24.4520630  90.5698838  85.6459852  32.9870689  90.7669735  87.0478506
  33.0419299  89.8143571  86.9720983  32.1761891  90.9229174  87.5319805
  34.1361883  94.6949858  78.2856790  33.6981313  93.9785717  77.8262427
  34.8772324  94.9225973  77.7241881  30.9263049  89.3846795  84.8068885
  30.1130915  89.6840965  85.2134077  31.4222043  88.9902483  85.5243368
  33.0771627  99.3804551  86.7403150  33.0347806  99.6065398  85.8111682
  33.9934326  99.1467926  86.8888951  36.5237261  89.8488619  93.6383779
  36.8786649  90.0760092  94.4978245  37.1709392  90.1806996  93.0161034
  42.2534998  92.9707055  84.3433108  42.1152896  93.1608651  83.4154297
  41.8971217  93.7326438  84.8001159  30.4177124  86.9565150  90.4230120
  31.0576503  86.8153909  89.7253084  29.5854654  86.6699663  90.0468722
  42.2804377  95.0383582  89.3544380  42.7140884  94.9458871  90.2027434
  42.9935958  95.0141082  88.7164396  31.1937428  96.2567580  86.5365113
  31.9878026  95.7617901  86.3347688  30.4829120  95.7285444  86.1732818
  36.0132272  98.6385676  90.8877480  36.0669295  99.2076612  91.6555196
  35.1447054  98.8087561  90.5231517  27.5020191  90.4010662  82.6124865
  26.5717779  90.3395118  82.8294828  27.5977663  89.8786615  81.8161507
  27.4205740  86.9265475  85.2003107  27.6812558  87.8410808  85.0912268
  28.2422913  86.4589918  85.3499720  28.8930666  88.3403232  92.3701932
  29.5653719  88.1320594  91.7214580  28.0660452  88.1425318  91.9307164
  43.1419927  95.0807283  91.8877265  43.3355817  95.9853093  92.1336540
  43.0420545  94.6214702  92.7215850  34.7956238  84.9665173  94.3867592
  34.1484153  85.6655123  94.2932069  35.5657253  85.4001317  94.7543841
  38.2035036  95.2314025  97.4618146  38.0520542  95.0024577  96.5448229
  38.1939715  96.1884627  97.4749491  34.9720372  92.8045938  92.4464412
  35.9012432  92.9557098  92.2733379  34.5511402  92.8929959  91.5913059
  33.7708704  96.8296602  90.2162950  33.6319789  96.4615387  91.0888888
  32.9823300  97.3444242  90.0446908  34.3656856 101.9305699  81.5588486
  34.5408611 101.4593742  82.3734109  33.6789644 102.5571465  81.7869747
  35.3213919  96.2078205  87.6051788  34.9863752  96.1678975  88.5009437
  34.8217865  95.5422921  87.1322198  29.2958163  91.6145835  93.1304369
  29.1577961  90.8826074  93.7315908  30.2063086  91.5254735  92.8488556
  38.2573111  93.5534239  77.8788847  37.6402281  92.8281068  77.7821900
  37.7889599  94.3143600  77.5355922  31.9240464  91.3265795  92.6188048
  32.6340082  90.6858987  92.5774667  31.8809772  91.5778689  93.5414229
  39.9127242  98.2633148  95.5394628  39.8539788  97.5792368  94.8725211
  40.3146761  99.0052138  95.0875254  30.6369398  88.3131012  94.4383688
  30.1006755  87.8621751  95.0905284  30.0486106  88.4476921  93.6954152
  28.9317941 105.0795062  88.3328346  29.1714539 105.7113586  89.0107365
  28.0887138 104.7283102  88.6193706  39.9144650  96.2272732  93.7708607
  39.0271428  95.8898654  93.8935006  40.4843201  95.4955763  94.0077373
  21.5673797  92.5596824  87.0951659  22.2544836  92.2458554  86.5072674
  21.4121925  93.4638188  86.8218910  26.3708519  87.4487020  91.5236682
  26.2866707  86.8412690  90.7887092  25.5491225  87.9396038  91.5246179
  33.4445803 100.8874184  90.7369850  33.3715974 101.6929156  91.2489155
  33.0023196 101.0866150  89.9117872  33.2335583 100.1245954  84.2472672
  32.4503104 100.6667634  84.3410897  33.9328328 100.6419934  84.6466913
  35.9044486 100.7861018  92.8928009  36.6172459 101.4208483  92.8203911
  35.4134515 100.8824884  92.0768011  37.6262013  94.6912271  84.4645301
  36.6918292  94.8113733  84.2950005  37.8038682  93.7884738  84.2005311
  33.1267201  88.0757967  86.6178562  32.7564989  87.5229007  87.3059468
  33.6226294  87.4716100  86.0653562  30.9556400  98.5355462  93.7133580
  31.6565859  99.1691945  93.8662974  30.4851515  98.8770193  92.9529219
  39.0810796  96.8773411  81.9981487  39.3570640  96.7630006  82.9075361
  38.2115295  96.4790896  81.9593660  38.7557686  91.0900069  91.5386130
  38.1029136  91.3375977  90.8838583  39.1338066  90.2764207  91.2048608
  35.7164860 101.1259762  85.6414301  35.8987254 100.3081418  86.1042053
  36.5397846 101.3427455  85.2039191  36.0507025 100.0527947  82.9029349
  36.5794792  99.5420402  82.2899511  36.3135245  99.7370478  83.7674882
  34.8045259  91.8319880  98.0252167  34.1285896  91.7314009  98.6954543
  35.6272893  91.6759094  98.4888165  26.5524118  98.0691817  90.6464683
  27.1377555  97.3235505  90.7792587  26.3548956  98.3795773  91.5301347
  29.4062773 101.1043064  85.6627125  28.7373148 101.5889192  85.1791165
  29.2675643 101.3512285  86.5770504  21.1441773  90.6397417  89.3669126
  21.1825872  90.1061008  90.1606244  20.6382066  90.1132622  88.7480103
  33.5468042 103.1386808  92.2609783  34.0986350 103.3018429  93.0258869
  33.8874235 103.7291245  91.5889808  28.5232535  85.4861957  92.8631668
  28.5873862  86.3476788  92.4509066  28.4599655  84.8735959  92.1304027
  27.9984808  87.5585090  96.5104702  28.6256846  87.1762167  97.1242227
  27.1412726  87.3399292  96.8760395  38.3978916  97.9648065  98.1158438
  38.9418820  98.5778023  97.6213393  37.8165761  98.5227644  98.6325451
  24.7750350  89.3661519  82.4423057  25.0703791  88.4572197  82.3890111
  23.8738386  89.3449258  82.1204060  36.6836429 101.0868783  89.2473466
  36.5587569 100.2858523  88.7384411  37.3415520 101.5814976  88.7587436
  28.3044597  87.4417516  88.4250606  27.5831183  88.0553483  88.2858079
  29.0937853  87.9775280  88.3467252  38.7471337  98.8877803  90.8753016
  37.8001673  98.7683154  90.8031342  39.0954111  98.0000301  90.9579277
  31.1070911  84.7771942  94.6991258  31.6305313  85.0234239  95.4617567
  30.8883244  85.6091977  94.2794395  26.5038192  87.0475617  82.5662382
  26.1750898  86.1672996  82.3837488  26.8577563  86.9923285  83.4538772
  35.7517771  98.6830519  87.0757368  35.6042733  97.7547227  87.2564938
  36.5771264  98.7050610  86.5914443  39.3551893  99.5059078  88.1622241
  40.2798440  99.3001939  88.0246692  39.1867196  99.2575479  89.0711582
  32.3123456  85.7185637  92.3840928  31.9720276  84.9193450  92.7861608
  31.6062462  86.0187348  91.8117761  32.9639928  82.8034950  90.8368251
  33.7865997  82.3295428  90.7147141  33.2077991  83.5825433  91.3366937
  30.4878506  89.4954070  88.6460230  30.3423087  89.8094373  89.5384511
  30.0103710  90.1138971  88.0931128  32.3474889  86.4856618  88.6941119
  32.3336458  85.5897712  88.3573417  33.0647317  86.4927282  89.3279405
  34.2001020  86.9193958  90.7394247  33.9418798  87.8411029  90.7378577
  33.6686060  86.5224393  91.4294711  39.1447209 100.0244746  83.5184332
  39.3184086  99.4591168  82.7658185  39.6376100 100.8245640  83.3363822
  24.9624169  92.0359415  91.5847891  24.4177637  92.8119223  91.7168165
  25.8403519  92.3830219  91.4267012  40.1322381  99.3411510  80.6181230
  40.8273286  99.9618203  80.8368545  40.4745531  98.4906861  80.8933608
  25.7490191  91.1629311  94.4778048  25.0071927  91.3111946  95.0642678
  25.4282935  91.4237577  93.6144797  42.0313804  96.7911216  82.1468561
  42.5565129  97.1298488  81.4217881  41.9436157  95.8558231  81.9631696
  33.6933853 100.7045289  94.2758438  34.0020980 100.4594436  95.1481137
  34.4909335 100.9091928  93.7877308  33.7154465 102.8583199  86.5063814
  33.2759455 102.3659578  87.1996671  34.4662582 102.3156166  86.2655890
  26.1946804  99.0494740  86.5088442  27.0204824  98.7498512  86.1287086
  25.8440856  98.2802362  86.9578231  31.1628337  98.4021208  88.5786116
  30.5408347  97.7391913  88.2788344  31.8333204  98.4282340  87.8959764
  24.3955409  96.9681066  87.4677376  23.5587318  96.5403240  87.2861377
  24.3679055  97.1613509  88.4048167  31.2352865  86.8802996  98.1718622
  31.2841020  87.7565119  97.7896392  31.7775379  86.3380389  97.5990265
  41.7207711  97.4244119  97.4519759  40.9303254  97.4068258  96.9124258
  41.4841065  97.9632413  98.2068796  41.8405586  94.2736586  94.7652488
  41.8903590  94.1086593  95.7068010  41.7319509  93.4063845  94.3750368
  30.7241844  96.9525131  82.0544577  30.8729965  97.6360596  81.4011249
  31.5308288  96.9330221  82.5694032  39.1309348  90.2567514  96.0811794
  40.0319211  90.1173978  95.7895792  39.2057322  90.4221968  97.0209972
  33.4652153  87.6334368  94.9264981  32.5955463  87.9267934  94.6547569
  33.7011634  88.2174813  95.6472244  43.3423782  96.6933527  95.0094509
  43.0508591  97.0563508  95.8457970  42.7295914  95.9800535  94.8307841
  44.5419465  94.2586407  87.5297079  45.3766356  94.6976211  87.6934640
  44.6778593  93.7825060  86.7105325  41.5910971  91.8166142  93.4774567
  42.0665092  92.0093788  92.6693419  40.6676536  91.8725328  93.2317951
  28.4794477  92.9790309  83.0605645  28.2340519  92.0752639  83.2585856
  28.6490392  92.9807459  82.1185123  36.1691187  83.8513985  92.4430401
  36.6873131  84.5875012  92.1176890  35.8146320  84.1577979  93.2777160
  27.7490125  88.7118666  80.5591807  27.0559370  88.7863021  79.9031843
  27.5041877  87.9479010  81.0813324  34.2237250  99.4473262  79.5256324
  33.6511217 100.0663449  79.0726796  34.7970043  99.9972623  80.0596246
  37.4434510  99.7310412  80.6564906  38.3765183  99.6655973  80.8597782
  37.3557722 100.5666679  80.1979439  40.0722526  99.0476282  77.6168854
  39.9936158  98.7136146  78.5104612  40.8932193  99.5398050  77.6160326
  42.7700717  91.9138021  90.8245172  42.7377038  90.9754022  91.0104856
  43.3801341  91.9922058  90.0910997  34.6084048  90.7834074  76.8672376
  35.5543153  90.6540283  76.9360794  34.2298293  90.0448736  77.3441805
  34.4922741  94.8351821  98.3273033  35.4125750  95.0130420  98.5213080
  34.4572324  93.8907866  98.1752733  23.7104906  90.0290414  87.2526308
  23.3907690  89.1755722  86.9600682  23.1638334  90.2438992  88.0084275
  27.4884813  92.7452855  90.9695815  27.7070823  93.6769963  90.9883848
  27.9010587  92.3860830  91.7550618  32.3612679  88.3186061 100.3598564
  32.2609406  89.2680418 100.2910655  32.1434221  87.9904300  99.4874634
  23.5793166  93.6493326  89.2219430  22.8856637  93.2347279  88.7089384
  24.3266157  93.6913862  88.6252849  32.2243949  91.7483200  99.1763625
  31.7411030  92.5483560  99.3827514  32.3104888  91.7591145  98.2231069
  25.4929908  93.5811580  87.0985445  25.4700596  93.6799267  86.1467328
  25.8030545  94.4276730  87.4202611  28.1517286  95.6387735  91.2132059
  29.1060540  95.6071677  91.1461991  27.9529810  95.1778358  92.0282285
  28.7416668  94.2088851  93.7802857  29.5609557  94.7032929  93.8037694
  29.0153476  93.2920819  93.7520424  26.5067515 101.1807354  88.2302257
  26.3721983 100.4207755  87.6640255  26.0899577 101.9048254  87.7631046
  37.6426478  96.3644278  77.2378832  38.3462328  96.5694280  77.8536488
  36.9189127  96.9321039  77.5027916  38.4724288  92.1154139  83.3581102
  38.4159490  92.5722690  82.5188735  39.0252631  91.3544823  83.1803945
  29.6636641 102.0776671  88.4420699  29.5469025 103.0222104  88.3399390
  28.8429087 101.7750233  88.8306499  39.5513175  96.8026807  79.2877292
  40.3858779  96.3708005  79.1054767  39.3897518  96.6308820  80.2154187
  39.2059068  93.3058920  80.6533631  39.1507871  93.1403192  79.7122076
  38.5805123  94.0134953  80.8095821  23.9951583  88.5426984  94.4795054
  24.6410446  88.0325938  94.9682279  23.7868734  89.2795666  95.0538479
  36.5204975  95.6107832  99.9787194  37.3896134  95.7848484  99.6173829
  36.0411726  96.4302249  99.8562924  30.6891155 102.7304933  91.6576628
  31.5918402 102.7628543  91.9743123  30.4628525 101.8005384  91.6722964
  32.4444757 101.4835919  88.3186707  31.4940388 101.4837781  88.2051079
  32.7477243 100.7368654  87.8022741  28.3349074  85.6894602  98.5770068
  29.1980535  85.3331406  98.7873392  27.7614484  85.3508496  99.2645472
  48.1797451 107.3196458  89.3832469  48.8175860 107.2003205  88.6795809
  48.0618293 108.2677302  89.4420421  44.9887157 107.2723886  89.3193994
  44.6505668 107.1564951  88.4314528  45.8576925 106.8715051  89.2995000
  40.8473972 109.1259362  85.3090885  40.2838838 109.0349299  84.5407172
  40.7326368 108.3059267  85.7893377  45.4706940 108.4258738  95.2780199
  45.4595581 108.0311536  94.4060703  45.6327579 107.6924810  95.8713971
  38.3938404 110.6210554  88.1475105  39.1859696 110.2801379  87.7321404
  38.6335055 110.7305529  89.0677258  46.4273531 112.7930330  80.6205349
  45.7761511 113.3784411  80.2339363  47.2217894 113.3236525  80.6800387
  40.3529158 109.8819467  81.0192484  41.1260034 109.3348454  80.8805360
  40.7054557 110.7463717  81.2306945  42.1914201 111.2095850  94.2259383
  41.9004067 112.1141480  94.1106049  42.8271185 111.2512377  94.9403453
  43.1170408 108.5872698  90.8160743  43.7133980 108.3628720  90.1017706
  43.1745379 107.8457444  91.4186191  42.6895436 106.0412133  78.6510934
  42.9420957 105.5193655  77.8894397  41.7519995 105.8778279  78.7537617
  47.7338719 105.0447912  86.4585677  48.5201808 104.6267335  86.1076094
  47.9977423 105.9494004  86.6267325  47.9048796 110.4820762  81.1574334
  47.2694629 110.5555389  81.8695238  47.5746203 111.0714361  80.4793413
  53.1347146 104.9823145  87.3618655  53.8672318 104.4122362  87.5956485
  52.3786502 104.5944745  87.8025161  42.4091725 107.9440239  80.8535309
  42.2927983 107.2685143  81.5216393  42.5193985 107.4572613  80.0367462
  44.7523266 107.4050386  84.5581998  44.3881473 106.8781007  85.2694919
  45.6090382 107.0148855  84.3848483  50.6572566  98.6944719  91.8213264
  50.3255891  99.5640130  91.5974479  50.0618180  98.3781003  92.5007294
  44.3928753 102.4340286  79.5543346  44.5603155 103.3020523  79.9213817
  44.2025922 102.5967568  78.6304636  47.1504086 110.8957265  91.2209177
  46.8504809 111.7982304  91.1124984  46.8055146 110.6289448  92.0730330
  40.6016567 107.3471062  87.2545881  39.6767064 107.2147276  87.4623573
  40.8500981 108.1265281  87.7515824  50.5501230 103.4139805  88.9006614
  49.6418107 103.3455214  88.6065375  50.4988826 103.8911750  89.7288440
  44.3717974 104.8897944  80.5390013  44.2517599 105.3354994  81.3775494
  43.6770562 105.2383261  79.9803551  37.9625379 106.9904335  88.0889670
  38.0917760 107.2438814  89.0029082  37.2822830 107.5832043  87.7694325
  42.1324866 117.6601585  84.1880144  42.0548896 118.6109410  84.2668625
  41.5286509 117.3147458  84.8455071  44.6242096 104.8329451  96.8441511
  43.8475430 105.3923371  96.8344376  45.2632659 105.3186234  97.3656382
  52.4162876 101.6156244  90.6784488  51.7737256 101.9088777  90.0324283
  51.9117805 101.5009164  91.4837685  50.0703040 105.3619417  81.3670347
  50.9820896 105.5946804  81.1918045  49.5612687 105.9456461  80.8045426
  42.8788468 107.6414904  96.4059478  43.6203152 108.1799948  96.1294302
  42.1725453 108.2681193  96.5631030  48.3543808 109.7844045  95.0031640
  48.7627164 109.3426455  94.2586272  47.6321069 109.2096672  95.2565833
  44.7074878 104.7216651  92.3765197  45.5536073 105.1456065  92.5199846
  44.6473515 104.0650276  93.0703760  48.6772622 110.3445235  88.7583929
  48.0481485 110.5090949  88.0559997  48.2898284 110.7586845  89.5294893
  52.5561854 111.2799673  86.1128293  51.8712892 111.6598574  85.5625326
  52.6405703 111.8895000  86.8460240  47.8574323 102.3821020  94.0346370
  47.6135255 103.1363080  93.4980646  48.1334253 102.7606367  94.8693618
  49.8112786 108.9259632  92.7123636  50.0229681 109.5691392  92.0358017
  49.7642534 108.0921949  92.2445566  47.4139015 101.5377453  89.6160208
  46.5523494 101.8358706  89.9076946  47.4401449 101.7547852  88.6841241
  44.2300584 110.0819643  86.0234014  44.6938930 110.3607346  85.2338636
  43.9657382 109.1803088  85.8407105  41.1224665 109.6291125  88.9613777
  41.6926022 110.0578393  88.3231262  41.7132777 109.3473710  89.6597963
  43.1669470 106.2042796  82.8323579  43.8693513 106.6563839  83.2997505
  42.8350099 105.5626615  83.4603472  41.6149832 104.7954552  97.2074788
  40.9848492 105.4770833  97.4410185  41.5085920 104.6837634  96.2627927
  36.9094804 104.4626348  88.1340713  36.1193858 104.7183877  87.6580823
  37.4006051 105.2774686  88.2392753  50.9258614 111.8031588  90.8845993
  51.7476057 111.4011775  90.6028675  50.9221016 111.6999822  91.8362109
  38.8609549 104.8270928  85.0924189  38.0640713 104.9389622  85.6107685
  38.6335142 105.1657580  84.2265080  44.6915217 111.3515631  93.0406704
  44.7559650 111.8136038  93.8764876  43.9826141 110.7212996  93.1689014
  35.1932507 104.7156839  90.5655703  35.4440545 105.6003849  90.8313279
  35.7292055 104.5361440  89.7930795  59.0164607 108.1470336  87.2330965
  58.2628315 107.5777734  87.0774969  59.1512148 108.1133001  88.1801600
  44.4063235 113.0183738  82.9085684  44.2708910 113.8635274  83.3370532
  44.9473047 113.2203016  82.1451618  40.8930574  99.0975318  99.5700039
  40.4997520  98.5441517 100.2447684  41.7096715  99.4085897  99.9606557
  37.8592632 110.5359176  83.4813609  38.3717153 111.3302427  83.6319174
  38.5115345 109.8385467  83.4147211  39.6687517 113.6524933  85.5636362
  39.8454145 114.5742897  85.3757346  40.4644350 113.3383352  85.9930742
  43.8098535 100.5133197  97.1620296  44.5508249 101.1140350  97.0824758
  44.0416458  99.7710835  96.6038339  38.9539873 105.6989565  95.4398526
  38.8393388 104.7974822  95.7405625  38.0984391 105.9453261  95.0883342
  46.0331711 113.6407305  97.0386026  45.5895565 112.8543683  96.7206931
  46.6948925 113.8286455  96.3729917  40.7918832 115.1703106  91.5646705
  41.3426257 115.0420170  90.7923699  39.9530308 115.4697995  91.2141598
  48.1312949 113.9210105  95.0667428  48.1131425 114.7418986  94.5747697
  49.0532869 113.7964180  95.2917569  44.5886003 111.4354234  95.9090936
  45.1214340 110.6742522  95.6790244  44.0600084 111.1427886  96.6515090
  47.7555698  96.5414300  91.4384578  47.4119968  97.4315942  91.3623688
  48.1234661  96.3515958  90.5754163  35.8241549 108.8647831  84.2573180
  36.6616771 109.2744839  84.0406888  36.0019817 107.9247273  84.2273374
  47.7205981 106.5322911  79.9457013  47.2052604 107.3027516  80.1845400
  47.4483289 105.8588047  80.5690074  45.3053092 101.3772612  85.0042251
  44.4494688 100.9879462  84.8247890  45.7180044 101.4564573  84.1442037
  46.8352239  98.9118955  89.4033811  46.3317034  98.8749091  88.5901616
  47.1282846  99.8211698  89.4630468  43.0795125  98.9957685  88.4099993
  43.9448121  98.8000494  88.0505882  43.1472633  98.7668037  89.3369349
  52.6940255 109.2855266  81.8810186  51.9169698 108.9466425  81.4365348
  53.3731736 109.2907889  81.2065151  47.5092284 104.4050003  81.7716794
  47.2042420 104.7196153  82.6226937  48.4622726 104.4831423  81.8144127
  45.9538716 110.5640227  83.4209748  45.4260078 109.8292986  83.1082985
  45.4526219 111.3414903  83.1749716  50.9331562 108.7589247  88.5376794
  50.2755236 109.4488509  88.6256923  51.7371961 109.1485679  88.8810781
  40.6857444 101.2259893  85.7816359  41.2601196 101.0035075  85.0489552
  41.2728426 101.2948588  86.5344961  49.7437021 107.1133620  86.5880736
  50.2568903 107.7463612  87.0902446  50.3938245 106.5134815  86.2224096
  41.0127031 103.2564354  79.8012245  40.1764343 103.5939041  80.1221519
  40.8731800 103.1213334  78.8639382  42.9880111  98.1001142  84.5091429
  42.3344524  97.7850159  83.8848044  42.9460585  97.4776882  85.2351252
  44.0991316 108.3820437  76.4244721  43.1918378 108.1509690  76.6235870
  44.5962348 107.5858056  76.6118703  47.0059395 117.0917944  79.3441407
  46.3321094 117.3949641  79.9526365  47.3925217 117.8947025  78.9946864
  46.2217852 104.5883075  88.8339077  45.3040413 104.8098022  88.6760765
  46.6377995 104.6629386  87.9750784  47.0052899 105.9874491  83.9641757
  47.7524718 106.4995888  83.6548879  47.2744489 105.6658544  84.8246150
  45.2779550 108.4833032  80.9468711  44.3690769 108.1992065  81.0441181
  45.3074633 108.9032110  80.0872018  50.5098817 112.0939621  84.7159879
  50.0561144 111.2530531  84.7725069  49.8792784 112.7301020  85.0534659
  49.4531737 103.0231607  85.9460546  48.7154493 102.5108994  86.2770789
  49.7058510 102.5831989  85.1343823  48.9531756 113.9316118  85.6509697
  49.2454731 114.4921175  84.9322062  49.4630377 114.2244679  86.4062856
  49.5543364  95.8007859  86.5402315  49.8602241  94.9405223  86.2528230
  50.2795969  96.3925480  86.3401309  35.8467720 106.2038546  84.9283913
  35.6492120 105.6107907  84.2034980  35.2914384 105.8990756  85.6459852
  43.8264444 106.0961652  87.0478506  43.8813053 105.1435489  86.9720983
  43.0155646 106.2521092  87.5319805  44.9755637 110.0241776  78.2856790
  44.5375067 109.3077634  77.8262427  45.7166078 110.2517890  77.7241881
  41.7656804 104.7138712  84.8068885  40.9524669 105.0132883  85.2134077
  42.2615798 104.3194401  85.5243368  43.9165381 114.7096469  86.7403150
  43.8741560 114.9357315  85.8111682  44.8328080 114.4759844  86.8888951
  47.3631015 105.1780537  93.6383779  47.7180403 105.4052010  94.4978245
  48.0103147 105.5098913  93.0161034  53.0928752 108.2998973  84.3433108
  52.9546651 108.4900569  83.4154297  52.7364971 109.0618355  84.8001159
  41.2570878 102.2857068  90.4230120  41.8970258 102.1445827  89.7253084
  40.4248409 101.9991581  90.0468722  53.1198132 110.3675500  89.3544380
  53.5534639 110.2750789  90.2027434  53.8329713 110.3433000  88.7164396
  42.0331182 111.5859498  86.5365113  42.8271781 111.0909818  86.3347688
  41.3222875 111.0577361  86.1732818  46.8526027 113.9677594  90.8877480
  46.9063049 114.5368530  91.6555196  45.9840808 114.1379479  90.5231517
  38.3413946 105.7302580  82.6124865  37.4111534 105.6687035  82.8294828
  38.4371418 105.2078533  81.8161507  38.2599495 102.2557393  85.2003107
  38.5206312 103.1702726  85.0912268  39.0816667 101.7881835  85.3499720
  39.7324420 103.6695150  92.3701932  40.4047474 103.4612512  91.7214580
  38.9054207 103.4717236  91.9307164  53.9813681 110.4099200  91.8877265
  54.1749571 111.3145011  92.1336540  53.8814300 109.9506619  92.7215850
  45.6349992 100.2957091  94.3867592  44.9877907 100.9947040  94.2932069
  46.4051008 100.7293235  94.7543841  49.0428790 110.5605943  97.4618146
  48.8914296 110.3316495  96.5448229  49.0333470 111.5176544  97.4749491
  45.8114126 108.1337856  92.4464412  46.7406186 108.2849015  92.2733379
  45.3905156 108.2221877  91.5913059  44.6102458 112.1588520  90.2162950
  44.4713544 111.7907305  91.0888888  43.8217054 112.6736160  90.0446908
  45.2050610 117.2597617  81.5588486  45.3802366 116.7885660  82.3734109
  44.5183398 117.8863383  81.7869747  46.1607673 111.5370123  87.6051788
  45.8257506 111.4970893  88.5009437  45.6611619 110.8714839  87.1322198
  40.1351917 106.9437753  93.1304369  39.9971715 106.2117992  93.7315908
  41.0456841 106.8546653  92.8488556  49.0966865 108.8826157  77.8788847
  48.4796036 108.1572985  77.7821900  48.6283354 109.6435517  77.5355922
  42.7634218 106.6557712  92.6188048  43.4733837 106.0150904  92.5774667
  42.7203526 106.9070607  93.5414229  50.7520997 113.5925066  95.5394628
  50.6933543 112.9084286  94.8725211  51.1540515 114.3344056  95.0875254
  41.4763152 103.6422930  94.4383688  40.9400509 103.1913669  95.0905284
  40.8879860 103.7768839  93.6954152  40.8865411 103.1011581  77.0010152
  40.0094877 102.9800382  76.6372398  41.3623164 102.3097660  76.7489040
  50.7538404 111.5564649  93.7708607  49.8665183 111.2190571  93.8935006
  51.3236955 110.8247681  94.0077373  32.4067551 107.8888741  87.0951659
  33.0938591 107.5750471  86.5072674  32.2515680 108.7930106  86.8218910
  37.2102273 102.7778938  91.5236682  37.1260462 102.1704607  90.7887092
  36.3884980 103.2687956  91.5246179  44.2839557 116.2166102  90.7369850
  44.2109729 117.0221073  91.2489155  43.8416950 116.4158068  89.9117872
  44.0729337 115.4537872  84.2472672  43.2896859 115.9959552  84.3410897
  44.7722082 115.9711851  84.6466913  47.3825987 101.2632501  86.8906877
  47.8794687 100.5102464  86.5707948  46.6112969 101.2996818  86.3250087
  55.2355745 106.9672867  88.5325169  55.2245621 107.8497582  88.1619102
  54.3673124 106.6144418  88.3379706  46.7438241 116.1152936  92.8928009
  47.4566213 116.7500401  92.8203911  46.2528270 116.2116802  92.0768011
  48.4655768 110.0204189  84.4645301  47.5312047 110.1405651  84.2950005
  48.6432436 109.1176655  84.2005311  43.9660956 103.4049884  86.6178562
  43.5958743 102.8520925  87.3059468  44.4620048 102.8008018  86.0653562
  51.8528319 105.8621508  84.9995335  52.3188771 106.6949499  84.9255638
  52.3035820 105.3966489  85.7040593  41.7950154 113.8647379  93.7133580
  42.4959614 114.4983862  93.8662974  41.3245269 114.2062111  92.9529219
  49.9204550 112.2065329  81.9981487  50.1964394 112.0921924  82.9075361
  49.0509049 111.8082814  81.9593660  49.8244982  98.2302095  89.0386236
  48.9108062  98.4606322  89.2068443  50.2538083  98.3140539  89.8900269
  49.5951440 106.4191987  91.5386130  48.9422891 106.6667894  90.8838583
  49.9731820 105.6056125  91.2048608  46.5558614 116.4551680  85.6414301
  46.7381009 115.6373336  86.1042053  47.3791600 116.6719372  85.2039191
  46.8900780 115.3819865  82.9029349  47.4188546 114.8712320  82.2899511
  47.1528999 115.0662395  83.7674882  45.6439013 107.1611798  98.0252167
  44.9679650 107.0605927  98.6954543  46.4666647 107.0051012  98.4888165
  37.3917873 113.3983734  90.6464683  37.9771309 112.6527422  90.7792587
  37.1942711 113.7087691  91.5301347  40.2456528 116.4334982  85.6627125
  39.5766903 116.9181109  85.1791165  40.1069397 116.6804202  86.5770504
  31.9835527 105.9689335  89.3669126  32.0219627 105.4352925  90.1606244
  31.4775820 105.4424540  88.7480103  44.3861796 118.4678725  92.2609783
  44.9380104 118.6310347  93.0258869  44.7267990 119.0583163  91.5889808
  39.3626290 100.8153875  92.8631668  39.4267616 101.6768706  92.4509066
  39.2993410 100.2027877  92.1304027  38.8378562 102.8877008  96.5104702
  39.4650601 102.5054085  97.1242227  37.9806481 102.6691210  96.8760395
  49.2372671 113.2939983  98.1158438  49.7812575 113.9069941  97.6213393
  48.6559515 113.8519561  98.6325451  35.6144105 104.6953437  82.4423057
  35.9097546 103.7864115  82.3890111  34.7132141 104.6741176  82.1204060
  47.5230184 116.4160701  89.2473466  47.3981323 115.6150441  88.7384411
  48.1809275 116.9106894  88.7587436  39.1438352 102.7709433  88.4250606
  38.4224938 103.3845401  88.2858079  39.9331608 103.3067198  88.3467252
  49.5865092 114.2169721  90.8753016  48.6395428 114.0975072  90.8031342
  49.9347865 113.3292219  90.9579277  41.9464665 100.1063860  94.6991258
  42.4699067 100.3526156  95.4617567  41.7276999 100.9383895  94.2794395
  37.3431946 102.3767534  82.5662382  37.0144653 101.4964913  82.3837488
  37.6971317 102.3215203  83.4538772  46.5911525 114.0122437  87.0757368
  46.4436488 113.0839145  87.2564938  47.4165019 114.0342528  86.5914443
  40.4573770 102.6640504  82.9337860  40.7969842 103.1926425  82.2116468
  40.9045890 103.0020910  83.7096427  50.1945647 114.8350996  88.1622241
  51.1192195 114.6293857  88.0246692  50.0260950 114.5867397  89.0711582
  43.1517210 101.0477555  92.3840928  42.8114031 100.2485368  92.7861608
  42.4456217 101.3479266  91.8117761  43.8033682  98.1326867  90.8368251
  44.6259752  97.6587346  90.7147141  44.0471746  98.9117351  91.3366937
  42.4441917 101.1615126  81.1331153  43.1650279 101.5396379  80.6294870
  41.8207221 101.8804003  81.2366131  46.5873040 101.8660275  82.0689485
  46.8036654 102.7484913  81.7678313  46.1067107 101.4746488  81.3395127
  41.3272261 104.8245988  88.6460230  41.1816842 105.1386291  89.5384511
  40.8497465 105.4430888  88.0931128  43.1868644 101.8148536  88.6941119
  43.1730213 100.9189629  88.3573417  43.9041072 101.8219200  89.3279405
  45.0394775 102.2485876  90.7394247  44.7812552 103.1702947  90.7378577
  44.5079815 101.8516311  91.4294711  49.9840963 115.3536663  83.5184332
  50.1577841 114.7883086  82.7658185  50.4769855 116.1537558  83.3363822
  35.8017923 107.3651332  91.5847891  35.2571391 108.1411140  91.7168165
  36.6797273 107.7122137  91.4267012  42.5905540 100.6962916  83.9628689
  42.7121451  99.7679562  84.1619577  42.3007582 100.7101602  83.0507005
  45.4596730  98.3817827  87.0995409  45.4818427  98.4457160  86.1447389
  45.8764789  97.5422335  87.2935915  55.8380354 108.1173086  85.1374632
  56.2811501 107.3680411  84.7393755  54.9606865 108.1083223  84.7548364
  50.9716136 114.6703428  80.6181230  51.6667040 115.2910120  80.8368545
  51.3139286 113.8198779  80.8933608  36.5883945 106.4921229  94.4778048
  35.8465681 106.6403864  95.0642678  36.2676689 106.7529494  93.6144797
  52.8707559 112.1203133  82.1468561  53.3958883 112.4590406  81.4217881
  52.7829911 111.1850149  81.9631696  44.5327608 116.0337207  94.2758438
  44.8414734 115.7886354  95.1481137  45.3303090 116.2383845  93.7877308
  44.5548220 118.1875116  86.5063814  44.1153210 117.6951495  87.1996671
  45.3056337 117.6448084  86.2655890  37.0340559 114.3786657  86.5088442
  37.8598579 114.0790429  86.1287086  36.6834611 113.6094280  86.9578231
  42.0022092 113.7313126  88.5786116  41.3802101 113.0683831  88.2788344
  42.6726959 113.7574257  87.8959764  35.2349164 112.2972984  87.4677376
  34.3981072 111.8695158  87.2861377  35.2072809 112.4905427  88.4048167
  42.0746619 102.2094914  98.1718622  42.1234775 103.0857036  97.7896392
  42.6169134 101.6672307  97.5990265  52.5601465 112.7536037  97.4519759
  51.7697009 112.7360176  96.9124258  52.3234820 113.2924331  98.2068796
  52.6799340 109.6028503  94.7652488  52.7297345 109.4378511  95.7068010
  52.5713263 108.7355762  94.3750368  41.5635599 112.2817049  82.0544577
  41.7123719 112.9652513  81.4011249  42.3702042 112.2622139  82.5694032
  49.9703102 105.5859431  96.0811794  50.8712965 105.4465896  95.7895792
  50.0451077 105.7513886  97.0209972  44.3045908 102.9626286  94.9264981
  43.4349217 103.2559852  94.6547569  44.5405388 103.5466731  95.6472244
  54.1817537 112.0225445  95.0094509  53.8902345 112.3855425  95.8457970
  53.5689668 111.3092453  94.8307841  55.3813219 109.5878325  87.5297079
  56.2160111 110.0268129  87.6934640  55.5172348 109.1116978  86.7105325
  52.4304725 107.1458059  93.4774567  52.9058847 107.3385706  92.6693419
  51.5070290 107.2017245  93.2317951  39.3188232 108.3082227  83.0605645
  39.0734274 107.4044557  83.2585856  39.4884146 108.3099377  82.1185123
  47.0084942  99.1805903  92.4430401  47.5266885  99.9166930  92.1176890
  46.6540074  99.4869896  93.2777160  38.5883879 104.0410584  80.5591807
  37.8953124 104.1154939  79.9031843  38.3435631 103.2770928  81.0813324
  47.2597536  95.6006185  87.9631298  47.5399290  94.9329375  88.5891724
  48.0448143  95.7935281  87.4505961  45.0631004 114.7765179  79.5256324
  44.4904971 115.3955366  79.0726796  45.6363798 115.3264541  80.0596246
  51.1306394 104.0223819  91.7102873  52.0823817 104.1221917  91.7315097
  50.9609845 103.2302088  92.2200957  49.1520774 101.1079403  91.8962274
  48.5570706 101.3884415  91.2008762  48.8670470 101.5973304  92.6679015
  48.2828264 115.0602329  80.6564906  49.2158937 114.9947891  80.8597782
  48.1951477 115.8958596  80.1979439  50.9116281 114.3768200  77.6168854
  50.8329912 114.0428063  78.5104612  51.7325948 114.8689968  77.6160326
  53.6094472 107.2429939  90.8245172  53.5770792 106.3045940  91.0104856
  54.2195096 107.3213976  90.0910997  45.4477803 106.1125992  76.8672376
  46.3936907 105.9832200  76.9360794  45.0692048 105.3740654  77.3441805
  53.7588960 104.0340983  90.8703456  53.2428009 103.2499439  90.6833384
  54.6428909 103.7059699  91.0349975  51.4199687  97.7781998  86.8299268
  51.2224508  97.4697086  87.7142600  52.0299393  98.5043637  86.9597198
  59.4271022 108.3045946  89.9651209  60.1574410 108.0431234  90.5258913
  58.8177967 107.5674668  90.0053277  57.5086319 106.4453809  90.5625660
  56.7819482 106.3109774  89.9542152  57.0933606 106.7530637  91.3682378
  45.3316495 110.1643738  98.3273033  46.2519505 110.3422337  98.5213080
  45.2966078 109.2199784  98.1752733  43.6320720 104.0375969  76.8027262
  42.7252175 103.7409081  76.8789975  43.9096701 103.7405787  75.9361548
  34.5498660 105.3582332  87.2526308  34.2301445 104.5047640  86.9600682
  34.0032088 105.5730910  88.0084275  38.3278568 108.0744773  90.9695815
  38.5464578 109.0061881  90.9883848  38.7404342 107.7152747  91.7550618
  45.2482786  98.5812858  82.9571503  44.4383514  98.2359943  83.3326749
  45.9367203  98.2720402  83.5459115  47.1773334  97.6590905  84.5795800
  47.7304373  98.0786358  85.2385823  47.4143420  96.7326653  84.6218756
  43.2006433 103.6477979 100.3598564  43.1003160 104.5972336 100.2910655
  42.9827975 103.3196218  99.4874634  42.4019505 100.8962904  76.9439241
  43.2638669 101.2217802  77.2035058  42.5869849 100.1094400  76.4312307
  34.4186920 108.9785243  89.2219430  33.7250392 108.5639196  88.7089384
  35.1659911 109.0205780  88.6252849  50.5552141  99.7691430  84.0874464
  49.9750810 100.4276234  83.7052516  50.2888074  98.9468775  83.6761881
  49.0055707  99.1696488  86.2895784  49.5055486  99.2813022  85.4810103
  49.6491315  98.8657541  86.9296593  43.0637703 107.0775118  99.1763625
  42.5804785 107.8775478  99.3827514  43.1498642 107.0883062  98.2231069
  36.3323663 108.9103497  87.0985445  36.3094351 109.0091184  86.1467328
  36.6424299 109.7568648  87.4202611  38.9911041 110.9679652  91.2132059
  39.9454294 110.9363595  91.1461991  38.7923564 110.5070276  92.0282285
  39.5810423 109.5380768  93.7802857  40.4003312 110.0324847  93.8037694
  39.8547231 108.6212736  93.7520424  49.3377019 101.9291521  83.1430812
  48.4502874 102.2141171  82.9251007  49.7531008 101.7685284  82.2958089
  52.6891555 101.9538042  86.8585151  53.4651945 102.4434494  87.1309768
  51.9639689 102.3796096  87.3157021  55.1264114 102.6665661  87.9159092
  55.7208605 102.4261397  87.2052400  55.1990697 101.9472791  88.5432628
  37.3461269 116.5099272  88.2302257  37.2115737 115.7499673  87.6640255
  36.9293332 117.2340172  87.7631046  48.4820233 111.6936195  77.2378832
  49.1856083 111.8986198  77.8536488  47.7582881 112.2612957  77.5027916
  49.3118043 107.4446057  83.3581102  49.2553244 107.9014608  82.5188735
  49.8646385 106.6836741  83.1803945  53.1222849 103.2335788  84.1831222
  52.8659783 102.8332424  85.0139429  52.4975717 103.9479582  84.0581361
  57.4335187 105.9731862  86.6902513  56.8734745 106.0425051  87.4634075
  56.8278690 105.7972846  85.9702009  40.5030395 117.4068589  88.4420699
  40.3862780 118.3514021  88.3399390  39.6822842 117.1042150  88.8306499
  50.3906930 112.1318724  79.2877292  51.2252534 111.6999923  79.1054767
  50.2291273 111.9600738  80.2154187  50.0452822 108.6350838  80.6533631
  49.9901626 108.4695109  79.7122076  49.4198877 109.3426871  80.8095821
  34.8345337 103.8718902  94.4795054  35.4804201 103.3617856  94.9682279
  34.6262488 104.6087584  95.0538479  47.3598729 110.9399750  99.9787194
  48.2289889 111.1140402  99.6173829  46.8805481 111.7594166  99.8562924
  43.3548948  98.1358947  80.2318950  43.3427617  99.0800787  80.3887221
  44.2472369  97.9529092  79.9378411  41.5284909 118.0596851  91.6576628
  42.4312156 118.0920461  91.9743123  41.3022280 117.1297302  91.6722964
  43.2838512 116.8127837  88.3186707  42.3334143 116.8129699  88.2051079
  43.5870998 116.0660572  87.8022741  39.1742828 101.0186519  98.5770068
  40.0374290 100.6623324  98.7873392  38.6008239 100.6800414  99.2645472
  59.0191205 122.6488376  89.3832469  59.6569615 122.5295123  88.6795809
  58.9012048 123.5969220  89.4420421  55.8280911 122.6015804  89.3193994
  55.4899423 122.4856868  88.4314528  56.6970679 122.2006969  89.2995000
  56.3100694 123.7550655  95.2780199  56.2989335 123.3603454  94.4060703
  56.4721334 123.0216728  95.8713971  53.5289191 121.3704051  78.6510934
  53.7814711 120.8485572  77.8894397  52.5913750 121.2070196  78.7537617
  58.5732473 120.3739829  86.4585677  59.3595563 119.9559253  86.1076094
  58.8371178 121.2785922  86.6267325  63.9740901 120.3115063  87.3618655
  64.7066073 119.7414279  87.5956485  63.2180256 119.9236663  87.8025161
  55.5917020 122.7342304  84.5581998  55.2275228 122.2072925  85.2694919
  56.4484136 122.3440773  84.3848483  61.4966321 114.0236637  91.8213264
  61.1649646 114.8932048  91.5974479  60.9011934 113.7072921  92.5007294
  55.2322507 117.7632204  79.5543346  55.3996910 118.6312440  79.9213817
  55.0419676 117.9259485  78.6304636  61.3894984 118.7431723  88.9006614
  60.4811862 118.6747131  88.6065375  61.3382580 119.2203668  89.7288440
  55.2111728 120.2189861  80.5390013  55.0911353 120.6646912  81.3775494
  54.5164317 120.5675179  79.9803551  55.4635850 120.1621368  96.8441511
  54.6869184 120.7215289  96.8344376  56.1026413 120.6478151  97.3656382
  63.2556631 116.9448161  90.6784488  62.6131011 117.2380694  90.0324283
  62.7511559 116.8301082  91.4837685  60.9096794 120.6911334  81.3670347
  61.8214650 120.9238721  81.1918045  60.4006441 121.2748379  80.8045426
  59.1937562 125.1135962  95.0031640  59.6020918 124.6718373  94.2586272
  58.4714824 124.5388590  95.2565833  55.5468632 120.0508569  92.3765197
  56.3929827 120.4747983  92.5199846  55.4867270 119.3942193  93.0703760
  58.6968077 117.7112937  94.0346370  58.4529009 118.4654998  93.4980646
  58.9728008 118.0898285  94.8693618  60.6506540 124.2551550  92.7123636
  60.8623435 124.8983310  92.0358017  60.6036288 123.4213866  92.2445566
  58.2532769 116.8669370  89.6160208  57.3917248 117.1650624  89.9076946
  58.2795204 117.0839769  88.6841241  54.0063225 121.5334713  82.8323579
  54.7087268 121.9855757  83.2997505  53.6743853 120.8918532  83.4603472
  52.4543586 120.1246470  97.2074788  51.8242247 120.8062751  97.4410185
  52.3479674 120.0129552  96.2627927  47.7488559 119.7918266  88.1340713
  46.9587613 120.0475795  87.6580823  48.2399806 120.6066604  88.2392753
  49.7003304 120.1562845  85.0924189  48.9034467 120.2681540  85.6107685
  49.4728896 120.4949498  84.2265080  69.8558361 123.4762254  87.2330965
  69.1022070 122.9069652  87.0774969  69.9905902 123.4424918  88.1801600
  51.7324329 114.4267236  99.5700039  51.3391274 113.8733434 100.2447684
  52.5490469 114.7377814  99.9606557  54.6492290 115.8425115  97.1620296
  55.3902003 116.4432268  97.0824758  54.8810213 115.1002753  96.6038339
  49.7933628 121.0281482  95.4398526  49.6787143 120.1266739  95.7405625
  48.9378146 121.2745179  95.0883342  58.5949453 111.8706218  91.4384578
  58.2513722 112.7607860  91.3623688  58.9628415 111.6807876  90.5754163
  58.5599736 121.8614829  79.9457013  58.0446359 122.6319434  80.1845400
  58.2877044 121.1879965  80.5690074  56.1446847 116.7064530  85.0042251
  55.2888443 116.3171380  84.8247890  56.5573798 116.7856491  84.1442037
  57.6745993 114.2410873  89.4033811  57.1710789 114.2041008  88.5901616
  57.9676600 115.1503616  89.4630468  53.9188879 114.3249603  88.4099993
  54.7841876 114.1292411  88.0505882  53.9866388 114.0959955  89.3369349
  63.5334010 124.6147184  81.8810186  62.7563452 124.2758343  81.4365348
  64.2125491 124.6199807  81.2065151  58.3486039 119.7341921  81.7716794
  58.0436174 120.0488070  82.6226937  59.3016481 119.8123341  81.8144127
  61.7725317 124.0881165  88.5376794  61.1148991 124.7780426  88.6256923
  62.5765716 124.4777597  88.8810781  51.5251198 116.5551811  85.7816359
  52.0994950 116.3326992  85.0489552  52.1122181 116.6240505  86.5344961
  60.5830775 122.4425538  86.5880736  61.0962657 123.0755529  87.0902446
  61.2331999 121.8426733  86.2224096  51.8520785 118.5856272  79.8012245
  51.0158097 118.9230958  80.1221519  51.7125555 118.4505252  78.8639382
  53.8273866 113.4293060  84.5091429  53.1738278 113.1142077  83.8848044
  53.7854340 112.8068800  85.2351252  54.9385071 123.7112355  76.4244721
  54.0312132 123.4801608  76.6235870  55.4356103 122.9149974  76.6118703
  57.0611606 119.9174993  88.8339077  56.1434168 120.1389940  88.6760765
  57.4771750 119.9921304  87.9750784  57.8446654 121.3166409  83.9641757
  58.5918473 121.8287806  83.6548879  58.1138244 120.9950462  84.8246150
  56.1173304 123.8124950  80.9468711  55.2084523 123.5283982  81.0441181
  56.1468388 124.2324028  80.0872018  60.2925491 118.3523525  85.9460546
  59.5548248 117.8400911  86.2770789  60.5452265 117.9123907  85.1343823
  60.3937118 111.1299777  86.5402315  60.6995995 110.2697140  86.2528230
  61.1189723 111.7217397  86.3401309  54.6658198 121.4253570  87.0478506
  54.7206808 120.4727407  86.9720983  53.8549400 121.5813009  87.5319805
  52.6050558 120.0430630  84.8068885  51.7918424 120.3424800  85.2134077
  53.1009552 119.6486319  85.5243368  58.2024770 120.5072454  93.6383779
  58.5574158 120.7343927  94.4978245  58.8496901 120.8390831  93.0161034
  63.9322507 123.6290890  84.3433108  63.7940405 123.8192486  83.4154297
  63.5758726 124.3910273  84.8001159  52.0964633 117.6148985  90.4230120
  52.7364012 117.4737745  89.7253084  51.2642163 117.3283499  90.0468722
  63.9591886 125.6967417  89.3544380  64.3928393 125.6042706  90.2027434
  64.6723467 125.6724918  88.7164396  49.1807700 121.0594498  82.6124865
  48.2505288 120.9978953  82.8294828  49.2765172 120.5370450  81.8161507
  49.0993249 117.5849310  85.2003107  49.3600067 118.4994644  85.0912268
  49.9210422 117.1173753  85.3499720  50.5718175 118.9987068  92.3701932
  51.2441228 118.7904430  91.7214580  49.7447961 118.8009154  91.9307164
  64.8207436 125.7391118  91.8877265  65.0143326 126.6436928  92.1336540
  64.7208054 125.2798537  92.7215850  56.4743747 115.6249008  94.3867592
  55.8271662 116.3238958  94.2932069  57.2444762 116.0585152  94.7543841
  56.6507881 123.4629773  92.4464412  57.5799941 123.6140933  92.2733379
  56.2298911 123.5513794  91.5913059  50.9745672 122.2729671  93.1304369
  50.8365470 121.5409909  93.7315908  51.8850595 122.1838571  92.8488556
  59.9360620 124.2118075  77.8788847  59.3189790 123.4864903  77.7821900
  59.4677108 124.9727435  77.5355922  53.6027973 121.9849630  92.6188048
  54.3127591 121.3442822  92.5774667  53.5597281 122.2362525  93.5414229
  52.3156907 118.9714848  94.4383688  51.7794264 118.5205586  95.0905284
  51.7273615 119.1060757  93.6954152  51.7259165 118.4303499  77.0010152
  50.8488632 118.3092300  76.6372398  52.2016919 117.6389577  76.7489040
  48.0496028 118.1070855  91.5236682  47.9654216 117.4996525  90.7887092
  47.2278734 118.5979874  91.5246179  58.2219742 116.5924419  86.8906877
  58.7188441 115.8394381  86.5707948  57.4506723 116.6288736  86.3250087
  66.0749499 122.2964785  88.5325169  66.0639375 123.1789500  88.1619102
  65.2066878 121.9436335  88.3379706  54.8054710 118.7341802  86.6178562
  54.4352498 118.1812842  87.3059468  55.3013803 118.1299935  86.0653562
  62.6922074 121.1913425  84.9995335  63.1582526 122.0241417  84.9255638
  63.1429574 120.7258407  85.7040593  60.6638736 113.5594012  89.0386236
  59.7501816 113.7898239  89.2068443  61.0931838 113.6432457  89.8900269
  60.4345195 121.7483904  91.5386130  59.7816645 121.9959812  90.8838583
  60.8125575 120.9348043  91.2048608  56.4832768 122.4903715  98.0252167
  55.8073405 122.3897845  98.6954543  57.3060402 122.3342929  98.4888165
  50.2020044 116.1445793  92.8631668  50.2661371 117.0060624  92.4509066
  50.1387164 115.5319794  92.1304027  49.6772317 118.2168925  96.5104702
  50.3044355 117.8346003  97.1242227  48.8200235 117.9983127  96.8760395
  46.4537859 120.0245354  82.4423057  46.7491300 119.1156033  82.3890111
  45.5525895 120.0033094  82.1204060  49.9832106 118.1001351  88.4250606
  49.2618692 118.7137319  88.2858079  50.7725362 118.6359116  88.3467252
  52.7858420 115.4355777  94.6991258  53.3092822 115.6818074  95.4617567
  52.5670753 116.2675812  94.2794395  48.1825701 117.7059452  82.5662382
  47.8538407 116.8256831  82.3837488  48.5365072 117.6507121  83.4538772
  51.2967524 117.9932422  82.9337860  51.6363597 118.5218343  82.2116468
  51.7439645 118.3312828  83.7096427  53.9910965 116.3769473  92.3840928
  53.6507785 115.5777286  92.7861608  53.2849971 116.6771183  91.8117761
  54.6427437 113.4618785  90.8368251  55.4653506 112.9879263  90.7147141
  54.8865500 114.2409269  91.3366937  53.2835671 116.4907043  81.1331153
  54.0044034 116.8688296  80.6294870  52.6600975 117.2095920  81.2366131
  57.4266794 117.1952192  82.0689485  57.6430408 118.0776830  81.7678313
  56.9460861 116.8038406  81.3395127  52.1666015 120.1537906  88.6460230
  52.0210596 120.4678209  89.5384511  51.6891219 120.7722806  88.0931128
  54.0262398 117.1440454  88.6941119  54.0123967 116.2481547  88.3573417
  54.7434826 117.1511117  89.3279405  55.8788529 117.5777794  90.7394247
  55.6206307 118.4994864  90.7378577  55.3473569 117.1808228  91.4294711
  53.4299294 116.0254834  83.9628689  53.5515205 115.0971480  84.1619577
  53.1401337 116.0393520  83.0507005  56.2990485 113.7109744  87.0995409
  56.3212181 113.7749077  86.1447389  56.7158544 112.8714253  87.2935915
  66.6774109 123.4465004  85.1374632  67.1205255 122.6972329  84.7393755
  65.8000619 123.4375140  84.7548364  52.9140374 117.5386831  98.1718622
  52.9628529 118.4148954  97.7896392  53.4562888 116.9964224  97.5990265
  63.5193095 124.9320421  94.7652488  63.5691099 124.7670428  95.7068010
  63.4107018 124.0647680  94.3750368  60.8096857 120.9151349  96.0811794
  61.7106720 120.7757814  95.7895792  60.8844831 121.0805804  97.0209972
  55.1439662 118.2918204  94.9264981  54.2742972 118.5851770  94.6547569
  55.3799143 118.8758649  95.6472244  66.2206974 124.9170242  87.5297079
  67.0553865 125.3560046  87.6934640  66.3566102 124.4408895  86.7105325
  63.2698480 122.4749977  93.4774567  63.7452601 122.6677623  92.6693419
  62.3464045 122.5309163  93.2317951  57.8478696 114.5097821  92.4430401
  58.3660640 115.2458848  92.1176890  57.4933829 114.8161814  93.2777160
  49.4277634 119.3702502  80.5591807  48.7346879 119.4446857  79.9031843
  49.1829386 118.6062845  81.0813324  58.0991290 110.9298103  87.9631298
  58.3793044 110.2621292  88.5891724  58.8841897 111.1227199  87.4505961
  61.9700149 119.3515737  91.7102873  62.9217571 119.4513835  91.7315097
  61.8003599 118.5594006  92.2200957  59.9914528 116.4371320  91.8962274
  59.3964460 116.7176333  91.2008762  59.7064225 116.9265221  92.6679015
  64.4488226 122.5721857  90.8245172  64.4164546 121.6337858  91.0104856
  65.0588850 122.6505894  90.0910997  56.2871557 121.4417910  76.8672376
  57.2330662 121.3124118  76.9360794  55.9085802 120.7032572  77.3441805
  64.5982715 119.3632900  90.8703456  64.0821764 118.5791357  90.6833384
  65.4822663 119.0351617  91.0349975  62.2593442 113.1073916  86.8299268
  62.0618263 112.7989004  87.7142600  62.8693147 113.8335555  86.9597198
  70.2664776 123.6337864  89.9651209  70.9968165 123.3723152  90.5258913
  69.6571722 122.8966586  90.0053277  68.3480073 121.7745726  90.5625660
  67.6213237 121.6401691  89.9542152  67.9327360 122.0822555  91.3682378
  54.4714474 119.3667886  76.8027262  53.5645930 119.0700999  76.8789975
  54.7490455 119.0697704  75.9361548  56.0876540 113.9104776  82.9571503
  55.2777268 113.5651861  83.3326749  56.7760957 113.6012320  83.5459115
  58.0167088 112.9882823  84.5795800  58.5698127 113.4078276  85.2385823
  58.2537175 112.0618571  84.6218756  54.0400188 118.9769896 100.3598564
  53.9396915 119.9264253 100.2910655  53.8221730 118.6488135  99.4874634
  53.2413259 116.2254821  76.9439241  54.1032423 116.5509720  77.2035058
  53.4263603 115.4386317  76.4312307  61.3945896 115.0983348  84.0874464
  60.8144565 115.7568152  83.7052516  61.1281828 114.2760692  83.6761881
  59.8449462 114.4988406  86.2895784  60.3449240 114.6104940  85.4810103
  60.4885070 114.1949458  86.9296593  53.9031458 122.4067035  99.1763625
  53.4198539 123.2067395  99.3827514  53.9892397 122.4174980  98.2231069
  60.1770774 117.2583438  83.1430812  59.2896629 117.5433089  82.9251007
  60.5924763 117.0977202  82.2958089  63.5285310 117.2829959  86.8585151
  64.3045700 117.7726412  87.1309768  62.8033444 117.7088013  87.3157021
  65.9657868 117.9957578  87.9159092  66.5602359 117.7553314  87.2052400
  66.0384452 117.2764709  88.5432628  60.1511797 122.7737974  83.3581102
  60.0946999 123.2306526  82.5188735  60.7040140 122.0128659  83.1803945
  63.9616603 118.5627706  84.1831222  63.7053537 118.1624342  85.0139429
  63.3369471 119.2771500  84.0581361  68.2728941 121.3023779  86.6902513
  67.7128499 121.3716969  87.4634075  67.6672444 121.1264764  85.9702009
  60.8846577 123.9642755  80.6533631  60.8295380 123.7987027  79.7122076
  60.2592632 124.6718788  80.8095821  45.6739092 119.2010820  94.4795054
  46.3197955 118.6909774  94.9682279  45.4656243 119.9379501  95.0538479
  54.1942702 113.4650864  80.2318950  54.1821372 114.4092704  80.3887221
  55.0866124 113.2821010  79.9378411  58.0094821 110.0593641  84.4864887
  57.2427217 109.5052128  84.6321569  58.4205526 110.1315510  85.3479038
  50.0136583 116.3478437  98.5770068  50.8768044 115.9915242  98.7873392
  49.4401993 116.0092332  99.2645472  69.4343207 127.1998136  91.4384578
  69.0907477 128.0899777  91.3623688  69.8022170 127.0099793  90.5754163
  71.2330873 126.4591695  86.5402315  71.5389750 125.5989058  86.2528230
  71.9583478 127.0509315  86.3401309  71.5032491 128.8885930  89.0386236
  70.5895571 129.1190157  89.2068443  71.9325592 128.9724374  89.8900269
  68.9385045 126.2590021  87.9631298  69.2186799 125.5913210  88.5891724
  69.7235652 126.4519116  87.4505961  73.0987196 128.4365834  86.8299268
  72.9012017 128.1280922  87.7142600  73.7086902 129.1627472  86.9597198
  68.8560843 128.3174740  84.5795800  69.4091882 128.7370194  85.2385823
  69.0930929 127.3910488  84.6218756  68.8488576 125.3885559  84.4864887
  68.0820972 124.8344045  84.6321569  69.2599281 125.4607428  85.3479038
   4.8222434  23.0090910  76.1077776   5.4600844  22.8897657  75.4041116
   4.7043277  23.9571754  76.1665728   1.6312140  22.9618338  76.0439300
   1.2930652  22.8459403  75.1559835   2.5001908  22.5609503  76.0240306
   2.1131923  24.1153190  82.0025506   2.1020564  23.7205988  81.1306009
   2.2752563  23.3819262  82.5959277   3.0698515  28.4824782  67.3450656
   2.4186494  29.0678862  66.9584670   3.8642877  29.0130977  67.4045694
   4.3763702  20.7342364  73.1830984   5.1626792  20.3161787  72.8321401
   4.6402407  21.6388456  73.3512632   4.5473780  26.1715214  67.8819640
   3.9119613  26.2449840  68.5940545   4.2171186  26.7608813  67.2038720
   9.7772129  20.6717597  74.0863962  10.5097301  20.1016814  74.3201792
   9.0211485  20.2839197  74.5270468   1.3948249  23.0944838  71.2827305
   1.0306456  22.5675459  71.9940226   2.2515365  22.7043307  71.1093790
   7.2997550  14.3839171  78.5458571   6.9680875  15.2534582  78.3219786
   6.7043163  14.0675455  79.2252601   1.0353736  18.1234738  66.2788653
   1.2028138  18.9914974  66.6459124   0.8450905  18.2862020  65.3549942
   3.7929069  26.5851717  77.9454483   3.4929792  27.4876756  77.8370291
   3.4480129  26.3183900  78.7975636   7.1926213  19.1034257  75.6251921
   6.2843090  19.0349666  75.3310682   7.1413809  19.5806202  76.4533746
   1.2667079  20.5223903  83.5686818   0.4900413  21.0817823  83.5589683
   1.9057642  21.0080686  84.0901688   9.0587859  17.3050695  77.4029795
   8.4162240  17.5983229  76.7569589   8.5542788  17.1903616  78.2082991
   6.7128023  21.0513869  68.0915654   7.6245879  21.2841255  67.9163351
   6.2037670  21.6350913  67.5290733   4.9968791  25.4738497  81.7276947
   5.4052147  25.0320907  80.9831579   4.2746052  24.8991124  81.9811139
   1.3499861  20.4111103  79.1010503   2.1961056  20.8350517  79.2445152
   1.2898499  19.7544728  79.7949067   5.3197605  26.0339687  75.4829235
   4.6906468  26.1985401  74.7805303   4.9323268  26.4481297  76.2540199
   9.1986837  26.9694125  72.8373599   8.5137876  27.3493026  72.2870632
   9.2830687  27.5789452  73.5705547   4.4999306  18.0715472  80.7591677
   4.2560238  18.8257532  80.2225953   4.7759237  18.4500819  81.5938924
   6.4537769  24.6154084  79.4368943   6.6654664  25.2585844  78.7603324
   6.4067517  23.7816401  78.9690873   4.0563998  17.2271905  76.3405515
   3.1948477  17.5253158  76.6322252   4.0826433  17.4442304  75.4086547
   0.8725567  25.7714095  72.7479321   1.3363913  26.0501798  71.9583943
   0.6082365  24.8697540  72.5652411   7.5683597  27.4926039  77.6091300
   8.3901041  27.0906227  77.3273982   7.5646000  27.3894274  78.5607416
   1.3340200  27.0410083  79.7652011   1.3984633  27.5030490  80.6010182
   0.6251124  26.4107448  79.8934320  15.6589590  23.8364788  73.9576271
  14.9053298  23.2672186  73.8020276  15.7937131  23.8027452  74.9046906
   1.0488218  28.7078190  69.6330991   0.9133893  29.5529726  70.0615839
   1.5898031  28.9097468  68.8696925   2.6756694  29.3301757  83.7631333
   2.2320549  28.5438135  83.4452237   3.3373908  29.5180907  83.0975224
   4.7737932  29.6104557  81.7912734   4.7556408  30.4313438  81.2993003
   5.6957853  29.4858632  82.0162875   1.2310987  27.1248686  82.6336243
   1.7639323  26.3636974  82.4035551   0.7025068  26.8322338  83.3760397
   4.3630964  22.2217363  66.6702319   3.8477588  22.9921968  66.9090707
   4.0908273  21.5482499  67.2935381   9.3365238  24.9749718  68.6055493
   8.5594681  24.6360877  68.1610655  10.0156719  24.9802341  67.9310458
   4.1517267  20.0944455  68.4962101   3.8467403  20.4090604  69.3472244
   5.1047710  20.1725875  68.5389434   2.5963699  26.2534679  70.1455055
   2.0685061  25.5187438  69.8328292   2.0951202  27.0309355  69.8995023
   7.5756545  24.4483699  75.2622101   6.9180220  25.1382961  75.3502230
   8.3796945  24.8380131  75.6056087   6.3862004  22.8028072  73.3126043
   6.8993886  23.4358064  73.8147752   7.0363228  22.2029267  72.9469403
   3.6484378  32.7812396  66.0686714   2.9746077  33.0844093  66.6771672
   4.0350200  33.5841476  65.7192171   2.8642835  20.2777527  75.5584383
   1.9465396  20.4992474  75.4006071   3.2802979  20.3523838  74.6996091
   3.6477883  21.6768943  70.6887063   4.3949702  22.1890340  70.3794185
   3.9169472  21.3552996  71.5491457   1.9204533  24.1727484  67.6714018
   1.0115752  23.8886517  67.7686487   1.9499617  24.5926562  66.8117325
   7.1523800  27.7834073  71.4405185   6.6986127  26.9424983  71.4970376
   6.5217767  28.4195472  71.7779965   6.0956720  18.7126059  72.6705853
   5.3579477  18.2003445  73.0016095   6.3483493  18.2726441  71.8589130
   5.5956740  29.6210570  72.3755003   5.8879714  30.1815627  71.6567369
   6.1055360  29.9139131  73.1308163   1.6180621  25.7136227  65.0102096
   1.1800051  24.9972086  64.5507734   2.3591062  25.9412342  64.4487188
   0.5590365  30.3990921  73.4648457   0.5166544  30.6251767  72.5356989
   1.4753064  30.1654296  73.6134258   4.0055999  20.8674989  80.3629086
   4.3605386  21.0946462  81.2223552   4.6528130  21.1993365  79.7406341
   9.7353736  23.9893424  71.0678415   9.5971634  24.1795020  70.1399604
   9.3789954  24.7512807  71.5246466   9.7623115  26.0569951  76.0789686
  10.1959622  25.9645241  76.9272740  10.4754696  26.0327452  75.4409702
   3.4951010  29.6572046  77.6122787   3.5488032  30.2262982  78.3800503
   2.6265791  29.8273931  77.2476824  10.6238665  26.0993652  78.6122572
  10.8174555  27.0039463  78.8581847  10.5239283  25.6401071  79.4461157
   5.6853773  26.2500395  84.1863452   5.5339280  26.0210947  83.2693536
   5.6758453  27.2070996  84.1994797   2.4539110  23.8232308  79.1709719
   3.3831170  23.9743467  78.9978686   2.0330140  23.9116328  78.3158365
   1.8475594  32.9492068  68.2833793   2.0227349  32.4780112  69.0979416
   1.1608382  33.5757835  68.5115054   2.8032657  27.2264575  74.3297094
   2.4682489  27.1865345  75.2254744   2.3036602  26.5609291  73.8567504
   5.7391848  24.5720609  64.6034154   5.1221019  23.8467437  64.5067207
   5.2708337  25.3329969  64.2601228   7.3945980  29.2819517  82.2639934
   7.3358526  28.5978738  81.5970517   7.7965498  30.0238507  81.8120560
   7.3963387  27.2459101  80.4953914   6.5090166  26.9085023  80.6180313
   7.9661938  26.5142133  80.7322679   0.9264541  31.9060554  77.4615157
   0.8534712  32.7115525  77.9734462   0.4841934  32.1052520  76.6363179
   4.0250970  16.9526953  73.6152184   4.5219670  16.1996916  73.2953254
   3.2537952  16.9891270  73.0495393  11.8780728  22.6567319  75.2570476
  11.8670604  23.5392034  74.8864409  11.0098107  22.3038870  75.0625013
   3.3863224  31.8047388  79.6173316   4.0991196  32.4394853  79.5449217
   2.8953253  31.9011254  78.8013318   5.1080751  25.7098640  71.1890607
   4.1737030  25.8300103  71.0195312   5.2857420  24.8071107  70.9250617
   8.4953302  21.5515960  71.7240642   8.9613755  22.3843951  71.6500944
   8.9460803  21.0860941  72.4285900   6.5629534  27.8959781  68.7226794
   6.8389377  27.7816376  69.6320668   5.6934032  27.4977266  68.6838967
   6.2376424  22.1086439  78.2631437   5.5847874  22.3562346  77.6083890
   6.6156804  21.2950577  77.9293914   3.1983598  32.1446132  72.3659607
   3.3805992  31.3267788  72.8287360   4.0216584  32.3613824  71.9284497
   3.5325763  31.0714317  69.6274656   4.0613530  30.5606772  69.0144818
   3.7953983  30.7556847  70.4920189   2.2863997  22.8506250  84.7497474
   1.6104634  22.7500379  85.4199849   3.1091631  22.6945463  85.2133471
   1.0286780  34.1573177  78.9855090   1.5805088  34.3204799  79.7504175
   1.3692973  34.7477615  78.3135115   5.8797654  28.9834435  84.8403744
   6.4237558  29.5964393  84.3458699   5.2984499  29.5414013  85.3570757
   4.1655167  32.1055153  75.9718772   4.0406306  31.3044893  75.4629718
   4.8234258  32.6001346  75.4832742   6.2290075  29.9064173  77.5998322
   5.2820411  29.7869524  77.5276649   6.5772848  29.0186671  77.6824584
   3.2336509  29.7016889  73.8002674   3.0861471  28.7733596  73.9810245
   4.0590002  29.7236980  73.3159750   6.8370630  30.5245448  74.8867547
   7.7617178  30.3188309  74.7491998   6.6685934  30.2761849  75.7956889
   3.2298023  17.5554727  68.7934792   3.4461637  18.4379365  68.4923620
   2.7492090  17.1640940  68.0640434   6.6265947  31.0431115  70.2429639
   6.8002824  30.4777538  69.4903491   7.1194838  31.8432010  70.0609129
  12.4805338  23.8067538  71.8619938  12.9236484  23.0574863  71.4639062
  11.6031848  23.7977674  71.4793670   7.6141119  30.3597880  67.3426537
   8.3092024  30.9804572  67.5613852   7.9564269  29.5093231  67.6178915
   9.5132542  27.8097585  68.8713868  10.0383866  28.1484858  68.1463188
   9.4254895  26.8744600  68.6877002   1.1752591  31.7231659  81.0003744
   1.4839717  31.4780806  81.8726444   1.9728073  31.9278297  80.5122615
   1.1973203  33.8769568  73.2309121   0.7578193  33.3845947  73.9241978
   1.9481320  33.3342536  72.9901196   9.2026448  28.4430489  84.1765066
   8.4121992  28.4254628  83.6369565   8.9659803  28.9818782  84.9314102
   9.3224323  25.2922955  81.4897794   9.3722328  25.1272963  82.4313317
   9.2138247  24.4250214  81.0995675   6.6128086  21.2753883  82.8057101
   7.5137948  21.1360348  82.5141099   6.6876060  21.4408338  83.7455278
  10.8242520  27.7119897  81.7339816  10.5327328  28.0749877  82.5703277
  10.2114651  26.9986905  81.5553148  12.0238202  25.2772776  74.2542386
  12.8585094  25.7162580  74.4179946  12.1597331  24.8011430  73.4350632
   9.0729708  22.8352511  80.2019874   9.5483830  23.0280158  79.3938725
   8.1495274  22.8911697  79.9563257   1.7055988  30.4659631  66.2501631
   1.1329955  31.0849818  65.7972102   2.2788781  31.0158993  66.7841553
   7.7731377  19.7118271  78.4348179   8.7248800  19.8116369  78.4560403
   7.6034828  18.9196540  78.9446264   5.7945757  16.7973855  78.6207580
   5.1995689  17.0778867  77.9254069   5.5095454  17.2867755  79.3924321
   4.9253247  30.7496781  67.3810213   5.8583921  30.6842343  67.5843088
   4.8376460  31.5853048  66.9224746   7.5541264  30.0662652  64.3414160
   7.4754896  29.7322515  65.2349918   8.3750931  30.5584420  64.3405633
  10.2519455  22.9324391  77.5490479  10.2195775  21.9940392  77.7350163
  10.8620079  23.0108428  76.8156304   2.0902786  21.8020444  63.5917683
   3.0361891  21.6726652  63.6606101   1.7117031  21.0635106  64.0687111
  10.4013944  19.7235434  77.5948762   9.8852992  18.9393891  77.4078691
  11.2853892  19.3954151  77.7595282   8.0624671  13.4676450  73.5544575
   7.8649492  13.1591538  74.4387907   8.6724376  14.1938089  73.6842505
  16.0696005  23.9940398  76.6896516  16.7999394  23.7325686  77.2504219
  15.4602951  23.2569120  76.7298584  14.1511302  22.1348260  77.2870967
  13.4244466  22.0004225  76.6787459  13.7358589  22.4425089  78.0927685
   1.9741479  25.8538190  85.0518340   2.8944488  26.0316789  85.2458387
   1.9391062  24.9094235  84.8998039   7.1977124  15.4585882  70.8119770
   6.6175793  16.1170686  70.4297823   6.9313057  14.6363227  70.4007188
   5.6480691  14.8590940  73.0141091   6.1480469  14.9707474  72.2055410
   6.2916299  14.5551993  73.6541899   5.9802002  17.6185972  69.8676119
   5.0927857  17.9035623  69.6496314   6.3955991  17.4579736  69.0203396
   9.3316538  17.6432493  73.5830458  10.1076929  18.1328946  73.8555075
   8.6064673  18.0690548  74.0402328  11.7689097  18.3560113  74.6404399
  12.3633588  18.1155849  73.9297707  11.8415681  17.6367243  75.2677935
   5.1245216  27.3830647  63.9624139   5.8281066  27.5880650  64.5781794
   4.4007865  27.9507409  64.2273222   5.9543026  23.1340508  70.0826409
   5.8978227  23.5909060  69.2434041   6.5071369  22.3731193  69.9049252
   9.7647832  18.9230240  70.9076528   9.5084766  18.5226876  71.7384736
   9.1400700  19.6374034  70.7826668  14.0760170  21.6626314  73.4147820
  13.5159728  21.7319503  74.1879382  13.4703673  21.4867298  72.6947316
   7.0331913  27.8213176  66.0122599   7.8677517  27.3894375  65.8300074
   6.8716256  27.6495190  66.9399493   6.6877805  24.3245290  67.3778938
   6.6326609  24.1589561  66.4367382   6.0623861  25.0321323  67.5341128
   4.0023713  26.6294201  86.7032501   4.8714872  26.8034854  86.3419136
   3.5230464  27.4488618  86.5808230  15.6616188  38.3382827  76.1077776
  16.2994598  38.2189575  75.4041116  15.5437031  39.2863671  76.1665728
  12.4705895  38.2910256  76.0439300  12.1324406  38.1751320  75.1559835
  13.3395663  37.8901421  76.0240306   8.3292710  40.1445732  72.0336191
   7.7657575  40.0535669  71.2652479   8.2145105  39.3245636  72.5138684
  12.9525678  39.4445107  82.0025506  12.9414318  39.0497906  81.1306009
  13.1146317  38.7111180  82.5959277   5.8757142  41.6396924  74.8720412
   6.6678434  41.2987748  74.4566711   6.1153792  41.7491899  75.7922565
  13.9092269  43.8116700  67.3450656  13.2580249  44.3970780  66.9584670
  14.7036632  44.3422895  67.4045694   7.8347896  40.9005837  67.7437790
   8.6078772  40.3534824  67.6050666   8.1873295  41.7650086  67.9552252
   9.6732939  42.2282219  80.9504690   9.3822805  43.1327850  80.8351356
  10.3089923  42.2698747  81.6648759  10.5989146  39.6059068  77.5406049
  11.1952718  39.3815090  76.8263012  10.6564117  38.8643813  78.1431497
  10.1714174  37.0598503  65.3756240  10.4239695  36.5380024  64.6139703
   9.2338733  36.8964648  65.4782924  15.2157457  36.0634281  73.1830984
  16.0020546  35.6453704  72.8321401  15.4796161  36.9680373  73.3512632
  15.3867534  41.5007132  67.8819640  14.7513367  41.5741758  68.5940545
  15.0564941  42.0900730  67.2038720  20.6165884  36.0009514  74.0863962
  21.3491056  35.4308731  74.3201792  19.8605240  35.6131115  74.5270468
   9.8910463  38.9626609  67.5780615   9.7746721  38.2871512  68.2461700
  10.0012723  38.4758983  66.7612768  12.2342004  38.4236756  71.2827305
  11.8700211  37.8967377  71.9940226  13.0909120  38.0335225  71.1093790
  18.1391304  29.7131089  78.5458571  17.8074629  30.5826500  78.3219786
  17.5436918  29.3967373  79.2252601  11.8747491  33.4526656  66.2788653
  12.0421893  34.3206892  66.6459124  11.6844660  33.6153937  65.3549942
  14.6322824  41.9143635  77.9454483  14.3323547  42.8168673  77.8370291
  14.2873883  41.6475818  78.7975636   8.0835305  38.3657431  73.9791188
   7.1585802  38.2333646  74.1868880   8.3319718  39.1451651  74.4761130
  18.0319968  34.4326175  75.6251921  17.1236845  34.3641583  75.3310682
  17.9807563  34.9098120  76.4533746  11.8536711  35.9084313  67.2635320
  11.7336337  36.3541364  68.1020800  11.1589300  36.2569631  66.7048858
   5.4444116  38.0090705  74.8134977   5.5736497  38.2625184  75.7274389
   4.7641568  38.6018413  74.4939632   9.6143604  48.6787955  70.9125451
   9.5367633  49.6295780  70.9913932   9.0105247  48.3333827  71.5700377
  12.1060833  35.8515820  83.5686818  11.3294167  36.4109741  83.5589683
  12.7451396  36.3372603  84.0901688  19.8981614  32.6342613  77.4029795
  19.2555994  32.9275146  76.7569589  19.3936543  32.5195534  78.2082991
  17.5521778  36.3805786  68.0915654  18.4639634  36.6133173  67.9163351
  17.0431425  36.9642831  67.5290733  10.3607206  38.6601274  83.1304785
  11.1021890  39.1986318  82.8539609   9.6544191  39.2867562  83.2876337
  15.8362545  40.8030414  81.7276947  16.2445901  40.3612825  80.9831579
  15.1139807  40.2283042  81.9811139  12.1893615  35.7403021  79.1010503
  13.0354811  36.1642435  79.2445152  12.1292253  35.0836645  79.7949067
  16.1591360  41.3631605  75.4829235  15.5300222  41.5277319  74.7805303
  15.7717022  41.7773214  76.2540199  20.0380592  42.2986043  72.8373599
  19.3531630  42.6784944  72.2870632  20.1224441  42.9081369  73.5705547
  15.3393061  33.4007389  80.7591677  15.0953993  34.1549450  80.2225953
  15.6152991  33.7792737  81.5938924  17.2931523  39.9446002  79.4368943
  17.5048419  40.5877762  78.7603324  17.2461272  39.1108318  78.9690873
  14.8957752  32.5563822  76.3405515  14.0342231  32.8545076  76.6322252
  14.9220187  32.7734221  75.4086547  11.7119322  41.1006013  72.7479321
  12.1757667  41.3793716  71.9583943  11.4476120  40.1989457  72.5652411
   8.6043403  40.6477494  75.6859084   9.1744760  41.0764763  75.0476568
   9.1951515  40.3660079  76.3843269  10.6488208  37.2229165  69.5568886
  11.3512251  37.6750209  70.0242812  10.3168836  36.5812984  70.1848779
   9.0968569  35.8140922  83.9320095   8.4667230  36.4957203  84.1655492
   8.9904657  35.7024004  82.9873233   4.3913542  35.4812718  74.8586019
   3.6012596  35.7370246  74.3826130   4.8824789  36.2961056  74.9638060
  18.4077351  42.8217957  77.6091300  19.2294795  42.4198144  77.3273982
  18.4039754  42.7186191  78.5607416   6.3428287  35.8457297  71.8169496
   5.5459451  35.9575991  72.3352992   6.1153879  36.1843949  70.9510386
  12.1733955  42.3702000  79.7652011  12.2378387  42.8322408  80.6010182
  11.4644879  41.7399365  79.8934320   2.6751245  35.7343208  77.2901010
   2.9259283  36.6190218  77.5558586   3.2110793  35.5547810  76.5176102
  26.4983344  39.1656706  73.9576271  25.7447053  38.5964104  73.8020276
  26.6330886  39.1319370  74.9046906  11.8881973  44.0370108  69.6330991
  11.7527647  44.8821644  70.0615839  12.4291785  44.2389386  68.8696925
   8.3749312  30.1161688  86.2945346   7.9816258  29.5627886  86.9692990
   9.1915452  30.4272266  86.6851864   5.3411370  41.5545546  70.2058916
   5.8535890  42.3488796  70.3564481   5.9934083  40.8571836  70.1392517
   7.1506255  44.6711302  72.2881669   7.3272883  45.5929267  72.1002653
   7.9463088  44.3569721  72.7176049  11.2917273  31.5319567  83.8865603
  12.0326987  32.1326720  83.8070065  11.5235196  30.7897205  83.3283645
   6.4358611  36.7175934  82.1643832   6.3212126  35.8161191  82.4650931
   5.5803129  36.9639631  81.8128649  13.5150449  44.6593674  83.7631333
  13.0714303  43.8730053  83.4452237  14.1767662  44.8472825  83.0975224
   8.2737570  46.1889476  78.2892011   8.8244995  46.0606539  77.5169005
   7.4349046  46.4884365  77.9386904  15.6131687  44.9396474  81.7912734
  15.5950162  45.7605355  81.2993003  16.5351607  44.8150550  82.0162875
  12.0704741  42.4540604  82.6336243  12.6033078  41.6928892  82.4035551
  11.5418822  42.1614256  83.3760397  15.2374436  27.5600670  78.1629884
  14.8938705  28.4502311  78.0868995  15.6053399  27.3702327  77.2999469
   3.3060287  39.8834200  70.9818486   4.1435509  40.2931209  70.7652194
   3.4838554  38.9433642  70.9518680  15.2024719  37.5509281  66.6702319
  14.6871342  38.3213886  66.9090707  14.9302027  36.8774417  67.2935381
  12.7871830  32.3958982  71.7287558  11.9313426  32.0065832  71.5493197
  13.1998782  32.4750942  70.8687343  14.3170976  29.9305325  76.1279118
  13.8135772  29.8935460  75.3146923  14.6101583  30.8398068  76.1875774
  10.5613862  30.0144055  75.1345299  11.4266859  29.8186863  74.7751189
  10.6291371  29.7854406  76.0614656  20.1758993  40.3041636  68.6055493
  19.3988436  39.9652795  68.1610655  20.8550474  40.3094259  67.9310458
  14.9911022  35.4236373  68.4962101  14.6861158  35.7382522  69.3472244
  15.9441464  35.5017793  68.5389434  13.4357454  41.5826596  70.1455055
  12.9078815  40.8479356  69.8328292  12.9344957  42.3601273  69.8995023
  18.4150300  39.7775617  75.2622101  17.7573974  40.4674878  75.3502230
  19.2190699  40.1672049  75.6056087   8.1676181  32.2446263  72.5061666
   8.7419933  32.0221444  71.7734859   8.7547164  32.3134957  73.2590267
  17.2255759  38.1319989  73.3126043  17.7387640  38.7649981  73.8147752
  17.8756983  37.5321185  72.9469403   8.4945769  34.2750724  66.5257551
   7.6583081  34.6125410  66.8466826   8.3550538  34.1399703  65.5884688
  10.4698849  29.1187511  71.2336736   9.8163261  28.8036529  70.6093350
  10.4279323  28.4963252  71.9596558  11.5810054  39.4006807  63.1490028
  10.6737116  39.1696060  63.3481177  12.0781086  38.6044426  63.3364009
  14.4878133  48.1104314  66.0686714  13.8139832  48.4136011  66.6771672
  14.8743955  48.9133394  65.7192171  13.7036589  35.6069445  75.5584383
  12.7859151  35.8284392  75.4006071  14.1196733  35.6815755  74.6996091
  14.4871637  37.0060861  70.6887063  15.2343456  37.5182258  70.3794185
  14.7563227  36.6844913  71.5491457  12.7598287  39.5019401  67.6714018
  11.8509507  39.2178434  67.7686487  12.7893371  39.9218480  66.8117325
  17.9917555  43.1125991  71.4405185  17.5379882  42.2716901  71.4970376
  17.3611522  43.7487389  71.7779965  16.9350474  34.0417977  72.6705853
  16.1973231  33.5295363  73.0016095  17.1877248  33.6018359  71.8589130
  16.4350494  44.9502488  72.3755003  16.7273468  45.5107545  71.6567369
  16.9449115  45.2431049  73.1308163  17.0362102  26.8194229  73.2647622
  17.3420979  25.9591592  72.9773537  17.7614707  27.4111849  73.0646616
   3.3286458  37.2224916  71.6529220   3.1310858  36.6294276  70.9280286
   2.7733122  36.9177126  72.3705159  11.3083181  37.1148022  73.7723813
  11.3631791  36.1621858  73.6966290  10.4974384  37.2707461  74.2565111
  12.4574375  41.0428145  65.0102096  12.0193805  40.3264004  64.5507734
  13.1984816  41.2704260  64.4487188   9.2475541  35.7325082  71.5314192
   8.4343407  36.0319252  71.9379384   9.7434536  35.3380771  72.2488674
  11.3984119  45.7282839  73.4648457  11.3560298  45.9543685  72.5356989
  12.3146818  45.4946213  73.6134258  14.8449753  36.1966906  80.3629086
  15.1999141  36.4238379  81.2223552  15.4921884  36.5285283  79.7406341
  20.5747490  39.3185342  71.0678415  20.4365389  39.5086938  70.1399604
  20.2183709  40.0804725  71.5246466   8.7389616  33.3043437  77.1475427
   9.3788995  33.1632196  76.4498390   7.9067147  33.0177951  76.7714029
  20.6016870  41.3861869  76.0789686  21.0353376  41.2937158  76.9272740
  21.3148450  41.3619370  75.4409702   9.5149920  42.6045868  73.2610419
  10.3090519  42.1096188  73.0592994   8.8041612  42.0763731  72.8978125
  14.3344765  44.9863963  77.6122787  14.3881787  45.5554900  78.3800503
  13.4659546  45.1565848  77.2476824   5.8232684  36.7488949  69.3370172
   4.8930272  36.6873405  69.5540134   5.9190156  36.2264902  68.5406813
   5.7418233  33.2743762  71.9248414   6.0025050  34.1889096  71.8157574
   6.5635405  32.8068205  72.0745027   7.2143158  34.6881519  79.0947238
   7.8866211  34.4798882  78.4459887   6.3872944  34.4903605  78.6552471
  21.4632419  41.4285570  78.6122572  21.6568309  42.3331380  78.8581847
  21.3633037  40.9692989  79.4461157  13.1168730  31.3143460  81.1112899
  12.4696645  32.0133410  81.0177376  13.8869745  31.7479604  81.4789147
  16.5247528  41.5792313  84.1863452  16.3733034  41.3502864  83.2693536
  16.5152207  42.5362914  84.1994797  13.2932864  39.1524225  79.1709719
  14.2224924  39.3035385  78.9978686  12.8723894  39.2408246  78.3158365
  12.0921196  43.1774890  76.9408256  11.9532282  42.8093674  77.8134195
  11.3035792  43.6922529  76.7692214  12.6869348  48.2783986  68.2833793
  12.8621104  47.8072029  69.0979416  12.0002136  48.9049752  68.5115054
  13.6426411  42.5556492  74.3297094  13.3076244  42.5157262  75.2254744
  13.1430357  41.8901208  73.8567504   7.6170655  37.9624122  79.8549675
   7.4790453  37.2304361  80.4561214   8.5275579  37.8733023  79.5733863
  16.5785603  39.9012527  64.6034154  15.9614773  39.1759355  64.5067207
  16.1102091  40.6621887  64.2601228  10.2452956  37.6744082  79.3433355
  10.9552574  37.0337274  79.3019973  10.2022264  37.9256977  80.2659536
  18.2339735  44.6111435  82.2639934  18.1752281  43.9270655  81.5970517
  18.6359253  45.3530425  81.8120560   8.9581890  34.6609300  81.1628995
   8.4219247  34.2100038  81.8150591   8.3698598  34.7955208  80.4199459
   7.2530433  51.4273349  75.0573653   7.4927032  52.0591873  75.7352672
   6.4099630  51.0761389  75.3439012   8.3684149  34.1197951  63.7255458
   7.4913615  33.9986752  63.3617705   8.8441902  33.3284029  63.4734347
  18.2357142  42.5751019  80.4953914  17.3483921  42.2376941  80.6180313
  18.8055693  41.8434050  80.7322679   4.6921011  33.7965307  78.2481989
   4.6079200  33.1890977  77.5132399   3.8703717  34.2874326  78.2491485
  11.7658295  47.2352471  77.4615157  11.6928467  48.0407443  77.9734462
  11.3235688  47.4344437  76.6363179  11.5548075  46.4724241  70.9717979
  10.7715597  47.0145922  71.0656203  12.2540820  46.9898221  71.3712220
  14.8644725  32.2818871  73.6152184  15.3613424  31.5288833  73.2953254
  14.0931706  32.3183188  73.0495393  22.7174482  37.9859236  75.2570476
  22.7064359  38.8683952  74.8864409  21.8491862  37.6330787  75.0625013
  14.2256979  47.1339305  79.6173316  14.9384951  47.7686770  79.5449217
  13.7347007  47.2303171  78.8013318  15.9474506  41.0390558  71.1890607
  15.0130784  41.1592021  71.0195312  16.1251174  40.1363025  70.9250617
  11.4479694  34.4236254  73.3423869  11.0777481  33.8707294  74.0304774
  11.9438786  33.8194387  72.7898869  19.3347057  36.8807877  71.7240642
  19.8007509  37.7135869  71.6500944  19.7854557  36.4152859  72.4285900
   9.2768892  44.8833749  80.4378887   9.9778352  45.5170232  80.5908281
   8.8064007  45.2248480  79.6774526  17.4023288  43.2251699  68.7226794
  17.6783132  43.1108293  69.6320668  16.5327787  42.8269184  68.6838967
  17.3063720  29.2488464  75.7631543  16.3926799  29.4792691  75.9313750
  17.7356821  29.3326908  76.6145575  17.0770178  37.4378356  78.2631437
  16.4241628  37.6854264  77.6083890  17.4550558  36.6242495  77.9293914
  14.0377352  47.4738050  72.3659607  14.2199747  46.6559705  72.8287360
  14.8610338  47.6905742  71.9284497  14.3719518  46.4006235  69.6274656
  14.9007284  45.8898689  69.0144818  14.6347737  46.0848765  70.4920189
  13.1257751  38.1798167  84.7497474  12.4498388  38.0792297  85.4199849
  13.9485385  38.0237381  85.2133471   4.8736610  44.4170104  77.3709989
   5.4590047  43.6713792  77.5037893   4.6761449  44.7274061  78.2546653
   7.7275266  47.4521351  72.3872432   7.0585641  47.9367479  71.9036472
   7.5888135  47.6990572  73.3015810  11.8680534  49.4865095  78.9855090
  12.4198842  49.6496716  79.7504175  12.2086728  50.0769533  78.3135115
   6.8445027  31.8340245  79.5876975   6.9086354  32.6955076  79.1754372
   6.7812148  31.2214246  78.8549333   6.3197300  33.9063377  83.2350009
   6.9469339  33.5240454  83.8487533   5.4625219  33.6877579  83.6005701
  16.7191408  44.3126352  84.8403744  17.2631312  44.9256311  84.3458699
  16.1378253  44.8705931  85.3570757   3.0962843  35.7139806  69.1668364
   3.3916284  34.8050485  69.1135418   2.1950878  35.6927546  68.8449366
  15.0048921  47.4347070  75.9718772  14.8800061  46.6336810  75.4629718
  15.6628012  47.9293264  75.4832742   6.6257090  33.7895803  75.1495912
   5.9043675  34.4031771  75.0103386   7.4150345  34.3253568  75.0712558
  17.0683830  45.2356090  77.5998322  16.1214165  45.1161442  77.5276649
  17.4166603  44.3478588  77.6824584   9.4283403  31.1250229  81.4236564
   9.9517805  31.3712526  82.1862873   9.2095736  31.9570264  81.0039702
   4.8250684  33.3953904  69.2907689   4.4963390  32.5151283  69.1082795
   5.1790055  33.3401573  70.1784078  14.0730263  45.0308807  73.8002674
  13.9255225  44.1025514  73.9810245  14.8983757  45.0528897  73.3159750
   7.9392507  33.6826874  69.6583167   8.2788580  34.2112795  68.9361775
   8.3864628  34.0207280  70.4341733  17.6764385  45.8537365  74.8867547
  18.6010932  45.6480227  74.7491998  17.5079688  45.6053767  75.7956889
  10.6335948  32.0663924  79.1086235  10.2932769  31.2671738  79.5106915
   9.9274954  32.3665635  78.5363068  11.2852420  29.1513237  77.5613558
  12.1078489  28.6773715  77.4392448  11.5290484  29.9303721  78.0612244
   9.9260654  32.1801495  67.8576459  10.6469017  32.5582748  67.3540176
   9.3025959  32.8990372  67.9611437  14.0691777  32.8846644  68.7934792
  14.2855392  33.7671282  68.4923620  13.5885845  32.4932858  68.0640434
   8.8090999  35.8432358  75.3705536   8.6635579  36.1572661  76.2629818
   8.3316202  36.4617258  74.8176435  10.6687382  32.8334906  75.4186426
  10.6548950  31.9375999  75.0818724  11.3859810  32.8405569  76.0524712
  12.5213512  33.2672246  77.4639553  12.2631290  34.1889316  77.4623884
  11.9898553  32.8702680  78.1540017  17.4659701  46.3723033  70.2429639
  17.6396579  45.8069455  69.4903491  17.9588592  47.1723928  70.0609129
   3.2836661  38.3837702  78.3093198   2.7390129  39.1597510  78.4413472
   4.1616011  38.7308506  78.1512319  10.0724278  31.7149286  70.6873996
  10.1940189  30.7865932  70.8864884   9.7826320  31.7287972  69.7752311
  12.9415468  29.4004196  73.8240716  12.9637165  29.4643529  72.8692695
  13.3583527  28.5608705  74.0181222  23.3199092  39.1359456  71.8619938
  23.7630238  38.3866781  71.4639062  22.4425603  39.1269592  71.4793670
  18.4534874  45.6889797  67.3426537  19.1485778  46.3096490  67.5613852
  18.7958024  44.8385148  67.6178915   4.0702683  37.5107598  81.2023354
   3.3284419  37.6590234  81.7887985   3.7495427  37.7715864  80.3390104
  20.3526297  43.1389503  68.8713868  20.8777621  43.4776776  68.1463188
  20.2648649  42.2036518  68.6877002  12.0146345  47.0523576  81.0003744
  12.3233472  46.8072723  81.8726444  12.8121827  47.2570215  80.5122615
  12.0366957  49.2061486  73.2309121  11.5971948  48.7137865  73.9241978
  12.7875074  48.6634454  72.9901196   4.5159296  45.3973027  73.2333749
   5.3417316  45.0976799  72.8532393   4.1653348  44.6280649  73.6823538
   9.4840830  44.7499495  75.3031423   8.8620839  44.0870200  75.0033650
  10.1545697  44.7760627  74.6205070   2.7167901  43.3159353  74.1922683
   1.8799810  42.8881528  74.0106684   2.6891547  43.5091797  75.1293474
   9.5565357  33.2281283  84.8963929   9.6053513  34.1043406  84.5141698
  10.0987871  32.6858676  84.3235572  20.0420203  43.7722406  84.1765066
  19.2515746  43.7546545  83.6369565  19.8053557  44.3110700  84.9314102
  20.1618078  40.6214873  81.4897794  20.2116083  40.4564880  82.4313317
  20.0532001  39.7542132  81.0995675   9.0454337  43.3003418  68.7789883
   9.1942457  43.9838883  68.1256556   9.8520780  43.2808509  69.2939339
  17.4521840  36.6045801  82.8057101  18.3531703  36.4652266  82.5141099
  17.5269815  36.7700256  83.7455278  11.7864646  33.9812656  81.6510287
  10.9167955  34.2746222  81.3792876  12.0224126  34.5653101  82.3717551
  21.6636275  43.0411814  81.7339816  21.3721083  43.4041795  82.5703277
  21.0508406  42.3278823  81.5553148  22.8631957  40.6064694  74.2542386
  23.6978848  41.0454498  74.4179946  22.9991086  40.1303347  73.4350632
  19.9123463  38.1644429  80.2019874  20.3877584  38.3572075  79.3938725
  18.9889028  38.2203615  79.9563257   6.8006970  39.3268596  69.7850952
   6.5553011  38.4230926  69.9831162   6.9702884  39.3285747  68.8430430
  14.4903679  30.1992272  79.1675708  15.0085623  30.9353299  78.8422196
  14.1358812  30.5056266  80.0022467   6.0702617  35.0596954  67.2837114
   5.3771862  35.1341309  66.6277149   5.8254369  34.2957297  67.8058630
  14.7416274  26.6192555  74.6876604  15.0218027  25.9515744  75.3137031
  15.5266880  26.8121651  74.1751268  12.5449742  45.7951549  66.2501631
  11.9723709  46.4141736  65.7972102  13.1182536  46.3450911  66.7841553
  18.6125132  35.0410189  78.4348179  19.5642555  35.1408287  78.4560403
  18.4428582  34.2488458  78.9446264  16.6339511  32.1265772  78.6207580
  16.0389443  32.4070785  77.9254069  16.3489208  32.6159673  79.3924321
  15.7647002  46.0788699  67.3810213  16.6977675  46.0134261  67.5843088
  15.6770215  46.9144966  66.9224746  18.3935019  45.3954569  64.3414160
  18.3148650  45.0614433  65.2349918  19.2144685  45.8876337  64.3405633
  21.0913210  38.2616309  77.5490479  21.0589530  37.3232309  77.7350163
  21.7013833  38.3400345  76.8156304  12.9296541  37.1312362  63.5917683
  13.8755645  37.0018570  63.6606101  12.5510786  36.3927024  64.0687111
  21.2407698  35.0527352  77.5948762  20.7246747  34.2685809  77.4078691
  22.1247647  34.7246069  77.7595282  18.9018425  28.7968368  73.5544575
  18.7043246  28.4883456  74.4387907  19.5118131  29.5230007  73.6842505
  26.9089760  39.3232316  76.6896516  27.6393148  39.0617604  77.2504219
  26.2996705  38.5861037  76.7298584  24.9905057  37.4640178  77.2870967
  24.2638220  37.3296143  76.6787459  24.5752344  37.7717007  78.0927685
  12.8135233  41.1830108  85.0518340  13.7338243  41.3608707  85.2458387
  12.7784816  40.2386153  84.8998039  11.1139458  35.0562338  63.5272568
  10.2070913  34.7595451  63.6035282  11.3915439  34.7592156  62.6606855
   2.0317398  36.3768701  73.9771615   1.7120182  35.5234010  73.6845989
   1.4850826  36.5917280  74.7329582   5.8097306  39.0931142  77.6941121
   6.0283315  40.0248250  77.7129155   6.2223079  38.7339117  78.4795925
  12.7301523  29.5999228  69.6816810  11.9202252  29.2546313  70.0572056
  13.4185940  29.2906772  70.2704421  14.6592072  28.6777275  71.3041106
  15.2123110  29.0972728  71.9631129  14.8962158  27.7513023  71.3464062
  10.6825171  34.6664348  87.0843870  10.5821898  35.6158705  87.0155961
  10.4646713  34.3382587  86.2119940   9.8838242  31.9149273  63.6684547
  10.7457406  32.2404172  63.9280365  10.0688586  31.1280769  63.1557613
   1.9005658  39.9971613  75.9464736   1.2069130  39.5825566  75.4334691
   2.6478649  40.0392149  75.3498155  18.0370879  30.7877800  70.8119770
  17.4569548  31.4462604  70.4297823  17.7706811  29.9655144  70.4007188
  16.4874445  30.1882857  73.0141091  16.9874224  30.2999392  72.2055410
  17.1310053  29.8843910  73.6541899  10.5456441  38.0961487  85.9008932
  10.0623523  38.8961847  86.1072821  10.6317380  38.1069432  84.9476376
   3.8142401  39.9289867  73.8230751   3.7913089  40.0277554  72.8712634
   4.1243037  40.7755018  74.1447917   6.4729778  41.9866022  77.9377366
   7.4273032  41.9549964  77.8707297   6.2742302  41.5256646  78.7527591
   7.0629161  40.5567138  80.5048163   7.8822050  41.0511216  80.5283001
   7.3365968  39.6399106  80.4765731  16.8195757  32.9477890  69.8676119
  15.9321612  33.2327541  69.6496314  17.2349746  32.7871654  69.0203396
  20.1710293  32.9724411  73.5830458  20.9470683  33.4620864  73.8555075
  19.4458427  33.3982465  74.0402328  22.6082852  33.6852030  74.6404399
  23.2027342  33.4447766  73.9297707  22.6809435  32.9659161  75.2677935
   4.8280007  47.5285641  74.9547563   4.6934475  46.7686042  74.3885561
   4.4112070  48.2526541  74.4876352  15.9638970  42.7122565  63.9624139
  16.6674820  42.9172567  64.5781794  15.2401619  43.2799327  64.2273222
  16.7936781  38.4632426  70.0826409  16.7371982  38.9200977  69.2434041
  17.3465123  37.7023111  69.9049252  20.6041586  34.2522158  70.9076528
  20.3478521  33.8518794  71.7384736  19.9794455  34.9665952  70.7826668
  24.9153924  36.9918231  73.4147820  24.3553482  37.0611420  74.1879382
  24.3097428  36.8159216  72.6947316   7.9849133  48.4254958  75.1666006
   7.8681517  49.3700391  75.0644696   7.1641579  48.1228520  75.5551805
  17.8725668  43.1505094  66.0122599  18.7071272  42.7186292  65.8300074
  17.7110011  42.9787108  66.9399493  17.5271560  39.6537207  67.3778938
  17.4720364  39.4881479  66.4367382  16.9017615  40.3613240  67.5341128
   2.3164075  34.8905272  81.2040360   2.9622938  34.3804226  81.6927585
   2.1081226  35.6273953  81.7783786  14.8417467  41.9586119  86.7032501
  15.7108627  42.1326771  86.3419136  14.3624219  42.7780536  86.5808230
  10.8367685  29.1545316  66.9564256  10.8246355  30.0987156  67.1132527
  11.7291107  28.9715462  66.6623718   9.0103647  49.0783220  78.3821935
   9.9130894  49.1106830  78.6988429   8.7841017  48.1483671  78.3968270
  10.7657249  47.8314207  75.0432013   9.8152880  47.8316068  74.9296385
  11.0689735  47.0846941  74.5268048  14.6519805  25.7488093  71.2110193
  13.8852201  25.1946580  71.3566876  15.0630510  25.8209962  72.0724345
   6.6561566  32.0372889  85.3015375   7.5193027  31.6809694  85.5118699
   6.0826977  31.6986784  85.9890779  26.5009943  53.6674745  76.1077776
  27.1388353  53.5481492  75.4041116  26.3830786  54.6155589  76.1665728
  23.3099649  53.6202173  76.0439300  22.9718161  53.5043238  75.1559835
  24.1789417  53.2193338  76.0240306  19.1686465  55.4737650  72.0336191
  18.6051330  55.3827587  71.2652479  19.0538860  54.6537554  72.5138684
  23.7919432  54.7737025  82.0025506  23.7808073  54.3789823  81.1306009
  23.9540072  54.0403098  82.5959277  16.7150897  56.9688841  74.8720412
  17.5072189  56.6279666  74.4566711  16.9547547  57.0783816  75.7922565
  24.7486023  59.1408617  67.3450656  24.0974003  59.7262698  66.9584670
  25.5430386  59.6714812  67.4045694  18.6741651  56.2297754  67.7437790
  19.4472527  55.6826742  67.6050666  19.0267050  57.0942004  67.9552252
  20.5126693  57.5574137  80.9504690  20.2216559  58.4619768  80.8351356
  21.1483678  57.5990664  81.6648759  21.4382900  54.9350985  77.5406049
  22.0346472  54.7107008  76.8263012  21.4957872  54.1935731  78.1431497
  21.0107928  52.3890421  65.3756240  21.2633449  51.8671942  64.6139703
  20.0732488  52.2256566  65.4782924  26.0551211  51.3926199  73.1830984
  26.8414301  50.9745622  72.8321401  26.3189916  52.2972291  73.3512632
  26.2261289  56.8299049  67.8819640  25.5907122  56.9033676  68.5940545
  25.8958695  57.4192648  67.2038720  31.4559638  51.3301432  74.0863962
  32.1884810  50.7600649  74.3201792  30.6998994  50.9423033  74.5270468
  20.7304217  54.2918527  67.5780615  20.6140475  53.6163430  68.2461700
  20.8406477  53.8050900  66.7612768  23.0735758  53.7528674  71.2827305
  22.7093965  53.2259295  71.9940226  23.9302874  53.3627143  71.1093790
  28.9785059  45.0423006  78.5458571  28.6468384  45.9118417  78.3219786
  28.3830672  44.7259290  79.2252601  22.7141245  48.7818573  66.2788653
  22.8815647  49.6498810  66.6459124  22.5238414  48.9445855  65.3549942
  25.4716578  57.2435552  77.9454483  25.1717301  58.1460591  77.8370291
  25.1267638  56.9767735  78.7975636  18.9229060  53.6949349  73.9791188
  17.9979556  53.5625563  74.1868880  19.1713473  54.4743568  74.4761130
  28.8713722  49.7618092  75.6251921  27.9630599  49.6933501  75.3310682
  28.8201318  50.2390037  76.4533746  22.6930466  51.2376231  67.2635320
  22.5730091  51.6833282  68.1020800  21.9983054  51.5861549  66.7048858
  16.2837871  53.3382623  74.8134977  16.4130252  53.5917102  75.7274389
  15.6035322  53.9310331  74.4939632  20.4537358  64.0079873  70.9125451
  20.3761388  64.9587698  70.9913932  19.8499002  63.6625745  71.5700377
  22.9454588  51.1807738  83.5686818  22.1687922  51.7401658  83.5589683
  23.5845151  51.6664521  84.0901688  30.7375368  47.9634531  77.4029795
  30.0949749  48.2567064  76.7569589  30.2330297  47.8487451  78.2082991
  28.3915532  51.7097704  68.0915654  29.3033388  51.9425091  67.9163351
  27.8825179  52.2934748  67.5290733  21.2000960  53.9893191  83.1304785
  21.9415645  54.5278235  82.8539609  20.4937946  54.6159480  83.2876337
  26.6756300  56.1322332  81.7276947  27.0839656  55.6904742  80.9831579
  25.9533561  55.5574959  81.9811139  23.0287370  51.0694939  79.1010503
  23.8748565  51.4934352  79.2445152  22.9686008  50.4128563  79.7949067
  26.9985114  56.6923522  75.4829235  26.3693977  56.8569237  74.7805303
  26.6110777  57.1065132  76.2540199  30.8774346  57.6277960  72.8373599
  30.1925384  58.0076862  72.2870632  30.9618196  58.2373287  73.5705547
  26.1786815  48.7299307  80.7591677  25.9347747  49.4841368  80.2225953
  26.4546746  49.1084655  81.5938924  28.1325278  55.2737919  79.4368943
  28.3442173  55.9169679  78.7603324  28.0855026  54.4400236  78.9690873
  25.7351507  47.8855740  76.3405515  24.8735986  48.1836994  76.6322252
  25.7613942  48.1026139  75.4086547  22.5513076  56.4297931  72.7479321
  23.0151422  56.7085634  71.9583943  22.2869874  55.5281375  72.5652411
  19.4437157  55.9769412  75.6859084  20.0138514  56.4056680  75.0476568
  20.0345269  55.6951997  76.3843269  21.4881962  52.5521083  69.5568886
  22.1906006  53.0042127  70.0242812  21.1562591  51.9104902  70.1848779
  19.9362324  51.1432840  83.9320095  19.3060984  51.8249120  84.1655492
  19.8298412  51.0315921  82.9873233  15.2307296  50.8104636  74.8586019
  14.4406350  51.0662164  74.3826130  15.7218544  51.6252973  74.9638060
  29.2471106  58.1509875  77.6091300  30.0688550  57.7490062  77.3273982
  29.2433509  58.0478109  78.5607416  17.1822042  51.1749215  71.8169496
  16.3853205  51.2867909  72.3352992  16.9547634  51.5135867  70.9510386
  23.0127709  57.6993918  79.7652011  23.0772142  58.1614325  80.6010182
  22.3038633  57.0691283  79.8934320  13.5144999  51.0635126  77.2901010
  13.7653038  51.9482136  77.5558586  14.0504548  50.8839728  76.5176102
  22.7275727  59.3662026  69.6330991  22.5921402  60.2113561  70.0615839
  23.2685540  59.5681303  68.8696925  19.2143067  45.4453605  86.2945346
  18.8210012  44.8919804  86.9692990  20.0309207  45.7564184  86.6851864
  16.1805124  56.8837464  70.2058916  16.6929645  57.6780714  70.3564481
  16.8327837  56.1863754  70.1392517  17.9900009  60.0003220  72.2881669
  18.1666637  60.9221185  72.1002653  18.7856843  59.6861639  72.7176049
  22.1311028  46.8611485  83.8865603  22.8720741  47.4618638  83.8070065
  22.3628950  46.1189122  83.3283645  17.2752366  52.0467852  82.1643832
  17.1605881  51.1453109  82.4650931  16.4196883  52.2931549  81.8128649
  24.3544203  59.9885592  83.7631333  23.9108058  59.2021971  83.4452237
  25.0161417  60.1764743  83.0975224  19.1131325  61.5181394  78.2892011
  19.6638750  61.3898457  77.5169005  18.2742800  61.8176283  77.9386904
  26.4525441  60.2688392  81.7912734  26.4343917  61.0897273  81.2993003
  27.3745361  60.1442467  82.0162875  22.9098496  57.7832521  82.6336243
  23.4426832  57.0220810  82.4035551  22.3812577  57.4906173  83.3760397
  26.0768191  42.8892587  78.1629884  25.7332460  43.7794229  78.0868995
  26.4447153  42.6994245  77.2999469  14.1454041  55.2126118  70.9818486
  14.9829263  55.6223126  70.7652194  14.3232309  54.2725560  70.9518680
  26.0418473  52.8801199  66.6702319  25.5265097  53.6505803  66.9090707
  25.7695782  52.2066335  67.2935381  23.6265584  47.7250899  71.7287558
  22.7707181  47.3357750  71.5493197  24.0392536  47.8042860  70.8687343
  25.1564731  45.2597243  76.1279118  24.6529527  45.2227378  75.3146923
  25.4495338  46.1689985  76.1875774  21.4007617  45.3435972  75.1345299
  22.2660614  45.1478781  74.7751189  21.4685126  45.1146324  76.0614656
  31.0152747  55.6333553  68.6055493  30.2382190  55.2944713  68.1610655
  31.6944228  55.6386176  67.9310458  25.8304776  50.7528291  68.4962101
  25.5254912  51.0674440  69.3472244  26.7835219  50.8309711  68.5389434
  24.2751208  56.9118514  70.1455055  23.7472570  56.1771274  69.8328292
  23.7738711  57.6893190  69.8995023  29.2544054  55.1067534  75.2622101
  28.5967729  55.7966796  75.3502230  30.0584454  55.4963966  75.6056087
  19.0069936  47.5738180  72.5061666  19.5813688  47.3513362  71.7734859
  19.5940918  47.6426875  73.2590267  28.0649513  53.4611907  73.3126043
  28.5781395  54.0941899  73.8147752  28.7150737  52.8613103  72.9469403
  19.3339523  49.6042641  66.5257551  18.4976835  49.9417328  66.8466826
  19.1944293  49.4691621  65.5884688  21.3092604  44.4479429  71.2336736
  20.6557016  44.1328446  70.6093350  21.2673078  43.8255170  71.9596558
  22.4203808  54.7298724  63.1490028  21.5130870  54.4987978  63.3481177
  22.9174840  53.9336343  63.3364009  25.3271887  63.4396231  66.0686714
  24.6533586  63.7427928  66.6771672  25.7137709  64.2425312  65.7192171
  24.5430344  50.9361363  75.5584383  23.6252905  51.1576310  75.4006071
  24.9590488  51.0107673  74.6996091  25.3265392  52.3352778  70.6887063
  26.0737211  52.8474176  70.3794185  25.5956981  52.0136831  71.5491457
  23.5992042  54.8311319  67.6714018  22.6903261  54.5470352  67.7686487
  23.6287126  55.2510398  66.8117325  28.8311309  58.4417909  71.4405185
  28.3773636  57.6008818  71.4970376  28.2005276  59.0779307  71.7779965
  27.7744229  49.3709895  72.6705853  27.0366986  48.8587281  73.0016095
  28.0271002  48.9310276  71.8589130  27.2744249  60.2794405  72.3755003
  27.5667223  60.8399462  71.6567369  27.7842869  60.5722966  73.1308163
  27.8755856  42.1486147  73.2647622  28.1814733  41.2883510  72.9773537
  28.6008461  42.7403767  73.0646616  14.1680212  52.5516833  71.6529220
  13.9704612  51.9586194  70.9280286  13.6126876  52.2469043  72.3705159
  22.1476936  52.4439940  73.7723813  22.2025546  51.4913776  73.6966290
  21.3368138  52.5999379  74.2565111  23.2968130  56.3720063  65.0102096
  22.8587560  55.6555922  64.5507734  24.0378571  56.5996178  64.4487188
  20.0869296  51.0616999  71.5314192  19.2737161  51.3611170  71.9379384
  20.5828290  50.6672688  72.2488674  22.2377874  61.0574756  73.4648457
  22.1954053  61.2835603  72.5356989  23.1540573  60.8238131  73.6134258
  25.6843508  51.5258824  80.3629086  26.0392895  51.7530297  81.2223552
  26.3315639  51.8577201  79.7406341  31.4141245  54.6477260  71.0678415
  31.2759143  54.8378856  70.1399604  31.0577463  55.4096643  71.5246466
  19.5783371  48.6335355  77.1475427  20.2182750  48.4924114  76.4498390
  18.7460901  48.3469868  76.7714029  31.4410624  56.7153787  76.0789686
  31.8747131  56.6229076  76.9272740  32.1542205  56.6911287  75.4409702
  20.3543675  57.9337785  73.2610419  21.1484273  57.4388106  73.0592994
  19.6435367  57.4055649  72.8978125  25.1738519  60.3155881  77.6122787
  25.2275541  60.8846817  78.3800503  24.3053300  60.4857766  77.2476824
  16.6626438  52.0780867  69.3370172  15.7324026  52.0165323  69.5540134
  16.7583910  51.5556820  68.5406813  16.5811987  48.6035680  71.9248414
  16.8418804  49.5181013  71.8157574  17.4029159  48.1360123  72.0745027
  18.0536912  50.0173437  79.0947238  18.7259966  49.8090799  78.4459887
  17.2266699  49.8195523  78.6552471  32.3026174  56.7577487  78.6122572
  32.4962064  57.6623298  78.8581847  32.2026792  56.2984907  79.4461157
  23.9562484  46.6435378  81.1112899  23.3090399  47.3425328  81.0177376
  24.7263500  47.0771522  81.4789147  27.3641282  56.9084230  84.1863452
  27.2126789  56.6794782  83.2693536  27.3545962  57.8654832  84.1994797
  24.1326619  54.4816143  79.1709719  25.0618679  54.6327303  78.9978686
  23.7117649  54.5700164  78.3158365  22.9314951  58.5066807  76.9408256
  22.7926036  58.1385592  77.8134195  22.1429547  59.0214447  76.7692214
  23.5263103  63.6075904  68.2833793  23.7014858  63.1363947  69.0979416
  22.8395891  64.2341670  68.5115054  24.4820166  57.8848410  74.3297094
  24.1469998  57.8449180  75.2254744  23.9824111  57.2193126  73.8567504
  18.4564410  53.2916040  79.8549675  18.3184208  52.5596279  80.4561214
  19.3669333  53.2024940  79.5733863  27.4179357  55.2304444  64.6034154
  26.8008528  54.5051273  64.5067207  26.9495846  55.9913805  64.2601228
  21.0846710  53.0035999  79.3433355  21.7946329  52.3629192  79.3019973
  21.0416018  53.2548894  80.2659536  29.0733489  59.9403353  82.2639934
  29.0146035  59.2562573  81.5970517  29.4753007  60.6822343  81.8120560
  19.7975644  49.9901217  81.1628995  19.2613001  49.5391956  81.8150591
  19.2092353  50.1247126  80.4199459  18.0924188  66.7565267  75.0573653
  18.3320786  67.3883791  75.7352672  17.2493384  66.4053307  75.3439012
  19.2077903  49.4489869  63.7255458  18.3307370  49.3278670  63.3617705
  19.6835656  48.6575947  63.4734347  29.0750896  57.9042937  80.4953914
  28.1877675  57.5668858  80.6180313  29.6449447  57.1725968  80.7322679
  10.7280043  54.2367028  73.8196965  11.4151083  53.9228758  73.2317981
  10.5728172  55.1408393  73.5464217  15.5314766  49.1257225  78.2481989
  15.4472954  48.5182895  77.5132399  14.7097472  49.6166243  78.2491485
  22.6052050  62.5644389  77.4615157  22.5322221  63.3699361  77.9734462
  22.1629443  62.7636355  76.6363179  22.3941829  61.8016159  70.9717979
  21.6109351  62.3437839  71.0656203  23.0934574  62.3190139  71.3712220
  25.7038479  47.6110789  73.6152184  26.2007179  46.8580751  73.2953254
  24.9325461  47.6475105  73.0495393  33.5568237  53.3151154  75.2570476
  33.5458113  54.1975870  74.8864409  32.6885616  52.9622705  75.0625013
  26.7868260  56.3682476  71.1890607  25.8524539  56.4883938  71.0195312
  26.9644929  55.4654943  70.9250617  22.2873448  49.7528172  73.3423869
  21.9171236  49.1999212  74.0304774  22.7832541  49.1486305  72.7898869
  30.1740811  52.2099795  71.7240642  30.6401264  53.0427787  71.6500944
  30.6248312  51.7444777  72.4285900  20.1162647  60.2125667  80.4378887
  20.8172106  60.8462150  80.5908281  19.6457762  60.5540398  79.6774526
  28.2417043  58.5543616  68.7226794  28.5176886  58.4400211  69.6320668
  27.3721541  58.1561101  68.6838967  28.1457474  44.5780382  75.7631543
  27.2320554  44.8084609  75.9313750  28.5750576  44.6618826  76.6145575
  27.9163933  52.7670274  78.2631437  27.2635383  53.0146181  77.6083890
  28.2944313  51.9534412  77.9293914  24.8771107  62.8029967  72.3659607
  25.0593501  61.9851623  72.8287360  25.7004093  63.0197659  71.9284497
  25.2113272  61.7298152  69.6274656  25.7401038  61.2190607  69.0144818
  25.4741492  61.4140683  70.4920189  23.9651506  53.5090085  84.7497474
  23.2892143  53.4084214  85.4199849  24.7879140  53.3529299  85.2133471
  15.7130365  59.7462022  77.3709989  16.2983802  59.0005710  77.5037893
  15.5155203  60.0565978  78.2546653  18.5669020  62.7813269  72.3872432
  17.8979395  63.2659397  71.9036472  18.4281890  63.0282489  73.3015810
  10.3048020  52.3167622  76.0914432  10.3432119  51.7831213  76.8851551
   9.7988312  51.7902827  75.4725410  17.6838782  47.1632162  79.5876975
  17.7480108  48.0246993  79.1754372  17.6205902  46.5506164  78.8549333
  17.1591054  49.2355295  83.2350009  17.7863093  48.8532372  83.8487533
  16.3018973  49.0169497  83.6005701  13.9356597  51.0431724  69.1668364
  14.2310038  50.1342402  69.1135418  13.0344633  51.0219463  68.8449366
  17.4650844  49.1187721  75.1495912  16.7437430  49.7323688  75.0103386
  18.2544100  49.6545485  75.0712558  27.9077584  60.5648008  77.5998322
  26.9607920  60.4453359  77.5276649  28.2560357  59.6770506  77.6824584
  20.2677158  46.4542147  81.4236564  20.7911559  46.7004444  82.1862873
  20.0489491  47.2862182  81.0039702  15.6644439  48.7245822  69.2907689
  15.3357145  47.8443201  69.1082795  16.0183809  48.6693490  70.1784078
  24.9124018  60.3600724  73.8002674  24.7648980  59.4317432  73.9810245
  25.7377511  60.3820815  73.3159750  18.7786262  49.0118791  69.6583167
  19.1182334  49.5404713  68.9361775  19.2258382  49.3499198  70.4341733
  28.5158139  61.1829283  74.8867547  29.4404687  60.9772144  74.7491998
  28.3473443  60.9345684  75.7956889  21.4729703  47.3955842  79.1086235
  21.1326523  46.5963655  79.5106915  20.7668709  47.6957553  78.5363068
  22.1246174  44.4805155  77.5613558  22.9472244  44.0065633  77.4392448
  22.3684238  45.2595638  78.0612244  20.7654409  47.5093413  67.8576459
  21.4862771  47.8874666  67.3540176  20.1419713  48.2282290  67.9611437
  24.9085532  48.2138562  68.7934792  25.1249146  49.0963200  68.4923620
  24.4279599  47.8224775  68.0640434  19.6484753  51.1724275  75.3705536
  19.5029334  51.4864578  76.2629818  19.1709957  51.7909176  74.8176435
  21.5081136  48.1626823  75.4186426  21.4942705  47.2667917  75.0818724
  22.2253564  48.1697487  76.0524712  23.3607267  48.5964163  77.4639553
  23.1025045  49.5181234  77.4623884  22.8292307  48.1994598  78.1540017
  28.3053456  61.7014951  70.2429639  28.4790333  61.1361373  69.4903491
  28.7982347  62.5015845  70.0609129  14.1230415  53.7129620  78.3093198
  13.5783883  54.4889428  78.4413472  15.0009765  54.0600424  78.1512319
  20.9118032  47.0441203  70.6873996  21.0333943  46.1157850  70.8864884
  20.6220074  47.0579889  69.7752311  23.7809222  44.7296114  73.8240716
  23.8030919  44.7935447  72.8692695  24.1977281  43.8900623  74.0181222
  34.1592847  54.4651373  71.8619938  34.6023993  53.7158699  71.4639062
  33.2819357  54.4561510  71.4793670  29.2928628  61.0181715  67.3426537
  29.9879533  61.6388408  67.5613852  29.6351778  60.1677066  67.6178915
  14.9096437  52.8399516  81.2023354  14.1678173  52.9882151  81.7887985
  14.5889182  53.1007781  80.3390104  31.1920051  58.4681420  68.8713868
  31.7171375  58.8068693  68.1463188  31.1042404  57.5328436  68.6877002
  22.8540100  62.3815494  81.0003744  23.1627226  62.1364641  81.8726444
  23.6515582  62.5862133  80.5122615  22.8760712  64.5353404  73.2309121
  22.4365702  64.0429782  73.9241978  23.6268829  63.9926371  72.9901196
  15.3553051  60.7264945  73.2333749  16.1811071  60.4268716  72.8532393
  15.0047103  59.9572567  73.6823538  20.3234584  60.0791413  75.3031423
  19.7014593  59.4162118  75.0033650  20.9939451  60.1052545  74.6205070
  13.5561656  58.6451271  74.1922683  12.7193564  58.2173445  74.0106684
  13.5285301  58.8383714  75.1293474  20.3959112  48.5573201  84.8963929
  20.4447267  49.4335324  84.5141698  20.9381626  48.0150594  84.3235572
  31.0011832  55.9506790  81.4897794  31.0509837  55.7856798  82.4313317
  30.8925756  55.0834049  81.0995675  19.8848091  58.6295336  68.7789883
  20.0336211  59.3130801  68.1256556  20.6914534  58.6100426  69.2939339
  28.2915595  51.9337718  82.8057101  29.1925457  51.7944183  82.5141099
  28.3663569  52.0992173  83.7455278  22.6258400  49.3104573  81.6510287
  21.7561709  49.6038139  81.3792876  22.8617880  49.8945018  82.3717551
  32.5030029  58.3703732  81.7339816  32.2114837  58.7333713  82.5703277
  31.8902160  57.6570740  81.5553148  33.7025711  55.9356612  74.2542386
  34.5372603  56.3746416  74.4179946  33.8384840  55.4595265  73.4350632
  30.7517217  53.4936347  80.2019874  31.2271339  53.6863993  79.3938725
  29.8282783  53.5495532  79.9563257  17.6400724  54.6560514  69.7850952
  17.3946766  53.7522844  69.9831162  17.8096639  54.6577664  68.8430430
  25.3297434  45.5284190  79.1675708  25.8479378  46.2645217  78.8422196
  24.9752567  45.8348183  80.0022467  16.9096372  50.3888871  67.2837114
  16.2165616  50.4633226  66.6277149  16.6648123  49.6249215  67.8058630
  25.5810028  41.9484473  74.6876604  25.8611782  41.2807662  75.3137031
  26.3660635  42.1413568  74.1751268  23.3843497  61.1243467  66.2501631
  22.8117464  61.7433654  65.7972102  23.9576290  61.6742828  66.7841553
  29.4518886  50.3702107  78.4348179  30.4036309  50.4700204  78.4560403
  29.2822337  49.5780375  78.9446264  27.4733266  47.4557690  78.6207580
  26.8783198  47.7362703  77.9254069  27.1882963  47.9451591  79.3924321
  26.6040756  61.4080617  67.3810213  27.5371429  61.3426178  67.5843088
  26.5163969  62.2436884  66.9224746  29.2328773  60.7246487  64.3414160
  29.1542405  60.3906351  65.2349918  30.0538440  61.2168255  64.3405633
  31.9306964  53.5908226  77.5490479  31.8983284  52.6524227  77.7350163
  32.5407588  53.6692263  76.8156304  23.7690295  52.4604279  63.5917683
  24.7149400  52.3310487  63.6606101  23.3904540  51.7218941  64.0687111
  29.7412180  44.1260285  73.5544575  29.5437001  43.8175374  74.4387907
  30.3511885  44.8521924  73.6842505  23.6528988  56.5122025  85.0518340
  24.5731997  56.6900624  85.2458387  23.6178571  55.5678071  84.8998039
  21.9533212  50.3854256  63.5272568  21.0464668  50.0887368  63.6035282
  22.2309193  50.0884074  62.6606855  12.8711153  51.7060619  73.9771615
  12.5513937  50.8525927  73.6845989  12.3244581  51.9209197  74.7329582
  16.6491060  54.4223060  77.6941121  16.8677070  55.3540168  77.7129155
  17.0616834  54.0631035  78.4795925  23.5695278  44.9291145  69.6816810
  22.7596006  44.5838230  70.0572056  24.2579695  44.6198689  70.2704421
  25.4985826  44.0069192  71.3041106  26.0516865  44.4264646  71.9631129
  25.7355913  43.0804940  71.3464062  21.5218925  49.9956266  87.0843870
  21.4215652  50.9450623  87.0155961  21.3040467  49.6674505  86.2119940
  20.7231997  47.2441191  63.6684547  21.5851161  47.5696089  63.9280365
  20.9082341  46.4572687  63.1557613  12.7399413  55.3263531  75.9464736
  12.0462884  54.9117483  75.4334691  13.4872404  55.3684067  75.3498155
  28.8764633  46.1169717  70.8119770  28.2963302  46.7754521  70.4297823
  28.6100566  45.2947062  70.4007188  27.3268200  45.5174775  73.0141091
  27.8267978  45.6291310  72.2055410  27.9703808  45.2135828  73.6541899
  21.3850195  53.4253405  85.9008932  20.9017277  54.2253765  86.1072821
  21.4711135  53.4361350  84.9476376  14.6536155  55.2581784  73.8230751
  14.6306843  55.3569472  72.8712634  14.9636792  56.1046935  74.1447917
  17.3123533  57.3157939  77.9377366  18.2666787  57.2841882  77.8707297
  17.1136057  56.8548563  78.7527591  17.9022915  55.8859055  80.5048163
  18.7215804  56.3803134  80.5283001  18.1759723  54.9691024  80.4765731
  27.6589511  48.2769808  69.8676119  26.7715366  48.5619458  69.6496314
  28.0743500  48.1163571  69.0203396  31.0104047  48.3016329  73.5830458
  31.7864438  48.7912781  73.8555075  30.2852182  48.7274383  74.0402328
  33.4476606  49.0143948  74.6404399  34.0421097  48.7739684  73.9297707
  33.5203190  48.2951079  75.2677935  15.6673762  62.8577559  74.9547563
  15.5328230  62.0977960  74.3885561  15.2505824  63.5818459  74.4876352
  26.8032725  58.0414482  63.9624139  27.5068575  58.2464485  64.5781794
  26.0795374  58.6091244  64.2273222  27.6330535  53.7924344  70.0826409
  27.5765736  54.2492895  69.2434041  28.1858878  53.0315028  69.9049252
  31.4435341  49.5814076  70.9076528  31.1872275  49.1810711  71.7384736
  30.8188209  50.2957870  70.7826668  18.8242888  63.7546876  75.1666006
  18.7075272  64.6992308  75.0644696  18.0035334  63.4520438  75.5551805
  28.7119422  58.4797012  66.0122599  29.5465026  58.0478210  65.8300074
  28.5503765  58.3079025  66.9399493  28.3665314  54.9829125  67.3778938
  28.3114118  54.8173396  66.4367382  27.7411370  55.6905158  67.5341128
  13.1557829  50.2197189  81.2040360  13.8016693  49.7096143  81.6927585
  12.9474980  50.9565871  81.7783786  25.6811222  57.2878037  86.7032501
  26.5502381  57.4618689  86.3419136  25.2017973  58.1072454  86.5808230
  21.6761440  44.4837234  66.9564256  21.6640110  45.4279074  67.1132527
  22.5684862  44.3007379  66.6623718  19.8497402  64.4075138  78.3821935
  20.7524648  64.4398748  78.6988429  19.6234772  63.4775589  78.3968270
  21.6051004  63.1606124  75.0432013  20.6546635  63.1607986  74.9296385
  21.9083490  62.4138859  74.5268048  25.4913559  41.0780011  71.2110193
  24.7245955  40.5238497  71.3566876  25.9024264  41.1501879  72.0724345
  17.4955320  47.3664806  85.3015375  18.3586782  47.0101611  85.5118699
  16.9220731  47.0278701  85.9890779  29.5135405  71.5589672  67.7437790
  30.2866281  71.0118659  67.6050666  29.8660804  72.4233921  67.9552252
  31.8501683  67.7182338  65.3756240  32.1027204  67.1963860  64.6139703
  30.9126242  67.5548484  65.4782924  31.5697972  69.6210444  67.5780615
  31.4534230  68.9455348  68.2461700  31.6800232  69.1342818  66.7612768
  33.5535000  64.1110491  66.2788653  33.7209402  64.9790727  66.6459124
  33.3632169  64.2737773  65.3549942  33.5324220  66.5668149  67.2635320
  33.4123846  67.0125199  68.1020800  32.8376809  66.9153466  66.7048858
  32.3275717  67.8813001  69.5568886  33.0299760  68.3334044  70.0242812
  31.9956345  67.2396819  70.1848779  28.0215796  66.5041133  71.8169496
  27.2246959  66.6159827  72.3352992  27.7941388  66.8427785  70.9510386
  36.9161945  58.2184505  78.1629884  36.5726214  59.1086147  78.0868995
  37.2840908  58.0286163  77.2999469  34.4659339  63.0542817  71.7287558
  33.6100935  62.6649667  71.5493197  34.8786291  63.1334778  70.8687343
  35.9958485  60.5889160  76.1279118  35.4923281  60.5519295  75.3146923
  36.2889092  61.4981903  76.1875774  29.8463690  62.9030098  72.5061666
  30.4207442  62.6805279  71.7734859  30.4334673  62.9718792  73.2590267
  30.1733278  64.9334559  66.5257551  29.3370590  65.2709245  66.8466826
  30.0338047  64.7983539  65.5884688  32.1486358  59.7771347  71.2336736
  31.4950770  59.4620364  70.6093350  32.1066832  59.1547087  71.9596558
  25.0073967  67.8808751  71.6529220  24.8098367  67.2878112  70.9280286
  24.4520631  67.5760961  72.3705159  30.9263050  66.3908917  71.5314192
  30.1130916  66.6903088  71.9379384  31.4222045  65.9964606  72.2488674
  27.5020193  67.4072785  69.3370172  26.5717781  67.3457240  69.5540134
  27.5977664  66.8848738  68.5406813  27.4205742  63.9327598  71.9248414
  27.6812559  64.8472931  71.8157574  28.2422914  63.4652040  72.0745027
  30.0471658  64.7781786  63.7255458  29.1701124  64.6570587  63.3617705
  30.5229411  63.9867865  63.4734347  21.5673798  69.5658946  73.8196965
  22.2544838  69.2520676  73.2317981  21.4121927  70.4700311  73.5464217
  36.5432234  62.9402706  73.6152184  37.0400933  62.1872669  73.2953254
  35.7719215  62.9767023  73.0495393  21.1441774  67.6459539  76.0914432
  21.1825874  67.1123130  76.8851551  20.6382067  67.1194745  75.4725410
  28.5232536  62.4924080  79.5876975  28.5873863  63.3538911  79.1754372
  28.4599657  61.8798082  78.8549333  24.7750352  66.3723642  69.1668364
  25.0703793  65.4634320  69.1135418  23.8738387  66.3511381  68.8449366
  28.3044599  64.4479638  75.1495912  27.5831184  65.0615606  75.0103386
  29.0937854  64.9837403  75.0712558  26.5038193  64.0537739  69.2907689
  26.1750899  63.1735118  69.1082795  26.8577564  63.9985408  70.1784078
  29.6180016  64.3410709  69.6583167  29.9576089  64.8696630  68.9361775
  30.0652137  64.6791115  70.4341733  32.3123457  62.7247760  79.1086235
  31.9720278  61.9255573  79.5106915  31.6062463  63.0249471  78.5363068
  32.9639929  59.8097072  77.5613558  33.7865998  59.3357550  77.4392448
  33.2077993  60.5887556  78.0612244  31.6048163  62.8385331  67.8576459
  32.3256526  63.2166583  67.3540176  30.9813468  63.5574207  67.9611437
  32.3474891  63.4918741  75.4186426  32.3336459  62.5959834  75.0818724
  33.0647319  63.4989405  76.0524712  31.7511787  62.3733121  70.6873996
  31.8727698  61.4449767  70.8864884  31.4613829  62.3871807  69.7752311
  34.6202977  60.0588032  73.8240716  34.6424674  60.1227365  72.8692695
  35.0371036  59.2192540  74.0181222  28.4794478  69.9852431  69.7850952
  28.2340520  69.0814761  69.9831162  28.6490393  69.9869582  68.8430430
  36.1691188  60.8576108  79.1675708  36.6873132  61.5937135  78.8422196
  35.8146321  61.1640101  80.0022467  27.7490126  65.7180789  67.2837114
  27.0559371  65.7925144  66.6277149  27.5041878  64.9541133  67.8058630
  36.4203783  57.2776390  74.6876604  36.7005536  56.6099579  75.3137031
  37.2054389  57.4705486  74.1751268  34.6084050  67.7896197  63.5917683
  35.5543154  67.6602405  63.6606101  34.2298294  67.0510859  64.0687111
  32.7926967  65.7146173  63.5272568  31.8858422  65.4179286  63.6035282
  33.0702948  65.4175992  62.6606855  23.7104907  67.0352537  73.9771615
  23.3907691  66.1817845  73.6845989  23.1638335  67.2501115  74.7329582
  34.4089032  60.2583063  69.6816810  33.5989761  59.9130148  70.0572056
  35.0973449  59.9490607  70.2704421  36.3379581  59.3361110  71.3041106
  36.8910619  59.7556563  71.9631129  36.5749667  58.4096858  71.3464062
  31.5625751  62.5733109  63.6684547  32.4244915  62.8988007  63.9280365
  31.7476095  61.7864605  63.1557613  32.5155194  59.8129152  66.9564256
  32.5033864  60.7570992  67.1132527  33.4078616  59.6299297  66.6623718
  36.3307314  56.4071928  71.2110193  35.5639710  55.8530415  71.3566876
  36.7418019  56.4793797  72.0724345  40.8473974  86.1321485  72.0336191
  40.2838839  86.0411422  71.2652479  40.7326369  85.3121389  72.5138684
  46.4273532  89.7992453  67.3450656  45.7761512  90.3846533  66.9584670
  47.2217895  90.3298648  67.4045694  40.3529160  86.8881590  67.7437790
  41.1260036  86.3410577  67.6050666  40.7054558  87.7525839  67.9552252
  42.6895437  83.0474256  65.3756240  42.9420958  82.5255777  64.6139703
  41.7519997  82.8840401  65.4782924  47.9048798  87.4882885  67.8819640
  47.2694631  87.5617511  68.5940545  47.5746204  88.0776483  67.2038720
  42.4091726  84.9502362  67.5780615  42.2927984  84.2747265  68.2461700
  42.5193986  84.4634736  66.7612768  44.7523267  84.4112509  71.2827305
  44.3881474  83.8843130  71.9940226  45.6090383  84.0210978  71.1093790
  42.1324867  94.6663708  70.9125451  42.0548897  95.6171533  70.9913932
  41.5286511  94.3209580  71.5700377  50.0703041  82.3681539  68.0915654
  50.9820897  82.6008926  67.9163351  49.5612688  82.9518584  67.5290733
  59.0164608  85.1532459  73.9576271  58.2628316  84.5839857  73.8020276
  59.1512149  85.1195123  74.9046906  44.4063236  90.0245861  69.6330991
  44.2708911  90.8697397  70.0615839  44.9473048  90.2265139  68.8696925
  37.8592633  87.5421299  70.2058916  38.3717154  88.3364549  70.3564481
  38.5115346  86.8447589  70.1392517  39.6687518  90.6587055  72.2881669
  39.8454146  91.5805020  72.1002653  40.4644352  90.3445474  72.7176049
  40.7918834  92.1765229  78.2892011  41.3426259  92.0482292  77.5169005
  39.9530309  92.4760118  77.9386904  35.8241550  85.8709953  70.9818486
  36.6616772  86.2806962  70.7652194  36.0019818  84.9309395  70.9518680
  47.7205982  83.5385034  66.6702319  47.2052606  84.3089639  66.9090707
  47.4483291  82.8650170  67.2935381  52.6940256  86.2917389  68.6055493
  51.9169699  85.9528548  68.1610655  53.3731737  86.2970012  67.9310458
  45.9538717  87.5702349  70.1455055  45.4260079  86.8355109  69.8328292
  45.4526220  88.3477026  69.8995023  44.0991317  85.3882560  63.1490028
  43.1918379  85.1571813  63.3481177  44.5962349  84.5920179  63.3364009
  47.0059396  94.0980067  66.0686714  46.3321095  94.4011764  66.6771672
  47.3925218  94.9009147  65.7192171  45.2779551  85.4895154  67.6714018
  44.3690770  85.2054187  67.7686487  45.3074635  85.9094233  66.8117325
  48.9531758  90.9378241  72.3755003  49.2454732  91.4983298  71.6567369
  49.4630378  91.2306802  73.1308163  35.8467721  83.2100669  71.6529220
  35.6492121  82.6170029  70.9280286  35.2914385  82.9052879  72.3705159
  44.9755639  87.0303898  65.0102096  44.5375069  86.3139757  64.5507734
  45.7166080  87.2580013  64.4487188  43.9165383  91.7158592  73.4648457
  43.8741562  91.9419438  72.5356989  44.8328082  91.4821966  73.6134258
  53.0928753  85.3061095  71.0678415  52.9546652  85.4962691  70.1399604
  52.7364972  86.0680478  71.5246466  42.0331184  88.5921621  73.2610419
  42.8271782  88.0971941  73.0592994  41.3222876  88.0639484  72.8978125
  45.2050611  94.2659739  68.2833793  45.3802367  93.7947782  69.0979416
  44.5183400  94.8925505  68.5115054  49.0966866  85.8888280  64.6034154
  48.4796037  85.1635108  64.5067207  48.6283355  86.6497640  64.2601228
  39.7711697  97.4149102  75.0573653  40.0108295  98.0467626  75.7352672
  38.9280893  97.0637142  75.3439012  44.0729338  92.4599994  70.9717979
  43.2896860  93.0021675  71.0656203  44.7722083  92.9773974  71.3712220
  48.4655769  87.0266311  71.1890607  47.5312048  87.1467774  71.0195312
  48.6432438  86.1238778  70.9250617  51.8528320  82.8683630  71.7240642
  52.3188773  83.7011622  71.6500944  52.3035821  82.4028612  72.4285900
  49.9204552  89.2127452  68.7226794  50.1964395  89.0984046  69.6320668
  49.0509050  88.8144937  68.6838967  46.5558616  93.4613803  72.3659607
  46.7381010  92.6435458  72.8287360  47.3791602  93.6781495  71.9284497
  46.8900781  92.3881988  69.6274656  47.4188547  91.8774442  69.0144818
  47.1529001  92.0724518  70.4920189  37.3917874  90.4045857  77.3709989
  37.9771311  89.6589545  77.5037893  37.1942712  90.7149814  78.2546653
  40.2456529  93.4397104  72.3872432  39.5766904  93.9243232  71.9036472
  40.1069399  93.6866325  73.3015810  44.3861798  95.4740848  78.9855090
  44.9380106  95.6372469  79.7504175  44.7267991  96.0645286  78.3135115
  47.5230185  93.4222823  75.9718772  47.3981324  92.6212563  75.4629718
  48.1809276  93.9169017  75.4832742  46.5911527  91.0184560  73.8002674
  46.4436489  90.0901267  73.9810245  47.4165020  91.0404650  73.3159750
  49.9840965  92.3598786  70.2429639  50.1577842  91.7945208  69.4903491
  50.4769856  93.1599681  70.0609129  55.8380356  85.1235209  71.8619938
  56.2811502  84.3742534  71.4639062  54.9606866  85.1145345  71.4793670
  50.9716137  91.6765550  67.3426537  51.6667042  92.2972243  67.5613852
  51.3139287  90.8260901  67.6178915  52.8707560  89.1265256  68.8713868
  53.3958884  89.4652529  68.1463188  52.7829913  88.1912271  68.6877002
  44.5548221  95.1937239  73.2309121  44.1153211  94.7013618  73.9241978
  45.3056338  94.6510207  72.9901196  37.0340560  91.3848780  73.2333749
  37.8598580  91.0852552  72.8532393  36.6834612  90.6156402  73.6823538
  42.0022093  90.7375248  75.3031423  41.3802102  90.0745953  75.0033650
  42.6726960  90.7636380  74.6205070  35.2349165  89.3035106  74.1922683
  34.3981073  88.8757281  74.0106684  35.2072810  89.4967550  75.1293474
  41.5635600  89.2879172  68.7789883  41.7123720  89.9714636  68.1256556
  42.3702043  89.2684262  69.2939339  39.3188233  85.3144349  69.7850952
  39.0734275  84.4106679  69.9831162  39.4884148  85.3161500  68.8430430
  45.0631006  91.7827302  66.2501631  44.4904973  92.4017489  65.7972102
  45.6363799  92.3326664  66.7841553  48.2828265  92.0664452  67.3810213
  49.2158938  92.0010014  67.5843088  48.1951478  92.9020719  66.9224746
  50.9116282  91.3830322  64.3414160  50.8329914  91.0490186  65.2349918
  51.7325949  91.8752090  64.3405633  45.4477804  83.1188115  63.5917683
  46.3936909  82.9894323  63.6606101  45.0692049  82.3802777  64.0687111
  37.3461271  93.5161394  74.9547563  37.2115739  92.7561795  74.3885561
  36.9293333  94.2402294  74.4876352  48.4820234  88.6998318  63.9624139
  49.1856084  88.9048320  64.5781794  47.7582883  89.2675080  64.2273222
  53.1222850  80.2397911  70.9076528  52.8659784  79.8394547  71.7384736
  52.4975718  80.9541705  70.7826668  40.5030397  94.4130711  75.1666006
  40.3862781  95.3576144  75.0644696  39.6822843  94.1104273  75.5551805
  50.3906931  89.1380847  66.0122599  51.2252535  88.7062046  65.8300074
  50.2291274  88.9662861  66.9399493  50.0452823  85.6412960  67.3778938
  49.9901627  85.4757232  66.4367382  49.4198879  86.3488993  67.5341128
  41.5284911  95.0658973  78.3821935  42.4312157  95.0982583  78.6988429
  41.3022281  94.1359424  78.3968270  43.2838513  93.8189960  75.0432013
  42.3334144  93.8191821  74.9296385  43.5870999  93.0722694  74.5268048
  59.0191206  99.6550498  76.1077776  59.6569616  99.5357246  75.4041116
  58.9012049 100.6031342  76.1665728  55.8280913  99.6077926  76.0439300
  55.4899424  99.4918991  75.1559835  56.6970681  99.2069091  76.0240306
  51.6867728 101.4613403  72.0336191  51.1232593 101.3703340  71.2652479
  51.5720123 100.6413307  72.5138684  56.3100696 100.7612778  82.0025506
  56.2989336 100.3665576  81.1306009  56.4721335 100.0278851  82.5959277
  49.2332160 102.9564594  74.8720412  50.0253452 102.6155419  74.4566711
  49.4728810 103.0659569  75.7922565  57.2667287 105.1284370  67.3450656
  56.6155267 105.7138451  66.9584670  58.0611650 105.6590565  67.4045694
  51.1922914 102.2173508  67.7437790  51.9653790 101.6702495  67.6050666
  51.5448313 103.0817757  67.9552252  53.0307957 103.5449890  80.9504690
  52.7397823 104.4495521  80.8351356  53.6664941 103.5866417  81.6648759
  53.9564164 100.9226738  77.5406049  54.5527736 100.6982761  76.8263012
  54.0139135 100.1811484  78.1431497  53.5289192  98.3766174  65.3756240
  53.7814713  97.8547695  64.6139703  52.5913751  98.2132319  65.4782924
  58.5732475  97.3801952  73.1830984  59.3595564  96.9621375  72.8321401
  58.8371179  98.2848044  73.3512632  58.7442552 102.8174802  67.8819640
  58.1088385 102.8909429  68.5940545  58.4139959 103.4068401  67.2038720
  63.9740902  97.3177185  74.0863962  64.7066074  96.7476402  74.3201792
  63.2180258  96.9298786  74.5270468  53.2485481 100.2794280  67.5780615
  53.1321739  99.6039183  68.2461700  53.3587741  99.7926654  66.7612768
  55.5917022  99.7404427  71.2827305  55.2275229  99.2135048  71.9940226
  56.4484138  99.3502896  71.1093790  55.2322509  94.7694326  66.2788653
  55.3996911  95.6374563  66.6459124  55.0419678  94.9321608  65.3549942
  57.9897842 103.2311305  77.9454483  57.6898565 104.1336344  77.8370291
  57.6448901 102.9643489  78.7975636  51.4410323  99.6825102  73.9791188
  50.5160820  99.5501316  74.1868880  51.6894736 100.4619321  74.4761130
  61.3894986  95.7493845  75.6251921  60.4811863  95.6809254  75.3310682
  61.3382581  96.2265790  76.4533746  55.2111729  97.2251984  67.2635320
  55.0911355  97.6709035  68.1020800  54.5164318  97.5737302  66.7048858
  48.8019134  99.3258376  74.8134977  48.9311515  99.5792855  75.7274389
  48.1216586  99.9186084  74.4939632  52.9718622 109.9955626  70.9125451
  52.8942651 110.9463451  70.9913932  52.3680265 109.6501498  71.5700377
  63.2556632  93.9510284  77.4029795  62.6131012  94.2442817  76.7569589
  62.7511560  93.8363204  78.2082991  60.9096796  97.6973457  68.0915654
  61.8214652  97.9300844  67.9163351  60.4006443  98.2810501  67.5290733
  53.7182224  99.9768944  83.1304785  54.4596908 100.5153988  82.8539609
  53.0119209 100.6035233  83.2876337  59.1937563 102.1198085  81.7276947
  59.6020919 101.6780495  80.9831579  58.4714825 101.5450712  81.9811139
  55.5468633  97.0570692  79.1010503  56.3929829  97.4810105  79.2445152
  55.4867271  96.4004316  79.7949067  59.5166378 102.6799276  75.4829235
  58.8875240 102.8444990  74.7805303  59.1292040 103.0940885  76.2540199
  63.3955610 103.6153713  72.8373599  62.7106648 103.9952615  72.2870632
  63.4799459 104.2249040  73.5705547  60.6506541 101.2613672  79.4368943
  60.8623437 101.9045432  78.7603324  60.6036290 100.4275989  78.9690873
  58.2532770  93.8731493  76.3405515  57.3917249  94.1712747  76.6322252
  58.2795205  94.0901892  75.4086547  55.0694340 102.4173684  72.7479321
  55.5332685 102.6961387  71.9583943  54.8051138 101.5157128  72.5652411
  51.9618421 101.9645165  75.6859084  52.5319778 102.3932434  75.0476568
  52.5526533 101.6827750  76.3843269  54.0063226  98.5396836  69.5568886
  54.7087269  98.9917880  70.0242812  53.6743854  97.8980655  70.1848779
  52.4543587  97.1308593  83.9320095  51.8242248  97.8124873  84.1655492
  52.3479675  97.0191674  82.9873233  47.7488560  96.7980389  74.8586019
  46.9587614  97.0537917  74.3826130  48.2399807  97.6128726  74.9638060
  61.7652369 104.1385628  77.6091300  62.5869813 103.7365815  77.3273982
  61.7614772 104.0353862  78.5607416  49.7003305  97.1624968  71.8169496
  48.9034468  97.2743662  72.3352992  49.4728897  97.5011620  70.9510386
  55.5308973 103.6869671  79.7652011  55.5953405 104.1490078  80.6010182
  54.8219897 103.0567036  79.8934320  46.0326263  97.0510879  77.2901010
  46.2834301  97.9357889  77.5558586  46.5685811  96.8715481  76.5176102
  69.8558362 100.4824376  73.9576271  69.1022071  99.9131774  73.8020276
  69.9905904 100.4487041  74.9046906  55.2456990 105.3537779  69.6330991
  55.1102665 106.1989314  70.0615839  55.7866803 105.5557056  68.8696925
  48.6986388 102.8713217  70.2058916  49.2110908 103.6656467  70.3564481
  49.3509101 102.1739507  70.1392517  50.5081273 105.9878973  72.2881669
  50.6847901 106.9096938  72.1002653  51.3038106 105.6737392  72.7176049
  49.7933629  98.0343605  82.1643832  49.6787144  97.1328862  82.4650931
  48.9378147  98.2807302  81.8128649  56.8725467 105.9761345  83.7631333
  56.4289321 105.1897724  83.4452237  57.5342680 106.1640496  83.0975224
  51.6312588 107.5057147  78.2892011  52.1820013 107.3774210  77.5169005
  50.7924064 107.8052036  77.9386904  58.9706705 106.2564145  81.7912734
  58.9525180 107.0773026  81.2993003  59.8926625 106.1318220  82.0162875
  55.4279759 103.7708275  82.6336243  55.9608096 103.0096563  82.4035551
  54.8993840 103.4781926  83.3760397  46.6635305 101.2001871  70.9818486
  47.5010527 101.6098879  70.7652194  46.8413572 100.2601313  70.9518680
  58.5599737  98.8676952  66.6702319  58.0446360  99.6381556  66.9090707
  58.2877045  98.1942088  67.2935381  56.1446848  93.7126652  71.7287558
  55.2888444  93.3233503  71.5493197  56.5573800  93.7918613  70.8687343
  57.6745994  91.2472996  76.1279118  57.1710790  91.2103131  75.3146923
  57.9676601  92.1565738  76.1875774  63.5334011 101.6209306  68.6055493
  62.7563454 101.2820466  68.1610655  64.2125492 101.6261929  67.9310458
  58.3486040  96.7404044  68.4962101  58.0436176  97.0550193  69.3472244
  59.3016482  96.8185464  68.5389434  56.7932472 102.8994267  70.1455055
  56.2653833 102.1647027  69.8328292  56.2919975 103.6768943  69.8995023
  61.7725318 101.0943287  75.2622101  61.1148992 101.7842549  75.3502230
  62.5765717 101.4839719  75.6056087  51.5251199  93.5613933  72.5061666
  52.0994951  93.3389115  71.7734859  52.1122182  93.6302628  73.2590267
  60.5830777  99.4487660  73.3126043  61.0962658 100.0817652  73.8147752
  61.2332000  98.8488856  72.9469403  51.8520786  95.5918394  66.5257551
  51.0158099  95.9293081  66.8466826  51.7125556  95.4567374  65.5884688
  53.8273867  90.4355182  71.2336736  53.1738279  90.1204199  70.6093350
  53.7854341  89.8130923  71.9596558  54.9385072 100.7174477  63.1490028
  54.0312134 100.4863731  63.3481177  55.4356104  99.9212097  63.3364009
  57.8453151 109.4271984  66.0686714  57.1714850 109.7303681  66.6771672
  58.2318973 110.2301065  65.7192171  57.0611607  96.9237116  75.5584383
  56.1434169  97.1452063  75.4006071  57.4771751  96.9983426  74.6996091
  57.8446655  98.3228531  70.6887063  58.5918474  98.8349929  70.3794185
  58.1138245  98.0012584  71.5491457  56.1173305 100.8187072  67.6714018
  55.2084525 100.5346105  67.7686487  56.1468389 101.2386151  66.8117325
  61.3492573 104.4293662  71.4405185  60.8954900 103.5884572  71.4970376
  60.7186540 105.0655060  71.7779965  60.2925492  95.3585648  72.6705853
  59.5548249  94.8463034  73.0016095  60.5452266  94.9186029  71.8589130
  59.7925512 106.2670158  72.3755003  60.0848486 106.8275215  71.6567369
  60.3024133 106.5598719  73.1308163  60.3937120  88.1361900  73.2647622
  60.6995996  87.2759263  72.9773537  61.1189725  88.7279520  73.0646616
  46.6861476  98.5392586  71.6529220  46.4885876  97.9461947  70.9280286
  46.1308140  98.2344796  72.3705159  54.6658199  98.4315693  73.7723813
  54.7206809  97.4789529  73.6966290  53.8549401  98.5875132  74.2565111
  55.8149393 102.3595816  65.0102096  55.3768823 101.6431675  64.5507734
  56.5559834 102.5871931  64.4487188  52.6050559  97.0492752  71.5314192
  51.7918425  97.3486923  71.9379384  53.1009554  96.6548441  72.2488674
  54.7559137 107.0450509  73.4648457  54.7135316 107.2711356  72.5356989
  55.6721836 106.8113884  73.6134258  58.2024771  97.5134577  80.3629086
  58.5574159  97.7406050  81.2223552  58.8496902  97.8452954  79.7406341
  63.9322508 100.6353013  71.0678415  63.7940407 100.8254609  70.1399604
  63.5758727 101.3972396  71.5246466  52.0964634  94.6211108  77.1475427
  52.7364013  94.4799867  76.4498390  51.2642165  94.3345621  76.7714029
  63.9591888 102.7029540  76.0789686  64.3928394 102.6104829  76.9272740
  64.6723468 102.6787040  75.4409702  52.8724938 103.9213538  73.2610419
  53.6665537 103.4263859  73.0592994  52.1616630 103.3931402  72.8978125
  57.6919782 106.3031634  77.6122787  57.7456805 106.8722570  78.3800503
  56.8234564 106.4733519  77.2476824  49.1807701  98.0656620  69.3370172
  48.2505290  98.0041076  69.5540134  49.2765173  97.5432573  68.5406813
  49.0993251  94.5911433  71.9248414  49.3600068  95.5056766  71.8157574
  49.9210423  94.1235876  72.0745027  50.5718176  96.0049190  79.0947238
  51.2441229  95.7966552  78.4459887  49.7447962  95.8071276  78.6552471
  64.8207437 102.7453241  78.6122572  65.0143327 103.6499051  78.8581847
  64.7208055 102.2860660  79.4461157  59.8822546 102.8959983  84.1863452
  59.7308052 102.6670535  83.2693536  59.8727225 103.8530585  84.1994797
  56.6507882 100.4691896  79.1709719  57.5799942 100.6203056  78.9978686
  56.2298912 100.5575917  78.3158365  55.4496214 104.4942560  76.9408256
  55.3107300 104.1261345  77.8134195  54.6610810 105.0090200  76.7692214
  56.0444366 109.5951657  68.2833793  56.2196122 109.1239700  69.0979416
  55.3577154 110.2217423  68.5115054  57.0001429 103.8724163  74.3297094
  56.6651262 103.8324933  75.2254744  56.5005375 103.2068879  73.8567504
  50.9745673  99.2791793  79.8549675  50.8365471  98.5472032  80.4561214
  51.8850597  99.1900693  79.5733863  59.9360621 101.2180197  64.6034154
  59.3189791 100.4927026  64.5067207  59.4677109 101.9789558  64.2601228
  53.6027974  98.9911752  79.3433355  54.3127592  98.3504945  79.3019973
  53.5597282  99.2424647  80.2659536  61.5914752 105.9279106  82.2639934
  61.5327299 105.2438326  81.5970517  61.9934271 106.6698096  81.8120560
  52.3156908  95.9776970  81.1628995  51.7794265  95.5267709  81.8150591
  51.7273616  96.1122879  80.4199459  50.6105451 112.7441020  75.0573653
  50.8502049 113.3759544  75.7352672  49.7674648 112.3929060  75.3439012
  51.7259167  95.4365622  63.7255458  50.8488633  95.3154423  63.3617705
  52.2016920  94.6451700  63.4734347  61.5932160 103.8918690  80.4953914
  60.7058939 103.5544612  80.6180313  62.1630711 103.1601721  80.7322679
  43.2461307 100.2242781  73.8196965  43.9332347  99.9104512  73.2317981
  43.0909436 101.1284146  73.5464217  48.0496029  95.1132978  78.2481989
  47.9654218  94.5058648  77.5132399  47.2278735  95.6041996  78.2491485
  55.1233313 108.5520142  77.4615157  55.0503485 109.3575114  77.9734462
  54.6810706 108.7512108  76.6363179  54.9123093 107.7891912  70.9717979
  54.1290615 108.3313592  71.0656203  55.6115838 108.3065892  71.3712220
  58.2219743  93.5986542  73.6152184  58.7188442  92.8456504  73.2953254
  57.4506724  93.6350858  73.0495393  66.0749500  99.3026907  75.2570476
  66.0639377 100.1851623  74.8864409  65.2066880  98.9498458  75.0625013
  57.5831997 108.4506976  79.6173316  58.2959969 109.0854441  79.5449217
  57.0922025 108.5470842  78.8013318  59.3049524 102.3558229  71.1890607
  58.3705802 102.4759691  71.0195312  59.4826192 101.4530696  70.9250617
  54.8054712  95.7403925  73.3423869  54.4352499  95.1874965  74.0304774
  55.3013804  95.1362058  72.7898869  62.6922075  98.1975548  71.7240642
  63.1582527  99.0303540  71.6500944  63.1429575  97.7320530  72.4285900
  52.6343910 106.2001420  80.4378887  53.3353370 106.8337903  80.5908281
  52.1639025 106.5416151  79.6774526  60.7598306 104.5419369  68.7226794
  61.0358150 104.4275964  69.6320668  59.8902805 104.1436854  68.6838967
  60.4345196  98.7546027  78.2631437  59.7816646  99.0021934  77.6083890
  60.8125576  97.9410165  77.9293914  57.3952370 108.7905720  72.3659607
  57.5774765 107.9727376  72.8287360  58.2185356 109.0073412  71.9284497
  57.7294536 107.7173905  69.6274656  58.2582302 107.2066360  69.0144818
  57.9922755 107.4016436  70.4920189  48.2311628 105.7337775  77.3709989
  48.8165065 104.9881463  77.5037893  48.0336467 106.0441731  78.2546653
  51.0850283 108.7689022  72.3872432  50.4160659 109.2535150  71.9036472
  50.9463153 109.0158242  73.3015810  42.8229283  98.3043375  76.0914432
  42.8613382  97.7706966  76.8851551  42.3169576  97.7778580  75.4725410
  55.2255552 110.8032766  78.9855090  55.7773860 110.9664387  79.7504175
  55.5661746 111.3937203  78.3135115  49.6772318  95.2231048  83.2350009
  50.3044357  94.8408125  83.8487533  48.8200237  95.0045250  83.6005701
  60.0766426 105.6294023  84.8403744  60.6206330 106.2423981  84.3458699
  59.4953271 106.1873601  85.3570757  46.4537861  97.0307477  69.1668364
  46.7491302  96.1218155  69.1135418  45.5525896  97.0095216  68.8449366
  58.3623939 108.7514741  75.9718772  58.2375079 107.9504481  75.4629718
  59.0203030 109.2460934  75.4832742  49.9832108  95.1063474  75.1495912
  49.2618693  95.7199441  75.0103386  50.7725363  95.6421238  75.0712558
  60.4258848 106.5523761  77.5998322  59.4789183 106.4329112  77.5276649
  60.7741621 105.6646259  77.6824584  48.1825702  94.7121575  69.2907689
  47.8538408  93.8318954  69.1082795  48.5365073  94.6569243  70.1784078
  57.4305281 106.3476477  73.8002674  57.2830243 105.4193185  73.9810245
  58.2558775 106.3696568  73.3159750  51.2967525  94.9994544  69.6583167
  51.6363598  95.5280466  68.9361775  51.7439646  95.3374951  70.4341733
  61.0339403 107.1705036  74.8867547  61.9585950 106.9647897  74.7491998
  60.8654706 106.9221437  75.7956889  53.2835672  93.4969166  67.8576459
  54.0044035  93.8750419  67.3540176  52.6600977  94.2158043  67.9611437
  57.4266795  94.2014315  68.7934792  57.6430410  95.0838953  68.4923620
  56.9460862  93.8100528  68.0640434  52.1666017  97.1600028  75.3705536
  52.0210597  97.4740331  76.2629818  51.6891220  97.7784929  74.8176435
  54.0262400  94.1502576  75.4186426  54.0123968  93.2543670  75.0818724
  54.7434828  94.1573240  76.0524712  55.8788530  94.5839916  77.4639553
  55.6206308  95.5056987  77.4623884  55.3473571  94.1870351  78.1540017
  60.8234719 107.6890704  70.2429639  60.9971597 107.1237126  69.4903491
  61.3163610 108.4891598  70.0609129  46.6411679  99.7005373  78.3093198
  46.0965147 100.4765181  78.4413472  47.5191029 100.0476177  78.1512319
  53.4299296  93.0316957  70.6873996  53.5515207  92.1033603  70.8864884
  53.1401338  93.0455642  69.7752311  56.2990486  90.7171867  73.8240716
  56.3212183  90.7811200  72.8692695  56.7158545  89.8776376  74.0181222
  66.6774110 100.4527126  71.8619938  67.1205256  99.7034452  71.4639062
  65.8000621 100.4437263  71.4793670  61.8109892 107.0057468  67.3426537
  62.5060796 107.6264161  67.5613852  62.1533042 106.1552819  67.6178915
  47.4277701  98.8275269  81.2023354  46.6859437  98.9757904  81.7887985
  47.1070445  99.0883535  80.3390104  63.7101315 104.4557173  68.8713868
  64.2352639 104.7944446  68.1463188  63.6223667 103.5204189  68.6877002
  55.3721363 108.3691247  81.0003744  55.6808490 108.1240394  81.8726444
  56.1696845 108.5737886  80.5122615  55.3941975 110.5229157  73.2309121
  54.9546966 110.0305535  73.9241978  56.1450092 109.9802124  72.9901196
  47.8734314 106.7140698  73.2333749  48.6992334 106.4144469  72.8532393
  47.5228366 105.9448320  73.6823538  52.8415848 106.0667166  75.3031423
  52.2195857 105.4037871  75.0033650  53.5120714 106.0928298  74.6205070
  46.0742919 104.6327024  74.1922683  45.2374828 104.2049198  74.0106684
  46.0466565 104.8259467  75.1293474  63.3995221 105.0890077  84.1765066
  62.6090764 105.0714216  83.6369565  63.1628575 105.6278371  84.9314102
  63.5193096 101.9382543  81.4897794  63.5691101 101.7732551  82.4313317
  63.4107019 101.0709803  81.0995675  52.4029354 104.6171089  68.7789883
  52.5517475 105.3006554  68.1256556  53.2095798 104.5976179  69.2939339
  60.8096858  97.9213472  82.8057101  61.7106721  97.7819936  82.5141099
  60.8844833  98.0867926  83.7455278  65.0211293 104.3579485  81.7339816
  64.7296101 104.7209466  82.5703277  64.4083424 103.6446493  81.5553148
  66.2206975 101.9232365  74.2542386  67.0553866 102.3622169  74.4179946
  66.3566104 101.4471018  73.4350632  63.2698481  99.4812100  80.2019874
  63.7452602  99.6739746  79.3938725  62.3464046  99.5371285  79.9563257
  50.1581987 100.6436267  69.7850952  49.9128029  99.7398597  69.9831162
  50.3277902 100.6453417  68.8430430  49.4277635  96.3764624  67.2837114
  48.7346880  96.4508979  66.6277149  49.1829387  95.6124968  67.8058630
  55.9024760 107.1119220  66.2501631  55.3298727 107.7309407  65.7972102
  56.4757554 107.6618581  66.7841553  61.9700150  96.3577860  78.4348179
  62.9217573  96.4575957  78.4560403  61.8003600  95.5656128  78.9446264
  59.1222020 107.3956370  67.3810213  60.0552693 107.3301931  67.5843088
  59.0345233 108.2312637  66.9224746  61.7510036 106.7122240  64.3414160
  61.6723668 106.3782104  65.2349918  62.5719703 107.2044008  64.3405633
  64.4488228  99.5783979  77.5490479  64.4164548  98.6399980  77.7350163
  65.0588851  99.6568016  76.8156304  56.2871559  98.4480032  63.5917683
  57.2330663  98.3186240  63.6606101  55.9085803  97.7094694  64.0687111
  64.5982716  96.3695023  77.5948762  64.0821765  95.5853479  77.4078691
  65.4822665  96.0413739  77.7595282  62.2593443  90.1136038  73.5544575
  62.0618264  89.8051127  74.4387907  62.8693149  90.8397677  73.6842505
  70.2664778 100.6399986  76.6896516  70.9968166 100.3785274  77.2504219
  69.6571723  99.9028708  76.7298584  68.3480075  98.7807849  77.2870967
  67.6213238  98.6463814  76.6787459  67.9327361  99.0884677  78.0927685
  56.1710251 102.4997779  85.0518340  57.0913261 102.6776378  85.2458387
  56.1359834 101.5553824  84.8998039  54.4714476  96.3730009  63.5272568
  53.5645931  96.0763121  63.6035282  54.7490457  96.0759827  62.6606855
  45.3892416  97.6936372  73.9771615  45.0695200  96.8401680  73.6845989
  44.8425844  97.9084950  74.7329582  49.1672324 100.4098813  77.6941121
  49.3858333 101.3415921  77.7129155  49.5798097 100.0506788  78.4795925
  56.0876541  90.9166898  69.6816810  55.2777270  90.5713983  70.0572056
  56.7760958  90.6074442  70.2704421  58.0167090  89.9944945  71.3041106
  58.5698128  90.4140399  71.9631129  58.2537176  89.0680693  71.3464062
  53.2413260  93.2316944  63.6684547  54.1032424  93.5571842  63.9280365
  53.4263604  92.4448440  63.1557613  45.2580676 101.3139284  75.9464736
  44.5644147 100.8993236  75.4334691  46.0053667 101.3559820  75.3498155
  61.3945897  92.1045470  70.8119770  60.8144566  92.7630274  70.4297823
  61.1281829  91.2822815  70.4007188  59.8449463  91.5050528  73.0141091
  60.3449241  91.6167063  72.2055410  60.4885071  91.2011581  73.6541899
  47.1717419 101.2457537  73.8230751  47.1488107 101.3445225  72.8712634
  47.4818055 102.0922688  74.1447917  49.8304796 103.3033692  77.9377366
  50.7848050 103.2717635  77.8707297  49.6317320 102.8424316  78.7527591
  50.4204179 101.8734809  80.5048163  51.2397068 102.3678887  80.5283001
  50.6940986 100.9566777  80.4765731  60.1770775  94.2645561  69.8676119
  59.2896630  94.5495211  69.6496314  60.5924764  94.1039324  69.0203396
  63.5285311  94.2892082  73.5830458  64.3045701  94.7788534  73.8555075
  62.8033445  94.7150136  74.0402328  65.9657870  95.0019701  74.6404399
  66.5602360  94.7615437  73.9297707  66.0384453  94.2826832  75.2677935
  48.1855025 108.8453312  74.9547563  48.0509493 108.0853713  74.3885561
  47.7687088 109.5694212  74.4876352  59.3213988 104.0290236  63.9624139
  60.0249838 104.2340238  64.5781794  58.5976637 104.5966997  64.2273222
  60.1511799  99.7800097  70.0826409  60.0947000 100.2368648  69.2434041
  60.7040141  99.0190781  69.9049252  63.9616604  95.5689829  70.9076528
  63.7053539  95.1686464  71.7384736  63.3369472  96.2833623  70.7826668
  68.2728942  98.3085902  73.4147820  67.7128500  98.3779091  74.1879382
  67.6672446  98.1326887  72.6947316  51.3424151 109.7422629  75.1666006
  51.2256535 110.6868061  75.0644696  50.5216597 109.4396191  75.5551805
  61.2300686 104.4672765  66.0122599  62.0646290 104.0353963  65.8300074
  61.0685029 104.2954778  66.9399493  60.8846578 100.9704878  67.3778938
  60.8295382 100.8049149  66.4367382  60.2592633 101.6780911  67.5341128
  45.6739093  96.2072942  81.2040360  46.3197956  95.6971896  81.6927585
  45.4656244  96.9441624  81.7783786  58.1992485 103.2753790  86.7032501
  59.0683645 103.4494442  86.3419136  57.7199236 104.0948207  86.5808230
  54.1942703  90.4712987  66.9564256  54.1821373  91.4154827  67.1132527
  55.0866125  90.2883132  66.6623718  52.3678665 110.3950891  78.3821935
  53.2705912 110.4274501  78.6988429  52.1416035 109.4651342  78.3968270
  54.1232267 109.1481877  75.0432013  53.1727898 109.1483739  74.9296385
  54.4264753 108.4014612  74.5268048  58.0094823  87.0655764  71.2110193
  57.2427219  86.5114250  71.3566876  58.4205528  87.1377632  72.0724345
  50.0136584  93.3540559  85.3015375  50.8768045  92.9977364  85.5118699
  49.4401994  93.0154454  85.9890779  69.8584961 114.9842416  76.1077776
  70.4963371 114.8649163  75.4041116  69.7405804 115.9323260  76.1665728
  66.6674667 114.9369844  76.0439300  66.3293179 114.8210909  75.1559835
  67.5364435 114.5361009  76.0240306  62.5261483 116.7905320  72.0336191
  61.9626348 116.6995257  71.2652479  62.4113878 115.9705225  72.5138684
  67.1494450 116.0904696  82.0025506  67.1383091 115.6957494  81.1306009
  67.3115089 115.3570768  82.5959277  60.0725915 118.2856512  74.8720412
  60.8647207 117.9447337  74.4566711  60.3122565 118.3951487  75.7922565
  68.1061041 120.4576288  67.3450656  67.4549021 121.0430368  66.9584670
  68.9005404 120.9882483  67.4045694  62.0316669 117.5465425  67.7437790
  62.8047545 116.9994412  67.6050666  62.3842067 118.4109675  67.9552252
  63.8701711 118.8741807  80.9504690  63.5791577 119.7787438  80.8351356
  64.5058696 118.9158335  81.6648759  64.7957918 116.2518656  77.5406049
  65.3921490 116.0274678  76.8263012  64.8532890 115.5103401  78.1431497
  64.3682946 113.7058091  65.3756240  64.6208467 113.1839613  64.6139703
  63.4307506 113.5424237  65.4782924  69.4126229 112.7093870  73.1830984
  70.1989318 112.2913293  72.8321401  69.6764934 113.6139962  73.3512632
  69.5836307 118.1466720  67.8819640  68.9482140 118.2201346  68.5940545
  69.2533713 118.7360319  67.2038720  74.8134656 112.6469103  74.0863962
  75.5459828 112.0768320  74.3201792  74.0574012 112.2590703  74.5270468
  64.0879235 115.6086197  67.5780615  63.9715493 114.9331101  68.2461700
  64.1981495 115.1218571  66.7612768  66.4310776 115.0696344  71.2827305
  66.0668983 114.5426965  71.9940226  67.2877892 114.6794813  71.1093790
  72.3360077 106.3590677  78.5458571  72.0043401 107.2286088  78.3219786
  71.7405690 106.0426961  79.2252601  66.0716263 110.0986244  66.2788653
  66.2390665 110.9666480  66.6459124  65.8813432 110.2613526  65.3549942
  68.8291596 118.5603223  77.9454483  68.5292319 119.4628262  77.8370291
  68.4842656 118.2935406  78.7975636  62.2804078 115.0117020  73.9791188
  61.3554574 114.8793234  74.1868880  62.5288491 115.7911239  74.4761130
  72.2288740 111.0785763  75.6251921  71.3205617 111.0101172  75.3310682
  72.1776336 111.5557708  76.4533746  66.0505484 112.5543902  67.2635320
  65.9305109 113.0000952  68.1020800  65.3558072 112.9029219  66.7048858
  59.6412889 114.6550293  74.8134977  59.7705270 114.9084772  75.7274389
  58.9610340 115.2478001  74.4939632  63.8112376 125.3247543  70.9125451
  63.7336406 126.2755368  70.9913932  63.2074020 124.9793416  71.5700377
  66.3029606 112.4975409  83.5686818  65.5262940 113.0569329  83.5589683
  66.9420169 112.9832192  84.0901688  74.0950386 109.2802202  77.4029795
  73.4524767 109.5734735  76.7569589  73.5905315 109.1655122  78.2082991
  71.7490550 113.0265375  68.0915654  72.6608406 113.2592761  67.9163351
  71.2400197 113.6102419  67.5290733  64.5575978 115.3060862  83.1304785
  65.2990662 115.8445906  82.8539609  63.8512964 115.9327151  83.2876337
  70.0331318 117.4490003  81.7276947  70.4414674 117.0072413  80.9831579
  69.3108579 116.8742630  81.9811139  66.3862388 112.3862609  79.1010503
  67.2323583 112.8102023  79.2445152  66.3261025 111.7296234  79.7949067
  70.3560132 118.0091193  75.4829235  69.7268995 118.1736907  74.7805303
  69.9685794 118.4232803  76.2540199  74.2349364 118.9445631  72.8373599
  73.5500402 119.3244532  72.2870632  74.3193214 119.5540958  73.5705547
  69.5361833 110.0466978  80.7591677  69.2922765 110.8009038  80.2225953
  69.8121764 110.4252325  81.5938924  71.4900296 116.5905590  79.4368943
  71.7017191 117.2337350  78.7603324  71.4430044 115.7567907  78.9690873
  69.0926525 109.2023411  76.3405515  68.2311004 109.5004664  76.6322252
  69.1188960 109.4193810  75.4086547  65.9088094 117.7465601  72.7479321
  66.3726440 118.0253304  71.9583943  65.6444892 116.8449046  72.5652411
  62.8012175 117.2937083  75.6859084  63.3713532 117.7224351  75.0476568
  63.3920287 117.0119668  76.3843269  64.8456980 113.8688754  69.5568886
  65.5481024 114.3209797  70.0242812  64.5137609 113.2272573  70.1848779
  63.2937342 112.4600510  83.9320095  62.6636002 113.1416791  84.1655492
  63.1873430 112.3483592  82.9873233  58.5882314 112.1272306  74.8586019
  57.7981368 112.3829835  74.3826130  59.0793562 112.9420644  74.9638060
  72.6046124 119.4677545  77.6091300  73.4263568 119.0657733  77.3273982
  72.6008527 119.3645780  78.5607416  60.5397060 112.4916886  71.8169496
  59.7428223 112.6035580  72.3352992  60.3122652 112.8303538  70.9510386
  66.3702727 119.0161589  79.7652011  66.4347160 119.4781996  80.6010182
  65.6613651 118.3858954  79.8934320  56.8720017 112.3802797  77.2901010
  57.1228056 113.2649807  77.5558586  57.4079566 112.2007398  76.5176102
  80.6952117 115.8116294  73.9576271  79.9415825 115.2423692  73.8020276
  80.8299658 115.7778958  74.9046906  66.0850745 120.6829696  69.6330991
  65.9496420 121.5281232  70.0615839  66.6260557 120.8848974  68.8696925
  62.5718085 106.7621276  86.2945346  62.1785030 106.2087475  86.9692990
  63.3884225 107.0731855  86.6851864  59.5380142 118.2005134  70.2058916
  60.0504663 118.9948385  70.3564481  60.1902855 117.5031425  70.1392517
  61.3475027 121.3170891  72.2881669  61.5241655 122.2388855  72.1002653
  62.1431861 121.0029310  72.7176049  65.4886046 108.1779155  83.8865603
  66.2295759 108.7786308  83.8070065  65.7203968 107.4356793  83.3283645
  60.6327384 113.3635522  82.1643832  60.5180899 112.4620780  82.4650931
  59.7771901 113.6099219  81.8128649  67.7119221 121.3053263  83.7631333
  67.2683076 120.5189641  83.4452237  68.3736435 121.4932413  83.0975224
  62.4706343 122.8349064  78.2892011  63.0213768 122.7066128  77.5169005
  61.6317818 123.1343953  77.9386904  69.8100459 121.5856063  81.7912734
  69.7918935 122.4064944  81.2993003  70.7320379 121.4610138  82.0162875
  66.2673514 119.1000192  82.6336243  66.8001850 118.3388480  82.4035551
  65.7387595 118.8073844  83.3760397  69.4343209 104.2060258  78.1629884
  69.0907478 105.0961900  78.0868995  69.8022171 104.0161916  77.2999469
  57.5029059 116.5293789  70.9818486  58.3404281 116.9390797  70.7652194
  57.6807327 115.5893231  70.9518680  69.3993491 114.1968869  66.6702319
  68.8840115 114.9673474  66.9090707  69.1270800 113.5234005  67.2935381
  66.9840602 109.0418570  71.7287558  66.1282199 108.6525420  71.5493197
  67.3967554 109.1210531  70.8687343  68.5139749 106.5764913  76.1279118
  68.0104545 106.5395048  75.3146923  68.8070356 107.4857656  76.1875774
  64.7582635 106.6603643  75.1345299  65.6235632 106.4646452  74.7751189
  64.8260144 106.4313995  76.0614656  74.3727765 116.9501224  68.6055493
  73.5957208 116.6112383  68.1610655  75.0519246 116.9553847  67.9310458
  69.1879794 112.0695961  68.4962101  68.8829930 112.3842111  69.3472244
  70.1410237 112.1477381  68.5389434  67.6326226 118.2286185  70.1455055
  67.1047588 117.4938944  69.8328292  67.1313729 119.0060861  69.8995023
  72.6119072 116.4235205  75.2622101  71.9542747 117.1134467  75.3502230
  73.4159472 116.8131637  75.6056087  62.3644954 108.8905851  72.5061666
  62.9388706 108.6681032  71.7734859  62.9515936 108.9594545  73.2590267
  71.4224531 114.7779578  73.3126043  71.9356413 115.4109570  73.8147752
  72.0725755 114.1780773  72.9469403  62.6914541 110.9210312  66.5257551
  61.8551853 111.2584999  66.8466826  62.5519311 110.7859292  65.5884688
  64.6667622 105.7647100  71.2336736  64.0132034 105.4496117  70.6093350
  64.6248096 105.1422840  71.9596558  65.7778826 116.0466395  63.1490028
  64.8705888 115.8155648  63.3481177  66.2749858 115.2504014  63.3364009
  68.6846905 124.7563902  66.0686714  68.0108604 125.0595599  66.6771672
  69.0712727 125.5592982  65.7192171  67.9005362 112.2529033  75.5584383
  66.9827923 112.4743980  75.4006071  68.3165506 112.3275344  74.6996091
  68.6840410 113.6520449  70.6887063  69.4312229 114.1641846  70.3794185
  68.9531999 113.3304502  71.5491457  66.9567060 116.1478990  67.6714018
  66.0478279 115.8638023  67.7686487  66.9862144 116.5678068  66.8117325
  72.1886327 119.7585579  71.4405185  71.7348654 118.9176489  71.4970376
  71.5580294 120.3946978  71.7779965  71.1319247 110.6877565  72.6705853
  70.3942004 110.1754952  73.0016095  71.3846020 110.2477947  71.8589130
  70.6319267 121.5962076  72.3755003  70.9242241 122.1567133  71.6567369
  71.1417887 121.8890637  73.1308163  71.2330874 103.4653817  73.2647622
  71.5389751 102.6051181  72.9773537  71.9583479 104.0571438  73.0646616
  57.5255230 113.8684504  71.6529220  57.3279630 113.2753865  70.9280286
  56.9701894 113.5636714  72.3705159  65.5051954 113.7607610  73.7723813
  65.5600564 112.8081447  73.6966290  64.6943156 113.9167050  74.2565111
  66.6543148 117.6887733  65.0102096  66.2162578 116.9723592  64.5507734
  67.3953589 117.9163848  64.4487188  63.4444314 112.3784670  71.5314192
  62.6312179 112.6778841  71.9379384  63.9403308 111.9840359  72.2488674
  65.5952892 122.3742427  73.4648457  65.5529071 122.6003273  72.5356989
  66.5115591 122.1405802  73.6134258  69.0418526 112.8426495  80.3629086
  69.3967913 113.0697968  81.2223552  69.6890657 113.1744871  79.7406341
  74.7716262 115.9644931  71.0678415  74.6334161 116.1546526  70.1399604
  74.4152481 116.7264313  71.5246466  62.9358389 109.9503026  77.1475427
  63.5757768 109.8091785  76.4498390  62.1035919 109.6637539  76.7714029
  74.7985642 118.0321458  76.0789686  75.2322149 117.9396747  76.9272740
  75.5117223 118.0078958  75.4409702  63.7118693 119.2505456  73.2610419
  64.5059291 118.7555776  73.0592994  63.0010385 118.7223319  72.8978125
  68.5313537 121.6323552  77.6122787  68.5850559 122.2014488  78.3800503
  67.6628318 121.8025437  77.2476824  60.0201456 113.3948538  69.3370172
  59.0899044 113.3332993  69.5540134  60.1158928 112.8724491  68.5406813
  59.9387005 109.9203351  71.9248414  60.1993822 110.8348684  71.8157574
  60.7604177 109.4527793  72.0745027  61.4111930 111.3341108  79.0947238
  62.0834984 111.1258470  78.4459887  60.5841717 111.1363194  78.6552471
  75.6601192 118.0745158  78.6122572  75.8537082 118.9790969  78.8581847
  75.5601810 117.6152577  79.4461157  67.3137502 107.9603049  81.1112899
  66.6665417 108.6592998  81.0177376  68.0838518 108.3939193  81.4789147
  70.7216300 118.2251901  84.1863452  70.5701807 117.9962453  83.2693536
  70.7120980 119.1822502  84.1994797  67.4901637 115.7983814  79.1709719
  68.4193697 115.9494973  78.9978686  67.0692667 115.8867834  78.3158365
  66.2889969 119.8234478  76.9408256  66.1501054 119.4553262  77.8134195
  65.5004565 120.3382118  76.7692214  66.8838120 124.9243575  68.2833793
  67.0589876 124.4531618  69.0979416  66.1970909 125.5509341  68.5115054
  67.8395184 119.2016081  74.3297094  67.5045016 119.1616851  75.2254744
  67.3399129 118.5360797  73.8567504  61.8139428 114.6083711  79.8549675
  61.6759226 113.8763950  80.4561214  62.7244351 114.5192611  79.5733863
  70.7754375 116.5472115  64.6034154  70.1583546 115.8218943  64.5067207
  70.3070864 117.3081475  64.2601228  64.4421728 114.3203670  79.3433355
  65.1521347 113.6796862  79.3019973  64.3991036 114.5716565  80.2659536
  72.4308507 121.2571023  82.2639934  72.3721053 120.5730244  81.5970517
  72.8328025 121.9990013  81.8120560  63.1550662 111.3068888  81.1628995
  62.6188019 110.8559626  81.8150591  62.5667371 111.4414797  80.4199459
  62.5652921 110.7657539  63.7255458  61.6882388 110.6446340  63.3617705
  63.0410674 109.9743618  63.4734347  72.4325914 119.2210607  80.4953914
  71.5452693 118.8836529  80.6180313  73.0024465 118.4893639  80.7322679
  54.0855061 115.5534699  73.8196965  54.7726101 115.2396429  73.2317981
  53.9303190 116.4576064  73.5464217  58.8889783 110.4424896  78.2481989
  58.8047972 109.8350565  77.5132399  58.0672490 110.9333914  78.2491485
  65.9627068 123.8812060  77.4615157  65.8897239 124.6867031  77.9734462
  65.5204461 124.0804026  76.6363179  65.7516847 123.1183830  70.9717979
  64.9684369 123.6605510  71.0656203  66.4509592 123.6357809  71.3712220
  69.0613497 108.9278459  73.6152184  69.5582197 108.1748422  73.2953254
  68.2900479 108.9642776  73.0495393  76.9143255 114.6318825  75.2570476
  76.9033131 115.5143540  74.8864409  76.0460634 114.2790376  75.0625013
  68.4225751 123.7798894  79.6173316  69.1353723 124.4146359  79.5449217
  67.9315780 123.8762760  78.8013318  70.1443278 117.6850146  71.1890607
  69.2099557 117.8051609  71.0195312  70.3219947 116.7822613  70.9250617
  65.6448466 111.0695842  73.3423869  65.2746254 110.5166883  74.0304774
  66.1407559 110.4653976  72.7898869  73.5315829 113.5267466  71.7240642
  73.9976282 114.3595457  71.6500944  73.9823330 113.0612447  72.4285900
  63.4737665 121.5293337  80.4378887  64.1747124 122.1629820  80.5908281
  63.0032780 121.8708069  79.6774526  71.5992061 119.8711287  68.7226794
  71.8751904 119.7567882  69.6320668  70.7296559 119.4728772  68.6838967
  71.5032492 105.8948053  75.7631543  70.5895572 106.1252280  75.9313750
  71.9325594 105.9786497  76.6145575  71.2738951 114.0837945  78.2631437
  70.6210401 114.3313852  77.6083890  71.6519331 113.2702083  77.9293914
  68.2346125 124.1197638  72.3659607  68.4168519 123.3019294  72.8287360
  69.0579111 124.3365330  71.9284497  68.5688290 123.0465823  69.6274656
  69.0976056 122.5358278  69.0144818  68.8316510 122.7308353  70.4920189
  67.3226524 114.8257756  84.7497474  66.6467161 114.7251885  85.4199849
  68.1454158 114.6696970  85.2133471  59.0705383 121.0629692  77.3709989
  59.6558820 120.3173380  77.5037893  58.8730221 121.3733649  78.2546653
  61.9244038 124.0980940  72.3872432  61.2554413 124.5827067  71.9036472
  61.7856908 124.3450160  73.3015810  53.6623037 113.6335293  76.0914432
  53.7007137 113.0998883  76.8851551  53.1563330 113.1070498  75.4725410
  66.0649307 126.1324683  78.9855090  66.6167615 126.2956305  79.7504175
  66.4055500 126.7229121  78.3135115  61.0413800 108.4799833  79.5876975
  61.1055126 109.3414664  79.1754372  60.9780920 107.8673835  78.8549333
  60.5166072 110.5522966  83.2350009  61.1438111 110.1700043  83.8487533
  59.6593991 110.3337167  83.6005701  70.9160181 120.9585941  84.8403744
  71.4600085 121.5715899  84.3458699  70.3347026 121.5165519  85.3570757
  57.2931615 112.3599395  69.1668364  57.5885056 111.4510073  69.1135418
  56.3919651 112.3387134  68.8449366  69.2017694 124.0806659  75.9718772
  69.0768833 123.2796399  75.4629718  69.8596785 124.5752852  75.4832742
  60.8225862 110.4355391  75.1495912  60.1012448 111.0491359  75.0103386
  61.6119118 110.9713156  75.0712558  71.2652602 121.8815679  77.5998322
  70.3182938 121.7621030  77.5276649  71.6135375 120.9938177  77.6824584
  63.6252176 107.7709818  81.4236564  64.1486577 108.0172114  82.1862873
  63.4064509 108.6029853  81.0039702  59.0219457 110.0413492  69.2907689
  58.6932163 109.1610871  69.1082795  59.3758827 109.9861161  70.1784078
  68.2699036 121.6768395  73.8002674  68.1223998 120.7485102  73.9810245
  69.0952529 121.6988486  73.3159750  62.1361280 110.3286462  69.6583167
  62.4757352 110.8572383  68.9361775  62.5833400 110.6666868  70.4341733
  71.8733157 122.4996954  74.8867547  72.7979705 122.2939815  74.7491998
  71.7048461 122.2513355  75.7956889  64.8304721 108.7123513  79.1086235
  64.4901541 107.9131326  79.5106915  64.1243727 109.0125224  78.5363068
  65.4821192 105.7972825  77.5613558  66.3047262 105.3233303  77.4392448
  65.7259256 106.5763309  78.0612244  64.1229427 108.8261084  67.8576459
  64.8437789 109.2042337  67.3540176  63.4994731 109.5449961  67.9611437
  68.2660550 109.5306233  68.7934792  68.4824164 110.4130871  68.4923620
  67.7854617 109.1392446  68.0640434  63.0059771 112.4891946  75.3705536
  62.8604352 112.8032249  76.2629818  62.5284975 113.1076846  74.8176435
  64.8656154 109.4794494  75.4186426  64.8517723 108.5835587  75.0818724
  65.5828582 109.4865158  76.0524712  66.7182285 109.9131834  77.4639553
  66.4600063 110.8348905  77.4623884  66.1867325 109.5162269  78.1540017
  71.6628474 123.0182621  70.2429639  71.8365351 122.4529044  69.4903491
  72.1557365 123.8183516  70.0609129  57.4805433 115.0297290  78.3093198
  56.9358901 115.8057098  78.4413472  58.3584783 115.3768095  78.1512319
  64.2693050 108.3608874  70.6873996  64.3908961 107.4325520  70.8864884
  63.9795092 108.3747560  69.7752311  67.1384240 106.0463785  73.8240716
  67.1605937 106.1103118  72.8692695  67.5552299 105.2068293  74.0181222
  77.5167865 115.7819044  71.8619938  77.9599011 115.0326369  71.4639062
  76.6394375 115.7729181  71.4793670  72.6503646 122.3349386  67.3426537
  73.3454551 122.9556078  67.5613852  72.9926796 121.4844737  67.6178915
  58.2671455 114.1567187  81.2023354  57.5253191 114.3049822  81.7887985
  57.9464200 114.4175452  80.3390104  74.5495069 119.7849091  68.8713868
  75.0746393 120.1236364  68.1463188  74.4617422 118.8496106  68.6877002
  66.2115118 123.6983165  81.0003744  66.5202244 123.4532312  81.8726444
  67.0090600 123.9029803  80.5122615  66.2335730 125.8521074  73.2309121
  65.7940720 125.3597453  73.9241978  66.9843847 125.3094042  72.9901196
  58.7128069 122.0432615  73.2333749  59.5386089 121.7436387  72.8532393
  58.3622121 121.2740238  73.6823538  63.6809602 121.3959084  75.3031423
  63.0589611 120.7329789  75.0033650  64.3514469 121.4220215  74.6205070
  56.9136674 119.9618942  74.1922683  56.0768582 119.5341116  74.0106684
  56.8860319 120.1551385  75.1293474  63.7534130 109.8740872  84.8963929
  63.8022285 110.7502994  84.5141698  64.2956644 109.3318265  84.3235572
  74.2388975 120.4181995  84.1765066  73.4484519 120.4006134  83.6369565
  74.0022330 120.9570288  84.9314102  74.3586850 117.2674461  81.4897794
  74.4084855 117.1024469  82.4313317  74.2500774 116.4001720  81.0995675
  63.2423109 119.9463007  68.7789883  63.3911229 120.6298471  68.1256556
  64.0489552 119.9268097  69.2939339  71.6490613 113.2505389  82.8057101
  72.5500475 113.1111854  82.5141099  71.7238587 113.4159844  83.7455278
  65.9833418 110.6272244  81.6510287  65.1136727 110.9205810  81.3792876
  66.2192898 111.2112689  82.3717551  75.8605047 119.6871403  81.7339816
  75.5689855 120.0501383  82.5703277  75.2477178 118.9738411  81.5553148
  77.0600729 117.2524282  74.2542386  77.8947621 117.6914087  74.4179946
  77.1959858 116.7762936  73.4350632  74.1092235 114.8104017  80.2019874
  74.5846357 115.0031664  79.3938725  73.1857801 114.8663203  79.9563257
  60.9975742 115.9728184  69.7850952  60.7521784 115.0690514  69.9831162
  61.1671656 115.9745335  68.8430430  68.6872452 106.8451861  79.1675708
  69.2054396 107.5812888  78.8422196  68.3327585 107.1515854  80.0022467
  60.2671389 111.7056542  67.2837114  59.5740634 111.7800897  66.6277149
  60.0223141 110.9416886  67.8058630  68.9385046 103.2652143  74.6876604
  69.2186800 102.5975332  75.3137031  69.7235653 103.4581239  74.1751268
  66.7418515 122.4411137  66.2501631  66.1692482 123.0601324  65.7972102
  67.3151308 122.9910499  66.7841553  72.8093904 111.6869777  78.4348179
  73.7611327 111.7867875  78.4560403  72.6397355 110.8948046  78.9446264
  70.8308284 108.7725361  78.6207580  70.2358216 109.0530373  77.9254069
  70.5457981 109.2619262  79.3924321  69.9615774 122.7248287  67.3810213
  70.8946447 122.6593849  67.5843088  69.8738987 123.5604554  66.9224746
  72.5903791 122.0414158  64.3414160  72.5117422 121.7074021  65.2349918
  73.4113458 122.5335926  64.3405633  75.2881982 114.9075897  77.5490479
  75.2558302 113.9691898  77.7350163  75.8982606 114.9859934  76.8156304
  67.1265313 113.7771950  63.5917683  68.0724418 113.6478158  63.6606101
  66.7479558 113.0386612  64.0687111  75.4376471 111.6986941  77.5948762
  74.9215519 110.9145397  77.4078691  76.3216419 111.3705657  77.7595282
  73.0987198 105.4427956  73.5544575  72.9012019 105.1343044  74.4387907
  73.7086903 106.1689595  73.6842505  81.1058532 115.9691904  76.6896516
  81.8361920 115.7077192  77.2504219  80.4965477 115.2320626  76.7298584
  79.1873829 114.1099767  77.2870967  78.4606993 113.9755731  76.6787459
  78.7721116 114.4176595  78.0927685  67.0104006 117.8289696  85.0518340
  67.9307015 118.0068295  85.2458387  66.9753589 116.8845742  84.8998039
  65.3108230 111.7021926  63.5272568  64.4039686 111.4055039  63.6035282
  65.5884211 111.4051745  62.6606855  56.2286171 113.0228290  73.9771615
  55.9088955 112.1693598  73.6845989  55.6819599 113.2376868  74.7329582
  60.0066078 115.7390731  77.6941121  60.2252088 116.6707839  77.7129155
  60.4191852 115.3798705  78.4795925  66.9270296 106.2458816  69.6816810
  66.1171024 105.9005901  70.0572056  67.6154713 105.9366360  70.2704421
  68.8560844 105.3236863  71.3041106  69.4091883 105.7432316  71.9631129
  69.0930931 104.3972611  71.3464062  64.8793943 111.3123937  87.0843870
  64.7790670 112.2618294  87.0155961  64.6615485 110.9842176  86.2119940
  64.0807015 108.5608862  63.6684547  64.9426179 108.8863760  63.9280365
  64.2657359 107.7740358  63.1557613  56.0974431 116.6431201  75.9464736
  55.4037902 116.2285154  75.4334691  56.8447422 116.6851738  75.3498155
  72.2339651 107.4337388  70.8119770  71.6538320 108.0922192  70.4297823
  71.9675584 106.6114733  70.4007188  70.6843218 106.8342446  73.0141091
  71.1842996 106.9458980  72.2055410  71.3278826 106.5303499  73.6541899
  64.7425213 114.7421075  85.9008932  64.2592295 115.5421436  86.1072821
  64.8286152 114.7529020  84.9476376  58.0111173 116.5749455  73.8230751
  57.9881861 116.6737142  72.8712634  58.3211810 117.4214606  74.1447917
  60.6698551 118.6325610  77.9377366  61.6241804 118.6009552  77.8707297
  60.4711075 118.1716234  78.7527591  61.2597933 117.2026726  80.5048163
  62.0790822 117.6970805  80.5283001  61.5334741 116.2858694  80.4765731
  71.0164529 109.5937479  69.8676119  70.1290384 109.8787129  69.6496314
  71.4318518 109.4331242  69.0203396  74.3679065 109.6183999  73.5830458
  75.1439456 110.1080452  73.8555075  73.6427200 110.0442054  74.0402328
  76.8051624 110.3311619  74.6404399  77.3996115 110.0907355  73.9297707
  76.8778208 109.6118749  75.2677935  59.0248780 124.1745230  74.9547563
  58.8903248 123.4145631  74.3885561  58.6080842 124.8986130  74.4876352
  70.1607743 119.3582153  63.9624139  70.8643593 119.5632156  64.5781794
  69.4370392 119.9258915  64.2273222  70.9905553 115.1092014  70.0826409
  70.9340754 115.5660566  69.2434041  71.5433895 114.3482699  69.9049252
  74.8010359 110.8981746  70.9076528  74.5447293 110.4978382  71.7384736
  74.1763227 111.6125540  70.7826668  79.1122697 113.6377820  73.4147820
  78.5522255 113.7071009  74.1879382  78.5066200 113.4618804  72.6947316
  62.1817906 125.0714547  75.1666006  62.0650290 126.0159979  75.0644696
  61.3610352 124.7688108  75.5551805  72.0694440 119.7964682  66.0122599
  72.9040044 119.3645881  65.8300074  71.9078783 119.6246696  66.9399493
  71.7240332 116.2996796  67.3778938  71.6689136 116.1341067  66.4367382
  71.0986388 117.0072829  67.5341128  56.5132847 111.5364860  81.2040360
  57.1591711 111.0263814  81.6927585  56.3049998 112.2733542  81.7783786
  69.0386240 118.6045708  86.7032501  69.9077399 118.7786360  86.3419136
  68.5592991 119.4240124  86.5808230  65.0336458 105.8004905  66.9564256
  65.0215128 106.7446745  67.1132527  65.9259880 105.6175050  66.6623718
  63.2072420 125.7242809  78.3821935  64.1099666 125.7566419  78.6988429
  62.9809790 124.7943260  78.3968270  64.9626022 124.4773795  75.0432013
  64.0121653 124.4775657  74.9296385  65.2658508 123.7306530  74.5268048
  68.8488577 102.3947681  71.2110193  68.0820973 101.8406168  71.3566876
  69.2599282 102.4669550  72.0724345  60.8530338 108.6832477  85.3015375
  61.7161800 108.3269282  85.5118699  60.2795749 108.3446372  85.9890779
  80.6978715 130.3134334  76.1077776  81.3357125 130.1941081  75.4041116
  80.5799558 131.2615177  76.1665728  77.5068422 130.2661762  76.0439300
  77.1686933 130.1502826  75.1559835  78.3758190 129.8652927  76.0240306
  77.9888205 131.4196613  82.0025506  77.9776845 131.0249412  81.1306009
  78.1508844 130.6862686  82.5959277  75.2076701 129.0350009  65.3756240
  75.4602222 128.5131530  64.6139703  74.2701260 128.8716154  65.4782924
  80.2519984 128.0385787  73.1830984  81.0383073 127.6205211  72.8321401
  80.5158688 128.9431880  73.3512632  85.6528411 127.9761021  74.0863962
  86.3853583 127.4060237  74.3201792  84.8967767 127.5882621  74.5270468
  77.2704531 130.3988262  71.2827305  76.9062738 129.8718883  71.9940226
  78.1271646 130.0086731  71.1093790  83.1753831 121.6882595  78.5458571
  82.8437156 122.5578006  78.3219786  82.5799445 121.3718879  79.2252601
  76.9110018 125.4278162  66.2788653  77.0784420 126.2958398  66.6459124
  76.7207187 125.5905443  65.3549942  83.0682495 126.4077681  75.6251921
  82.1599372 126.3393089  75.3310682  83.0170090 126.8849626  76.4533746
  76.8899238 127.8835819  67.2635320  76.7698864 128.3292870  68.1020800
  76.1951827 128.2321137  66.7048858  77.1423360 127.8267326  83.5686818
  76.3656694 128.3861247  83.5589683  77.7813923 128.3124109  84.0901688
  84.9344141 124.6094119  77.4029795  84.2918521 124.9026652  76.7569589
  84.4299069 124.4947040  78.2082991  82.5884305 128.3557292  68.0915654
  83.5002161 128.5884679  67.9163351  82.0793952 128.9394337  67.5290733
  80.8725072 132.7781920  81.7276947  81.2808428 132.3364331  80.9831579
  80.1502334 132.2034548  81.9811139  77.2256142 127.7154527  79.1010503
  78.0717338 128.1393941  79.2445152  77.1654780 127.0588151  79.7949067
  80.3755588 125.3758895  80.7591677  80.1316520 126.1300956  80.2225953
  80.6515518 125.7544243  81.5938924  82.3294050 131.9197508  79.4368943
  82.5410946 132.5629268  78.7603324  82.2823799 131.0859824  78.9690873
  79.9320279 124.5315328  76.3405515  79.0704758 124.8296582  76.6322252
  79.9582714 124.7485727  75.4086547  75.6850735 129.1980671  69.5568886
  76.3874778 129.6501715  70.0242812  75.3531363 128.5564490  70.1848779
  74.1331096 127.7892428  83.9320095  73.5029757 128.4708709  84.1655492
  74.0267184 127.6775510  82.9873233  69.4276069 127.4564224  74.8586019
  68.6375123 127.7121753  74.3826130  69.9187316 128.2712562  74.9638060
  71.3790814 127.8208803  71.8169496  70.5821977 127.9327497  72.3352992
  71.1516406 128.1595455  70.9510386  73.4111839 122.0913194  86.2945346
  73.0178785 121.5379392  86.9692990  74.2277979 122.4023772  86.6851864
  76.3279800 123.5071073  83.8865603  77.0689513 124.1078226  83.8070065
  76.5597723 122.7648711  83.3283645  71.4721138 128.6927440  82.1643832
  71.3574653 127.7912697  82.4650931  70.6165656 128.9391137  81.8128649
  80.2736963 119.5352176  78.1629884  79.9301232 120.4253818  78.0868995
  80.6415926 119.3453833  77.2999469  80.2387246 129.5260787  66.6702319
  79.7233869 130.2965392  66.9090707  79.9664554 128.8525923  67.2935381
  77.8234357 124.3710488  71.7287558  76.9675953 123.9817338  71.5493197
  78.2361309 124.4502449  70.8687343  79.3533503 121.9056831  76.1279118
  78.8498299 121.8686966  75.3146923  79.6464110 122.8149574  76.1875774
  75.5976389 121.9895561  75.1345299  76.4629386 121.7938369  74.7751189
  75.6653898 121.7605912  76.0614656  80.0273549 127.3987879  68.4962101
  79.7223684 127.7134028  69.3472244  80.9803991 127.4769299  68.5389434
  73.2038708 124.2197769  72.5061666  73.7782460 123.9972950  71.7734859
  73.7909691 124.2886463  73.2590267  82.2618286 130.1071496  73.3126043
  82.7750167 130.7401487  73.8147752  82.9119509 129.5072691  72.9469403
  73.5308295 126.2502230  66.5257551  72.6945608 126.5876916  66.8466826
  73.3913065 126.1151209  65.5884688  75.5061376 121.0939018  71.2336736
  74.8525788 120.7788035  70.6093350  75.4641850 120.4714758  71.9596558
  76.6172581 131.3758313  63.1490028  75.7099643 131.1447566  63.3481177
  77.1143613 130.5795932  63.3364009  78.7399116 127.5820951  75.5584383
  77.8221678 127.8035898  75.4006071  79.1559260 127.6567262  74.6996091
  79.5234164 128.9812367  70.6887063  80.2705983 129.4933764  70.3794185
  79.7925754 128.6596419  71.5491457  77.7960814 131.4770907  67.6714018
  76.8872034 131.1929940  67.7686487  77.8255898 131.8969986  66.8117325
  81.9713001 126.0169483  72.6705853  81.2335758 125.5046869  73.0016095
  82.2239775 125.5769865  71.8589130  82.0724629 118.7945735  73.2647622
  82.3783505 117.9343098  72.9773537  82.7977233 119.3863355  73.0646616
  76.3445708 129.0899528  73.7723813  76.3994318 128.1373364  73.6966290
  75.5336910 129.2458967  74.2565111  74.2838068 127.7076588  71.5314192
  73.4705934 128.0070758  71.9379384  74.7797063 127.3132277  72.2488674
  79.8812280 128.1718412  80.3629086  80.2361668 128.3989885  81.2223552
  80.5284411 128.5036789  79.7406341  73.7752143 125.2794943  77.1475427
  74.4151522 125.1383702  76.4498390  72.9429674 124.9929457  76.7714029
  70.8595210 128.7240456  69.3370172  69.9292799 128.6624911  69.5540134
  70.9552682 128.2016408  68.5406813  70.7780760 125.2495268  71.9248414
  71.0387577 126.1640602  71.8157574  71.5997932 124.7819711  72.0745027
  72.2505685 126.6633026  79.0947238  72.9228738 126.4550388  78.4459887
  71.4235471 126.4655112  78.6552471  78.1531257 123.2894966  81.1112899
  77.5059172 123.9884916  81.0177376  78.9232272 123.7231110  81.4789147
  78.3295391 131.1275731  79.1709719  79.2587451 131.2786891  78.9978686
  77.9086421 131.2159752  78.3158365  72.6533182 129.9375628  79.8549675
  72.5152980 129.2055867  80.4561214  73.5638106 129.8484529  79.5733863
  81.6148130 131.8764033  64.6034154  80.9977300 131.1510861  64.5067207
  81.1464618 132.6373393  64.2601228  75.2815483 129.6495588  79.3433355
  75.9915101 129.0088780  79.3019973  75.2384791 129.9008483  80.2659536
  73.9944417 126.6360806  81.1628995  73.4581774 126.1851544  81.8150591
  73.4061125 126.7706715  80.4199459  73.4046676 126.0949457  63.7255458
  72.5276142 125.9738258  63.3617705  73.8804429 125.3035535  63.4734347
  69.7283538 125.7716813  78.2481989  69.6441727 125.1642483  77.5132399
  68.9066244 126.2625832  78.2491485  79.9007252 124.2570377  73.6152184
  80.3975951 123.5040339  73.2953254  79.1294233 124.2934694  73.0495393
  76.4842221 126.3987760  73.3423869  76.1140008 125.8458800  74.0304774
  76.9801313 125.7945893  72.7898869  84.3709584 128.8559383  71.7240642
  84.8370036 129.6887375  71.6500944  84.8217084 128.3904365  72.4285900
  82.3426247 121.2239970  75.7631543  81.4289326 121.4544197  75.9313750
  82.7719348 121.3078414  76.6145575  82.1132705 129.4129862  78.2631437
  81.4604155 129.6605770  77.6083890  82.4913085 128.5994001  77.9293914
  78.1620278 130.1549673  84.7497474  77.4860915 130.0543803  85.4199849
  78.9847912 129.9988887  85.2133471  71.8807554 123.8091751  79.5876975
  71.9448881 124.6706582  79.1754372  71.8174675 123.1965752  78.8549333
  71.3559827 125.8814883  83.2350009  71.9831866 125.4991961  83.8487533
  70.4987746 125.6629085  83.6005701  68.1325370 127.6891312  69.1668364
  68.4278811 126.7801991  69.1135418  67.2313405 127.6679052  68.8449366
  71.6619617 125.7647309  75.1495912  70.9406202 126.3783277  75.0103386
  72.4512872 126.3005074  75.0712558  74.4645930 123.1001735  81.4236564
  74.9880332 123.3464032  82.1862873  74.2458263 123.9321770  81.0039702
  69.8613211 125.3705410  69.2907689  69.5325917 124.4902789  69.1082795
  70.2152582 125.3153079  70.1784078  72.9755034 125.6578380  69.6583167
  73.3151107 126.1864301  68.9361775  73.4227155 125.9958786  70.4341733
  75.6698475 124.0415431  79.1086235  75.3295295 123.2423244  79.5106915
  74.9637481 124.3417141  78.5363068  76.3214947 121.1264743  77.5613558
  77.1441016 120.6525221  77.4392448  76.5653010 121.9055227  78.0612244
  74.9623181 124.1553001  67.8576459  75.6831544 124.5334254  67.3540176
  74.3388486 124.8741878  67.9611437  79.1054304 124.8598150  68.7934792
  79.3217919 125.7422788  68.4923620  78.6248371 124.4684364  68.0640434
  73.8453526 127.8183864  75.3705536  73.6998106 128.1324167  76.2629818
  73.3678729 128.4368764  74.8176435  75.7049909 124.8086412  75.4186426
  75.6911477 123.9127505  75.0818724  76.4222337 124.8157075  76.0524712
  77.5576039 125.2423752  77.4639553  77.2993817 126.1640822  77.4623884
  77.0261080 124.8454186  78.1540017  75.1086805 123.6900792  70.6873996
  75.2302716 122.7617438  70.8864884  74.8188847 123.7039478  69.7752311
  77.9777995 121.3755702  73.8240716  77.9999692 121.4395035  72.8692695
  78.3946054 120.5360211  74.0181222  74.5927884 125.2032789  84.8963929
  74.6416040 126.0794912  84.5141698  75.1350398 124.6610182  84.3235572
  82.4884367 128.5797307  82.8057101  83.3894230 128.4403772  82.5141099
  82.5632342 128.7451762  83.7455278  76.8227172 125.9564162  81.6510287
  75.9530482 126.2497728  81.3792876  77.0586653 126.5404607  82.3717551
  84.9485990 130.1395935  80.2019874  85.4240111 130.3323581  79.3938725
  84.0251555 130.1955121  79.9563257  79.5266206 122.1743779  79.1675708
  80.0448150 122.9104805  78.8422196  79.1721339 122.4807772  80.0022467
  71.1065144 127.0348460  67.2837114  70.4134389 127.1092815  66.6277149
  70.8616896 126.2708803  67.8058630  79.7778800 118.5944061  74.6876604
  80.0580554 117.9267250  75.3137031  80.5629407 118.7873157  74.1751268
  83.6487659 127.0161695  78.4348179  84.6005082 127.1159793  78.4560403
  83.4791109 126.2239964  78.9446264  81.6702038 124.1017278  78.6207580
  81.0751970 124.3822291  77.9254069  81.3851735 124.5911179  79.3924321
  77.9659067 129.1063868  63.5917683  78.9118172 128.9770076  63.6606101
  77.5873312 128.3678530  64.0687111  86.2770225 127.0278858  77.5948762
  85.7609274 126.2437315  77.4078691  87.1610174 126.6997575  77.7595282
  83.9380952 120.7719874  73.5544575  83.7405773 120.4634962  74.4387907
  84.5480658 121.4981513  73.6842505  76.1501985 127.0313844  63.5272568
  75.2433440 126.7346957  63.6035282  76.4277966 126.7343662  62.6606855
  77.7664050 121.5750734  69.6816810  76.9564779 121.2297819  70.0572056
  78.4548467 121.2658278  70.2704421  79.6954599 120.6528781  71.3041106
  80.2485637 121.0724234  71.9631129  79.9324685 119.7264529  71.3464062
  75.7187698 126.6415854  87.0843870  75.6184425 127.5910211  87.0155961
  75.5009240 126.3134093  86.2119940  74.9200769 123.8900779  63.6684547
  75.7819933 124.2155678  63.9280365  75.1051113 123.1032275  63.1557613
  83.0733406 122.7629306  70.8119770  82.4932075 123.4214110  70.4297823
  82.8069338 121.9406650  70.4007188  81.5236972 122.1634364  73.0141091
  82.0236750 122.2750898  72.2055410  82.1672580 121.8595416  73.6541899
  75.5818968 130.0712993  85.9008932  75.0986050 130.8713353  86.1072821
  75.6679907 130.0820938  84.9476376  81.8558284 124.9229396  69.8676119
  80.9684139 125.2079047  69.6496314  82.2712273 124.7623160  69.0203396
  85.2072820 124.9475917  73.5830458  85.9833210 125.4372370  73.8555075
  84.4820954 125.3733971  74.0402328  87.6445379 125.6603536  74.6404399
  88.2389869 125.4199272  73.9297707  87.7171962 124.9410667  75.2677935
  81.8299308 130.4383932  70.0826409  81.7734509 130.8952484  69.2434041
  82.3827650 129.6774617  69.9049252  85.6404113 126.2273664  70.9076528
  85.3841048 125.8270300  71.7384736  85.0156981 126.9417458  70.7826668
  82.5634087 131.6288713  67.3778938  82.5082891 131.4632985  66.4367382
  81.9380142 132.3364746  67.5341128  67.3526602 126.8656778  81.2040360
  67.9985465 126.3555732  81.6927585  67.1443753 127.6025459  81.7783786
  75.8730212 121.1296822  66.9564256  75.8608882 122.0738662  67.1132527
  76.7653634 120.9466968  66.6623718  79.6882332 117.7239599  71.2110193
  78.9214728 117.1698086  71.3566876  80.0993037 117.7961468  72.0724345
  71.6924093 124.0124395  85.3015375  72.5555554 123.6561200  85.5118699
  71.1189503 123.6738290  85.9890779  15.6616190  15.3444950  62.8323082
  16.2994600  15.2251697  62.1286422  15.5437032  16.2925794  62.8911034
  12.4705896  15.2972378  62.7684607  12.1324407  15.1813443  61.8805142
  13.3395664  14.8963543  62.7485613   8.3292712  17.1507855  58.7581498
   7.7657577  17.0597791  57.9897786   8.2145107  16.3307759  59.2383990
  12.9525679  16.4507230  68.7270812  12.9414320  16.0560028  67.8551316
  13.1146318  15.7173302  69.3204584   5.8757143  18.6459046  61.5965718
   6.6678435  18.3049871  61.1812018   6.1153794  18.7554021  62.5167872
  13.9092270  20.8178822  54.0695963  13.2580250  21.4032903  53.6829977
  14.7036633  21.3485017  54.1291000   7.8347897  17.9067959  54.4683097
   8.6078773  17.3596946  54.3295973   8.1873296  18.7712209  54.6797558
   9.6732940  19.2344342  67.6749996   9.3822806  20.1389973  67.5596663
  10.3089924  19.2760869  68.3894066  10.5989147  16.6121190  64.2651356
  11.1952719  16.3877213  63.5508319  10.6564118  15.8705936  64.8676804
  10.1714175  14.0660626  52.1001547  10.4239696  13.5442147  51.3385010
   9.2338734  13.9026771  52.2028231  15.2157458  13.0696404  59.9076290
  16.0020547  12.6515827  59.5566707  15.4796162  13.9742496  60.0757939
  15.3867535  18.5069254  54.6064947  14.7513368  18.5803881  55.3185852
  15.0564942  19.0962853  53.9284026  20.6165885  13.0071637  60.8109269
  21.3491057  12.4370854  61.0447098  19.8605241  12.6193238  61.2515774
   9.8910464  15.9688731  54.3025922   9.7746722  15.2933635  54.9707006
  10.0012724  15.4821105  53.4858075  12.2342005  15.4298879  58.0072611
  11.8700212  14.9029500  58.7185533  13.0909121  15.0397348  57.8339097
  18.1391306   6.7193211  65.2703877  17.8074630   7.5888622  65.0465092
  17.5436919   6.4029495  65.9497908  11.8747492  10.4588778  53.0033960
  12.0421894  11.3269015  53.3704431  11.6844661  10.6216060  52.0795249
  14.6322825  18.9205757  64.6699790  14.3323548  19.8230796  64.5615597
  14.2873885  18.6537940  65.5220943   8.0835307  15.3719554  60.7036494
   7.1585803  15.2395768  60.9114186   8.3319720  16.1513773  61.2006437
  18.0319969  11.4388297  62.3497227  17.1236846  11.3703706  62.0555988
  17.9807565  11.9160242  63.1779053  11.8536713  12.9146436  53.9880627
  11.7336338  13.3603487  54.8266107  11.1589301  13.2631753  53.4294165
   5.4444118  15.0152828  61.5380284   5.5736499  15.2687307  62.4519695
   4.7641569  15.6080536  61.2184939   9.6143605  25.6850078  57.6370758
   9.5367635  26.6357903  57.7159238   9.0105248  25.3395950  58.2945684
  12.1060835  12.8577943  70.2932125  11.3294169  13.4171863  70.2834989
  12.7451398  13.3434726  70.8146995  19.8981615   9.6404736  64.1275101
  19.2555995   9.9337269  63.4814896  19.3936544   9.5257656  64.9328298
  17.5521779  13.3867909  54.8160961  18.4639635  13.6195296  54.6408658
  17.0431426  13.9704953  54.2536039  10.3607207  15.6663396  69.8550092
  11.1021891  16.2048440  69.5784915   9.6544192  16.2929685  70.0121643
  15.8362547  17.8092537  68.4522253  16.2445903  17.3674947  67.7076886
  15.1139808  17.2345164  68.7056446  12.1893617  12.7465144  65.8255810
  13.0354812  13.1704557  65.9690459  12.1292254  12.0898768  66.5194373
  16.1591361  18.3693727  62.2074542  15.5300224  18.5339442  61.5050610
  15.7717023  18.7835337  62.9785506  20.0380593  19.3048165  59.5618906
  19.3531631  19.6847067  59.0115939  20.1224442  19.9143492  60.2950854
  15.3393062  10.4069512  67.4836984  15.0953994  11.1611572  66.9471259
  15.6152992  10.7854860  68.3184231  17.2931525  16.9508124  66.1614249
  17.5048420  17.5939884  65.4848630  17.2461273  16.1170441  65.6936179
  14.8957754   9.5625945  63.0650821  14.0342233   9.8607199  63.3567559
  14.9220188   9.7796344  62.1331854  11.7119323  18.1068136  59.4724627
  12.1757669  18.3855838  58.6829250  11.4476121  17.2051580  59.2897718
   8.6043404  17.6539617  62.4104390   9.1744761  18.0826885  61.7721875
   9.1951516  17.3722202  63.1088576  10.6488209  14.2291288  56.2814192
  11.3512252  14.6812332  56.7488119  10.3168838  13.5875107  56.9094085
   9.0968571  12.8203044  70.6565402   8.4667231  13.5019325  70.8900798
   8.9904659  12.7086126  69.7118540  18.4077353  19.8280080  64.3336607
  19.2294796  19.4260267  64.0519288  18.4039756  19.7248314  65.2852722
  12.1733956  19.3764123  66.4897317  12.2378389  19.8384530  67.3255489
  11.4644880  18.7461488  66.6179627  26.4983346  16.1718828  60.6821578
  25.7447054  15.6026226  60.5265583  26.6330887  16.1381493  61.6292213
  11.8881974  21.0432230  56.3576297  11.7527649  21.8883766  56.7861145
  12.4291786  21.2451508  55.5942231   5.3411371  18.5607669  56.9304223
   5.8535892  19.3550919  57.0809787   5.9934084  17.8633959  56.8637824
   7.1506256  21.6773425  59.0126976   7.3272884  22.5991390  58.8247960
   7.9463089  21.3631844  59.4421356  13.5150450  21.6655797  70.4876640
  13.0714304  20.8792176  70.1697544  14.1767664  21.8534948  69.8220530
   8.2737571  23.1951599  65.0137318   8.8244996  23.0668662  64.2414312
   7.4349047  23.4946488  64.6632211  15.6131688  21.9458597  68.5158041
  15.5950164  22.7667478  68.0238310  16.5351608  21.8212672  68.7408182
  12.0704742  19.4602726  69.3581549  12.6033079  18.6991015  69.1280857
  11.5418823  19.1676378  70.1005704  15.2024720  14.5571403  53.3947626
  14.6871343  15.3276008  53.6336013  14.9302029  13.8836540  54.0180688
  20.1758994  17.3103758  55.3300800  19.3988437  16.9714918  54.8855962
  20.8550475  17.3156381  54.6555765  14.9911023  12.4298496  55.2207407
  14.6861159  12.7444645  56.0717550  15.9441465  12.5079915  55.2634740
  13.4357455  18.5888719  56.8700361  12.9078817  17.8541478  56.5573599
  12.9344958  19.3663395  56.6240330  18.4150301  16.7837739  61.9867408
  17.7573976  17.4737001  62.0747536  19.2190700  17.1734171  62.3301394
  17.2255760  15.1382112  60.0371349  17.7387642  15.7712104  60.5393059
  17.8756984  14.5383308  59.6714709  11.5810055  16.4068929  49.8735334
  10.6737117  16.1758183  50.0726483  12.0781087  15.6106548  50.0609316
  14.4878134  25.1166436  52.7932020  13.8139833  25.4198133  53.4016978
  14.8743956  25.9195517  52.4437477  13.7036591  12.6131568  62.2829690
  12.7859152  12.8346515  62.1251378  14.1196734  12.6877878  61.4241397
  14.4871639  14.0122983  57.4132370  15.2343457  14.5244381  57.1039492
  14.7563228  13.6907036  58.2736764  12.7598289  16.5081524  54.3959324
  11.8509508  16.2240557  54.4931794  12.7893372  16.9280603  53.5362631
  17.9917556  20.1188114  58.1650492  17.5379883  19.2779023  58.2215682
  17.3611523  20.7549512  58.5025272  16.9350476  11.0480100  59.3951159
  16.1973232  10.5357486  59.7261402  17.1877249  10.6080481  58.5834436
  16.4350495  21.9564610  59.1000310  16.7273470  22.5169667  58.3812676
  16.9449116  22.2493171  59.8553469  11.3083183  14.1210145  60.4969120
  11.3631793  13.1683981  60.4211596  10.4974385  14.2769584  60.9810418
  12.4574376  18.0490268  51.7347403  12.0193806  17.3326127  51.2753040
  13.1984817  18.2766383  51.1732494   9.2475543  12.7387204  58.2559499
   8.4343408  13.0381375  58.6624691   9.7434537  12.3442893  58.9733981
  11.3984121  22.7344961  60.1893763  11.3560299  22.9605808  59.2602295
  12.3146819  22.5008336  60.3379564  14.8449754  13.2029029  67.0874392
  15.1999142  13.4300502  67.9468858  15.4921886  13.5347406  66.4651648
  20.5747491  16.3247465  57.7923721  20.4365390  16.5149061  56.8644911
  20.2183710  17.0866848  58.2491773  20.6016871  18.3923992  62.8034993
  21.0353378  18.2999281  63.6518047  21.3148452  18.3681492  62.1655009
   9.5149921  19.6107990  59.9855726  10.3090520  19.1158310  59.7838301
   8.8041614  19.0825853  59.6223432  14.3344766  21.9926086  64.3368094
  14.3881788  22.5617022  65.1045809  13.4659547  22.1627971  63.9722131
  21.4632420  18.4347692  65.3367878  21.6568311  19.3393503  65.5827153
  21.3633039  17.9755111  66.1706463  16.5247529  18.5854435  70.9108759
  16.3733036  18.3564987  69.9938843  16.5152209  19.5425037  70.9240104
  13.2932866  16.1586348  65.8955025  14.2224926  16.3097507  65.7223993
  12.8723896  16.2470369  65.0403672  12.0921197  20.1837012  63.6653563
  11.9532283  19.8155797  64.5379501  11.3035794  20.6984652  63.4937521
  12.6869349  25.2846109  55.0079100  12.8621105  24.8134152  55.8224722
  12.0002137  25.9111875  55.2360360  13.6426412  19.5618615  61.0542401
  13.3076245  19.5219385  61.9500051  13.1430358  18.8963331  60.5812811
   7.6170656  14.9686245  66.5794982   7.4790454  14.2366484  67.1806521
   8.5275580  14.8795145  66.2979170  16.5785604  16.9074649  51.3279461
  15.9614775  16.1821478  51.2312513  16.1102093  17.6684010  50.9846535
  10.2452957  14.6806204  66.0678662  10.9552576  14.0399397  66.0265280
  10.2022265  14.9319099  66.9904842  18.2339736  21.6173558  68.9885241
  18.1752282  20.9332778  68.3215824  18.6359254  22.3592548  68.5365867
   7.2530435  28.4335472  61.7818960   7.4927033  29.0653996  62.4597978
   6.4099631  28.0823512  62.0684319  18.2357143  19.5813142  67.2199221
  17.3483922  19.2439063  67.3425619  18.8055694  18.8496173  67.4567986
  11.7658296  24.2414594  64.1860464  11.6928468  25.0469565  64.6979768
  11.3235690  24.4406560  63.3608485  11.5548076  23.4786364  57.6963285
  10.7715598  24.0208044  57.7901510  12.2540821  23.9960344  58.0957526
  14.8644726   9.2880993  60.3397491  15.3613426   8.5350956  60.0198561
  14.0931708   9.3245310  59.7740700  22.7174484  14.9921359  61.9815782
  22.7064360  15.8746074  61.6109715  21.8491863  14.6392910  61.7870319
  14.2256980  24.1401428  66.3418622  14.9384952  24.7748893  66.2694524
  13.7347009  24.2365294  65.5258624  15.9474507  18.0452681  57.9135914
  15.0130786  18.1654143  57.7440618  16.1251175  17.1425147  57.6495924
  11.4479695  11.4298376  60.0669175  11.0777482  10.8769417  60.7550081
  11.9438787  10.8256510  59.5144175  19.3347058  13.8870000  58.4485948
  19.8007510  14.7197992  58.3746251  19.7854559  13.4214982  59.1531207
   9.2768893  21.8895871  67.1624193   9.9778353  22.5232354  67.3153587
   8.8064008  22.2310603  66.4019832  17.4023289  20.2313821  55.4472100
  17.6783133  20.1170416  56.3565974  16.5327788  19.8331306  55.4084273
  17.0770179  14.4440479  64.9876744  16.4241630  14.6916386  64.3329196
  17.4550559  13.6304617  64.6539221  14.0377353  24.4800172  59.0904914
  14.2199748  23.6621828  59.5532666  14.8610339  24.6967864  58.6529804
  14.3719519  23.4068357  56.3519962  14.9007285  22.8960812  55.7390124
  14.6347738  23.0910887  57.2165495  13.1257752  15.1860290  71.4742781
  12.4498389  15.0854419  72.1445156  13.9485386  15.0299504  71.9378778
   4.8736612  21.4232227  64.0955296   5.4590048  20.6775914  64.2283200
   4.6761450  21.7336183  64.9791960   7.7275267  24.4583474  59.1117738
   7.0585642  24.9429602  58.6281778   7.5888136  24.7052694  60.0261117
  11.8680535  26.4927217  65.7100397  12.4198843  26.6558839  66.4749482
  12.2086729  27.0831655  65.0380422  16.7191410  21.3188475  71.5649051
  17.2631314  21.9318433  71.0704006  16.1378255  21.8768053  72.0816064
  15.0048923  24.4409193  62.6964079  14.8800062  23.6398933  62.1875024
  15.6628014  24.9355386  62.2078049  17.0683831  22.2418213  64.3243629
  16.1214167  22.1223564  64.2521956  17.4166604  21.3540711  64.4069890
  14.0730264  22.0370929  60.5247981  13.9255227  21.1087637  60.7055551
  14.8983758  22.0591020  60.0405056  17.6764386  22.8599488  61.6112854
  18.6010934  22.6542349  61.4737305  17.5079690  22.6115889  62.5202195
  14.0691779   9.8908767  55.5180098  14.2855393  10.7733405  55.2168927
  13.5885846   9.4994980  54.7885740   8.8091000  12.8494480  62.0950843
   8.6635581  13.1634783  62.9875124   8.3316204  13.4679380  61.5421742
  17.4659702  23.3785155  56.9674945  17.6396580  22.8131578  56.2148798
  17.9588594  24.1786050  56.7854435  23.3199094  16.1421578  58.5865245
  23.7630240  15.3928904  58.1884368  22.4425604  16.1331715  58.2038977
  18.4534875  22.6951920  54.0671844  19.1485779  23.3158613  54.2859158
  18.7958025  21.8447271  54.3424222  20.3526298  20.1451625  55.5959174
  20.8777622  20.4838898  54.8708494  20.2648651  19.2098641  55.4122309
  12.0146347  24.0585699  67.7249051  12.3233473  23.8134846  68.5971751
  12.8121829  24.2632337  67.2367921  12.0366959  26.2123609  59.9554428
  11.5971949  25.7199987  60.6487284  12.7875076  25.6696576  59.7146503
   4.5159298  22.4035150  59.9579056   5.3417318  22.1038921  59.5777699
   4.1653350  21.6342772  60.4068844   9.4840831  21.7561618  62.0276729
   8.8620840  21.0932323  61.7278957  10.1545698  21.7822750  61.3450377
   2.7167903  20.3221476  60.9167989   1.8799811  19.8943650  60.7351990
   2.6891548  20.5153919  61.8538780  20.0420204  20.7784529  70.9010372
  19.2515748  20.7608668  70.3614872  19.8053559  21.3172823  71.6559409
  20.1618079  17.6276995  68.2143101  20.2116084  17.4627003  69.1558624
  20.0532002  16.7604254  67.8240982   9.0454338  20.3065541  55.5035190
   9.1942458  20.9901005  54.8501863   9.8520781  20.2870631  56.0184646
  17.4521841  13.6107923  69.5302408  18.3531704  13.4714388  69.2386405
  17.5269816  13.7762378  70.4700585  11.7864647  10.9874778  68.3755594
  10.9167956  11.2808344  68.1038182  12.0224127  11.5715223  69.0962858
  21.6636276  20.0473937  68.4585122  21.3721084  20.4103917  69.2948583
  21.0508407  19.3340945  68.2798454  22.8631958  17.6126817  60.9787693
  23.6978850  18.0516621  61.1425253  22.9991087  17.1365470  60.1595938
  19.9123464  15.1706552  66.9265180  20.3877586  15.3634198  66.1184032
  18.9889030  15.2265737  66.6808564   6.8006971  16.3330719  56.5096259
   6.5553013  15.4293049  56.7076469   6.9702885  16.3347869  55.5675737
  12.5449743  22.8013672  52.9746937  11.9723710  23.4203859  52.5217409
  13.1182537  23.3513033  53.5086859  18.6125133  12.0472312  65.1593486
  19.5642556  12.1470409  65.1805710  18.4428584  11.2550580  65.6691570
  16.6339513   9.1327895  65.3452887  16.0389445   9.4132908  64.6499376
  16.3489209   9.6221796  66.1169628  15.7647003  23.0850822  54.1055519
  16.6977676  23.0196383  54.3088395  15.6770216  23.9207089  53.6470052
  18.3935020  22.4016692  51.0659467  18.3148651  22.0676556  51.9595225
  19.2144687  22.8938460  51.0650939  21.0913211  15.2678431  64.2735786
  21.0589531  14.3294432  64.4595469  21.7013835  15.3462468  63.5401611
  12.9296542  14.1374484  50.3162990  13.8755647  14.0080692  50.3851408
  12.5510787  13.3989146  50.7932418  21.2407699  12.0589475  64.3194069
  20.7246748  11.2747931  64.1323998  22.1247648  11.7308191  64.4840588
  18.9018426   5.8030490  60.2789882  18.7043247   5.4945578  61.1633213
  19.5118132   6.5292129  60.4087811  26.9089761  16.3294438  63.4141822
  27.6393149  16.0679726  63.9749526  26.2996706  15.5923160  63.4543890
  24.9905058  14.4702301  64.0116274  24.2638222  14.3358266  63.4032765
  24.5752345  14.7779129  64.8172992  12.8135234  18.1892230  71.7763647
  13.7338244  18.3670829  71.9703693  12.7784817  17.2448276  71.6243346
  11.1139459  12.0624461  50.2517875  10.2070914  11.7657573  50.3280589
  11.3915440  11.7654279  49.3852161   5.8097307  16.0993265  64.4186428
   6.0283317  17.0310373  64.4374462   6.2223081  15.7401239  65.2041232
  10.6825172  11.6726471  73.8089177  10.5821899  12.6220828  73.7401268
  10.4646714  11.3444710  72.9365247  18.0370880   7.7939922  57.5365077
  17.4569549   8.4524726  57.1543130  17.7706813   6.9717267  57.1252495
  16.4874446   7.1944980  59.7386397  16.9874225   7.3061515  58.9300716
  17.1310054   6.8906033  60.3787206  10.5456442  15.1023610  72.6254238
  10.0623524  15.9023970  72.8318127  10.6317381  15.1131555  71.6721682
   3.8142402  16.9351989  60.5476058   3.7913090  17.0339677  59.5957941
   4.1243038  17.7817140  60.8693224   6.4729780  18.9928144  64.6622672
   7.4273033  18.9612087  64.5952604   6.2742303  18.5318768  65.4772898
   7.0629162  17.5629260  67.2293470   7.8822051  18.0573339  67.2528307
   7.3365970  16.6461229  67.2011037  16.8195758   9.9540013  56.5921425
  15.9321613  10.2389663  56.3741620  17.2349747   9.7933776  55.7448702
  20.1710294   9.9786534  60.3075765  20.9470684  10.4682986  60.5800381
  19.4458428  10.4044588  60.7647634  22.6082853  10.6914153  61.3649705
  23.2027344  10.4509889  60.6543013  22.6809437   9.9721283  61.9923242
   4.8280009  24.5347764  61.6792870   4.6934476  23.7748165  61.1130868
   4.4112071  25.2588664  61.2121659  15.9638972  19.7184687  50.6869445
  16.6674822  19.9234690  51.3027101  15.2401620  20.2861449  50.9518529
  16.7936782  15.4694549  56.8071716  16.7371983  15.9263100  55.9679348
  17.3465124  14.7085233  56.6294558  20.6041588  11.2584281  57.6321835
  20.3478522  10.8580916  58.4630043  19.9794456  11.9728074  57.5071974
  24.9153926  13.9980354  60.1393126  24.3553484  14.0673543  60.9124689
  24.3097429  13.8221338  59.4192623   7.9849134  25.4317081  61.8911313
   7.8681519  26.3762513  61.7890003   7.1641581  25.1290642  62.2797112
  17.8725669  20.1567217  52.7367905  18.7071273  19.7248415  52.5545380
  17.7110012  19.9849230  53.6644800  17.5271561  16.6599330  54.1024245
  17.4720365  16.4943601  53.1612689  16.9017616  17.3675363  54.2586434
  14.8417468  18.9648242  73.4277807  15.7108628  19.1388894  73.0664442
  14.3624220  19.7842659  73.3053537   9.0103649  26.0845343  65.1067241
   9.9130895  26.1168953  65.4233736   8.7841019  25.1545794  65.1213577
  10.7657251  24.8376329  61.7677320   9.8152882  24.8378191  61.6541692
  11.0689737  24.0909064  61.2513354  26.5009944  30.6736868  62.8323082
  27.1388354  30.5543615  62.1286422  26.3830787  31.6217712  62.8911034
  23.3099650  30.6264296  62.7684607  22.9718162  30.5105361  61.8805142
  24.1789419  30.2255461  62.7485613  19.1686466  32.4799772  58.7581498
  18.6051331  32.3889709  57.9897786  19.0538861  31.6599677  59.2383990
  23.7919433  31.7799148  68.7270812  23.7808074  31.3851946  67.8551316
  23.9540073  31.0465220  69.3204584  16.7150898  33.9750964  61.5965718
  17.5072190  33.6341788  61.1812018  16.9547548  34.0845939  62.5167872
  24.7486025  36.1470740  54.0695963  24.0974004  36.7324820  53.6829977
  25.5430388  36.6776935  54.1291000  18.6741652  33.2359877  54.4683097
  19.4472528  32.6888864  54.3295973  19.0267051  34.1004126  54.6797558
  20.5126694  34.5636259  67.6749996  20.2216560  35.4681890  67.5596663
  21.1483679  34.6052787  68.3894066  21.4382901  31.9413108  64.2651356
  22.0346474  31.7169130  63.5508319  21.4957873  31.1997853  64.8676804
  21.0107930  29.3952543  52.1001547  21.2633450  28.8734064  51.3385010
  20.0732489  29.2318689  52.2028231  26.0551213  28.3988322  59.9076290
  26.8414302  27.9807745  59.5566707  26.3189917  29.3034414  60.0757939
  26.2261290  33.8361172  54.6064947  25.5907123  33.9095798  55.3185852
  25.8958696  34.4254771  53.9284026  31.4559640  28.3363555  60.8109269
  32.1884812  27.7662772  61.0447098  30.6998995  27.9485155  61.2515774
  20.7304218  31.2980649  54.3025922  20.6140477  30.6225553  54.9707006
  20.8406478  30.8113023  53.4858075  23.0735759  30.7590796  58.0072611
  22.7093967  30.2321417  58.7185533  23.9302875  30.3689265  57.8339097
  28.9785060  22.0485129  65.2703877  28.6468385  22.9180540  65.0465092
  28.3830673  21.7321413  65.9497908  22.7141246  25.7880696  53.0033960
  22.8815649  26.6560932  53.3704431  22.5238415  25.9507978  52.0795249
  25.4716580  34.2497675  64.6699790  25.1717303  35.1522714  64.5615597
  25.1267639  33.9829858  65.5220943  18.9229061  30.7011472  60.7036494
  17.9979557  30.5687686  60.9114186  19.1713474  31.4805691  61.2006437
  28.8713723  26.7680215  62.3497227  27.9630601  26.6995623  62.0555988
  28.8201319  27.2452160  63.1779053  22.6930467  28.2438353  53.9880627
  22.5730092  28.6895404  54.8266107  21.9983056  28.5923671  53.4294165
  16.2837872  30.3444745  61.5380284  16.4130253  30.5979224  62.4519695
  15.6035323  30.9372453  61.2184939  20.4537359  41.0141995  57.6370758
  20.3761389  41.9649820  57.7159238  19.8499003  40.6687868  58.2945684
  22.9454589  28.1869861  70.2932125  22.1687923  28.7463781  70.2834989
  23.5845152  28.6726644  70.8146995  30.7375370  24.9696653  64.1275101
  30.0949750  25.2629187  63.4814896  30.2330298  24.8549574  64.9328298
  28.3915533  28.7159827  54.8160961  29.3033390  28.9487213  54.6408658
  27.8825180  29.2996871  54.2536039  21.2000961  30.9955314  69.8550092
  21.9415646  31.5340358  69.5784915  20.4937947  31.6221603  70.0121643
  26.6756301  33.1384454  68.4522253  27.0839657  32.6966865  67.7076886
  25.9533563  32.5637082  68.7056446  23.0287371  28.0757061  65.8255810
  23.8748566  28.4996475  65.9690459  22.9686009  27.4190686  66.5194373
  26.9985116  33.6985645  62.2074542  26.3693978  33.8631359  61.5050610
  26.6110778  34.1127255  62.9785506  30.8774348  34.6340083  59.5618906
  30.1925386  35.0138984  59.0115939  30.9618197  35.2435410  60.2950854
  26.1786816  25.7361430  67.4836984  25.9347748  26.4903490  66.9471259
  26.4546747  26.1146777  68.3184231  28.1325279  32.2800042  66.1614249
  28.3442174  32.9231802  65.4848630  28.0855027  31.4462359  65.6936179
  25.7351508  24.8917863  63.0650821  24.8735987  25.1899116  63.3567559
  25.7613943  25.1088262  62.1331854  22.5513078  33.4360053  59.4724627
  23.0151423  33.7147756  58.6829250  22.2869876  32.5343498  59.2897718
  19.4437159  32.9831535  62.4104390  20.0138516  33.4118803  61.7721875
  20.0345270  32.7014119  63.1088576  21.4881964  29.5583206  56.2814192
  22.1906007  30.0104249  56.7488119  21.1562592  28.9167024  56.9094085
  19.9362325  28.1494962  70.6565402  19.3060986  28.8311243  70.8900798
  19.8298413  28.0378044  69.7118540  15.2307298  27.8166758  61.5831326
  14.4406352  28.0724287  61.1071436  15.7218545  28.6315096  61.6883366
  29.2471107  35.1571997  64.3336607  30.0688551  34.7552185  64.0519288
  29.2433510  35.0540232  65.2852722  17.1822043  28.1811337  58.5414803
  16.3853206  28.2930032  59.0598298  16.9547635  28.5197990  57.6755693
  23.0127711  34.7056041  66.4897317  23.0772143  35.1676448  67.3255489
  22.3038634  34.0753406  66.6179627  13.5145001  28.0697249  64.0146317
  13.7653039  28.9544259  64.2803893  14.0504549  27.8901850  63.2421408
  37.3377100  31.5010746  60.6821578  36.5840809  30.9318144  60.5265583
  37.4724641  31.4673410  61.6292213  22.7275728  36.3724148  56.3576297
  22.5921403  37.2175684  56.7861145  23.2685541  36.5743426  55.5942231
  19.2143068  22.4515728  73.0190653  18.8210013  21.8981927  73.6938297
  20.0309208  22.7626306  73.4097170  16.1805126  33.8899586  56.9304223
  16.6929646  34.6842836  57.0809787  16.8327838  33.1925877  56.8637824
  17.9900010  37.0065342  59.0126976  18.1666639  37.9283307  58.8247960
  18.7856844  36.6923762  59.4421356  22.1311029  23.8673607  70.6110909
  22.8720742  24.4680760  70.5315372  22.3628952  23.1251245  70.0528952
  17.2752367  29.0529974  68.8889139  17.1605882  28.1515232  69.1896238
  16.4196885  29.2993671  68.5373955  24.3544205  36.9947715  70.4876640
  23.9108059  36.2084093  70.1697544  25.0161418  37.1826865  69.8220530
  19.1131326  38.5243516  65.0137318  19.6638751  38.3960580  64.2414312
  18.2742802  38.8238405  64.6632211  26.4525443  37.2750515  68.5158041
  26.4343918  38.0959396  68.0238310  27.3745363  37.1504590  68.7408182
  22.9098497  34.7894644  69.3581549  23.4426834  34.0282932  69.1280857
  22.3812578  34.4968296  70.1005704  26.0768192  19.8954710  64.8875191
  25.7332461  20.7856352  64.8114302  26.4447154  19.7056368  64.0244776
  14.1454042  32.2188241  57.7063793  14.9829264  32.6285249  57.4897501
  14.3232310  31.2787683  57.6763987  26.0418475  29.8863321  53.3947626
  25.5265098  30.6567926  53.6336013  25.7695783  29.2128457  54.0180688
  23.6265586  24.7313022  58.4532864  22.7707182  24.3419872  58.2738503
  24.0392537  24.8104983  57.5932650  25.1564732  22.2659365  62.8524424
  24.6529528  22.2289500  62.0392229  25.4495339  23.1752108  62.9121081
  21.4007618  22.3498095  61.8590606  22.2660615  22.1540904  61.4996495
  21.4685127  22.1208447  62.7859963  31.0152749  32.6395676  55.3300800
  30.2382191  32.3006835  54.8855962  31.6944230  32.6448299  54.6555765
  25.8304778  27.7590413  55.2207407  25.5254913  28.0736562  56.0717550
  26.7835220  27.8371833  55.2634740  24.2751210  33.9180637  56.8700361
  23.7472571  33.1833396  56.5573599  23.7738712  34.6955313  56.6240330
  29.2544056  32.1129657  61.9867408  28.5967730  32.8028918  62.0747536
  30.0584455  32.5026089  62.3301394  19.0069937  24.5800303  59.2306973
  19.5813689  24.3575484  58.4980166  19.5940920  24.6488997  59.9835574
  28.0649514  30.4674030  60.0371349  28.5781396  31.1004022  60.5393059
  28.7150738  29.8675225  59.6714709  19.3339524  26.6104764  53.2502858
  18.4976837  26.9479450  53.5712133  19.1944294  26.4753744  52.3129995
  21.3092605  21.4541552  57.9582042  20.6557017  21.1390569  57.3338657
  21.2673079  20.8317292  58.6841865  22.4203810  31.7360847  49.8735334
  21.5130871  31.5050100  50.0726483  22.9174842  30.9398466  50.0609316
  25.3271889  40.4458354  52.7932020  24.6533587  40.7490051  53.4016978
  25.7137711  41.2487434  52.4437477  24.5430345  27.9423485  62.2829690
  23.6252907  28.1638432  62.1251378  24.9590489  28.0169796  61.4241397
  25.3265393  29.3414901  57.4132370  26.0737212  29.8536298  57.1039492
  25.5956983  29.0198954  58.2736764  23.5992043  31.8373442  54.3959324
  22.6903262  31.5532475  54.4931794  23.6287127  32.2572520  53.5362631
  28.8311311  35.4480031  58.1650492  28.3773638  34.6070941  58.2215682
  28.2005277  36.0841430  58.5025272  27.7744230  26.3772017  59.3951159
  27.0366987  25.8649403  59.7261402  28.0271004  25.9372399  58.5834436
  27.2744250  37.2856528  59.1000310  27.5667224  37.8461585  58.3812676
  27.7842870  37.5785089  59.8553469  27.8755857  19.1548269  59.9892929
  28.1814734  18.2945633  59.7018844  28.6008462  19.7465889  59.7891923
  14.1680214  29.5578956  58.3774527  13.9704613  28.9648317  57.6525593
  13.6126878  29.2531166  59.0950465  22.1476937  29.4502062  60.4969120
  22.2025547  28.4975899  60.4211596  21.3368139  29.6061501  60.9810418
  23.2968131  33.3782185  51.7347403  22.8587561  32.6618044  51.2753040
  24.0378572  33.6058300  51.1732494  20.0869297  28.0679122  58.2559499
  19.2737163  28.3673293  58.6624691  20.5828291  27.6734811  58.9733981
  22.2377875  38.0636879  60.1893763  22.1954054  38.2897725  59.2602295
  23.1540574  37.8300254  60.3379564  25.6843509  28.5320947  67.0874392
  26.0392897  28.7592420  67.9468858  26.3315640  28.8639323  66.4651648
  31.4141246  31.6539382  57.7923721  31.2759144  31.8440978  56.8644911
  31.0577465  32.4158765  58.2491773  19.5783372  25.6397478  63.8720734
  20.2182751  25.4986237  63.1743697  18.7460902  25.3531991  63.4959336
  31.4410625  33.7215909  62.8034993  31.8747132  33.6291199  63.6518047
  32.1542206  33.6973410  62.1655009  20.3543676  34.9399908  59.9855726
  21.1484274  34.4450228  59.7838301  19.6435368  34.4117771  59.6223432
  25.1738520  37.3218004  64.3368094  25.2275543  37.8908940  65.1045809
  24.3053302  37.4919889  63.9722131  16.6626439  29.0842990  56.0615479
  15.7324027  29.0227445  56.2785441  16.7583911  28.5618942  55.2652120
  16.5811988  25.6097803  58.6493720  16.8418806  26.5243136  58.5402881
  17.4029161  25.1422245  58.7990333  18.0536914  27.0235560  65.8192545
  18.7259967  26.8152922  65.1705194  17.2266700  26.8257646  65.3797777
  32.3026175  33.7639610  65.3367878  32.4962065  34.6685421  65.5827153
  32.2026793  33.3047029  66.1706463  23.9562486  23.6497501  67.8358206
  23.3090401  24.3487450  67.7422682  24.7263501  24.0833645  68.2034454
  27.3641284  33.9146353  70.9108759  27.2126790  33.6856905  69.9938843
  27.3545963  34.8716954  70.9240104  24.1326620  31.4878266  65.8955025
  25.0618680  31.6389425  65.7223993  23.7117650  31.5762286  65.0403672
  22.9314952  35.5128930  63.6653563  22.7926037  35.1447714  64.5379501
  22.1429548  36.0276569  63.4937521  23.5263104  40.6138026  55.0079100
  23.7014859  40.1426070  55.8224722  22.8395892  41.2403793  55.2360360
  24.4820167  34.8910533  61.0542401  24.1470000  34.8511303  61.9500051
  23.9824113  34.2255249  60.5812811  18.4564411  30.2978163  66.5794982
  18.3184209  29.5658402  67.1806521  19.3669334  30.2087063  66.2979170
  27.4179359  32.2366567  51.3279461  26.8008529  31.5113395  51.2312513
  26.9495847  32.9975927  50.9846535  21.0846712  30.0098122  66.0678662
  21.7946330  29.3691314  66.0265280  21.0416020  30.2611017  66.9904842
  29.0733490  36.9465475  68.9885241  29.0146036  36.2624695  68.3215824
  29.4753009  37.6884465  68.5365867  19.7975646  26.9963340  67.8874301
  19.2613003  26.5454078  68.5395897  19.2092354  27.1309249  67.1444765
  18.0924189  43.7627389  61.7818960  18.3320787  44.3945913  62.4597978
  17.2493386  43.4115429  62.0684319  19.2077905  26.4551991  50.4500765
  18.3307371  26.3340792  50.0863011  19.6835658  25.6638070  50.1979653
  29.0750898  34.9105059  67.2199221  28.1877676  34.5730981  67.3425619
  29.6449449  34.1788091  67.4567986  10.7280045  31.2429151  60.5442272
  11.4151084  30.9290881  59.9563287  10.5728173  32.1470516  60.2709523
  15.5314767  26.1319348  64.9727296  15.4472956  25.5245017  64.2377706
  14.7097473  26.6228366  64.9736792  22.6052051  39.5706512  64.1860464
  22.5322222  40.3761483  64.6979768  22.1629444  39.7698477  63.3608485
  22.3941831  38.8078282  57.6963285  21.6109352  39.3499962  57.7901510
  23.0934576  39.3252261  58.0957526  25.7038481  24.6172911  60.3397491
  26.2007180  23.8642873  60.0198561  24.9325462  24.6537228  59.7740700
  33.5568238  30.3213277  61.9815782  33.5458114  31.2037992  61.6109715
  32.6885617  29.9684828  61.7870319  25.0650734  39.4693346  66.3418622
  25.7778707  40.1040811  66.2694524  24.5740763  39.5657212  65.5258624
  26.7868261  33.3744598  57.9135914  25.8524540  33.4946061  57.7440618
  26.9644930  32.4717065  57.6495924  22.2873449  26.7590294  60.0669175
  21.9171237  26.2061335  60.7550081  22.7832542  26.1548428  59.5144175
  30.1740813  29.2161918  58.4485948  30.6401265  30.0489909  58.3746251
  30.6248313  28.7506899  59.1531207  20.1162648  37.2187789  67.1624193
  20.8172107  37.8524272  67.3153587  19.6457763  37.5602521  66.4019832
  28.2417044  35.5605739  55.4472100  28.5176888  35.4462334  56.3565974
  27.3721543  35.1623224  55.4084273  28.1457475  21.5842505  62.4876850
  27.2320555  21.8146731  62.6559056  28.5750577  21.6680949  63.3390882
  27.9163934  29.7732397  64.9876744  27.2635384  30.0208304  64.3329196
  28.2944314  28.9596535  64.6539221  24.8771108  39.8092090  59.0904914
  25.0593502  38.9913746  59.5532666  25.7004094  40.0259782  58.6529804
  25.2113273  38.7360275  56.3519962  25.7401040  38.2252729  55.7390124
  25.4741493  38.4202805  57.2165495  23.9651507  30.5152208  71.4742781
  23.2892144  30.4146337  72.1445156  24.7879141  30.3591421  71.9378778
  15.7130366  36.7524144  64.0955296  16.2983803  36.0067832  64.2283200
  15.5155204  37.0628101  64.9791960  18.5669021  39.7875392  59.1117738
  17.8979397  40.2721519  58.6281778  18.4281891  40.0344612  60.0261117
  10.3048021  29.3229744  62.8159739  10.3432120  28.7893335  63.6096857
   9.7988314  28.7964950  62.1970716  22.7074290  41.8219135  65.7100397
  23.2592598  41.9850757  66.4749482  23.0480483  42.4123573  65.0380422
  17.6838783  24.1694285  66.3122281  17.7480110  25.0309116  65.8999679
  17.6205903  23.5568287  65.5794640  17.1591056  26.2417417  69.9595316
  17.7863094  25.8594495  70.5732840  16.3018974  26.0231619  70.3251008
  27.5585164  36.6480393  71.5649051  28.1025068  37.2610351  71.0704006
  26.9772009  37.2059971  72.0816064  13.9356598  28.0493847  55.8913670
  14.2310039  27.1404525  55.8380724  13.0344634  28.0281586  55.5694673
  25.8442677  39.7701111  62.6964079  25.7193817  38.9690850  62.1875024
  26.5021768  40.2647304  62.2078049  17.4650845  26.1249843  61.8741219
  16.7437431  26.7385811  61.7348692  18.2544101  26.6607608  61.7957865
  27.9077586  37.5710131  64.3243629  26.9607921  37.4515482  64.2521956
  28.2560359  36.6832629  64.4069890  20.2677159  23.4604270  68.1481871
  20.7911561  23.7066566  68.9108180  20.0489492  24.2924304  67.7285008
  15.6644440  25.7307944  56.0152996  15.3357146  24.8505323  55.8328102
  16.0183811  25.6755613  56.9029385  24.9124019  37.3662847  60.5247981
  24.7648981  36.4379554  60.7055551  25.7377512  37.3882938  60.0405056
  18.7786263  26.0180914  56.3828473  19.1182336  26.5466835  55.6607082
  19.2258384  26.3561320  57.1587040  28.5158141  38.1891406  61.6112854
  29.4404688  37.9834267  61.4737305  28.3473444  37.9407807  62.5202195
  21.4729704  24.4017965  65.8331541  21.1326524  23.6025778  66.2352221
  20.7668710  24.7019676  65.2608375  22.1246176  21.4867277  64.2858864
  22.9472245  21.0127755  64.1637755  22.3684239  22.2657761  64.7857551
  20.7654410  24.5155536  54.5821766  21.4862773  24.8936788  54.0785483
  20.1419714  25.2344412  54.6856744  24.9085533  25.2200685  55.5180098
  25.1249148  26.1025322  55.2168927  24.4279600  24.8286898  54.7885740
  19.6484755  28.1786398  62.0950843  19.5029335  28.4926701  62.9875124
  19.1709958  28.7971298  61.5421742  21.5081137  25.1688946  62.1431733
  21.4942706  24.2730039  61.8064030  22.2253565  25.1759610  62.7770019
  23.3607268  25.6026286  64.1884860  23.1025046  26.5243357  64.1869190
  22.8292308  25.2056721  64.8785324  28.3053457  38.7077073  56.9674945
  28.4790334  38.1423496  56.2148798  28.7982348  39.5077968  56.7854435
  14.1230417  30.7191742  65.0338504  13.5783885  31.4951550  65.1658778
  15.0009767  31.0662547  64.8757626  20.9118033  24.0503326  57.4119303
  21.0333945  23.1219972  57.6110190  20.6220076  24.0642012  56.4997618
  23.7809224  21.7358237  60.5486023  23.8030921  21.7997570  59.5938002
  24.1977283  20.8962745  60.7426529  34.1592848  31.4713496  58.5865245
  34.6023994  30.7220821  58.1884368  33.2819358  31.4623632  58.2038977
  29.2928629  38.0243838  54.0671844  29.9879534  38.6450530  54.2859158
  29.6351779  37.1739189  54.3424222  14.9096439  29.8461638  67.9268661
  14.1678175  29.9944274  68.5133291  14.5889183  30.1069904  67.0635410
  31.1920052  35.4743543  55.5959174  31.7171377  35.8130816  54.8708494
  31.1042405  34.5390558  55.4122309  22.8540101  39.3877617  67.7249051
  23.1627228  39.1426763  68.5971751  23.6515583  39.5924255  67.2367921
  22.8760713  41.5415526  59.9554428  22.4365704  41.0491905  60.6487284
  23.6268830  40.9988494  59.7146503  15.3553052  37.7327067  59.9579056
  16.1811072  37.4330839  59.5777699  15.0047104  36.9634690  60.4068844
  20.3234585  37.0853535  62.0276729  19.7014595  36.4224240  61.7278957
  20.9939452  37.1114667  61.3450377  13.5561657  35.6513394  60.9167989
  12.7193566  35.2235568  60.7351990  13.5285303  35.8445837  61.8538780
  20.3959113  25.5635323  71.6209235  20.4447268  26.4397446  71.2387005
  20.9381627  25.0212716  71.0480878  30.8813959  36.1076447  70.9010372
  30.0909502  36.0900586  70.3614872  30.6447313  36.6464740  71.6559409
  31.0011834  32.9568913  68.2143101  31.0509839  32.7918921  69.1558624
  30.8925757  32.0896172  67.8240982  19.8848092  35.6357459  55.5035190
  20.0336213  36.3192923  54.8501863  20.6914536  35.6162549  56.0184646
  28.2915596  28.9399841  69.5302408  29.1925459  28.8006306  69.2386405
  28.3663570  29.1054296  70.4700585  22.6258401  26.3166696  68.3755594
  21.7561711  26.6100262  68.1038182  22.8617882  26.9007141  69.0962858
  32.5030030  35.3765855  68.4585122  32.2114839  35.7395835  69.2948583
  31.8902162  34.6632863  68.2798454  33.7025713  32.9418734  60.9787693
  34.5372604  33.3808538  61.1425253  33.8384842  32.4657388  60.1595938
  30.7517219  30.4998469  66.9265180  31.2271340  30.6926116  66.1184032
  29.8282784  30.5557655  66.6808564  17.6400725  31.6622636  56.5096259
  17.3946767  30.7584966  56.7076469  17.8096640  31.6639787  55.5675737
  25.3297435  22.5346313  65.8921014  25.8479379  23.2707340  65.5667503
  24.9752568  22.8410306  66.7267773  16.9096373  27.3950994  54.0082420
  16.2165618  27.4695349  53.3522456  16.6648125  26.6311338  54.5303937
  25.5810029  18.9546595  61.4121911  25.8611783  18.2869784  62.0382337
  26.3660636  19.1475691  60.8996575  23.3843498  38.1305589  52.9746937
  22.8117465  38.7495776  52.5217409  23.9576291  38.6804951  53.5086859
  29.4518888  27.3764229  65.1593486  30.4036311  27.4762327  65.1805710
  29.2822338  26.5842498  65.6691570  27.4733267  24.4619813  65.3452887
  26.8783199  24.7424825  64.6499376  27.1882964  24.9513713  66.1169628
  26.6040758  38.4142739  54.1055519  27.5371431  38.3488301  54.3088395
  26.5163970  39.2499006  53.6470052  29.2328774  37.7308610  51.0659467
  29.1542406  37.3968473  51.9595225  30.0538441  38.2230378  51.0650939
  31.9306965  30.5970349  64.2735786  31.8983286  29.6586350  64.4595469
  32.5407589  30.6754386  63.5401611  23.7690296  29.4666402  50.3162990
  24.7149401  29.3372610  50.3851408  23.3904541  28.7281064  50.7932418
  32.0801454  27.3881392  64.3194069  31.5640503  26.6039849  64.1323998
  32.9641402  27.0600109  64.4840588  29.7412181  21.1322408  60.2789882
  29.5437002  20.8237496  61.1633213  30.3511886  21.8584047  60.4087811
  37.7483515  31.6586356  63.4141822  38.4786904  31.3971644  63.9749526
  37.1390461  30.9215078  63.4543890  35.8298812  29.7994218  64.0116274
  35.1031976  29.6650183  63.4032765  35.4146099  30.1071047  64.8172992
  23.6528989  33.5184148  71.7763647  24.5731998  33.6962747  71.9703693
  23.6178572  32.5740193  71.6243346  21.9533213  27.3916378  50.2517875
  21.0464669  27.0949491  50.3280589  22.2309194  27.0946196  49.3852161
  12.8711154  28.7122742  60.7016921  12.5513938  27.8588050  60.4091295
  12.3244582  28.9271320  61.4574889  16.6491061  31.4285183  64.4186428
  16.8677071  32.3602291  64.4374462  17.0616835  31.0693157  65.2041232
  23.5695279  21.9353268  56.4062116  22.7596007  21.5900353  56.7817362
  24.2579696  21.6260812  56.9949728  25.4985827  21.0131315  58.0286413
  26.0516866  21.4326768  58.6876436  25.7355914  20.0867063  58.0709369
  21.5218927  27.0018389  73.8089177  21.4215654  27.9512745  73.7401268
  21.3040469  26.6736627  72.9365247  20.7231998  24.2503314  50.3929854
  21.5851162  24.5758212  50.6525671  20.9082342  23.4634809  49.8802920
  12.7399414  32.3325653  62.6710043  12.0462885  31.9179606  62.1579997
  13.4872405  32.3746190  62.0743462  28.8764635  23.1231840  57.5365077
  28.2963304  23.7816644  57.1543130  28.6100567  22.3009185  57.1252495
  27.3268201  22.5236898  59.7386397  27.8267979  22.6353432  58.9300716
  27.9703809  22.2197951  60.3787206  21.3850197  30.4315527  72.6254238
  20.9017278  31.2315887  72.8318127  21.4711136  30.4423472  71.6721682
  14.6536156  32.2643907  60.5476058  14.6306844  32.3631594  59.5957941
  14.9636793  33.1109058  60.8693224  17.3123534  34.3220062  64.6622672
  18.2666788  34.2904004  64.5952604  17.1136058  33.8610686  65.4772898
  17.9022916  32.8921178  67.2293470  18.7215805  33.3865257  67.2528307
  18.1759724  31.9753146  67.2011037  27.6589513  25.2831930  56.5921425
  26.7715368  25.5681581  56.3741620  28.0743502  25.1225694  55.7448702
  31.0104049  25.3078451  60.3075765  31.7864439  25.7974904  60.5800381
  30.2852183  25.7336506  60.7647634  33.4476607  26.0206071  61.3649705
  34.0421098  25.7801807  60.6543013  33.5203191  25.3013201  61.9923242
  15.6673763  39.8639682  61.6792870  15.5328231  39.1040082  61.1130868
  15.2505825  40.5880581  61.2121659  26.8032726  35.0476605  50.6869445
  27.5068576  35.2526608  51.3027101  26.0795375  35.6153367  50.9518529
  27.6330536  30.7986466  56.8071716  27.5765738  31.2555018  55.9679348
  28.1858879  30.0377151  56.6294558  31.4435342  26.5876198  57.6321835
  31.1872276  26.1872834  58.4630043  30.8188210  27.3019992  57.5071974
  35.7547680  29.3272271  60.1393126  35.1947238  29.3965461  60.9124689
  35.1491183  29.1513256  59.4192623  18.8242889  40.7608999  61.8911313
  18.7075273  41.7054431  61.7890003  18.0035335  40.4582560  62.2797112
  28.7119423  35.4859134  52.7367905  29.5465027  35.0540333  52.5545380
  28.5503766  35.3141148  53.6644800  28.3665316  31.9891248  54.1024245
  28.3114119  31.8235519  53.1612689  27.7411371  32.6967280  54.2586434
  13.1557831  27.2259312  67.9285667  13.8016694  26.7158266  68.4172892
  12.9474982  27.9627994  68.5029092  25.6811223  34.2940159  73.4277807
  26.5502382  34.4680812  73.0664442  25.2017974  35.1134576  73.3053537
  21.6761441  21.4899357  53.6809563  21.6640111  22.4341197  53.8377834
  22.5684863  21.3069502  53.3869024  19.8497403  41.4137260  65.1067241
  20.7524650  41.4460871  65.4233736  19.6234773  40.4837711  65.1213577
  21.6051005  40.1668247  61.7677320  20.6546636  40.1670109  61.6541692
  21.9083491  39.4200982  61.2513354  25.4913561  18.0842133  57.9355500
  24.7245956  17.5300620  58.0812182  25.9024266  18.1564002  58.7969652
  17.4955322  24.3726929  72.0260681  18.3586783  24.0163734  72.2364006
  16.9220732  24.0340824  72.7136085  37.3403699  46.0028785  62.8323082
  37.9782108  45.8835533  62.1286422  37.2224541  46.9509629  62.8911034
  34.1493405  45.9556213  62.7684607  33.8111916  45.8397278  61.8805142
  35.0183173  45.5547379  62.7485613  30.0080221  47.8091690  58.7581498
  29.4445086  47.7181627  57.9897786  29.8932616  46.9891594  59.2383990
  34.6313188  47.1091065  68.7270812  34.6201829  46.7143863  67.8551316
  34.7933827  46.3757138  69.3204584  27.5544652  49.3042882  61.5965718
  28.3465944  48.9633706  61.1812018  27.7941303  49.4137857  62.5167872
  35.5879779  51.4762658  54.0695963  34.9367759  52.0616738  53.6829977
  36.3824142  52.0068853  54.1291000  29.5135406  48.5651795  54.4683097
  30.2866282  48.0180782  54.3295973  29.8660805  49.4296044  54.6797558
  31.3520449  49.8928177  67.6749996  31.0610315  50.7973808  67.5596663
  31.9877433  49.9344705  68.3894066  32.2776656  47.2705026  64.2651356
  32.8740228  47.0461048  63.5508319  32.3351627  46.5289771  64.8676804
  31.8501684  44.7244461  52.1001547  32.1027205  44.2025982  51.3385010
  30.9126243  44.5610606  52.2028231  36.8944967  43.7280239  59.9076290
  37.6808056  43.3099662  59.5566707  37.1583671  44.6326331  60.0757939
  37.0655044  49.1653090  54.6064947  36.4300877  49.2387716  55.3185852
  36.7352451  49.7546688  53.9284026  42.2953394  43.6655472  60.8109269
  43.0278566  43.0954689  61.0447098  41.5392750  43.2777073  61.2515774
  31.5697973  46.6272567  54.3025922  31.4534231  45.9517470  54.9707006
  31.6800233  46.1404941  53.4858075  33.9129514  46.0882714  58.0072611
  33.5487721  45.5613335  58.7185533  34.7696630  45.6981183  57.8339097
  39.8178814  37.3777047  65.2703877  39.4862139  38.2472458  65.0465092
  39.2224428  37.0613331  65.9497908  33.5535001  41.1172614  53.0033960
  33.7209403  41.9852850  53.3704431  33.3632170  41.2799895  52.0795249
  36.3110334  49.5789593  64.6699790  36.0111057  50.4814631  64.5615597
  35.9661394  49.3121776  65.5220943  29.7622816  46.0303389  60.7036494
  28.8373312  45.8979603  60.9114186  30.0107229  46.8097609  61.2006437
  39.7107478  42.0972133  62.3497227  38.8024355  42.0287541  62.0555988
  39.6595074  42.5744078  63.1779053  33.5324222  43.5730271  53.9880627
  33.4123847  44.0187322  54.8266107  32.8376810  43.9215589  53.4294165
  27.1231627  45.6736663  61.5380284  27.2524008  45.9271142  62.4519695
  26.4429078  46.2664371  61.2184939  31.2931114  56.3433913  57.6370758
  31.2155144  57.2941738  57.7159238  30.6892757  55.9979785  58.2945684
  33.7848344  43.5161778  70.2932125  33.0081678  44.0755698  70.2834989
  34.4238907  44.0018561  70.8146995  41.5769124  40.2988571  64.1275101
  40.9343504  40.5921104  63.4814896  41.0724053  40.1841491  64.9328298
  39.2309288  44.0451744  54.8160961  40.1427144  44.2779131  54.6408658
  38.7218935  44.6288789  54.2536039  32.0394716  46.3247232  69.8550092
  32.7809400  46.8632276  69.5784915  31.3331701  46.9513520  70.0121643
  37.5150056  48.4676372  68.4522253  37.9233412  48.0258783  67.7076886
  36.7927317  47.8929000  68.7056446  33.8681126  43.4048979  65.8255810
  34.7142321  43.8288392  65.9690459  33.8079763  42.7482603  66.5194373
  37.8378870  49.0277563  62.2074542  37.2087733  49.1923277  61.5050610
  37.4504532  49.4419172  62.9785506  41.7168102  49.9632001  59.5618906
  41.0319140  50.3430902  59.0115939  41.8011951  50.5727327  60.2950854
  38.9719034  47.6091960  66.1614249  39.1835929  48.2523720  65.4848630
  38.9248782  46.7754276  65.6936179  36.5745263  40.2209780  63.0650821
  35.7129742  40.5191034  63.3567559  36.6007697  40.4380179  62.1331854
  33.3906832  48.7651971  59.4724627  33.8545178  49.0439674  58.6829250
  33.1263630  47.8635415  59.2897718  30.2830913  48.3123452  62.4104390
  30.8532270  48.7410721  61.7721875  30.8739025  48.0306037  63.1088576
  32.3275718  44.8875123  56.2814192  33.0299761  45.3396167  56.7488119
  31.9956347  44.2458942  56.9094085  30.7756080  43.4786880  70.6565402
  30.1454740  44.1603161  70.8900798  30.6692168  43.3669961  69.7118540
  26.0701052  43.1458676  61.5831326  25.2800106  43.4016204  61.1071436
  26.5612299  43.9607014  61.6883366  40.0864862  50.4863915  64.3336607
  40.9082305  50.0844102  64.0519288  40.0827265  50.3832149  65.2852722
  28.0215797  43.5103255  58.5414803  27.2246961  43.6221949  59.0598298
  27.7941390  43.8489907  57.6755693  33.8521465  50.0347958  66.4897317
  33.9165898  50.4968366  67.3255489  33.1432389  49.4045323  66.6179627
  24.3538755  43.3989166  64.0146317  24.6046793  44.2836176  64.2803893
  24.8898303  43.2193768  63.2421408  33.5669483  51.7016066  56.3576297
  33.4315158  52.5467602  56.7861145  34.1079295  51.9035343  55.5942231
  30.0536822  37.7807646  73.0190653  29.6603768  37.2273844  73.6938297
  30.8702963  38.0918224  73.4097170  27.0198880  49.2191504  56.9304223
  27.5323401  50.0134754  57.0809787  27.6721593  48.5217794  56.8637824
  28.8293765  52.3357260  59.0126976  29.0060393  53.2575225  58.8247960
  29.6250598  52.0215679  59.4421356  32.9704783  39.1965525  70.6110909
  33.7114497  39.7972678  70.5315372  33.2022706  38.4543163  70.0528952
  28.1146121  44.3821892  68.8889139  27.9999637  43.4807149  69.1896238
  27.2590639  44.6285589  68.5373955  35.1937959  52.3239632  70.4876640
  34.7501813  51.5376011  70.1697544  35.8555173  52.5118783  69.8220530
  29.9525080  53.8535434  65.0137318  30.5032505  53.7252497  64.2414312
  29.1136556  54.1530323  64.6632211  37.2919197  52.6042432  68.5158041
  37.2737673  53.4251313  68.0238310  38.2139117  52.4796508  68.7408182
  33.7492251  50.1186562  69.3581549  34.2820588  49.3574850  69.1280857
  33.2206332  49.8260214  70.1005704  36.9161946  35.2246628  64.8875191
  36.5726216  36.1148269  64.8114302  37.2840909  35.0348285  64.0244776
  24.9847797  47.5480158  57.7063793  25.8223019  47.9577167  57.4897501
  25.1626065  46.6079600  57.6763987  36.8812229  45.2155239  53.3947626
  36.3658852  45.9859843  53.6336013  36.6089537  44.5420375  54.0180688
  34.4659340  40.0604940  58.4532864  33.6100936  39.6711790  58.2738503
  34.8786292  40.1396900  57.5932650  35.9958487  37.5951283  62.8524424
  35.4923282  37.5581418  62.0392229  36.2889094  38.5044026  62.9121081
  32.2401373  37.6790013  61.8590606  33.1054369  37.4832821  61.4996495
  32.3078881  37.4500364  62.7859963  41.8546503  47.9687593  55.3300800
  41.0775946  47.6298753  54.8855962  42.5337984  47.9740217  54.6555765
  36.6698532  43.0882331  55.2207407  36.3648668  43.4028480  56.0717550
  37.6228974  43.1663751  55.2634740  35.1144964  49.2472554  56.8700361
  34.5866326  48.5125314  56.5573599  34.6132467  50.0247231  56.6240330
  40.0937810  47.4421575  61.9867408  39.4361485  48.1320836  62.0747536
  40.8978209  47.8318007  62.3301394  29.8463692  39.9092221  59.2306973
  30.4207444  39.6867402  58.4980166  30.4334674  39.9780915  59.9835574
  38.9043269  45.7965947  60.0371349  39.4175151  46.4295939  60.5393059
  39.5544493  45.1967143  59.6714709  30.1733279  41.9396682  53.2502858
  29.3370591  42.2771368  53.5712133  30.0338048  41.8045661  52.3129995
  32.1486359  36.7833469  57.9582042  31.4950772  36.4682487  57.3338657
  32.1066834  36.1609210  58.6841865  33.2597564  47.0652765  49.8735334
  32.3524626  46.8342018  50.0726483  33.7568596  46.2690384  50.0609316
  36.1665643  55.7750272  52.7932020  35.4927342  56.0781968  53.4016978
  36.5531465  56.5779352  52.4437477  35.3824100  43.2715403  62.2829690
  34.4646661  43.4930350  62.1251378  35.7984243  43.3461713  61.4241397
  36.1659147  44.6706819  57.4132370  36.9130966  45.1828216  57.1039492
  36.4350737  44.3490871  58.2736764  34.4385798  47.1665359  54.3959324
  33.5297017  46.8824392  54.4931794  34.4680881  47.5864438  53.5362631
  39.6705065  50.7771949  58.1650492  39.2167392  49.9362859  58.2215682
  39.0399032  51.4133347  58.5025272  38.6137985  41.7063935  59.3951159
  37.8760741  41.1941321  59.7261402  38.8664758  41.2664317  58.5834436
  38.1138004  52.6148446  59.1000310  38.4060979  53.1753503  58.3812676
  38.6236625  52.9077007  59.8553469  38.7149612  34.4840187  59.9892929
  39.0208489  33.6237550  59.7018844  39.4402217  35.0757807  59.7891923
  25.0073968  44.8870874  58.3774527  24.8098368  44.2940234  57.6525593
  24.4520632  44.5823084  59.0950465  32.9870692  44.7793980  60.4969120
  33.0419301  43.8267816  60.4211596  32.1761894  44.9353419  60.9810418
  34.1361885  48.7074103  51.7347403  33.6981315  47.9909962  51.2753040
  34.8772326  48.9350218  51.1732494  30.9263052  43.3971040  58.2559499
  30.1130917  43.6965210  58.6624691  31.4222046  43.0026728  58.9733981
  33.0771630  53.3928797  60.1893763  33.0347808  53.6189643  59.2602295
  33.9934328  53.1592171  60.3379564  36.5237263  43.8612864  67.0874392
  36.8786651  44.0884337  67.9468858  37.1709395  44.1931241  66.4651648
  42.2535000  46.9831300  57.7923721  42.1152899  47.1732896  56.8644911
  41.8971219  47.7450683  58.2491773  30.4177126  40.9689395  63.8720734
  31.0576506  40.8278154  63.1743697  29.5854657  40.6823909  63.4959336
  31.1937430  50.2691826  59.9855726  31.9878029  49.7742146  59.7838301
  30.4829123  49.7409689  59.6223432  36.0132275  52.6509921  64.3368094
  36.0669297  53.2200858  65.1045809  35.1447056  52.8211806  63.9722131
  27.5020194  44.4134907  56.0615479  26.5717782  44.3519363  56.2785441
  27.5977666  43.8910860  55.2652120  27.4205743  40.9389720  58.6493720
  27.6812560  41.8535053  58.5402881  28.2422915  40.4714163  58.7990333
  28.8930668  42.3527477  65.8192545  29.5653722  42.1444840  65.1705194
  28.0660455  42.1549563  65.3797777  34.7956240  38.9789418  67.8358206
  34.1484155  39.6779368  67.7422682  35.5657256  39.4125562  68.2034454
  34.9720375  46.8170183  65.8955025  35.9012435  46.9681343  65.7223993
  34.5511405  46.9054204  65.0403672  33.7708706  50.8420848  63.6653563
  33.6319792  50.4739632  64.5379501  32.9823303  51.3568487  63.4937521
  34.3656858  55.9429944  55.0079100  34.5408614  55.4717987  55.8224722
  33.6789646  56.5695710  55.2360360  35.3213921  50.2202450  61.0542401
  34.9863754  50.1803220  61.9500051  34.8217867  49.5547166  60.5812811
  29.2958165  45.6270080  66.5794982  29.1577963  44.8950319  67.1806521
  30.2063089  45.5378980  66.2979170  38.2573113  47.5658485  51.3279461
  37.6402284  46.8405313  51.2312513  37.7889602  48.3267845  50.9846535
  31.9240466  45.3390040  66.0678662  32.6340085  44.6983232  66.0265280
  31.8809774  45.5902935  66.9904842  30.6369400  42.3255258  67.8874301
  30.1006757  41.8745996  68.5395897  30.0486108  42.4601166  67.1444765
  28.9317944  59.0919307  61.7818960  29.1714542  59.7237831  62.4597978
  28.0887140  58.7407347  62.0684319  30.0471659  41.7843909  50.4500765
  29.1701125  41.6632710  50.0863011  30.5229412  40.9929987  50.1979653
  39.9144652  50.2396977  67.2199221  39.0271431  49.9022899  67.3425619
  40.4843203  49.5080008  67.4567986  21.5673799  46.5721069  60.5442272
  22.2544839  46.2582799  59.9563287  21.4121928  47.4762433  60.2709523
  26.3708521  41.4611265  64.9727296  26.2866710  40.8536935  64.2377706
  25.5491228  41.9520284  64.9736792  33.4445805  54.8998429  64.1860464
  33.3715977  55.7053401  64.6979768  33.0023199  55.0990395  63.3608485
  33.2335585  54.1370199  57.6963285  32.4503107  54.6791880  57.7901510
  33.9328330  54.6544179  58.0957526  36.5432235  39.9464829  60.3397491
  37.0400935  39.1934791  60.0198561  35.7719217  39.9829145  59.7740700
  35.9044489  54.7985263  66.3418622  36.6172461  55.4332728  66.2694524
  35.4134518  54.8949129  65.5258624  37.6262016  48.7036516  57.9135914
  36.6918295  48.8237978  57.7440618  37.8038684  47.8008983  57.6495924
  33.1267204  42.0882212  60.0669175  32.7564991  41.5353252  60.7550081
  33.6226296  41.4840345  59.5144175  41.0134567  44.5453835  58.4485948
  41.4795019  45.3781827  58.3746251  41.4642068  44.0798817  59.1531207
  30.9556402  52.5479707  67.1624193  31.6565862  53.1816190  67.3153587
  30.4851517  52.8894438  66.4019832  39.0810798  50.8897657  55.4472100
  39.3570642  50.7754251  56.3565974  38.2115297  50.4915141  55.4084273
  38.9851230  36.9134422  62.4876850  38.0714310  37.1438649  62.6559056
  39.4144331  36.9972866  63.3390882  38.7557688  45.1024314  64.9876744
  38.1029139  45.3500222  64.3329196  39.1338068  44.2888452  64.6539221
  35.7164862  55.1384007  59.0904914  35.8987257  54.3205663  59.5532666
  36.5397848  55.3551700  58.6529804  36.0507028  54.0652193  56.3519962
  36.5794794  53.5544647  55.7390124  36.3135247  53.7494723  57.2165495
  34.8045261  45.8444125  71.4742781  34.1285898  45.7438255  72.1445156
  35.6272895  45.6883339  71.9378778  26.5524121  52.0816062  64.0955296
  27.1377557  51.3359750  64.2283200  26.3548959  52.3920019  64.9791960
  29.4062776  55.1167309  59.1117738  28.7373151  55.6013437  58.6281778
  29.2675645  55.3636530  60.0261117  21.1441775  44.6521662  62.8159739
  21.1825875  44.1185253  63.6096857  20.6382068  44.1256868  62.1970716
  33.5468044  57.1511053  65.7100397  34.0986352  57.3142674  66.4749482
  33.8874238  57.7415491  65.0380422  28.5232538  39.4986203  66.3122281
  28.5873864  40.3601033  65.8999679  28.4599658  38.8860204  65.5794640
  27.9984810  41.5709335  69.9595316  28.6256849  41.1886412  70.5732840
  27.1412729  41.3523537  70.3251008  24.7750353  43.3785764  55.8913670
  25.0703794  42.4696443  55.8380724  23.8738389  43.3573504  55.5694673
  36.6836432  55.0993028  62.6964079  36.5587571  54.2982768  62.1875024
  37.3415523  55.5939222  62.2078049  28.3044600  41.4541761  61.8741219
  27.5831186  42.0677729  61.7348692  29.0937856  41.9899526  61.7957865
  31.1070913  38.7896187  68.1481871  31.6305315  39.0358484  68.9108180
  30.8883247  39.6216222  67.7285008  26.5038194  41.0599862  56.0152996
  26.1750901  40.1797241  55.8328102  26.8577565  41.0047531  56.9029385
  35.7517773  52.6954765  60.5247981  35.6042736  51.7671472  60.7055551
  36.5771267  52.7174855  60.0405056  29.6180018  41.3472832  56.3828473
  29.9576090  41.8758753  55.6607082  30.0652138  41.6853238  57.1587040
  39.3551895  53.5183323  61.6112854  40.2798443  53.3126185  61.4737305
  39.1867199  53.2699725  62.5202195  32.3123458  39.7309882  65.8331541
  31.9720279  38.9317695  66.2352221  31.6062465  40.0311593  65.2608375
  32.9639930  36.8159195  64.2858864  33.7866000  36.3419673  64.1637755
  33.2077994  37.5949679  64.7857551  31.6048165  39.8447453  54.5821766
  32.3256527  40.2228706  54.0785483  30.9813469  40.5636330  54.6856744
  35.7479288  40.5492602  55.5180098  35.9642902  41.4317240  55.2168927
  35.2673355  40.1578816  54.7885740  30.4878509  43.5078315  62.0950843
  30.3423090  43.8218619  62.9875124  30.0103713  44.1263216  61.5421742
  32.3474892  40.4980863  62.1431733  32.3336461  39.6021957  61.8064030
  33.0647320  40.5051527  62.7770019  34.2001023  40.9318204  64.1884860
  33.9418800  41.8535274  64.1869190  33.6686063  40.5348638  64.8785324
  39.1447211  54.0368991  56.9674945  39.3184089  53.4715413  56.2148798
  39.6376103  54.8369886  56.7854435  24.9624171  46.0483660  65.0338504
  24.4177639  46.8243468  65.1658778  25.8403521  46.3954464  64.8757626
  31.7511788  39.3795244  57.4119303  31.8727699  38.4511890  57.6110190
  31.4613830  39.3933930  56.4997618  34.6202978  37.0650154  60.5486023
  34.6424675  37.1289487  59.5938002  35.0371037  36.2254663  60.7426529
  44.9986603  46.8005414  58.5865245  45.4417749  46.0512739  58.1884368
  44.1213113  46.7915550  58.2038977  40.1322384  53.3535755  54.0671844
  40.8273288  53.9742448  54.2859158  40.4745534  52.5031106  54.3424222
  25.7490193  45.1753556  67.9268661  25.0071929  45.3236192  68.5133291
  25.4282937  45.4361822  67.0635410  42.0313807  50.8035461  55.5959174
  42.5565131  51.1422733  54.8708494  41.9436160  49.8682476  55.4122309
  33.6933856  54.7169534  67.7249051  34.0020982  54.4718681  68.5971751
  34.4909338  54.9216173  67.2367921  33.7154468  56.8707444  59.9554428
  33.2759458  56.3783823  60.6487284  34.4662585  56.3280412  59.7146503
  26.1946807  53.0618985  59.9579056  27.0204827  52.7622757  59.5777699
  25.8440859  52.2926607  60.4068844  31.1628340  52.4145453  62.0276729
  30.5408349  51.7516158  61.7278957  31.8333207  52.4406585  61.3450377
  24.3955412  50.9805311  60.9167989  23.5587320  50.5527486  60.7351990
  24.3679057  51.1737755  61.8538780  31.2352867  40.8927241  71.6209235
  31.2841023  41.7689364  71.2387005  31.7775382  40.3504634  71.0480878
  30.7241847  50.9649376  55.5035190  30.8729967  51.6484841  54.8501863
  31.5308290  50.9454466  56.0184646  33.4652156  41.6458614  68.3755594
  32.5955465  41.9392180  68.1038182  33.7011636  42.2299059  69.0962858
  28.4794480  46.9914554  56.5096259  28.2340522  46.0876884  56.7076469
  28.6490394  46.9931705  55.5675737  36.1691190  37.8638230  65.8921014
  36.6873133  38.5999257  65.5667503  35.8146322  38.1702224  66.7267773
  27.7490127  42.7242912  54.0082420  27.0559372  42.7987267  53.3522456
  27.5041879  41.9603255  54.5303937  36.4203784  34.2838513  61.4121911
  36.7005538  33.6161702  62.0382337  37.2054391  34.4767609  60.8996575
  34.2237252  53.4597507  52.9746937  33.6511219  54.0787694  52.5217409
  34.7970046  54.0096869  53.5086859  40.2912642  42.7056147  65.1593486
  41.2430065  42.8054245  65.1805710  40.1216093  41.9134416  65.6691570
  38.3127022  39.7911730  65.3452887  37.7176954  40.0716743  64.6499376
  38.0276718  40.2805631  66.1169628  37.4434512  53.7434657  54.1055519
  38.3765185  53.6780219  54.3088395  37.3557725  54.5790924  53.6470052
  40.0722529  53.0600527  51.0659467  39.9936160  52.7260391  51.9595225
  40.8932196  53.5522295  51.0650939  34.6084051  44.7958320  50.3162990
  35.5543156  44.6664528  50.3851408  34.2298296  44.0572982  50.7932418
  40.5805935  36.4614326  60.2789882  40.3830756  36.1529414  61.1633213
  41.1905641  37.1875965  60.4087811  34.4922743  48.8476066  71.7763647
  35.4125753  49.0254665  71.9703693  34.4572326  47.9032111  71.6243346
  32.7926968  42.7208296  50.2517875  31.8858423  42.4241409  50.3280589
  33.0702949  42.4238114  49.3852161  23.7104908  44.0414659  60.7016921
  23.3907693  43.1879968  60.4091295  23.1638337  44.2563238  61.4574889
  27.4884816  46.7577100  64.4186428  27.7070826  47.6894208  64.4374462
  27.9010590  46.3985075  65.2041232  34.4089034  37.2645186  56.4062116
  33.5989762  36.9192271  56.7817362  35.0973451  36.9552729  56.9949728
  36.3379582  36.3423233  58.0286413  36.8910621  36.7618686  58.6876436
  36.5749668  35.4158981  58.0709369  32.3612681  42.3310306  73.8089177
  32.2609408  43.2804663  73.7401268  32.1434223  42.0028545  72.9365247
  31.5625753  39.5795231  50.3929854  32.4244917  39.9050130  50.6525671
  31.7476097  38.7926727  49.8802920  23.5793168  47.6617571  62.6710043
  22.8856640  47.2471524  62.1579997  24.3266159  47.7038107  62.0743462
  39.7158389  38.4523758  57.5365077  39.1357058  39.1108562  57.1543130
  39.4494322  37.6301102  57.1252495  38.1661955  37.8528815  59.7386397
  38.6661734  37.9645350  58.9300716  38.8097563  37.5489868  60.3787206
  32.2243951  45.7607445  72.6254238  31.7411033  46.5607805  72.8318127
  32.3104890  45.7715390  71.6721682  25.4929911  47.5935825  60.5476058
  25.4700599  47.6923512  59.5957941  25.8030547  48.4400976  60.8693224
  28.1517289  49.6511980  64.6622672  29.1060542  49.6195922  64.5952604
  27.9529812  49.1902603  65.4772898  28.7416671  48.2213096  67.2293470
  29.5609560  48.7157174  67.2528307  29.0153479  47.3045064  67.2011037
  38.4983267  40.6123848  56.5921425  37.6109122  40.8973499  56.3741620
  38.9137256  40.4517611  55.7448702  41.8497803  40.6370369  60.3075765
  42.6258193  41.1266822  60.5800381  41.1245937  41.0628423  60.7647634
  44.2870362  41.3497988  61.3649705  44.8814853  41.1093724  60.6543013
  44.3596946  40.6305119  61.9923242  26.5067518  55.1931599  61.6792870
  26.3721985  54.4332000  61.1130868  26.0899580  55.9172499  61.2121659
  37.6426481  50.3768523  50.6869445  38.3462331  50.5818525  51.3027101
  36.9189129  50.9445285  50.9518529  38.4724291  46.1278384  56.8071716
  38.4159492  46.5846935  55.9679348  39.0252633  45.3669069  56.6294558
  42.2829097  41.9168116  57.6321835  42.0266031  41.5164752  58.4630043
  41.6581965  42.6311910  57.5071974  46.5941435  44.6564189  60.1393126
  46.0340993  44.7257378  60.9124689  45.9884938  44.4805174  59.4192623
  29.6636643  56.0900916  61.8911313  29.5469028  57.0346349  61.7890003
  28.8429090  55.7874478  62.2797112  39.5513178  50.8151052  52.7367905
  40.3858782  50.3832250  52.5545380  39.3897521  50.6433066  53.6644800
  39.2059070  47.3183165  54.1024245  39.1507874  47.1527437  53.1612689
  38.5805125  48.0259198  54.2586434  23.9951585  42.5551230  67.9285667
  24.6410449  42.0450184  68.4172892  23.7868736  43.2919911  68.5029092
  32.5155196  36.8191274  53.6809563  32.5033865  37.7633114  53.8377834
  33.4078617  36.6361420  53.3869024  30.6891158  56.7429178  65.1067241
  31.5918404  56.7752788  65.4233736  30.4628528  55.8129629  65.1213577
  32.4444760  55.4960165  61.7677320  31.4940391  55.4962026  61.6541692
  32.7477246  54.7492899  61.2513354  36.3307315  33.4134051  57.9355500
  35.5639711  32.8592538  58.0812182  36.7418020  33.4855920  58.7969652
  28.3349076  39.7018847  72.0260681  29.1980538  39.3455652  72.2364006
  27.7614487  39.3632742  72.7136085  40.8473975  63.1383608  58.7581498
  40.2838840  63.0473545  57.9897786  40.7326370  62.3183512  59.2383990
  38.3938407  64.6334799  61.5965718  39.1859699  64.2925624  61.1812018
  38.6335057  64.7429774  62.5167872  46.4273534  66.8054575  54.0695963
  45.7761513  67.3908656  53.6829977  47.2217897  67.3360770  54.1291000
  40.3529161  63.8943712  54.4683097  41.1260037  63.3472700  54.3295973
  40.7054560  64.7587962  54.6797558  42.6895439  60.0536379  52.1001547
  42.9420959  59.5317900  51.3385010  41.7519998  59.8902524  52.2028231
  47.9048799  64.4945007  54.6064947  47.2694632  64.5679634  55.3185852
  47.5746205  65.0838606  53.9284026  42.4091727  61.9564485  54.3025922
  42.2927986  61.2809388  54.9707006  42.5193987  61.4696858  53.4858075
  44.3928755  56.4464531  53.0033960  44.5603158  57.3144768  53.3704431
  44.2025924  56.6091813  52.0795249  44.3717976  58.9022189  53.9880627
  44.2517601  59.3479240  54.8266107  43.6770565  59.2507506  53.4294165
  42.1324868  71.6725831  57.6370758  42.0548898  72.6233656  57.7159238
  41.5286512  71.3271703  58.2945684  50.0703042  59.3743662  54.8160961
  50.9820898  59.6071049  54.6408658  49.5612689  59.9580706  54.2536039
  43.1669473  60.2167041  56.2814192  43.8693516  60.6688085  56.7488119
  42.8350101  59.5750860  56.9094085  36.9094807  58.4750594  61.5831326
  36.1193861  58.7308122  61.1071436  37.4006054  59.2898931  61.6883366
  38.8609552  58.8395173  58.5414803  38.0640715  58.9513867  59.0598298
  38.6335144  59.1781825  57.6755693  35.1932510  58.7281084  64.0146317
  35.4440548  59.6128094  64.2803893  35.7292058  58.5485686  63.2421408
  44.4063237  67.0307984  56.3576297  44.2708912  67.8759519  56.7861145
  44.9473050  67.2327261  55.5942231  37.8592635  64.5483422  56.9304223
  38.3717155  65.3426672  57.0809787  38.5115347  63.8509712  56.8637824
  39.6687519  67.6649178  59.0126976  39.8454148  68.5867143  58.8247960
  40.4644353  67.3507597  59.4421356  35.8241551  62.8772076  57.7063793
  36.6616773  63.2869084  57.4897501  36.0019819  61.9371518  57.6763987
  47.7205984  60.5447157  53.3947626  47.2052607  61.3151761  53.6336013
  47.4483292  59.8712293  54.0180688  45.3053095  55.3896857  58.4532864
  44.4494691  55.0003708  58.2738503  45.7180046  55.4688818  57.5932650
  52.6940258  63.2979511  55.3300800  51.9169700  62.9590671  54.8855962
  53.3731739  63.3032134  54.6555765  47.5092287  58.4174249  55.2207407
  47.2042422  58.7320398  56.0717550  48.4622729  58.4955668  55.2634740
  45.9538719  64.5764472  56.8700361  45.4260080  63.8417232  56.5573599
  45.4526221  65.3539148  56.6240330  40.6857446  55.2384138  59.2306973
  41.2601198  55.0159320  58.4980166  41.2728429  55.3072833  59.9835574
  41.0127033  57.2688599  53.2502858  40.1764346  57.6063286  53.5712133
  40.8731803  57.1337579  52.3129995  42.9880114  52.1125387  57.9582042
  42.3344526  51.7974404  57.3338657  42.9460588  51.4901128  58.6841865
  44.0991319  62.3944682  49.8735334  43.1918380  62.1633936  50.0726483
  44.5962351  61.5982301  50.0609316  47.0059398  71.1042189  52.7932020
  46.3321096  71.4073886  53.4016978  47.3925220  71.9071270  52.4437477
  45.2779552  62.4957277  54.3959324  44.3690771  62.2116310  54.4931794
  45.3074636  62.9156356  53.5362631  50.5098820  66.1063867  58.1650492
  50.0561147  65.2654776  58.2215682  49.8792786  66.7425265  58.5025272
  49.4531739  57.0355853  59.3951159  48.7154496  56.5233239  59.7261402
  49.7058513  56.5956234  58.5834436  35.8467723  60.2162791  58.3774527
  35.6492122  59.6232152  57.6525593  35.2914387  59.9115001  59.0950465
  44.9755640  64.0366021  51.7347403  44.5375070  63.3201880  51.2753040
  45.7166081  64.2642136  51.1732494  41.7656806  58.7262957  58.2559499
  40.9524672  59.0257128  58.6624691  42.2615800  58.3318646  58.9733981
  53.0928755  62.3123218  57.7923721  52.9546653  62.5024814  56.8644911
  52.7364974  63.0742601  58.2491773  42.0331185  65.5983743  59.9855726
  42.8271783  65.1034063  59.7838301  41.3222877  65.0701606  59.6223432
  38.3413948  59.7426825  56.0615479  37.4111536  59.6811281  56.2785441
  38.4371420  59.2202778  55.2652120  38.2599497  56.2681638  58.6493720
  38.5206315  57.1826971  58.5402881  39.0816670  55.8006080  58.7990333
  45.2050613  71.2721862  55.0079100  45.3802368  70.8009905  55.8224722
  44.5183401  71.8987628  55.2360360  49.0966868  62.8950402  51.3279461
  48.4796038  62.1697231  51.2312513  48.6283356  63.6559763  50.9846535
  40.8865413  57.1135827  50.4500765  40.0094880  56.9924627  50.0863011
  41.3623167  56.3221905  50.1979653  32.4067554  61.9012986  60.5442272
  33.0938593  61.5874716  59.9563287  32.2515682  62.8054351  60.2709523
  44.0729340  69.4662117  57.6963285  43.2896861  70.0083797  57.7901510
  44.7722085  69.9836097  58.0957526  51.8528322  59.8745753  58.4485948
  52.3188774  60.7073745  58.3746251  52.3035822  59.4090735  59.1531207
  49.9204553  66.2189574  55.4472100  50.1964397  66.1046169  56.3565974
  49.0509052  65.8207059  55.4084273  46.5558617  70.4675925  59.0904914
  46.7381011  69.6497581  59.5532666  47.3791603  70.6843617  58.6529804
  46.8900782  69.3944110  56.3519962  47.4188549  68.8836565  55.7390124
  47.1529002  69.0786640  57.2165495  37.3917875  67.4107980  64.0955296
  37.9771312  66.6651667  64.2283200  37.1942713  67.7211936  64.9791960
  40.2456530  70.4459227  59.1117738  39.5766906  70.9305355  58.6281778
  40.1069400  70.6928447  60.0261117  31.9835530  59.9813580  62.8159739
  32.0219629  59.4477170  63.6096857  31.4775823  59.4548785  62.1970716
  35.6144107  58.7077682  55.8913670  35.9097548  57.7988360  55.8380724
  34.7132143  58.6865421  55.5694673  37.3431949  56.3891780  56.0152996
  37.0144655  55.5089158  55.8328102  37.6971320  56.3339448  56.9029385
  40.4573772  56.6764749  56.3828473  40.7969845  57.2050671  55.6607082
  40.9045893  57.0145155  57.1587040  42.4441919  55.1739371  54.5821766
  43.1650282  55.5520624  54.0785483  41.8207223  55.8928248  54.6856744
  46.5873042  55.8784520  55.5180098  46.8036656  56.7609158  55.2168927
  46.1067109  55.4870733  54.7885740  49.9840966  69.3660908  56.9674945
  50.1577843  68.8007331  56.2148798  50.4769857  70.1661803  56.7854435
  35.8017926  61.3775578  65.0338504  35.2571394  62.1535386  65.1658778
  36.6797276  61.7246382  64.8757626  42.5905542  54.7087161  57.4119303
  42.7121453  53.7803808  57.6110190  42.3007585  54.7225847  56.4997618
  55.8380357  62.1297331  58.5865245  56.2811503  61.3804657  58.1884368
  54.9606867  62.1207468  58.2038977  50.9716138  68.6827673  54.0671844
  51.6667043  69.3034366  54.2859158  51.3139288  67.8323024  54.3424222
  52.8707561  66.1327378  55.5959174  53.3958886  66.4714651  54.8708494
  52.7829914  65.1974394  55.4122309  44.5548222  72.1999362  59.9554428
  44.1153212  71.7075740  60.6487284  45.3056339  71.6572329  59.7146503
  37.0340561  68.3910903  59.9579056  37.8598581  68.0914674  59.5777699
  36.6834613  67.6218525  60.4068844  41.5635601  66.2941294  55.5035190
  41.7123722  66.9776758  54.8501863  42.3702045  66.2746384  56.0184646
  39.3188234  62.3206472  56.5096259  39.0734276  61.4168802  56.7076469
  39.4884149  62.3223622  55.5675737  38.5883882  58.0534829  54.0082420
  37.8953127  58.1279184  53.3522456  38.3435634  57.2895173  54.5303937
  45.0631007  68.7889425  52.9746937  44.4904974  69.4079612  52.5217409
  45.6363800  69.3388786  53.5086859  48.2828267  69.0726575  54.1055519
  49.2158940  69.0072136  54.3088395  48.1951479  69.9082842  53.6470052
  50.9116283  68.3892445  51.0659467  50.8329915  68.0552309  51.9595225
  51.7325950  68.8814213  51.0650939  45.4477805  60.1250237  50.3162990
  46.3936910  59.9956445  50.3851408  45.0692050  59.3864899  50.7932418
  43.6320722  58.0500214  50.2517875  42.7252178  57.7533326  50.3280589
  43.9096703  57.7530032  49.3852161  34.5498663  59.3706577  60.7016921
  34.2301447  58.5171885  60.4091295  34.0032091  59.5855155  61.4574889
  45.2482788  52.5937103  56.4062116  44.4383516  52.2484188  56.7817362
  45.9367205  52.2844647  56.9949728  47.1773336  51.6715150  58.0286413
  47.7304375  52.0910604  58.6876436  47.4143423  50.7450898  58.0709369
  42.4019507  54.9087149  50.3929854  43.2638671  55.2342047  50.6525671
  42.5869851  54.1218645  49.8802920  34.4186923  62.9909489  62.6710043
  33.7250394  62.5763441  62.1579997  35.1659914  63.0330025  62.0743462
  36.3323665  62.9227742  60.5476058  36.3094353  63.0215430  59.5957941
  36.6424302  63.7692893  60.8693224  49.3377022  55.9415766  56.5921425
  48.4502877  56.2265416  56.3741620  49.7531011  55.7809529  55.7448702
  37.3461272  70.5223517  61.6792870  37.2115740  69.7623918  61.1130868
  36.9293334  71.2464417  61.2121659  48.4820235  65.7060440  50.6869445
  49.1856085  65.9110443  51.3027101  47.7582884  66.2737202  50.9518529
  49.3118045  61.4570302  56.8071716  49.2553247  61.9138853  55.9679348
  49.8646388  60.6960986  56.6294558  40.5030398  71.4192834  61.8911313
  40.3862782  72.3638266  61.7890003  39.6822844  71.1166395  62.2797112
  50.3906932  66.1442970  52.7367905  51.2252536  65.7124168  52.5545380
  50.2291275  65.9724983  53.6644800  50.0452825  62.6475083  54.1024245
  49.9901628  62.4819354  53.1612689  49.4198880  63.3551116  54.2586434
  34.8345340  57.8843147  67.9285667  35.4804203  57.3742101  68.4172892
  34.6262491  58.6211829  68.5029092  43.3548950  52.1483192  53.6809563
  43.3427620  53.0925032  53.8377834  44.2472372  51.9653337  53.3869024
  47.1701070  48.7425969  57.9355500  46.4033465  48.1884455  58.0812182
  47.5811774  48.8147837  58.7969652  51.6867729  78.4675525  58.7581498
  51.1232595  78.3765462  57.9897786  51.5720125  77.6475430  59.2383990
  49.2332161  79.9626717  61.5965718  50.0253453  79.6217542  61.1812018
  49.4728812  80.0721692  62.5167872  57.2667288  82.1346493  54.0695963
  56.6155268  82.7200573  53.6829977  58.0611651  82.6652688  54.1291000
  51.1922915  79.2235630  54.4683097  51.9653791  78.6764617  54.3295973
  51.5448314  80.0879879  54.6797558  53.0307958  80.5512012  67.6749996
  52.7397824  81.4557643  67.5596663  53.6664942  80.5928540  68.3894066
  53.9564165  77.9288861  64.2651356  54.5527737  77.7044883  63.5508319
  54.0139136  77.1873606  64.8676804  53.5289193  75.3828296  52.1001547
  53.7814714  74.8609818  51.3385010  52.5913752  75.2194442  52.2028231
  58.5732476  74.3864075  59.9076290  59.3595565  73.9683498  59.5566707
  58.8371180  75.2910167  60.0757939  58.7442553  79.8236925  54.6064947
  58.1088386  79.8971551  55.3185852  58.4139960  80.4130524  53.9284026
  53.2485482  77.2856402  54.3025922  53.1321740  76.6101306  54.9707006
  53.3587742  76.7988776  53.4858075  55.5917023  76.7466549  58.0072611
  55.2275230  76.2197170  58.7185533  56.4484139  76.3565018  57.8339097
  55.2322510  71.7756449  53.0033960  55.3996912  72.6436685  53.3704431
  55.0419679  71.9383731  52.0795249  57.9897843  80.2373428  64.6699790
  57.6898566  81.1398467  64.5615597  57.6448903  79.9705611  65.5220943
  51.4410324  76.6887225  60.7036494  50.5160821  76.5563439  60.9114186
  51.6894738  77.4681444  61.2006437  55.2111731  74.2314106  53.9880627
  55.0911356  74.6771157  54.8266107  54.5164319  74.5799424  53.4294165
  52.9718623  87.0017748  57.6370758  52.8942653  87.9525573  57.7159238
  52.3680266  86.6563621  58.2945684  59.5166379  79.6861398  62.2074542
  58.8875242  79.8507112  61.5050610  59.1292041  80.1003008  62.9785506
  63.3955611  80.6215836  59.5618906  62.7106649  81.0014737  59.0115939
  63.4799460  81.2311163  60.2950854  60.6506543  78.2675795  66.1614249
  60.8623438  78.9107555  65.4848630  60.6036291  77.4338112  65.6936179
  58.2532772  70.8793616  63.0650821  57.3917251  71.1774869  63.3567559
  58.2795206  71.0964015  62.1331854  55.0694341  79.4235806  59.4724627
  55.5332687  79.7023509  58.6829250  54.8051139  78.5219251  59.2897718
  51.9618422  78.9707288  62.4104390  52.5319779  79.3994556  61.7721875
  52.5526534  78.6889872  63.1088576  54.0063227  75.5458959  56.2814192
  54.7087270  75.9980002  56.7488119  53.6743856  74.9042777  56.9094085
  61.7652371  81.1447750  64.3336607  62.5869814  80.7427938  64.0519288
  61.7614773  81.0415985  65.2852722  49.7003306  74.1687090  58.5414803
  48.9034470  74.2805785  59.0598298  49.4728899  74.5073743  57.6755693
  55.5308974  80.6931794  66.4897317  55.5953407  81.1552201  67.3255489
  54.8219898  80.0629159  66.6179627  69.8558364  77.4886499  60.6821578
  69.1022072  76.9193897  60.5265583  69.9905905  77.4549163  61.6292213
  55.2456992  82.3599901  56.3576297  55.1102667  83.2051437  56.7861145
  55.7866804  82.5619179  55.5942231  48.6986389  79.8775339  56.9304223
  49.2110910  80.6718589  57.0809787  49.3509102  79.1801630  56.8637824
  50.5081274  82.9941096  59.0126976  50.6847902  83.9159060  58.8247960
  51.3038107  82.6799515  59.4421356  56.8725468  82.9823468  70.4876640
  56.4289322  82.1959846  70.1697544  57.5342682  83.1702618  69.8220530
  51.6312589  84.5119269  65.0137318  52.1820014  84.3836333  64.2414312
  50.7924065  84.8114158  64.6632211  58.9706706  83.2626268  68.5158041
  58.9525182  84.0835149  68.0238310  59.8926626  83.1380343  68.7408182
  55.4279760  80.7770397  69.3581549  55.9608097  80.0158685  69.1280857
  54.8993841  80.4844049  70.1005704  46.6635306  78.2063994  57.7063793
  47.5010528  78.6161002  57.4897501  46.8413574  77.2663436  57.6763987
  58.5599738  75.8739074  53.3947626  58.0446361  76.6443679  53.6336013
  58.2877046  75.2004210  54.0180688  56.1446849  70.7188775  58.4532864
  55.2888445  70.3295625  58.2738503  56.5573801  70.7980736  57.5932650
  63.5334012  78.6271429  55.3300800  62.7563455  78.2882588  54.8855962
  64.2125493  78.6324052  54.6555765  58.3486041  73.7466166  55.2207407
  58.0436177  74.0612315  56.0717550  59.3016483  73.8247586  55.2634740
  56.7932473  79.9056390  56.8700361  56.2653835  79.1709149  56.5573599
  56.2919976  80.6831066  56.6240330  61.7725319  78.1005410  61.9867408
  61.1148993  78.7904671  62.0747536  62.5765718  78.4901842  62.3301394
  51.5251201  70.5676056  59.2306973  52.0994953  70.3451237  58.4980166
  52.1122183  70.6364750  59.9835574  60.5830778  76.4549783  60.0371349
  61.0962660  77.0879775  60.5393059  61.2332002  75.8550978  59.6714709
  51.8520788  72.5980517  53.2502858  51.0158100  72.9355203  53.5712133
  51.7125557  72.4629497  52.3129995  53.8273868  67.4417305  57.9582042
  53.1738281  67.1266322  57.3338657  53.7854342  66.8193045  58.6841865
  54.9385073  77.7236600  49.8735334  54.0312135  77.4925853  50.0726483
  55.4356105  76.9274219  50.0609316  57.8453152  86.4334107  52.7932020
  57.1714851  86.7365804  53.4016978  58.2318974  87.2363187  52.4437477
  57.8446656  75.3290654  57.4132370  58.5918475  75.8412051  57.1039492
  58.1138246  75.0074707  58.2736764  56.1173307  77.8249195  54.3959324
  55.2084526  77.5408228  54.4931794  56.1468390  78.2448273  53.5362631
  61.3492574  81.4355784  58.1650492  60.8954901  80.5946694  58.2215682
  60.7186541  82.0717183  58.5025272  59.7925513  83.2732281  59.1000310
  60.0848488  83.8337338  58.3812676  60.3024134  83.5660842  59.8553469
  46.6861477  75.5454709  58.3774527  46.4885877  74.9524070  57.6525593
  46.1308141  75.2406919  59.0950465  54.6658201  75.4377815  60.4969120
  54.7206810  74.4851652  60.4211596  53.8549403  75.5937254  60.9810418
  55.8149394  79.3657938  51.7347403  55.3768824  78.6493797  51.2753040
  56.5559835  79.5934053  51.1732494  52.6050561  74.0554875  58.2559499
  51.7918426  74.3549046  58.6624691  53.1009555  73.6610564  58.9733981
  54.7559138  84.0512632  60.1893763  54.7135317  84.2773478  59.2602295
  55.6721837  83.8176007  60.3379564  63.9322509  77.6415135  57.7923721
  63.7940408  77.8316731  56.8644911  63.5758728  78.4034518  58.2491773
  52.8724939  80.9275661  59.9855726  53.6665538  80.4325981  59.7838301
  52.1616632  80.3993524  59.6223432  57.6919784  83.3093757  64.3368094
  57.7456806  83.8784693  65.1045809  56.8234565  83.4795642  63.9722131
  49.1807703  75.0718743  56.0615479  48.2505291  75.0103198  56.2785441
  49.2765175  74.5494696  55.2652120  49.0993252  71.5973556  58.6493720
  49.3600069  72.5118889  58.5402881  49.9210424  71.1297998  58.7990333
  64.8207438  79.7515363  65.3367878  65.0143328  80.6561174  65.5827153
  64.7208057  79.2922782  66.1706463  55.4496215  81.5004683  63.6653563
  55.3107301  81.1323467  64.5379501  54.6610812  82.0152322  63.4937521
  56.0444367  86.6013779  55.0079100  56.2196123  86.1301823  55.8224722
  55.3577155  87.2279546  55.2360360  57.0001430  80.8786286  61.0542401
  56.6651263  80.8387056  61.9500051  56.5005376  80.2131002  60.5812811
  59.9360622  78.2242320  51.3279461  59.3189793  77.4989148  51.2312513
  59.4677111  78.9851680  50.9846535  61.5914754  82.9341228  68.9885241
  61.5327300  82.2500449  68.3215824  61.9934272  83.6760218  68.5365867
  50.6105453  89.7503142  61.7818960  50.8502051  90.3821666  62.4597978
  49.7674649  89.3991182  62.0684319  51.7259168  72.4427744  50.4500765
  50.8488634  72.3216545  50.0863011  52.2016921  71.6513823  50.1979653
  61.5932161  80.8980812  67.2199221  60.7058940  80.5606734  67.3425619
  62.1630712  80.1663844  67.4567986  43.2461308  77.2304904  60.5442272
  43.9332348  76.9166634  59.9563287  43.0909437  78.1346269  60.2709523
  55.1233314  85.5582265  64.1860464  55.0503486  86.3637236  64.6979768
  54.6810707  85.7574231  63.3608485  54.9123094  84.7954035  57.6963285
  54.1290616  85.3375715  57.7901510  55.6115839  85.3128014  58.0957526
  58.2219744  70.6048664  60.3397491  58.7188444  69.8518626  60.0198561
  57.4506726  70.6412981  59.7740700  57.5831998  85.4569099  66.3418622
  58.2959970  86.0916564  66.2694524  57.0922027  85.5532965  65.5258624
  59.3049525  79.3620351  57.9135914  58.3705804  79.4821814  57.7440618
  59.4826193  78.4592818  57.6495924  52.6343911  83.2063542  67.1624193
  53.3353371  83.8400025  67.3153587  52.1639026  83.5478274  66.4019832
  60.7598307  81.5481492  55.4472100  61.0358151  81.4338087  56.3565974
  59.8902806  81.1498977  55.4084273  57.3952371  85.7967843  59.0904914
  57.5774766  84.9789499  59.5532666  58.2185357  86.0135535  58.6529804
  57.7294537  84.7236028  56.3519962  58.2582303  84.2128483  55.7390124
  57.9922756  84.4078558  57.2165495  48.2311630  82.7399897  64.0955296
  48.8165066  81.9943585  64.2283200  48.0336468  83.0503854  64.9791960
  51.0850285  85.7751145  59.1117738  50.4160660  86.2597272  58.6281778
  50.9463154  86.0220365  60.0261117  55.2255553  87.8094888  65.7100397
  55.7773861  87.9726510  66.4749482  55.5661747  88.3999326  65.0380422
  60.0766428  82.6356146  71.5649051  60.6206332  83.2486104  71.0704006
  59.4953272  83.1935724  72.0816064  46.4537862  74.0369600  55.8913670
  46.7491303  73.1280278  55.8380724  45.5525898  74.0157339  55.5694673
  58.3623941  85.7576864  62.6964079  58.2375080  84.9566604  62.1875024
  59.0203032  86.2523057  62.2078049  60.4258849  83.5585884  64.3243629
  59.4789185  83.4391235  64.2521956  60.7741622  82.6708382  64.4069890
  48.1825703  71.7183697  56.0152996  47.8538410  70.8381076  55.8328102
  48.5365074  71.6631366  56.9029385  57.4305282  83.3538600  60.5247981
  57.2830245  82.4255307  60.7055551  58.2558776  83.3758691  60.0405056
  51.2967527  72.0056667  56.3828473  51.6363599  72.5342588  55.6607082
  51.7439647  72.3437073  57.1587040  61.0339404  84.1767159  61.6112854
  61.9585952  83.9710020  61.4737305  60.8654707  83.9283560  62.5202195
  53.2835674  70.5031289  54.5821766  54.0044036  70.8812541  54.0785483
  52.6600978  71.2220165  54.6856744  60.8234720  84.6952826  56.9674945
  60.9971598  84.1299249  56.2148798  61.3163612  85.4953721  56.7854435
  53.4299297  70.0379079  57.4119303  53.5515208  69.1095725  57.6110190
  53.1401339  70.0517765  56.4997618  61.8109893  84.0119591  54.0671844
  62.5060797  84.6326283  54.2859158  62.1533043  83.1614942  54.3424222
  63.7101316  81.4619296  55.5959174  64.2352640  81.8006569  54.8708494
  63.6223668  80.5266311  55.4122309  55.3721365  85.3753370  67.7249051
  55.6808491  85.1302516  68.5971751  56.1696847  85.5800008  67.2367921
  55.3941977  87.5291279  59.9554428  54.9546967  87.0367658  60.6487284
  56.1450094  86.9864247  59.7146503  47.8734316  83.7202820  59.9579056
  48.6992336  83.4206592  59.5777699  47.5228368  82.9510443  60.4068844
  52.8415849  83.0729288  62.0276729  52.2195858  82.4099993  61.7278957
  53.5120716  83.0990420  61.3450377  46.0742921  81.6389147  60.9167989
  45.2374829  81.2111321  60.7351990  46.0466566  81.8321590  61.8538780
  63.3995222  82.0952200  70.9010372  62.6090766  82.0776339  70.3614872
  63.1628577  82.6340493  71.6559409  52.4029356  81.6233212  55.5035190
  52.5517476  82.3068676  54.8501863  53.2095799  81.6038302  56.0184646
  65.0211294  81.3641608  68.4585122  64.7296102  81.7271588  69.2948583
  64.4083425  80.6508616  68.2798454  63.2698482  76.4874222  66.9265180
  63.7452604  76.6801869  66.1184032  62.3464047  76.5433408  66.6808564
  50.1581989  77.6498389  56.5096259  49.9128031  76.7460719  56.7076469
  50.3277903  77.6515540  55.5675737  49.4277636  73.3826747  54.0082420
  48.7346881  73.4571102  53.3522456  49.1829388  72.6187091  54.5303937
  55.9024761  84.1181342  52.9746937  55.3298728  84.7371529  52.5217409
  56.4757555  84.6680704  53.5086859  61.9700151  73.3639982  65.1593486
  62.9217574  73.4638080  65.1805710  61.8003602  72.5718251  65.6691570
  59.9914531  70.4495566  65.3452887  59.3964463  70.7300578  64.6499376
  59.7064227  70.9389466  66.1169628  59.1222021  84.4018492  54.1055519
  60.0552694  84.3364054  54.3088395  59.0345234  85.2374759  53.6470052
  61.7510038  83.7184363  51.0659467  61.6723669  83.3844226  51.9595225
  62.5719705  84.2106131  51.0650939  56.2871560  75.4542155  50.3162990
  57.2330664  75.3248363  50.3851408  55.9085805  74.7156817  50.7932418
  70.2664779  77.6462109  63.4141822  70.9968167  77.3847397  63.9749526
  69.6571724  76.9090831  63.4543890  54.4714477  73.3792131  50.2517875
  53.5645932  73.0825244  50.3280589  54.7490458  73.0821949  49.3852161
  56.0876543  67.9229021  56.4062116  55.2777271  67.5776106  56.7817362
  56.7760960  67.6136565  56.9949728  53.2413262  70.2379067  50.3929854
  54.1032426  70.5633965  50.6525671  53.4263606  69.4510562  49.8802920
  47.1717420  78.2519660  60.5476058  47.1488108  78.3507347  59.5957941
  47.4818056  79.0984811  60.8693224  48.1855027  85.8515435  61.6792870
  48.0509494  85.0915835  61.1130868  47.7687089  86.5756334  61.2121659
  59.3213990  81.0352358  50.6869445  60.0249840  81.2402361  51.3027101
  58.5976638  81.6029120  50.9518529  60.1511800  76.7862219  56.8071716
  60.0947001  77.2430771  55.9679348  60.7040142  76.0252904  56.6294558
  51.3424152  86.7484752  61.8911313  51.2256537  87.6930184  61.7890003
  50.5216599  86.4458313  62.2797112  61.2300687  81.4734887  52.7367905
  62.0646291  81.0416086  52.5545380  61.0685030  81.3016901  53.6644800
  60.8846579  77.9767001  54.1024245  60.8295383  77.8111272  53.1612689
  60.2592634  78.6843034  54.2586434  54.1942705  67.4775110  53.6809563
  54.1821374  68.4216950  53.8377834  55.0866126  67.2945255  53.3869024
  52.3678667  87.4013013  65.1067241  53.2705913  87.4336624  65.4233736
  52.1416037  86.4713464  65.1213577  54.1232269  86.1544000  61.7677320
  53.1727900  86.1545862  61.6541692  54.4264755  85.4076735  61.2513354
  69.8584962  91.9904538  62.8323082  70.4963372  91.8711286  62.1286422
  69.7405805  92.9385382  62.8911034  66.6674668  91.9431967  62.7684607
  66.3293180  91.8273031  61.8805142  67.5364436  91.5423132  62.7485613
  62.5261484  93.7967443  58.7581498  61.9626349  93.7057380  57.9897786
  62.4113879  92.9767347  59.2383990  67.1494451  93.0966818  68.7270812
  67.1383092  92.7019617  67.8551316  67.3115091  92.3632891  69.3204584
  60.0725916  95.2918635  61.5965718  60.8647208  94.9509459  61.1812018
  60.3122566  95.4013610  62.5167872  68.1061043  97.4638411  54.0695963
  67.4549022  98.0492491  53.6829977  68.9005406  97.9944606  54.1291000
  62.0316670  94.5527548  54.4683097  62.8047546  94.0056535  54.3295973
  62.3842069  95.4171797  54.6797558  63.8701712  95.8803930  67.6749996
  63.5791578  96.7849561  67.5596663  64.5058697  95.9220458  68.3894066
  64.7957919  93.2580779  64.2651356  65.3921492  93.0336801  63.5508319
  64.8532891  92.5165524  64.8676804  64.3682948  90.7120214  52.1001547
  64.6208468  90.1901735  51.3385010  63.4307507  90.5486359  52.2028231
  69.4126230  89.7155992  59.9076290  70.1989320  89.2975415  59.5566707
  69.6764935  90.6202084  60.0757939  69.5836308  95.1528843  54.6064947
  68.9482141  95.2263469  55.3185852  69.2533714  95.7422441  53.9284026
  74.8134658  89.6531225  60.8109269  75.5459830  89.0830442  61.0447098
  74.0574013  89.2652826  61.2515774  64.0879236  92.6148320  54.3025922
  63.9715495  91.9393223  54.9707006  64.1981496  92.1280694  53.4858075
  66.4310777  92.0758467  58.0072611  66.0668985  91.5489088  58.7185533
  67.2877893  91.6856936  57.8339097  72.3360078  83.3652800  65.2703877
  72.0043403  84.2348211  65.0465092  71.7405691  83.0489084  65.9497908
  66.0716264  87.1048367  53.0033960  66.2390667  87.9728603  53.3704431
  65.8813433  87.2675648  52.0795249  68.8291597  95.5665346  64.6699790
  68.5292321  96.4690384  64.5615597  68.4842657  95.2997529  65.5220943
  62.2804079  92.0179142  60.7036494  61.3554575  91.8855357  60.9114186
  62.5288492  92.7973362  61.2006437  72.2288741  88.0847886  62.3497227
  71.3205619  88.0163294  62.0555988  72.1776337  88.5619831  63.1779053
  66.0505485  89.5606024  53.9880627  65.9305110  90.0063075  54.8266107
  65.3558074  89.9091342  53.4294165  59.6412890  91.6612416  61.5380284
  59.7705271  91.9146895  62.4519695  58.9610341  92.2540124  61.2184939
  63.8112377 102.3309666  57.6370758  63.7336407 103.2817491  57.7159238
  63.2074021 101.9855538  58.2945684  66.3029607  89.5037531  70.2932125
  65.5262941  90.0631451  70.2834989  66.9420170  89.9894314  70.8146995
  74.0950388  86.2864324  64.1275101  73.4524768  86.5796857  63.4814896
  73.5905316  86.1717244  64.9328298  71.7490551  90.0327497  54.8160961
  72.6608407  90.2654884  54.6408658  71.2400198  90.6164542  54.2536039
  64.5575979  92.3122985  69.8550092  65.2990664  92.8508029  69.5784915
  63.8512965  92.9389273  70.0121643  70.0331319  94.4552125  68.4522253
  70.4414675  94.0134536  67.7076886  69.3108581  93.8804753  68.7056446
  66.3862389  89.3924732  65.8255810  67.2323584  89.8164145  65.9690459
  66.3261027  88.7358356  66.5194373  70.3560134  95.0153316  62.2074542
  69.7268996  95.1799030  61.5050610  69.9685796  95.4294925  62.9785506
  74.2349366  95.9507754  59.5618906  73.5500404  96.3306655  59.0115939
  74.3193215  96.5603080  60.2950854  69.5361834  87.0529100  67.4836984
  69.2922766  87.8071161  66.9471259  69.8121765  87.4314448  68.3184231
  71.4900297  93.5967713  66.1614249  71.7017192  94.2399473  65.4848630
  71.4430045  92.7630029  65.6936179  69.0926526  86.2085533  63.0650821
  68.2311005  86.5066787  63.3567559  69.1188961  86.4255932  62.1331854
  65.9088096  94.7527724  59.4724627  66.3726441  95.0315427  58.6829250
  65.6444894  93.8511168  59.2897718  62.8012177  94.2999205  62.4104390
  63.3713534  94.7286474  61.7721875  63.3920288  94.0181790  63.1088576
  64.8456982  90.8750876  56.2814192  65.5481025  91.3271920  56.7488119
  64.5137610  90.2334695  56.9094085  63.2937343  89.4662633  70.6565402
  62.6636004  90.1478914  70.8900798  63.1873431  89.3545714  69.7118540
  58.5882316  89.1334429  61.5831326  57.7981370  89.3891957  61.1071436
  59.0793563  89.9482767  61.6883366  72.6046125  96.4739668  64.3336607
  73.4263569  96.0719855  64.0519288  72.6008528  96.3707902  65.2852722
  60.5397061  89.4979008  58.5414803  59.7428224  89.6097702  59.0598298
  60.3122653  89.8365660  57.6755693  66.3702729  96.0223711  66.4897317
  66.4347161  96.4844119  67.3255489  65.6613652  95.3921076  66.6179627
  56.8720019  89.3864919  64.0146317  57.1228057  90.2711929  64.2803893
  57.4079567  89.2069521  63.2421408  80.6952118  92.8178417  60.6821578
  79.9415827  92.2485815  60.5265583  80.8299659  92.7841081  61.6292213
  66.0850746  97.6891819  56.3576297  65.9496421  98.5343355  56.7861145
  66.6260559  97.8911097  55.5942231  62.5718086  83.7683399  73.0190653
  62.1785031  83.2149597  73.6938297  63.3884226  84.0793977  73.4097170
  59.5380144  95.2067257  56.9304223  60.0504664  96.0010507  57.0809787
  60.1902856  94.5093547  56.8637824  61.3475028  98.3233013  59.0126976
  61.5241657  99.2450978  58.8247960  62.1431862  98.0091432  59.4421356
  65.4886047  85.1841278  70.6110909  66.2295760  85.7848431  70.5315372
  65.7203970  84.4418916  70.0528952  60.6327385  90.3697645  68.8889139
  60.5180900  89.4682902  69.1896238  59.7771903  90.6161342  68.5373955
  67.7119223  98.3115385  70.4876640  67.2683077  97.5251764  70.1697544
  68.3736436  98.4994536  69.8220530  62.4706344  99.8411187  65.0137318
  63.0213769  99.7128250  64.2414312  61.6317820 100.1406076  64.6632211
  69.8100461  98.5918185  68.5158041  69.7918936  99.4127066  68.0238310
  70.7320381  98.4672261  68.7408182  66.2673515  96.1062315  69.3581549
  66.8001852  95.3450603  69.1280857  65.7387596  95.8135967  70.1005704
  69.4343210  81.2122381  64.8875191  69.0907479  82.1024022  64.8114302
  69.8022172  81.0224038  64.0244776  57.5029060  93.5355911  57.7063793
  58.3404282  93.9452920  57.4897501  57.6807328  92.5955353  57.6763987
  69.3993493  91.2030992  53.3947626  68.8840116  91.9735596  53.6336013
  69.1270801  90.5296128  54.0180688  66.9840604  86.0480693  58.4532864
  66.1282200  85.6587543  58.2738503  67.3967555  86.1272653  57.5932650
  68.5139750  83.5827036  62.8524424  68.0104546  83.5457171  62.0392229
  68.8070357  84.4919779  62.9121081  64.7582636  83.6665766  61.8590606
  65.6235633  83.4708574  61.4996495  64.8260145  83.4376117  62.7859963
  74.3727767  93.9563347  55.3300800  73.5957209  93.6174506  54.8855962
  75.0519248  93.9615970  54.6555765  69.1879796  89.0758084  55.2207407
  68.8829931  89.3904233  56.0717550  70.1410238  89.1539504  55.2634740
  67.6326228  95.2348307  56.8700361  67.1047589  94.5001067  56.5573599
  67.1313730  96.0122984  56.6240330  72.6119074  93.4297328  61.9867408
  71.9542748  94.1196589  62.0747536  73.4159473  93.8193760  62.3301394
  62.3644955  85.8967974  59.2306973  62.9388707  85.6743155  58.4980166
  62.9515938  85.9656668  59.9835574  71.4224532  91.7841700  60.0371349
  71.9356414  92.4171692  60.5393059  72.0725756  91.1842896  59.6714709
  62.6914542  87.9272435  53.2502858  61.8551855  88.2647121  53.5712133
  62.5519312  87.7921414  52.3129995  64.6667623  82.7709222  57.9582042
  64.0132035  82.4558240  57.3338657  64.6248097  82.1484963  58.6841865
  65.7778828  93.0528518  49.8735334  64.8705889  92.8217771  50.0726483
  66.2749860  92.2566137  50.0609316  68.6846907 101.7626025  52.7932020
  68.0108605 102.0657721  53.4016978  69.0712729 102.5655105  52.4437477
  67.9005363  89.2591156  62.2829690  66.9827925  89.4806103  62.1251378
  68.3165507  89.3337466  61.4241397  68.6840411  90.6582572  57.4132370
  69.4312230  91.1703969  57.1039492  68.9532001  90.3366624  58.2736764
  66.9567061  93.1541112  54.3959324  66.0478280  92.8700145  54.4931794
  66.9862145  93.5740191  53.5362631  72.1886329  96.7647702  58.1650492
  71.7348656  95.9238612  58.2215682  71.5580295  97.4009100  58.5025272
  71.1319248  87.6939688  59.3951159  70.3942005  87.1817074  59.7261402
  71.3846022  87.2540070  58.5834436  70.6319268  98.6024199  59.1000310
  70.9242242  99.1629256  58.3812676  71.1417888  98.8952760  59.8553469
  71.2330875  80.4715940  59.9892929  71.5389752  79.6113303  59.7018844
  71.9583480  81.0633560  59.7891923  57.5255232  90.8746627  58.3774527
  57.3279631  90.2815987  57.6525593  56.9701896  90.5698837  59.0950465
  65.5051955  90.7669733  60.4969120  65.5600565  89.8143569  60.4211596
  64.6943157  90.9229172  60.9810418  66.6543149  94.6949856  51.7347403
  66.2162579  93.9785715  51.2753040  67.3953590  94.9225971  51.1732494
  63.4444315  89.3846793  58.2559499  62.6312181  89.6840963  58.6624691
  63.9403309  88.9902482  58.9733981  65.5952893  99.3804550  60.1893763
  65.5529072  99.6065396  59.2602295  66.5115592  99.1467924  60.3379564
  69.0418527  89.8488617  67.0874392  69.3967915  90.0760090  67.9468858
  69.6890658  90.1806994  66.4651648  74.7716264  92.9707053  57.7923721
  74.6334162  93.1608649  56.8644911  74.4152483  93.7326436  58.2491773
  62.9358390  86.9565148  63.8720734  63.5757769  86.8153907  63.1743697
  62.1035920  86.6699662  63.4959336  74.7985643  95.0383580  62.8034993
  75.2322150  94.9458869  63.6518047  75.5117224  95.0141081  62.1655009
  63.7118694  96.2567579  59.9855726  64.5059292  95.7617899  59.7838301
  63.0010386  95.7285442  59.6223432  68.5313538  98.6385674  64.3368094
  68.5850561  99.2076611  65.1045809  67.6628320  98.8087559  63.9722131
  60.0201457  90.4010660  56.0615479  59.0899045  90.3395116  56.2785441
  60.1158929  89.8786613  55.2652120  59.9387006  86.9265473  58.6493720
  60.1993824  87.8410807  58.5402881  60.7604179  86.4589916  58.7990333
  61.4111932  88.3403230  65.8192545  62.0834985  88.1320593  65.1705194
  60.5841718  88.1425316  65.3797777  75.6601193  95.0807281  65.3367878
  75.8537083  95.9853091  65.5827153  75.5601811  94.6214700  66.1706463
  67.3137504  84.9665171  67.8358206  66.6665419  85.6655121  67.7422682
  68.0838519  85.4001315  68.2034454  70.7216302  95.2314024  70.9108759
  70.5701808  95.0024575  69.9938843  70.7120981  96.1884625  70.9240104
  67.4901638  92.8045936  65.8955025  68.4193698  92.9557096  65.7223993
  67.0692668  92.8929957  65.0403672  66.2889970  96.8296601  63.6653563
  66.1501055  96.4615385  64.5379501  65.5004566  97.3444240  63.4937521
  66.8838122 101.9305697  55.0079100  67.0589877 101.4593740  55.8224722
  66.1970910 102.5571463  55.2360360  67.8395185  96.2078203  61.0542401
  67.5045018  96.1678973  61.9500051  67.3399131  95.5422919  60.5812811
  61.8139429  91.6145833  66.5794982  61.6759227  90.8826072  67.1806521
  62.7244352  91.5254734  66.2979170  70.7754377  93.5534238  51.3279461
  70.1583547  92.8281066  51.2312513  70.3070865  94.3143598  50.9846535
  64.4421730  91.3265793  66.0678662  65.1521348  90.6858985  66.0265280
  64.3991038  91.5778688  66.9904842  72.4308508  98.2633146  68.9885241
  72.3721054  97.5792366  68.3215824  72.8328027  99.0052136  68.5365867
  63.1550664  88.3131011  67.8874301  62.6188021  87.8621749  68.5395897
  62.5667372  88.4476919  67.1444765  61.4499207 105.0795060  61.7818960
  61.6895805 105.7113584  62.4597978  60.6068403 104.7283100  62.0684319
  62.5652922  87.7719662  50.4500765  61.6882389  87.6508463  50.0863011
  63.0410676  86.9805740  50.1979653  72.4325915  96.2272730  67.2199221
  71.5452694  95.8898652  67.3425619  73.0024467  95.4955761  67.4567986
  54.0855063  92.5596822  60.5442272  54.7726102  92.2458552  59.9563287
  53.9303191  93.4638186  60.2709523  58.8889785  87.4487018  64.9727296
  58.8047973  86.8412688  64.2377706  58.0672491  87.9396037  64.9736792
  65.9627069 100.8874182  64.1860464  65.8897240 101.6929154  64.6979768
  65.5204462 101.0866148  63.3608485  65.7516849 100.1245952  57.6963285
  64.9684370 100.6667633  57.7901510  66.4509594 100.6419932  58.0957526
  69.0613499  85.9340582  60.3397491  69.5582198  85.1810544  60.0198561
  68.2900480  85.9704899  59.7740700  76.9143256  91.6380947  61.9815782
  76.9033132  92.5205663  61.6109715  76.0460635  91.2852498  61.7870319
  68.4225752 100.7861016  66.3418622  69.1353725 101.4208481  66.2694524
  67.9315781 100.8824882  65.5258624  70.1443279  94.6912269  57.9135914
  69.2099558  94.8113732  57.7440618  70.3219948  93.7884736  57.6495924
  65.6448467  88.0757965  60.0669175  65.2746255  87.5229005  60.7550081
  66.1407560  87.4716098  59.5144175  73.5315831  90.5329588  58.4485948
  73.9976283  91.3657580  58.3746251  73.9823331  90.0674570  59.1531207
  63.4737666  98.5355460  67.1624193  64.1747125  99.1691943  67.3153587
  63.0032781  98.8770191  66.4019832  71.5992062  96.8773410  55.4472100
  71.8751906  96.7630004  56.3565974  70.7296561  96.4790894  55.4084273
  71.5032493  82.9010175  62.4876850  70.5895573  83.1314402  62.6559056
  71.9325595  82.9848619  63.3390882  71.2738952  91.0900067  64.9876744
  70.6210402  91.3375975  64.3329196  71.6519332  90.2764205  64.6539221
  68.2346126 101.1259760  59.0904914  68.4168520 100.3081416  59.5532666
  69.0579112 101.3427453  58.6529804  68.5688291 100.0527946  56.3519962
  69.0976058  99.5420400  55.7390124  68.8316511  99.7370476  57.2165495
  67.3226525  91.8319878  71.4742781  66.6467162  91.7314008  72.1445156
  68.1454159  91.6759092  71.9378778  59.0705384  98.0691815  64.0955296
  59.6558821  97.3235503  64.2283200  58.8730222  98.3795772  64.9791960
  61.9244039 101.1043062  59.1117738  61.2554414 101.5889190  58.6281778
  61.7856909 101.3512283  60.0261117  53.6623039  90.6397415  62.8159739
  53.7007138  90.1061006  63.6096857  53.1563332  90.1132621  62.1970716
  66.0649308 103.1386806  65.7100397  66.6167616 103.3018427  66.4749482
  66.4055501 103.7291244  65.0380422  61.0413801  85.4861956  66.3122281
  61.1055128  86.3476787  65.8999679  60.9780921  84.8735957  65.5794640
  60.5166074  87.5585088  69.9595316  61.1438112  87.1762165  70.5732840
  59.6593992  87.3399290  70.3251008  70.9160182  97.9648063  71.5649051
  71.4600086  98.5778022  71.0704006  70.3347027  98.5227642  72.0816064
  57.2931616  89.3661517  55.8913670  57.5885057  88.4572196  55.8380724
  56.3919652  89.3449257  55.5694673  69.2017695 101.0868781  62.6964079
  69.0768835 100.2858521  62.1875024  69.8596786 101.5814975  62.2078049
  60.8225863  87.4417514  61.8741219  60.1012449  88.0553482  61.7348692
  61.6119119  87.9775279  61.7957865  71.2652603  98.8877801  64.3243629
  70.3182939  98.7683153  64.2521956  71.6135377  98.0000299  64.4069890
  63.6252177  84.7771940  68.1481871  64.1486579  85.0234237  68.9108180
  63.4064510  85.6091975  67.7285008  59.0219458  87.0475615  56.0152996
  58.6932164  86.1672994  55.8328102  59.3758829  86.9923284  56.9029385
  68.2699037  98.6830518  60.5247981  68.1223999  97.7547225  60.7055551
  69.0952530  98.7050608  60.0405056  62.1361281  87.3348585  56.3828473
  62.4757354  87.8634506  55.6607082  62.5833402  87.6728991  57.1587040
  71.8733159  99.5059076  61.6112854  72.7979706  99.3001938  61.4737305
  71.7048462  99.2575478  62.5202195  64.8304722  85.7185635  65.8331541
  64.4901542  84.9193449  66.2352221  64.1243728  86.0187346  65.2608375
  65.4821194  82.8034948  64.2858864  66.3047263  82.3295426  64.1637755
  65.7259257  83.5825432  64.7857551  64.1229428  85.8323206  54.5821766
  64.8437791  86.2104459  54.0785483  63.4994732  86.5512083  54.6856744
  68.2660551  86.5368355  55.5180098  68.4824165  87.4192993  55.2168927
  67.7854618  86.1454569  54.7885740  63.0059772  89.4954069  62.0950843
  62.8604353  89.8094372  62.9875124  62.5284976  90.1138969  61.5421742
  64.8656155  86.4856616  62.1431733  64.8517724  85.5897710  61.8064030
  65.5828583  86.4927280  62.7770019  66.7182286  86.9193957  64.1884860
  66.4600064  87.8411027  64.1869190  66.1867326  86.5224391  64.8785324
  71.6628475 100.0244744  56.9674945  71.8365352  99.4591166  56.2148798
  72.1557366 100.8245639  56.7854435  57.4805435  92.0359413  65.0338504
  56.9358903  92.8119221  65.1658778  58.3584784  92.3830217  64.8757626
  64.2693051  85.3670997  57.4119303  64.3908962  84.4387643  57.6110190
  63.9795094  85.3809683  56.4997618  67.1384242  83.0525907  60.5486023
  67.1605938  83.1165240  59.5938002  67.5552301  82.2130416  60.7426529
  77.5167866  92.7881167  58.5865245  77.9599012  92.0388492  58.1884368
  76.6394376  92.7791303  58.2038977  72.6503647  99.3411508  54.0671844
  73.3454552  99.9618201  54.2859158  72.9926797  98.4906859  54.3424222
  58.2671456  91.1629309  67.9268661  57.5253193  91.3111945  68.5133291
  57.9464201  91.4237575  67.0635410  74.5495070  96.7911214  55.5959174
  75.0746395  97.1298487  54.8708494  74.4617423  95.8558229  55.4122309
  66.2115119 100.7045287  67.7249051  66.5202246 100.4594434  68.5971751
  67.0090601 100.9091926  67.2367921  66.2335731 102.8583197  59.9554428
  65.7940721 102.3659576  60.6487284  66.9843848 102.3156165  59.7146503
  58.7128070  99.0494738  59.9579056  59.5386090  98.7498510  59.5777699
  58.3622122  98.2802360  60.4068844  63.6809603  98.4021206  62.0276729
  63.0589613  97.7391911  61.7278957  64.3514470  98.4282338  61.3450377
  56.9136675  96.9681064  60.9167989  56.0768584  96.5403239  60.7351990
  56.8860321  97.1613508  61.8538780  63.7534131  86.8802994  71.6209235
  63.8022286  87.7565117  71.2387005  64.2956645  86.3380387  71.0480878
  74.2388976  97.4244117  70.9010372  73.4484520  97.4068256  70.3614872
  74.0022331  97.9632411  71.6559409  74.3586852  94.2736584  68.2143101
  74.4084856  94.1086591  69.1558624  74.2500775  93.4063843  67.8240982
  63.2423110  96.9525129  55.5035190  63.3911231  97.6360594  54.8501863
  64.0489554  96.9330220  56.0184646  71.6490614  90.2567512  69.5302408
  72.5500477  90.1173977  69.2386405  71.7238588  90.4221967  70.4700585
  65.9833419  87.6334367  68.3755594  65.1136729  87.9267933  68.1038182
  66.2192900  88.2174812  69.0962858  75.8605048  96.6933525  68.4585122
  75.5689857  97.0563506  69.2948583  75.2477180  95.9800534  68.2798454
  77.0600731  94.2586405  60.9787693  77.8947622  94.6976209  61.1425253
  77.1959859  93.7825058  60.1595938  74.1092237  91.8166140  66.9265180
  74.5846358  92.0093786  66.1184032  73.1857802  91.8725326  66.6808564
  60.9975743  92.9790307  56.5096259  60.7521785  92.0752637  56.7076469
  61.1671658  92.9807458  55.5675737  68.6872453  83.8513983  65.8921014
  69.2054397  84.5875010  65.5667503  68.3327586  84.1577977  66.7267773
  60.2671391  88.7118665  54.0082420  59.5740636  88.7863020  53.3522456
  60.0223143  87.9479008  54.5303937  68.9385047  80.2714266  61.4121911
  69.2186801  79.6037455  62.0382337  69.7235654  80.4643362  60.8996575
  66.7418516  99.4473260  52.9746937  66.1692483 100.0663447  52.5217409
  67.3151309  99.9972622  53.5086859  72.8093906  88.6931900  65.1593486
  73.7611329  88.7929998  65.1805710  72.6397356  87.9010169  65.6691570
  70.8308285  85.7787483  65.3452887  70.2358217  86.0592496  64.6499376
  70.5457982  86.2681384  66.1169628  69.9615776  99.7310410  54.1055519
  70.8946449  99.6655972  54.3088395  69.8738988 100.5666677  53.6470052
  72.5903792  99.0476280  51.0659467  72.5117424  98.7136144  51.9595225
  73.4113459  99.5398048  51.0650939  75.2881983  91.9138020  64.2735786
  75.2558304  90.9754020  64.4595469  75.8982607  91.9922056  63.5401611
  67.1265314  90.7834073  50.3162990  68.0724419  90.6540281  50.3851408
  66.7479559  90.0448735  50.7932418  75.4376472  88.7049063  64.3194069
  74.9215521  87.9207520  64.1323998  76.3216420  88.3767780  64.4840588
  73.0987199  82.4490079  60.2789882  72.9012020  82.1405167  61.1633213
  73.7086904  83.1751718  60.4087811  81.1058533  92.9754027  63.4141822
  81.8361922  92.7139315  63.9749526  80.4965479  92.2382748  63.4543890
  79.1873830  91.1161889  64.0116274  78.4606994  90.9817854  63.4032765
  78.7721117  91.4238718  64.8172992  67.0104007  94.8351819  71.7763647
  67.9307016  95.0130418  71.9703693  66.9753590  93.8907864  71.6243346
  65.3108231  88.7084049  50.2517875  64.4039687  88.4117162  50.3280589
  65.5884212  88.4113867  49.3852161  56.2286172  90.0290412  60.7016921
  55.9088956  89.1755721  60.4091295  55.6819600  90.2438991  61.4574889
  60.0066079  92.7452853  64.4186428  60.2252089  93.6769961  64.4374462
  60.4191853  92.3860828  65.2041232  66.9270297  83.2520939  56.4062116
  66.1171025  82.9068024  56.7817362  67.6154714  82.9428482  56.9949728
  68.8560845  82.3298986  58.0286413  69.4091884  82.7494439  58.6876436
  69.0930932  81.4034734  58.0709369  64.8793945  88.3186059  73.8089177
  64.7790672  89.2680416  73.7401268  64.6615487  87.9904298  72.9365247
  64.0807016  85.5670984  50.3929854  64.9426180  85.8925883  50.6525671
  64.2657360  84.7802480  49.8802920  56.0974432  93.6493324  62.6710043
  55.4037903  93.2347277  62.1579997  56.8447423  93.6913860  62.0743462
  72.2339653  84.4399511  57.5365077  71.6538322  85.0984315  57.1543130
  71.9675585  83.6176855  57.1252495  70.6843219  83.8404568  59.7386397
  71.1842997  83.9521103  58.9300716  71.3278827  83.5365621  60.3787206
  64.7425215  91.7483198  72.6254238  64.2592296  92.5483558  72.8318127
  64.8286154  91.7591143  71.6721682  58.0111174  93.5811578  60.5476058
  57.9881862  93.6799265  59.5957941  58.3211811  94.4276729  60.8693224
  60.6698552  95.6387733  64.6622672  61.6241806  95.6071675  64.5952604
  60.4711076  95.1778356  65.4772898  61.2597934  94.2088849  67.2293470
  62.0790823  94.7032927  67.2528307  61.5334742  93.2920817  67.2011037
  71.0164531  86.5999601  56.5921425  70.1290386  86.8849252  56.3741620
  71.4318520  86.4393364  55.7448702  74.3679067  86.6246122  60.3075765
  75.1439457  87.1142575  60.5800381  73.6427201  87.0504176  60.7647634
  76.8051625  87.3373741  61.3649705  77.3996116  87.0969477  60.6543013
  76.8778209  86.6180872  61.9923242  59.0248781 101.1807352  61.6792870
  58.8903249 100.4207753  61.1130868  58.6080843 101.9048252  61.2121659
  70.1607744  96.3644276  50.6869445  70.8643594  96.5694278  51.3027101
  69.4370393  96.9321038  50.9518529  70.9905554  92.1154137  56.8071716
  70.9340756  92.5722688  55.9679348  71.5433897  91.3544822  56.6294558
  74.8010360  87.9043869  57.6321835  74.5447294  87.5040505  58.4630043
  74.1763228  88.6187663  57.5071974  79.1122698  90.6439942  60.1393126
  78.5522256  90.7133131  60.9124689  78.5066201  90.4680927  59.4192623
  62.1817907 102.0776669  61.8911313  62.0650291 103.0222102  61.7890003
  61.3610353 101.7750231  62.2797112  72.0694441  96.8026805  52.7367905
  72.9040045  96.3708003  52.5545380  71.9078784  96.6308819  53.6644800
  71.7240334  93.3058918  54.1024245  71.6689137  93.1403190  53.1612689
  71.0986389  94.0134951  54.2586434  56.5132849  88.5426983  67.9285667
  57.1591712  88.0325937  68.4172892  56.3050000  89.2795664  68.5029092
  69.0386241  95.6107830  73.4277807  69.9077400  95.7848482  73.0664442
  68.5592992  96.4302247  73.3053537  65.0336459  82.8067027  53.6809563
  65.0215129  83.7508867  53.8377834  65.9259881  82.6237173  53.3869024
  63.2072421 102.7304931  65.1067241  64.1099668 102.7628541  65.4233736
  62.9809791 101.8005382  65.1213577  64.9626023 101.4835918  61.7677320
  64.0121654 101.4837779  61.6541692  65.2658509 100.7368652  61.2513354
  68.8488579  79.4009804  57.9355500  68.0820974  78.8468291  58.0812182
  69.2599283  79.4731673  58.7969652  60.8530340  85.6894600  72.0260681
  61.7161801  85.3331405  72.2364006  60.2795750  85.3508495  72.7136085
  80.6978716 107.3196456  62.8323082  81.3357126 107.2003203  62.1286422
  80.5799559 108.2677300  62.8911034  77.5068423 107.2723884  62.7684607
  77.1686934 107.1564949  61.8805142  78.3758191 106.8715049  62.7485613
  73.3655238 109.1259361  58.7581498  72.8020104 109.0349298  57.9897786
  73.2507634 108.3059265  59.2383990  77.9888206 108.4258736  68.7270812
  77.9776847 108.0311534  67.8551316  78.1508845 107.6924809  69.3204584
  70.9119670 110.6210552  61.5965718  71.7040962 110.2801377  61.1812018
  71.1516321 110.7305527  62.5167872  78.9454797 112.7930328  54.0695963
  78.2942777 113.3784409  53.6829977  79.7399160 113.3236523  54.1291000
  72.8710424 109.8819465  54.4683097  73.6441300 109.3348453  54.3295973
  73.2235823 110.7463715  54.6797558  74.7095467 111.2095848  67.6749996
  74.4185333 112.1141479  67.5596663  75.3452451 111.2512375  68.3894066
  75.6351674 108.5872696  64.2651356  76.2315246 108.3628719  63.5508319
  75.6926645 107.8457442  64.8676804  75.2076702 106.0412132  52.1001547
  75.4602223 105.5193653  51.3385010  74.2701261 105.8778277  52.2028231
  80.2519985 105.0447910  59.9076290  81.0383074 104.6267333  59.5566707
  80.5158689 105.9494002  60.0757939  80.4230062 110.4820760  54.6064947
  79.7875895 110.5555387  55.3185852  80.0927469 111.0714359  53.9284026
  85.6528412 104.9823143  60.8109269  86.3853584 104.4122360  61.0447098
  84.8967768 104.5944744  61.2515774  74.9272991 107.9440238  54.3025922
  74.8109249 107.2685141  54.9707006  75.0375251 107.4572611  53.4858075
  77.2704532 107.4050385  58.0072611  76.9062739 106.8781006  58.7185533
  78.1271648 107.0148854  57.8339097  83.1753832  98.6944717  65.2703877
  82.8437157  99.5640128  65.0465092  82.5799446  98.3781001  65.9497908
  76.9110019 102.4340284  53.0033960  77.0784421 103.3020521  53.3704431
  76.7207188 102.5967566  52.0795249  79.6685352 110.8957263  64.6699790
  79.3686075 111.7982302  64.5615597  79.3236412 110.6289446  65.5220943
  73.1197833 107.3471060  60.7036494  72.1948330 107.2147274  60.9114186
  73.3682247 108.1265279  61.2006437  83.0682496 103.4139803  62.3497227
  82.1599373 103.3455212  62.0555988  83.0170092 103.8911748  63.1779053
  76.8899240 104.8897942  53.9880627  76.7698865 105.3354993  54.8266107
  76.1951828 105.2383260  53.4294165  70.4806645 106.9904334  61.5380284
  70.6099026 107.2438813  62.4519695  69.8004096 107.5832042  61.2184939
  74.6506132 117.6601584  57.6370758  74.5730161 118.6109409  57.7159238
  74.0467775 117.3147456  58.2945684  77.1423362 104.8329449  70.2932125
  76.3656696 105.3923369  70.2834989  77.7813925 105.3186232  70.8146995
  84.9344142 101.6156242  64.1275101  84.2918522 101.9088775  63.4814896
  84.4299071 101.5009162  64.9328298  82.5884306 105.3619415  54.8160961
  83.5002162 105.5946802  54.6408658  82.0793953 105.9456459  54.2536039
  75.3969734 107.6414902  69.8550092  76.1384418 108.1799946  69.5784915
  74.6906719 108.2681191  70.0121643  80.8725074 109.7844043  68.4522253
  81.2808430 109.3426453  67.7076886  80.1502335 109.2096670  68.7056446
  77.2256144 104.7216650  65.8255810  78.0717339 105.1456063  65.9690459
  77.1654781 104.0650274  66.5194373  81.1953888 110.3445233  62.2074542
  80.5662751 110.5090948  61.5050610  80.8079550 110.7586843  62.9785506
  85.0743120 111.2799671  59.5618906  84.3894158 111.6598573  59.0115939
  85.1586969 111.8894998  60.2950854  80.3755589 102.3821018  67.4836984
  80.1316521 103.1363079  66.9471259  80.6515519 102.7606366  68.3184231
  82.3294052 108.9259630  66.1614249  82.5410947 109.5691390  65.4848630
  82.2823800 108.0921947  65.6936179  79.9320281 101.5377451  63.0650821
  79.0704760 101.8358705  63.3567559  79.9582715 101.7547850  62.1331854
  76.7481850 110.0819642  59.4724627  77.2120196 110.3607345  58.6829250
  76.4838648 109.1803086  59.2897718  73.6405931 109.6291123  62.4104390
  74.2107288 110.0578391  61.7721875  74.2314043 109.3473708  63.1088576
  75.6850736 106.2042794  56.2814192  76.3874779 106.6563838  56.7488119
  75.3531365 105.5626613  56.9094085  74.1331098 104.7954551  70.6565402
  73.5029758 105.4770831  70.8900798  74.0267186 104.6837632  69.7118540
  69.4276070 104.4626347  61.5831326  68.6375124 104.7183875  61.1071436
  69.9187317 105.2774684  61.6883366  83.4439880 111.8031586  64.3336607
  84.2657323 111.4011773  64.0519288  83.4402282 111.6999820  65.2852722
  71.3790815 104.8270926  58.5414803  70.5821979 104.9389620  59.0598298
  71.1516408 105.1657578  57.6755693  77.2096483 111.3515629  66.4897317
  77.2740916 111.8136036  67.3255489  76.5007407 110.7212994  66.6179627
  67.7113773 104.7156837  64.0146317  67.9621811 105.6003847  64.2803893
  68.2473321 104.5361439  63.2421408  91.5345873 108.1470334  60.6821578
  90.7809581 107.5777732  60.5265583  91.6693414 108.1132999  61.6292213
  76.9244501 113.0183737  56.3576297  76.7890175 113.8635272  56.7861145
  77.4654313 113.2203014  55.5942231  73.4111840  99.0975316  73.0190653
  73.0178786  98.5441515  73.6938297  74.2277981  99.4085895  73.4097170
  70.3773898 110.5359175  56.9304223  70.8898419 111.3302425  57.0809787
  71.0296611 109.8385465  56.8637824  72.1868783 113.6524931  59.0126976
  72.3635411 114.5742896  58.8247960  72.9825616 113.3383350  59.4421356
  76.3279801 100.5133195  70.6110909  77.0689515 101.1140349  70.5315372
  76.5597724  99.7710833  70.0528952  71.4721139 105.6989563  68.8889139
  71.3574654 104.7974820  69.1896238  70.6165657 105.9453260  68.5373955
  78.5512977 113.6407303  70.4876640  78.1076831 112.8543682  70.1697544
  79.2130191 113.8286454  69.8220530  73.3100098 115.1703105  65.0137318
  73.8607523 115.0420168  64.2414312  72.4711574 115.4697994  64.6632211
  80.6494215 113.9210103  68.5158041  80.6312691 114.7418984  68.0238310
  81.5714135 113.7964178  68.7408182  77.1067269 111.4354232  69.3581549
  77.6395606 110.6742521  69.1280857  76.5781350 111.1427884  70.1005704
  80.2736964  96.5414298  64.8875191  79.9301234  97.4315940  64.8114302
  80.6415927  96.3515956  64.0244776  68.3422815 108.8647829  57.7063793
  69.1798037 109.2744837  57.4897501  68.5201083 107.9247271  57.6763987
  80.2387247 106.5322910  53.3947626  79.7233870 107.3027514  53.6336013
  79.9664555 105.8588046  54.0180688  77.8234358 101.3772610  58.4532864
  76.9675954 100.9879461  58.2738503  78.2361310 101.4564571  57.5932650
  79.3533505  98.9118954  62.8524424  78.8498300  98.8749089  62.0392229
  79.6464112  99.8211696  62.9121081  75.5976391  98.9957683  61.8590606
  76.4629387  98.8000492  61.4996495  75.6653899  98.7668035  62.7859963
  85.2121521 109.2855264  55.3300800  84.4350964 108.9466424  54.8855962
  85.8913002 109.2907887  54.6555765  80.0273550 104.4050002  55.2207407
  79.7223686 104.7196151  56.0717550  80.9803992 104.4831422  55.2634740
  78.4719982 110.5640225  56.8700361  77.9441344 109.8292985  56.5573599
  77.9707485 111.3414901  56.6240330  83.4512828 108.7589245  61.9867408
  82.7936502 109.4488507  62.0747536  84.2553227 109.1485677  62.3301394
  73.2038710 101.2259891  59.2306973  73.7782462 101.0035073  58.4980166
  73.7909692 101.2948586  59.9835574  82.2618287 107.1133618  60.0371349
  82.7750169 107.7463610  60.5393059  82.9119511 106.5134814  59.6714709
  73.5308297 103.2564352  53.2502858  72.6945609 103.5939039  53.5712133
  73.3913066 103.1213332  52.3129995  75.5061377  98.1001140  57.9582042
  74.8525790  97.7850157  57.3338657  75.4641851  97.4776881  58.6841865
  76.6172582 108.3820435  49.8735334  75.7099644 108.1509689  50.0726483
  77.1143614 107.5858054  50.0609316  79.5240661 117.0917942  52.7932020
  78.8502360 117.3949639  53.4016978  79.9106483 117.8947023  52.4437477
  78.7399118 104.5883074  62.2829690  77.8221679 104.8098021  62.1251378
  79.1559261 104.6629384  61.4241397  79.5234165 105.9874489  57.4132370
  80.2705984 106.4995887  57.1039492  79.7925755 105.6658542  58.2736764
  77.7960816 108.4833030  54.3959324  76.8872035 108.1992063  54.4931794
  77.8255899 108.9032109  53.5362631  83.0280083 112.0939620  58.1650492
  82.5742410 111.2530529  58.2215682  82.3974050 112.7301018  58.5025272
  81.9713003 103.0231606  59.3951159  81.2335759 102.5108992  59.7261402
  82.2239776 102.5831987  58.5834436  81.4713022 113.9316116  59.1000310
  81.7635997 114.4921173  58.3812676  81.9811643 114.2244677  59.8553469
  82.0724630  95.8007858  59.9892929  82.3783507  94.9405221  59.7018844
  82.7977235  96.3925478  59.7891923  68.3648986 106.2038544  58.3774527
  68.1673386 105.6107905  57.6525593  67.8095650 105.8990754  59.0950465
  76.3445710 106.0961651  60.4969120  76.3994319 105.1435487  60.4211596
  75.5336912 106.2521090  60.9810418  77.4936903 110.0241774  51.7347403
  77.0556333 109.3077633  51.2753040  78.2347344 110.2517889  51.1732494
  74.2838070 104.7138710  58.2559499  73.4705935 105.0132881  58.6624691
  74.7797064 104.3194399  58.9733981  76.4346647 114.7096467  60.1893763
  76.3922826 114.9357314  59.2602295  77.3509346 114.4759842  60.3379564
  79.8812281 105.1780535  67.0874392  80.2361669 105.4052008  67.9468858
  80.5284413 105.5098912  66.4651648  85.6110018 108.2998971  57.7923721
  85.4727917 108.4900567  56.8644911  85.2546237 109.0618354  58.2491773
  73.7752144 102.2857066  63.8720734  74.4151524 102.1445825  63.1743697
  72.9429675 101.9991579  63.4959336  85.6379398 110.3675498  62.8034993
  86.0715904 110.2750787  63.6518047  86.3510979 110.3432998  62.1655009
  74.5512448 111.5859496  59.9855726  75.3453047 111.0909817  59.7838301
  73.8404141 111.0577360  59.6223432  79.3707293 113.9677592  64.3368094
  79.4244315 114.5368528  65.1045809  78.5022074 114.1379477  63.9722131
  70.8595212 105.7302578  56.0615479  69.9292800 105.6687034  56.2785441
  70.9552684 105.2078531  55.2652120  70.7780761 102.2557391  58.6493720
  71.0387578 103.1702724  58.5402881  71.5997933 101.7881834  58.7990333
  72.2505686 103.6695148  65.8192545  72.9228740 103.4612510  65.1705194
  71.4235473 103.4717234  65.3797777  86.4994947 110.4099198  65.3367878
  86.6930837 111.3145009  65.5827153  86.3995566 109.9506618  66.1706463
  78.1531258 100.2957089  67.8358206  77.5059173 100.9947039  67.7422682
  78.9232274 100.7293233  68.2034454  81.5610056 110.5605941  70.9108759
  81.4095562 110.3316493  69.9938843  81.5514736 111.5176543  70.9240104
  78.3295392 108.1337854  65.8955025  79.2587452 108.2849014  65.7223993
  77.9086422 108.2221875  65.0403672  77.1283724 112.1588518  63.6653563
  76.9894810 111.7907303  64.5379501  76.3398320 112.6736158  63.4937521
  77.7231876 117.2597615  55.0079100  77.8983632 116.7885658  55.8224722
  77.0364664 117.8863381  55.2360360  78.6788939 111.5370121  61.0542401
  78.3438772 111.4970891  61.9500051  78.1792885 110.8714837  60.5812811
  72.6533183 106.9437751  66.5794982  72.5152981 106.2117990  67.1806521
  73.5638107 106.8546651  66.2979170  81.6148131 108.8826155  51.3279461
  80.9977302 108.1572984  51.2312513  81.1464620 109.6435516  50.9846535
  75.2815484 106.6557710  66.0678662  75.9915103 106.0150903  66.0265280
  75.2384792 106.9070605  66.9904842  83.2702263 113.5925064  68.9885241
  83.2114809 112.9084284  68.3215824  83.6721781 114.3344054  68.5365867
  73.9944418 103.6422928  67.8874301  73.4581775 103.1913667  68.5395897
  73.4061126 103.7768837  67.1444765  72.2892962 120.4086978  61.7818960
  72.5289560 121.0405502  62.4597978  71.4462158 120.0575018  62.0684319
  73.4046677 103.1011580  50.4500765  72.5276143 102.9800380  50.0863011
  73.8804430 102.3097658  50.1979653  83.2719670 111.5564648  67.2199221
  82.3846449 111.2190569  67.3425619  83.8418221 110.8247679  67.4567986
  64.9248817 107.8888739  60.5442272  65.6119857 107.5750469  59.9563287
  64.7696946 108.7930104  60.2709523  69.7283539 102.7778936  64.9727296
  69.6441728 102.1704606  64.2377706  68.9066246 103.2687954  64.9736792
  76.8020823 116.2166100  64.1860464  76.7290995 117.0221072  64.6979768
  76.3598216 116.4158066  63.3608485  76.5910603 115.4537870  57.6963285
  75.8078125 115.9959550  57.7901510  77.2903348 115.9711850  58.0957526
  79.9007253 101.2632500  60.3397491  80.3975953 100.5102462  60.0198561
  79.1294235 101.2996816  59.7740700  87.7537011 106.9672865  61.9815782
  87.7426887 107.8497580  61.6109715  86.8854390 106.6144416  61.7870319
  79.2619507 116.1152934  66.3418622  79.9747479 116.7500399  66.2694524
  78.7709536 116.2116800  65.5258624  80.9837034 110.0204187  57.9135914
  80.0493313 110.1405649  57.7440618  81.1613702 109.1176654  57.6495924
  76.4842222 103.4049883  60.0669175  76.1140009 102.8520923  60.7550081
  76.9801314 102.8008016  59.5144175  84.3709585 105.8621506  58.4485948
  84.8370037 106.6949498  58.3746251  84.8217086 105.3966488  59.1531207
  74.3131420 113.8647378  67.1624193  75.0140880 114.4983860  67.3153587
  73.8426535 114.2062109  66.4019832  82.4385816 112.2065327  55.4472100
  82.7145660 112.0921922  56.3565974  81.5690315 111.8082812  55.4084273
  82.3426248  98.2302093  62.4876850  81.4289328  98.4606320  62.6559056
  82.7719349  98.3140537  63.3390882  82.1132706 106.4191985  64.9876744
  81.4604157 106.6667892  64.3329196  82.4913086 105.6056123  64.6539221
  79.0739880 116.4551678  59.0904914  79.2562275 115.6373334  59.5532666
  79.8972866 116.6719370  58.6529804  79.4082046 115.3819863  56.3519962
  79.9369812 114.8712318  55.7390124  79.6710265 115.0662394  57.2165495
  78.1620279 107.1611796  71.4742781  77.4860916 107.0605925  72.1445156
  78.9847913 107.0051010  71.9378778  69.9099138 113.3983733  64.0955296
  70.4952575 112.6527420  64.2283200  69.7123977 113.7087689  64.9791960
  72.7637794 116.4334980  59.1117738  72.0948169 116.9181108  58.6281778
  72.6250663 116.6804200  60.0261117  64.5016793 105.9689333  62.8159739
  64.5400893 105.4352923  63.6096857  63.9957086 105.4424538  62.1970716
  76.9043062 118.4678723  65.7100397  77.4561370 118.6310345  66.4749482
  77.2449256 119.0583161  65.0380422  71.8807556 100.8153873  66.3122281
  71.9448882 101.6768704  65.8999679  71.8174676 100.2027875  65.5794640
  71.3559828 102.8877006  69.9595316  71.9831867 102.5054083  70.5732840
  70.4987747 102.6691208  70.3251008  81.7553937 113.2939981  71.5649051
  82.2993841 113.9069939  71.0704006  81.1740781 113.8519559  72.0816064
  68.1325371 104.6953435  55.8913670  68.4278812 103.7864113  55.8380724
  67.2313407 104.6741174  55.5694673  80.0411450 116.4160699  62.6964079
  79.9162589 115.6150439  62.1875024  80.6990541 116.9106892  62.2078049
  71.6619618 102.7709432  61.8741219  70.9406204 103.3845399  61.7348692
  72.4512874 103.3067196  61.7957865  82.1046358 114.2169719  64.3243629
  81.1576693 114.0975070  64.2521956  82.4529131 113.3292217  64.4069890
  74.4645931 100.1063858  68.1481871  74.9880333 100.3526155  68.9108180
  74.2458265 100.9383893  67.7285008  69.8613212 102.3767533  56.0152996
  69.5325919 101.4964912  55.8328102  70.2152583 102.3215201  56.9029385
  79.1092791 114.0122435  60.5247981  78.9617754 113.0839143  60.7055551
  79.9346285 114.0342526  60.0405056  72.9755036 102.6640502  56.3828473
  73.3151108 103.1926424  55.6607082  73.4227156 103.0020909  57.1587040
  82.7126913 114.8350994  61.6112854  83.6373461 114.6293855  61.4737305
  82.5442216 114.5867395  62.5202195  75.6698476 101.0477553  65.8331541
  75.3295297 100.2485366  66.2352221  74.9637483 101.3479264  65.2608375
  76.3214948  98.1326866  64.2858864  77.1441018  97.6587344  64.1637755
  76.5653012  98.9117349  64.7857551  74.9623183 101.1615124  54.5821766
  75.6831545 101.5396377  54.0785483  74.3388487 101.8804001  54.6856744
  79.1054306 101.8660273  55.5180098  79.3217920 102.7484911  55.2168927
  78.6248373 101.4746486  54.7885740  73.8453527 104.8245986  62.0950843
  73.6998108 105.1386289  62.9875124  73.3678731 105.4430887  61.5421742
  75.7049910 101.8148534  62.1431733  75.6911479 100.9189627  61.8064030
  76.4222338 101.8219198  62.7770019  77.5576041 102.2485874  64.1884860
  77.2993818 103.1702945  64.1869190  77.0261081 101.8516309  64.8785324
  82.5022229 115.3536661  56.9674945  82.6759107 114.7883084  56.2148798
  82.9951121 116.1537556  56.7854435  68.3199189 107.3651331  65.0338504
  67.7752657 108.1411139  65.1658778  69.1978539 107.7122135  64.8757626
  75.1086806 100.6962914  57.4119303  75.2302717  99.7679561  57.6110190
  74.8188848 100.7101600  56.4997618  77.9777996  98.3817825  60.5486023
  77.9999693  98.4457158  59.5938002  78.3946055  97.5422334  60.7426529
  88.3561620 108.1173084  58.5865245  88.7992767 107.3680410  58.1884368
  87.4788131 108.1083221  58.2038977  83.4897402 114.6703426  54.0671844
  84.1848306 115.2910119  54.2859158  83.8320552 113.8198777  54.3424222
  69.1065211 106.4921227  67.9268661  68.3646947 106.6403862  68.5133291
  68.7857955 106.7529492  67.0635410  85.3888825 112.1203131  55.5959174
  85.9140149 112.4590404  54.8708494  85.3011177 111.1850147  55.4122309
  77.0508874 116.0337205  67.7249051  77.3596000 115.7886352  68.5971751
  77.8484356 116.2383844  67.2367921  77.0729486 118.1875115  59.9554428
  76.6334476 117.6951493  60.6487284  77.8237603 117.6448082  59.7146503
  69.5521825 114.3786656  59.9579056  70.3779845 114.0790427  59.5777699
  69.2015877 113.6094278  60.4068844  74.5203358 113.7313124  62.0276729
  73.8983367 113.0683829  61.7278957  75.1908225 113.7574256  61.3450377
  67.7530430 112.2972982  60.9167989  66.9162338 111.8695156  60.7351990
  67.7254075 112.4905425  61.8538780  74.5927885 102.2094912  71.6209235
  74.6416041 103.0857035  71.2387005  75.1350400 101.6672305  71.0480878
  85.0782731 112.7536035  70.9010372  84.2878275 112.7360174  70.3614872
  84.8416086 113.2924329  71.6559409  85.1980606 109.6028501  68.2143101
  85.2478611 109.4378509  69.1558624  85.0894529 108.7355760  67.8240982
  74.0816865 112.2817047  55.5035190  74.2304985 112.9652512  54.8501863
  74.8883308 112.2622137  56.0184646  82.4884368 105.5859429  69.5302408
  83.3894231 105.4465894  69.2386405  82.5632343 105.7513884  70.4700585
  76.8227174 102.9626284  68.3755594  75.9530483 103.2559850  68.1038182
  77.0586654 103.5466729  69.0962858  86.6998803 112.0225443  68.4585122
  86.4083611 112.3855424  69.2948583  86.0870934 111.3092451  68.2798454
  87.8994485 109.5878323  60.9787693  88.7341377 110.0268127  61.1425253
  88.0353614 109.1116976  60.1595938  84.9485991 107.1458058  66.9265180
  85.4240113 107.3385704  66.1184032  84.0251556 107.2017243  66.6808564
  71.8369498 108.3082225  56.5096259  71.5915540 107.4044555  56.7076469
  72.0065412 108.3099375  55.5675737  79.5266208  99.1805901  65.8921014
  80.0448151  99.9166928  65.5667503  79.1721340  99.4869894  66.7267773
  71.1065145 104.0410582  54.0082420  70.4134390 104.1154937  53.3522456
  70.8616897 103.2770926  54.5303937  79.7778802  95.6006184  61.4121911
  80.0580556  94.9329373  62.0382337  80.5629409  95.7935279  60.8996575
  77.5812270 114.7765178  52.9746937  77.0086237 115.3955365  52.5217409
  78.1545064 115.3264539  53.5086859  83.6487660 104.0223818  65.1593486
  84.6005083 104.1221915  65.1805710  83.4791111 103.2302086  65.6691570
  81.6702040 101.1079401  65.3452887  81.0751972 101.3884414  64.6499376
  81.3851736 101.5973302  66.1169628  80.8009530 115.0602328  54.1055519
  81.7340203 114.9947889  54.3088395  80.7132743 115.8958595  53.6470052
  83.4297547 114.3768198  51.0659467  83.3511178 114.0428062  51.9595225
  84.2507213 114.8689966  51.0650939  86.1275738 107.2429937  64.2735786
  86.0952058 106.3045938  64.4595469  86.7376362 107.3213974  63.5401611
  77.9659069 106.1125990  50.3162990  78.9118173 105.9832198  50.3851408
  77.5873314 105.3740652  50.7932418  86.2770226 104.0340981  64.3194069
  85.7609275 103.2499437  64.1323998  87.1610175 103.7059697  64.4840588
  83.9380953  97.7781996  60.2789882  83.7405774  97.4697085  61.1633213
  84.5480659  98.5043635  60.4087811  91.9452288 108.3045944  63.4141822
  92.6755676 108.0431232  63.9749526  91.3359233 107.5674666  63.4543890
  90.0267585 106.4453807  64.0116274  89.3000748 106.3109772  63.4032765
  89.6114872 106.7530635  64.8172992  77.8497761 110.1643736  71.7763647
  78.7700771 110.3422335  71.9703693  77.8147344 109.2199782  71.6243346
  76.1501986 104.0375967  50.2517875  75.2433441 103.7409079  50.3280589
  76.4277967 103.7405785  49.3852161  67.0679926 105.3582330  60.7016921
  66.7482711 104.5047638  60.4091295  66.5213354 105.5730908  61.4574889
  70.8459834 108.0744771  64.4186428  71.0645844 109.0061879  64.4374462
  71.2585608 107.7152746  65.2041232  77.7664052  98.5812856  56.4062116
  76.9564780  98.2359941  56.7817362  78.4548469  98.2720400  56.9949728
  79.6954600  97.6590903  58.0286413  80.2485639  98.0786357  58.6876436
  79.9324686  96.7326651  58.0709369  75.7187699 103.6477977  73.8089177
  75.6184426 104.5972334  73.7401268  75.5009241 103.3196216  72.9365247
  74.9200771 100.8962902  50.3929854  75.7819935 101.2217800  50.6525671
  75.1051115 100.1094398  49.8802920  66.9368186 108.9785242  62.6710043
  66.2431658 108.5639194  62.1579997  67.6841177 109.0205778  62.0743462
  83.0733407  99.7691428  57.5365077  82.4932076 100.4276232  57.1543130
  82.8069340  98.9468773  57.1252495  81.5236973  99.1696486  59.7386397
  82.0236752  99.2813021  58.9300716  82.1672581  98.8657539  60.3787206
  75.5818969 107.0775116  72.6254238  75.0986051 107.8775476  72.8318127
  75.6679908 107.0883061  71.6721682  68.8504929 108.9103495  60.5476058
  68.8275617 109.0091183  59.5957941  69.1605565 109.7568646  60.8693224
  71.5092307 110.9679650  64.6622672  72.4635560 110.9363593  64.5952604
  71.3104830 110.5070274  65.4772898  72.0991689 109.5380766  67.2293470
  72.9184578 110.0324845  67.2528307  72.3728497 108.6212735  67.2011037
  81.8558285 101.9291519  56.5921425  80.9684140 102.2141169  56.3741620
  82.2712274 101.7685282  55.7448702  85.2072821 101.9538040  60.3075765
  85.9833211 102.4434492  60.5800381  84.4820955 102.3796094  60.7647634
  87.6445380 102.6665659  61.3649705  88.2389871 102.4261395  60.6543013
  87.7171963 101.9472790  61.9923242  69.8642535 116.5099270  61.6792870
  69.7297003 115.7499671  61.1130868  69.4474598 117.2340170  61.2121659
  81.0001498 111.6936193  50.6869445  81.7037349 111.8986196  51.3027101
  80.2764147 112.2612955  50.9518529  81.8299309 107.4446055  56.8071716
  81.7734510 107.9014606  55.9679348  82.3827651 106.6836739  56.6294558
  85.6404115 103.2335787  57.6321835  85.3841049 102.8332422  58.4630043
  85.0156983 103.9479581  57.5071974  89.9516453 105.9731860  60.1393126
  89.3916011 106.0425049  60.9124689  89.3459956 105.7972844  59.4192623
  73.0211661 117.4068587  61.8911313  72.9044046 118.3514019  61.7890003
  72.2004108 117.1042148  62.2797112  82.9088196 112.1318723  52.7367905
  83.7433800 111.6999921  52.5545380  82.7472539 111.9600736  53.6644800
  82.5634088 108.6350836  54.1024245  82.5082892 108.4695107  53.1612689
  81.9380143 109.3426869  54.2586434  67.3526603 103.8718900  67.9285667
  67.9985467 103.3617854  68.4172892  67.1443754 104.6087582  68.5029092
  79.8779995 110.9399748  73.4277807  80.7471155 111.1140400  73.0664442
  79.3986747 111.7594165  73.3053537  75.8730214  98.1358945  53.6809563
  75.8608883  99.0800785  53.8377834  76.7653635  97.9529090  53.3869024
  74.0466175 118.0596849  65.1067241  74.9493422 118.0920459  65.4233736
  73.8203546 117.1297300  65.1213577  75.8019777 116.8127835  61.7677320
  74.8515409 116.8129697  61.6541692  76.1052264 116.0660570  61.2513354
  79.6882333  94.7301722  57.9355500  78.9214729  94.1760208  58.0812182
  80.0993038  94.8023590  58.7969652  71.6924094 101.0186517  72.0260681
  72.5555556 100.6623322  72.2364006  71.1189505 100.6800412  72.7136085
  91.5372471 122.6488374  62.8323082  92.1750881 122.5295121  62.1286422
  91.4193314 123.5969218  62.8911034  88.3462177 122.6015802  62.7684607
  88.0080689 122.4856867  61.8805142  89.2151945 122.2006967  62.7485613
  84.2048993 124.4551278  58.7581498  83.6413858 124.3641215  57.9897786
  84.0901388 123.6351183  59.2383990  88.8281960 123.7550654  68.7270812
  88.8170601 123.3603452  67.8551316  88.9902600 123.0216726  69.3204584
  81.7513425 125.9502470  61.5965718  82.5434717 125.6093295  61.1812018
  81.9910075 126.0597445  62.5167872  83.7104179 125.2111383  54.4683097
  84.4835055 124.6640370  54.3295973  84.0629578 126.0755632  54.6797558
  85.5489221 126.5387765  67.6749996  85.2579087 127.4433396  67.5596663
  86.1846206 126.5804293  68.3894066  86.4745428 123.9164614  64.2651356
  87.0709001 123.6920636  63.5508319  86.5320400 123.1749359  64.8676804
  86.0470457 121.3704049  52.1001547  86.2995977 120.8485571  51.3385010
  85.1095016 121.2070195  52.2028231  91.0913739 120.3739828  59.9076290
  91.8776829 119.9559251  59.5566707  91.3552444 121.2785920  60.0757939
  91.2623817 125.8112678  54.6064947  90.6269650 125.8847304  55.3185852
  90.9321223 126.4006277  53.9284026  96.4922167 120.3115061  60.8109269
  97.2247339 119.7414278  61.0447098  95.7361522 119.9236661  61.2515774
  85.7666745 123.2732155  54.3025922  85.6503003 122.5977059  54.9707006
  85.8769005 122.7864529  53.4858075  88.1098286 122.7342302  58.0072611
  87.7456494 122.2072923  58.7185533  88.9665402 122.3440771  57.8339097
  94.0147587 114.0236635  65.2703877  93.6830912 114.8932046  65.0465092
  93.4193200 113.7072919  65.9497908  87.7503773 117.7632202  53.0033960
  87.9178176 118.6312438  53.3704431  87.5600942 117.9259484  52.0795249
  90.5079106 126.2249181  64.6699790  90.2079830 127.1274220  64.5615597
  90.1630166 125.9581364  65.5220943  83.9591588 122.6762978  60.7036494
  83.0342084 122.5439192  60.9114186  84.2076001 123.4557197  61.2006437
  93.9076250 118.7431721  62.3497227  92.9993128 118.6747130  62.0555988
  93.8563846 119.2203666  63.1779053  87.7292994 120.2189860  53.9880627
  87.6092619 120.6646910  54.8266107  87.0345583 120.5675177  53.4294165
  81.3200399 122.3196251  61.5380284  81.4492780 122.5730730  62.4519695
  80.6397850 122.9123959  61.2184939  87.9817116 120.1621367  70.2932125
  87.2050450 120.7215287  70.2834989  88.6207679 120.6478150  70.8146995
  95.7737897 116.9448160  64.1275101  95.1312277 117.2380693  63.4814896
  95.2692825 116.8301080  64.9328298  93.4278060 120.6911333  54.8160961
  94.3395916 120.9238719  54.6408658  92.9187707 121.2748377  54.2536039
  86.2363488 122.9706820  69.8550092  86.9778173 123.5091864  69.5784915
  85.5300474 123.5973109  70.0121643  91.7118828 125.1135961  68.4522253
  92.1202184 124.6718371  67.7076886  90.9896090 124.5388588  68.7056446
  88.0649898 120.0508567  65.8255810  88.9111093 120.4747981  65.9690459
  88.0048536 119.3942192  66.5194373  92.0347643 125.6737151  62.2074542
  91.4056505 125.8382865  61.5050610  91.6473305 126.0878761  62.9785506
  91.2149343 117.7112936  67.4836984  90.9710275 118.4654996  66.9471259
  91.4909274 118.0898283  68.3184231  93.1687806 124.2551548  66.1614249
  93.3804701 124.8983308  65.4848630  93.1217554 123.4213865  65.6936179
  90.7714035 116.8669369  63.0650821  89.9098514 117.1650622  63.3567559
  90.7976470 117.0839768  62.1331854  87.5875605 125.4111559  59.4724627
  88.0513950 125.6899262  58.6829250  87.3232403 124.5095004  59.2897718
  84.4799686 124.9583041  62.4104390  85.0501043 125.3870309  61.7721875
  85.0707797 124.6765625  63.1088576  86.5244491 121.5334712  56.2814192
  87.2268534 121.9855755  56.7488119  86.1925119 120.8918530  56.9094085
  84.9724852 120.1246468  70.6565402  84.3423513 120.8062749  70.8900798
  84.8660940 120.0129550  69.7118540  80.2669825 119.7918264  61.5831326
  79.4768879 120.0475793  61.1071436  80.7581072 120.6066602  61.6883366
  82.2184570 120.1562844  58.5414803  81.4215733 120.2681538  59.0598298
  81.9910162 120.4949496  57.6755693  88.0490238 126.6807547  66.4897317
  88.1134670 127.1427954  67.3255489  87.3401161 126.0504912  66.6179627
  78.5507528 120.0448755  64.0146317  78.8015566 120.9295765  64.2803893
  79.0867076 119.8653356  63.2421408  87.7638255 128.3475654  56.3576297
  87.6283930 129.1927190  56.7861145  88.3048068 128.5494932  55.5942231
  84.2505595 114.4267234  73.0190653  83.8572540 113.8733433  73.6938297
  85.0671735 114.7377813  73.4097170  81.2167653 125.8651092  56.9304223
  81.7292173 126.6594343  57.0809787  81.8690365 125.1677383  56.8637824
  83.0262537 128.9816849  59.0126976  83.2029166 129.9034813  58.8247960
  83.8219371 128.6675268  59.4421356  87.1673556 115.8425113  70.6110909
  87.9083269 116.4432266  70.5315372  87.3991479 115.1002751  70.0528952
  82.3114894 121.0281480  68.8889139  82.1968409 120.1266738  69.1896238
  81.4559412 121.2745177  68.5373955  84.1493853 130.4995022  65.0137318
  84.7001278 130.3712086  64.2414312  83.3105329 130.7989911  64.6632211
  87.9461024 126.7646150  69.3581549  88.4789361 126.0034438  69.1280857
  87.4175105 126.4719802  70.1005704  91.1130719 111.8706216  64.8875191
  90.7694988 112.7607858  64.8114302  91.4809681 111.6807874  64.0244776
  79.1816569 124.1939747  57.7063793  80.0191791 124.6036755  57.4897501
  79.3594837 123.2539189  57.6763987  91.0781001 121.8614827  53.3947626
  90.5627625 122.6319432  53.6336013  90.8058310 121.1879963  54.0180688
  88.6628113 116.7064528  58.4532864  87.8069709 116.3171378  58.2738503
  89.0755064 116.7856489  57.5932650  90.1927259 114.2410871  62.8524424
  89.6892055 114.2041006  62.0392229  90.4857866 115.1503614  62.9121081
  86.4370145 114.3249601  61.8590606  87.3023142 114.1292410  61.4996495
  86.5047654 114.0959953  62.7859963  90.8667305 119.7341919  55.2207407
  90.5617440 120.0488068  56.0717550  91.8197747 119.8123339  55.2634740
  89.3113737 125.8932143  56.8700361  88.7835098 125.1584902  56.5573599
  88.8101239 126.6706819  56.6240330  84.0432464 116.5551809  59.2306973
  84.6176216 116.3326990  58.4980166  84.6303447 116.6240503  59.9835574
  93.1012041 122.4425536  60.0371349  93.6143923 123.0755528  60.5393059
  93.7513265 121.8426731  59.6714709  84.3702051 118.5856270  53.2502858
  83.5339363 118.9230956  53.5712133  84.2306821 118.4505250  52.3129995
  86.3455132 113.4293058  57.9582042  85.6919544 113.1142075  57.3338657
  86.3035606 112.8068798  58.6841865  87.4566337 123.7112353  49.8735334
  86.5493398 123.4801606  50.0726483  87.9537369 122.9149972  50.0609316
  89.5792872 119.9174991  62.2829690  88.6615434 120.1389938  62.1251378
  89.9953016 119.9921302  61.4241397  90.3627920 121.3166407  57.4132370
  91.1099739 121.8287804  57.1039492  90.6319509 120.9950460  58.2736764
  88.6354570 123.8124948  54.3959324  87.7265789 123.5283981  54.4931794
  88.6649654 124.2324026  53.5362631  92.8106757 118.3523523  59.3951159
  92.0729514 117.8400909  59.7261402  93.0633531 117.9123905  58.5834436
  92.9118384 111.1299775  59.9892929  93.2177261 110.2697139  59.7018844
  93.6370989 111.7217395  59.7891923  79.2042741 121.5330462  58.3774527
  79.0067140 120.9399823  57.6525593  78.6489404 121.2282672  59.0950465
  87.1839464 121.4253568  60.4969120  87.2388074 120.4727405  60.4211596
  86.3730666 121.5813007  60.9810418  88.3330658 125.3533691  51.7347403
  87.8950088 124.6369550  51.2753040  89.0741099 125.5809806  51.1732494
  85.1231824 120.0430628  58.2559499  84.3099690 120.3424799  58.6624691
  85.6190818 119.6486317  58.9733981  90.7206036 120.5072453  67.0874392
  91.0755423 120.7343926  67.9468858  91.3678167 120.8390829  66.4651648
  84.6145899 117.6148984  63.8720734  85.2545278 117.4737743  63.1743697
  83.7823429 117.3283497  63.4959336  85.3906203 126.9151414  59.9855726
  86.1846801 126.4201734  59.7838301  84.6797895 126.3869277  59.6223432
  81.6988966 121.0594496  56.0615479  80.7686554 120.9978951  56.2785441
  81.7946438 120.5370449  55.2652120  81.6174515 117.5849309  58.6493720
  81.8781333 118.4994642  58.5402881  82.4391688 117.1173751  58.7990333
  83.0899441 118.9987066  65.8192545  83.7622494 118.7904428  65.1705194
  82.2629227 118.8009152  65.3797777  88.9925013 115.6249007  67.8358206
  88.3452928 116.3238956  67.7422682  89.7626028 116.0585151  68.2034454
  89.1689147 123.4629772  65.8955025  90.0981207 123.6140931  65.7223993
  88.7480177 123.5513792  65.0403672  87.9677479 127.4880436  63.6653563
  87.8288564 127.1199220  64.5379501  87.1792075 128.0028075  63.4937521
  89.5182694 126.8662039  61.0542401  89.1832526 126.8262809  61.9500051
  89.0186640 126.2006755  60.5812811  83.4926938 122.2729669  66.5794982
  83.3546736 121.5409908  67.1806521  84.4031861 122.1838569  66.2979170
  92.4541886 124.2118073  51.3279461  91.8371056 123.4864901  51.2312513
  91.9858374 124.9727433  50.9846535  86.1209239 121.9849628  66.0678662
  86.8308857 121.3442820  66.0265280  86.0778547 122.2362523  66.9904842
  84.8338172 118.9714846  67.8874301  84.2975530 118.5205584  68.5395897
  84.2454881 119.1060755  67.1444765  84.2440431 118.4303497  50.4500765
  83.3669898 118.3092298  50.0863011  84.7198185 117.6389576  50.1979653
  75.7642572 123.2180657  60.5442272  76.4513611 122.9042387  59.9563287
  75.6090700 124.1222022  60.2709523  80.5677294 118.1070854  64.9727296
  80.4835482 117.4996523  64.2377706  79.7460000 118.5979872  64.9736792
  90.7401008 116.5924417  60.3397491  91.2369707 115.8394380  60.0198561
  89.9687989 116.6288734  59.7740700  91.8230788 125.3496104  57.9135914
  90.8887067 125.4697567  57.7440618  92.0007457 124.4468571  57.6495924
  87.3235976 118.7341800  60.0669175  86.9533764 118.1812841  60.7550081
  87.8195069 118.1299934  59.5144175  95.2103340 121.1913424  58.4485948
  95.6763792 122.0241415  58.3746251  95.6610840 120.7258405  59.1531207
  85.1525175 129.1939295  67.1624193  85.8534634 129.8275778  67.3153587
  84.6820290 129.5354027  66.4019832  93.1820002 113.5594011  62.4876850
  92.2683082 113.7898238  62.6559056  93.6113104 113.6432455  63.3390882
  92.9526461 121.7483903  64.9876744  92.2997911 121.9959810  64.3329196
  93.3306841 120.9348041  64.6539221  89.0014034 122.4903714  71.4742781
  88.3254671 122.3897843  72.1445156  89.8241668 122.3342927  71.9378778
  80.7492893 128.7275650  64.0955296  81.3346330 127.9819338  64.2283200
  80.5517731 129.0379607  64.9791960  83.6031548 131.7626898  59.1117738
  82.9341923 132.2473025  58.6281778  83.4644418 132.0096118  60.0261117
  75.3410548 121.2981250  62.8159739  75.3794647 120.7644841  63.6096857
  74.8350841 120.7716456  62.1970716  82.7201310 116.1445791  66.3122281
  82.7842637 117.0060622  65.8999679  82.6568430 115.5319793  65.5794640
  82.1953583 118.2168924  69.9595316  82.8225621 117.8346001  70.5732840
  81.3381501 117.9983125  70.3251008  78.9719125 120.0245353  55.8913670
  79.2672566 119.1156031  55.8380724  78.0707161 120.0033092  55.5694673
  82.5013372 118.1001349  61.8741219  81.7799958 118.7137317  61.7348692
  83.2906628 118.6359114  61.7957865  85.3039686 115.4355776  68.1481871
  85.8274088 115.6818072  68.9108180  85.0852019 116.2675811  67.7285008
  80.7006967 117.7059450  56.0152996  80.3719673 116.8256829  55.8328102
  81.0546338 117.6507119  56.9029385  83.8148790 117.9932420  56.3828473
  84.1544863 118.5218341  55.6607082  84.2620911 118.3312826  57.1587040
  86.5092231 116.3769471  65.8331541  86.1689051 115.5777284  66.2352221
  85.8031237 116.6771182  65.2608375  87.1608703 113.4618783  64.2858864
  87.9834772 112.9879261  64.1637755  87.4046766 114.2409267  64.7857551
  85.8016937 116.4907042  54.5821766  86.5225300 116.8688294  54.0785483
  85.1782241 117.2095918  54.6856744  89.9448060 117.1952191  55.5180098
  90.1611674 118.0776829  55.2168927  89.4642127 116.8038404  54.7885740
  84.6847281 120.1537904  62.0950843  84.5391862 120.4678207  62.9875124
  84.2072485 120.7722804  61.5421742  86.5443664 117.1440452  62.1431733
  86.5305233 116.2481545  61.8064030  87.2616092 117.1511116  62.7770019
  88.3969795 117.5777792  64.1884860  88.1387573 118.4994863  64.1869190
  87.8654835 117.1808227  64.8785324  79.1592944 122.6943248  65.0338504
  78.6146412 123.4703056  65.1658778  80.0372293 123.0414053  64.8757626
  85.9480560 116.0254832  57.4119303  86.0696471 115.0971478  57.6110190
  85.6582603 116.0393518  56.4997618  88.8171751 113.7109743  60.5486023
  88.8393447 113.7749076  59.5938002  89.2339810 112.8714251  60.7426529
  79.9458965 121.8213145  67.9268661  79.2040702 121.9695780  68.5133291
  79.6251710 122.0821410  67.0635410  80.3915579 129.7078573  59.9579056
  81.2173599 129.4082345  59.5777699  80.0409631 128.9386196  60.4068844
  85.3597112 129.0605041  62.0276729  84.7377122 128.3975746  61.7278957
  86.0301979 129.0866173  61.3450377  78.5924184 127.6264900  60.9167989
  77.7556092 127.1987074  60.7351990  78.5647830 127.8197343  61.8538780
  85.4321640 117.5386829  71.6209235  85.4809795 118.4148952  71.2387005
  85.9744154 116.9964223  71.0480878  84.9210619 127.6108965  55.5035190
  85.0698740 128.2944429  54.8501863  85.7277063 127.5914055  56.0184646
  93.3278123 120.9151347  69.5302408  94.2287986 120.7757812  69.2386405
  93.4026097 121.0805802  70.4700585  87.6620928 118.2918202  68.3755594
  86.7924238 118.5851768  68.1038182  87.8980409 118.8758647  69.0962858
  95.7879746 122.4749975  66.9265180  96.2633867 122.6677622  66.1184032
  94.8645311 122.5309161  66.6808564  82.6763252 123.6374142  56.5096259
  82.4309294 122.7336472  56.7076469  82.8459167 123.6391293  55.5675737
  90.3659962 114.5097819  65.8921014  90.8841906 115.2458846  65.5667503
  90.0115095 114.8161812  66.7267773  81.9458900 119.3702500  54.0082420
  81.2528145 119.4446855  53.3522456  81.7010652 118.6062844  54.5303937
  90.6172556 110.9298101  61.4121911  90.8974310 110.2621290  62.0382337
  91.4023163 111.1227197  60.8996575  94.4881415 119.3515735  65.1593486
  95.4398837 119.4513833  65.1805710  94.3184865 118.5594004  65.6691570
  92.5095794 116.4371319  65.3452887  91.9145726 116.7176331  64.6499376
  92.2245491 116.9265219  66.1169628  88.8052823 121.4417908  50.3162990
  89.7511928 121.3124116  50.3851408  88.4267068 120.7032570  50.7932418
  97.1163981 119.3632898  64.3194069  96.6003030 118.5791355  64.1323998
  98.0003929 119.0351615  64.4840588  94.7774708 113.1073914  60.2789882
  94.5799529 112.7989002  61.1633213  95.3874413 113.8335553  60.4087811
  88.6891516 125.4935654  71.7763647  89.6094525 125.6714253  71.9703693
  88.6541099 124.5491700  71.6243346  86.9895740 119.3667884  50.2517875
  86.0827196 119.0700997  50.3280589  87.2671721 119.0697702  49.3852161
  77.9073681 120.6874248  60.7016921  77.5876465 119.8339556  60.4091295
  77.3607109 120.9022826  61.4574889  81.6853588 123.4036689  64.4186428
  81.9039598 124.3353797  64.4374462  82.0979362 123.0444663  65.2041232
  88.6057806 113.9104774  56.4062116  87.7958534 113.5651859  56.7817362
  89.2942223 113.6012318  56.9949728  90.5348354 112.9882821  58.0286413
  91.0879393 113.4078274  58.6876436  90.7718441 112.0618569  58.0709369
  86.5581454 118.9769895  73.8089177  86.4578181 119.9264252  73.7401268
  86.3402996 118.6488133  72.9365247  85.7594525 116.2254820  50.3929854
  86.6213689 116.5509718  50.6525671  85.9444869 115.4386316  49.8802920
  77.7761941 124.3077159  62.6710043  77.0825412 123.8931112  62.1579997
  78.5234932 124.3497696  62.0743462  93.9127161 115.0983346  57.5365077
  93.3325831 115.7568150  57.1543130  93.6463094 114.2760691  57.1252495
  92.3630728 114.4988404  59.7386397  92.8630506 114.6104938  58.9300716
  93.0066336 114.1949457  60.3787206  86.4212724 122.4067033  72.6254238
  85.9379805 123.2067394  72.8318127  86.5073663 122.4174978  71.6721682
  79.6898683 124.2395413  60.5476058  79.6669371 124.3383100  59.5957941
  79.9999320 125.0860564  60.8693224  82.3486061 126.2971568  64.6622672
  83.3029315 126.2655510  64.5952604  82.1498585 125.8362192  65.4772898
  82.9385443 124.8672684  67.2293470  83.7578332 125.3616763  67.2528307
  83.2122251 123.9504652  67.2011037  92.6952040 117.2583436  56.5921425
  91.8077895 117.5433087  56.3741620  93.1106029 117.0977200  55.7448702
  96.0466576 117.2829957  60.3075765  96.8226966 117.7726410  60.5800381
  95.3214710 117.7088012  60.7647634  98.4839134 117.9957577  61.3649705
  99.0783625 117.7553313  60.6543013  98.5565718 117.2764707  61.9923242
  80.7036290 131.8391188  61.6792870  80.5690758 131.0791588  61.1130868
  80.2868352 132.5632087  61.2121659  92.6693063 122.7737972  56.8071716
  92.6128265 123.2306524  55.9679348  93.2221406 122.0128657  56.6294558
  96.4797869 118.5627704  57.6321835  96.2234803 118.1624340  58.4630043
  95.8550737 119.2771498  57.5071974  93.4027843 123.9642754  54.1024245
  93.3476646 123.7987025  53.1612689  92.7773898 124.6718787  54.2586434
  78.1920358 119.2010818  67.9285667  78.8379221 118.6909772  68.4172892
  77.9837509 119.9379500  68.5029092  86.7123968 113.4650863  53.6809563
  86.7002638 114.4092703  53.8377834  87.6047390 113.2821008  53.3869024
  90.5276087 110.0593639  57.9355500  89.7608483 109.5052126  58.0812182
  90.9386792 110.1315508  58.7969652  82.5317849 116.3478435  72.0260681
  83.3949310 115.9915240  72.2364006  81.9583259 116.0092330  72.7136085
  26.5009945   7.6798990  49.5568389  27.1388355   7.5605738  48.8531729
  26.3830788   8.6279834  49.6156341  23.3099652   7.6326418  49.4929914
  22.9718163   7.5167483  48.6050448  24.1789420   7.2317584  49.4730920
  19.1686467   9.4861895  45.4826804  18.6051332   9.3951832  44.7143092
  19.0538862   8.6661799  45.9629297  23.7919435   8.7861270  55.4516119
  23.7808075   8.3914068  54.5796623  23.9540074   8.0527343  56.0449890
  16.7150899  10.9813086  48.3211025  17.5072191  10.6403911  47.9057324
  16.9547549  11.0908061  49.2413178  24.7486026  13.1532863  40.7941269
  24.0974006  13.7386943  40.4075283  25.5430389  13.6839057  40.8536307
  18.6741653  10.2422000  41.1928404  19.4472529   9.6950987  41.0541280
  19.0267052  11.1066249  41.4042865  20.5126696  11.5698382  54.3995303
  20.2216562  12.4744013  54.2841969  21.1483680  11.6114910  55.1139373
  21.4382903   8.9475230  50.9896663  22.0346475   8.7231253  50.2753626
  21.4957874   8.2059976  51.5922111  21.0107931   6.4014666  38.8246854
  21.2633452   5.8796187  38.0630317  20.0732490   6.2380811  38.9273537
  26.0551214   5.4050444  46.6321597  26.8414303   4.9869867  46.2812014
  26.3189918   6.3096536  46.8003245  26.2261291  10.8423294  41.3310254
  25.5907124  10.9157921  42.0431158  25.8958698  11.4316893  40.6529333
  31.4559641   5.3425677  47.5354575  32.1884813   4.7724894  47.7692405
  30.6998997   4.9547278  47.9761081  20.7304220   8.3042772  41.0271229
  20.6140478   7.6287675  41.6952313  20.8406480   7.8175146  40.2103382
  23.0735761   7.7652919  44.7317918  22.7093968   7.2383540  45.4430839
  23.9302877   7.3751388  44.5584403  28.9785061  -0.9452749  51.9949184
  28.6468386  -0.0757338  51.7710399  28.3830675  -1.2616465  52.6743214
  22.7141248   2.7942819  39.7279266  22.8815650   3.6623055  40.0949737
  22.5238417   2.9570100  38.8040556  25.4716581  11.2559797  51.3945097
  25.1717304  12.1584836  51.2860904  25.1267640  10.9891981  52.2466250
  18.9229062   7.7073594  47.4281801  17.9979559   7.5749808  47.6359493
  19.1713475   8.4867814  47.9251744  28.8713725   3.7742338  49.0742534
  27.9630602   3.7057746  48.7801295  28.8201320   4.2514283  49.9024360
  22.6930468   5.2500476  40.7125933  22.5730094   5.6957527  41.5511413
  21.9983057   5.5985794  40.1539471  16.2837873   7.3506868  48.2625590
  16.4130254   7.6041347  49.1765002  15.6035325   7.9434576  47.9430245
  20.4537361  18.0204118  44.3616064  20.3761390  18.9711943  44.4404545
  19.8499004  17.6749990  45.0190991  22.9454590   5.1931983  57.0177431
  22.1687924   5.7525903  57.0080296  23.5845153   5.6788766  57.5392301
  30.7375371   1.9758776  50.8520408  30.0949751   2.2691309  50.2060203
  30.2330300   1.8611696  51.6573605  28.3915535   5.7221949  41.5406267
  29.3033391   5.9549336  41.3653965  27.8825182   6.3058993  40.9781346
  21.2000963   8.0017437  56.5795398  21.9415647   8.5402481  56.3030222
  20.4937948   8.6283725  56.7366950  26.6756302  10.1446577  55.1767560
  27.0839658   9.7028988  54.4322192  25.9533564   9.5699205  55.4301753
  23.0287372   5.0819184  52.5501117  23.8748568   5.5058597  52.6935766
  22.9686010   4.4252808  53.2439680  26.9985117  10.7047768  48.9319849
  26.3693979  10.8693482  48.2295917  26.6110779  11.1189377  49.7030813
  30.8774349  11.6402206  46.2864212  30.1925387  12.0201107  45.7361246
  30.9618198  12.2497532  47.0196160  26.1786818   2.7423552  54.2082290
  25.9347750   3.4965613  53.6716566  26.4546748   3.1208900  55.0429537
  28.1325280   9.2862165  52.8859556  28.3442176   9.9293924  52.2093937
  28.0855029   8.4524481  52.4181486  25.7351509   1.8979985  49.7896128
  24.8735988   2.1961239  50.0812866  25.7613944   2.1150384  48.8577161
  22.5513079  10.4422176  46.1969934  23.0151424  10.7209879  45.4074556
  22.2869877   9.5405620  46.0143024  19.4437160   9.9893657  49.1349697
  20.0138517  10.4180926  48.4967182  20.0345272   9.7076242  49.8333883
  21.4881965   6.5645328  43.0059499  22.1906008   7.0166372  43.4733425
  21.1562593   5.9229147  43.6339392  19.9362326   5.1557085  57.3810708
  19.3060987   5.8373366  57.6146105  19.8298414   5.0440166  56.4363847
  29.2471108  12.1634120  51.0581913  30.0688552  11.7614307  50.7764595
  29.2433511  12.0602354  52.0098029  23.0127712  11.7118163  53.2142624
  23.0772144  12.1738571  54.0500796  22.3038636  11.0815528  53.3424934
  37.3377101   8.5072868  47.4066885  36.5840810   7.9380267  47.2510889
  37.4724643   8.4735533  48.3537519  22.7275730  13.3786271  43.0821604
  22.5921404  14.2237806  43.5106452  23.2685542  13.5805548  42.3187538
  16.1805127  10.8961709  43.6549529  16.6929647  11.6904959  43.8055094
  16.8327840  10.1987999  43.5883131  17.9900012  14.0127465  45.7372282
  18.1666640  14.9345430  45.5493266  18.7856845  13.6985884  46.1666662
  24.3544206  14.0009837  57.2121946  23.9108060  13.2146216  56.8942851
  25.0161419  14.1888988  56.5465837  19.1131327  15.5305639  51.7382625
  19.6638752  15.4022702  50.9659619  18.2742803  15.8300528  51.3877518
  26.4525444  14.2812637  55.2403347  26.4343919  15.1021518  54.7483617
  27.3745364  14.1566712  55.4653489  22.9098498  11.7956767  56.0826856
  23.4426835  11.0345055  55.8526164  22.3812579  11.5030418  56.8251010
  26.0418476   6.8925444  40.1192933  25.5265099   7.6630048  40.3581320
  25.7695784   6.2190580  40.7425994  31.0152750   9.6457798  42.0546106
  30.2382193   9.3068958  41.6101268  31.6944231   9.6510422  41.3801071
  25.8304779   4.7652536  41.9452714  25.5254915   5.0798685  42.7962857
  26.7835221   4.8433956  41.9880047  24.2751211  10.9242759  43.5945668
  23.7472572  10.1895519  43.2818905  23.7738714  11.7017436  43.3485636
  29.2544057   9.1191780  48.7112714  28.5967731   9.8091041  48.7992843
  30.0584456   9.5088212  49.0546701  28.0649516   7.4736152  46.7616656
  28.5781397   8.1066144  47.2638366  28.7150740   6.8737348  46.3960016
  22.4203811   8.7422969  36.5980641  21.5130873   8.5112223  36.7971790
  22.9174843   7.9460589  36.7854622  25.3271890  17.4520477  39.5177327
  24.6533589  17.7552173  40.1262285  25.7137712  18.2549557  39.1682784
  24.5430347   4.9485608  49.0074996  23.6252908   5.1700555  48.8496685
  24.9590490   5.0231918  48.1486704  25.3265394   6.3477024  44.1377677
  26.0737213   6.8598421  43.8284799  25.5956984   6.0261076  44.9982070
  23.5992044   8.8435564  41.1204631  22.6903264   8.5594597  41.2177101
  23.6287128   9.2634643  40.2607938  28.8311312  12.4542154  44.8895799
  28.3773639  11.6133064  44.9460989  28.2005279  13.0903552  45.2270579
  27.7744231   3.3834140  46.1196466  27.0366988   2.8711526  46.4506709
  28.0271005   2.9434521  45.3079743  27.2744251  14.2918650  45.8245617
  27.5667225  14.8523708  45.1057982  27.7842872  14.5847211  46.5798776
  22.1476938   6.4564185  47.2214426  22.2025548   5.5038021  47.1456903
  21.3368141   6.6123624  47.7055725  23.2968132  10.3844308  38.4592710
  22.8587562   9.6680167  37.9998347  24.0378573  10.6120423  37.8977801
  20.0869298   5.0741245  44.9804805  19.2737164   5.3735415  45.3869997
  20.5828293   4.6796933  45.6979287  22.2377876  15.0699002  46.9139070
  22.1954055  15.2959848  45.9847602  23.1540575  14.8362376  47.0624871
  25.6843510   5.5383069  53.8119699  26.0392898   5.7654542  54.6714165
  26.3315641   5.8701446  53.1896954  31.4141247   8.6601505  44.5169028
  31.2759146   8.8503101  43.5890217  31.0577466   9.4220888  44.9737079
  31.4410627  10.7278032  49.5280300  31.8747133  10.6353321  50.3763354
  32.1542207  10.7035532  48.8900316  20.3543677  11.9462031  46.7101033
  21.1484276  11.4512351  46.5083608  19.6435369  11.4179894  46.3468738
  25.1738522  14.3280126  51.0613400  25.2275544  14.8971062  51.8291116
  24.3053303  14.4982011  50.6967437  32.3026176  10.7701733  52.0613185
  32.4962066  11.6747543  52.3072460  32.2026794  10.3109152  52.8951770
  27.3641285  10.9208475  57.6354066  27.2126791  10.6919027  56.7184149
  27.3545964  11.8779077  57.6485411  24.1326621   8.4940388  52.6200332
  25.0618681   8.6451548  52.4469299  23.7117651   8.5824409  51.7648979
  22.9314953  12.5191053  50.3898870  22.7926039  12.1509837  51.2624808
  22.1429549  13.0338692  50.2182828  23.5263105  17.6200149  41.7324406
  23.7014861  17.1488192  42.5470029  22.8395893  18.2465915  41.9605667
  24.4820168  11.8972655  47.7787707  24.1470001  11.8573425  48.6745357
  23.9824114  11.2317371  47.3058118  18.4564412   7.3040285  53.3040289
  18.3184210   6.5720524  53.9051828  19.3669336   7.2149185  53.0224476
  27.4179360   9.2428690  38.0524767  26.8008530   8.5175518  37.9557820
  26.9495848  10.0038050  37.7091841  21.0846713   7.0160245  52.7923968
  21.7946331   6.3753437  52.7510587  21.0416021   7.2673139  53.7150149
  29.0733492  13.9527598  55.7130548  29.0146038  13.2686818  55.0461131
  29.4753010  14.6946588  55.2611173  18.0924190  20.7689512  48.5064266
  18.3320789  21.4008036  49.1843285  17.2493387  20.4177552  48.7929626
  29.0750899  11.9167182  53.9444527  28.1877678  11.5793104  54.0670926
  29.6449450  11.1850213  54.1813293  22.6052052  16.5768634  50.9105770
  22.5322224  17.3823606  51.4225075  22.1629445  16.7760600  50.0853792
  22.3941832  15.8140404  44.4208592  21.6109354  16.3562084  44.5146816
  23.0934577  16.3314384  44.8202833  25.7038482   1.6235034  47.0642797
  26.2007181   0.8704996  46.7443868  24.9325463   1.6599350  46.4986007
  33.5568239   7.3275399  48.7061089  33.5458116   8.2100115  48.3355022
  32.6885619   6.9746950  48.5115626  25.0650736  16.4755468  53.0663929
  25.7778708  17.1102933  52.9939831  24.5740764  16.5719334  52.2503931
  26.7868263  10.3806721  44.6381221  25.8524541  10.5008183  44.4685925
  26.9644931   9.4779188  44.3741231  22.2873451   3.7652417  46.7914482
  21.9171238   3.2123457  47.4795388  22.7832543   3.1610550  46.2389482
  30.1740814   6.2224040  45.1731255  30.6401266   7.0552032  45.0991558
  30.6248314   5.7569022  45.8776513  20.1162649  14.2249912  53.8869500
  20.8172109  14.8586395  54.0398894  19.6457764  14.5664643  53.1265139
  28.2417045  12.5667862  42.1717407  28.5176889  12.4524456  43.0811281
  27.3721544  12.1685346  42.1329580  27.9163935   6.7794519  51.7122050
  27.2635385   7.0270427  51.0574503  28.2944315   5.9658657  51.3784528
  24.8771109  16.8154212  45.8150221  25.0593504  15.9975868  46.2777973
  25.7004095  17.0321905  45.3775111  25.2113275  15.7422398  43.0765269
  25.7401041  15.2314852  42.4635431  25.4741494  15.4264928  43.9410802
  23.9651508   7.5214330  58.1988087  23.2892145   7.4208460  58.8690463
  24.7879142   7.3653544  58.6624085  15.7130367  13.7586267  50.8200603
  16.2983804  13.0129955  50.9528507  15.5155206  14.0690224  51.7037266
  18.5669023  16.7937514  45.8363045  17.8979398  17.2783642  45.3527085
  18.4281892  17.0406735  46.7506423  22.7074291  18.8281258  52.4345703
  23.2592599  18.9912879  53.1994789  23.0480485  19.4185696  51.7625728
  27.5585165  13.6542515  58.2894358  28.1025069  14.2672473  57.7949313
  26.9772010  14.2122094  58.8061371  25.8442678  16.7763233  49.4209385
  25.7193818  15.9752973  48.9120331  26.5021769  17.2709427  48.9323355
  27.9077587  14.5772253  51.0488936  26.9607922  14.4577605  50.9767262
  28.2560360  13.6894751  51.1315197  24.9124020  14.3724970  47.2493288
  24.7648982  13.4441677  47.4300858  25.7377514  14.3945060  46.7650363
  28.5158142  15.1953528  48.3358161  29.4404689  14.9896390  48.1982612
  28.3473445  14.9469929  49.2447502  24.9085534   2.2262807  42.2425405
  25.1249149   3.1087445  41.9414233  24.4279602   1.8349021  41.5131047
  19.6484756   5.1848520  48.8196150  19.5029336   5.4988823  49.7120431
  19.1709959   5.8033421  48.2667048  28.3053458  15.7139196  43.6920252
  28.4790336  15.1485618  42.9394104  28.7982349  16.5140091  43.5099742
  34.1592849   8.4775619  45.3110552  34.6023995   7.7282944  44.9129675
  33.2819360   8.4685755  44.9284284  29.2928631  15.0305960  40.7917150
  29.9879535  15.6512653  41.0104465  29.6351781  14.1801311  41.0669528
  31.1920054  12.4805666  42.3204481  31.7171378  12.8192938  41.5953801
  31.1042406  11.5452681  42.1367616  22.8540102  16.3939739  54.4494358
  23.1627229  16.1488886  55.3217057  23.6515584  16.5986378  53.9613228
  22.8760714  18.5477649  46.6799734  22.4365705  18.0554028  47.3732591
  23.6268831  18.0050617  46.4391809  15.3553053  14.7389190  46.6824362
  16.1811073  14.4392962  46.3023006  15.0047105  13.9696812  47.1314151
  20.3234587  14.0915658  48.7522036  19.7014596  13.4286363  48.4524264
  20.9939454  14.1176790  48.0695684  13.5561659  12.6575516  47.6413296
  12.7193567  12.2297691  47.4597297  13.5285304  12.8507960  48.5784087
  30.8813960  13.1138569  57.6255679  30.0909503  13.0962708  57.0860178
  30.6447314  13.6526863  58.3804716  31.0011835   9.9631036  54.9388408
  31.0509840   9.7981043  55.8803930  30.8925758   9.0958295  54.5486288
  19.8848094  12.6419581  42.2280496  20.0336214  13.3255046  41.5747169
  20.6914537  12.6224671  42.7429952  28.2915597   5.9461964  56.2547714
  29.1925460   5.8068429  55.9631712  28.3663572   6.1116419  57.1945892
  22.6258403   3.3228818  55.1000901  21.7561712   3.6162384  54.8283489
  22.8617883   3.9069263  55.8208164  32.5030032  12.3827977  55.1830429
  32.2114840  12.7457958  56.0193890  31.8902163  11.6694985  55.0043761
  33.7025714   9.9480857  47.7032999  34.5372605  10.3870661  47.8670560
  33.8384843   9.4719510  46.8841245  30.7517220   7.5060592  53.6510487
  31.2271342   7.6988238  52.8429338  29.8282785   7.5619778  53.4053871
  17.6400727   8.6684759  43.2341565  17.3946768   7.7647089  43.4321775
  17.8096641   8.6701909  42.2921043  23.3843499  15.1367712  39.6992244
  22.8117466  15.7557899  39.2462716  23.9576293  15.6867073  40.2332166
  29.4518889   4.3826352  51.8838793  30.4036312   4.4824450  51.9051017
  29.2822339   3.5904620  52.3936877  27.4733268   1.4681935  52.0698194
  26.8783200   1.7486948  51.3744682  27.1882965   1.9575836  52.8414935
  26.6040759  15.4204862  40.8300826  27.5371432  15.3550424  41.0333702
  26.5163972  16.2561129  40.3715359  29.2328776  14.7370732  37.7904774
  29.1542407  14.4030596  38.6840532  30.0538442  15.2292500  37.7896246
  31.9306967   7.6032472  50.9981092  31.8983287   6.6648472  51.1840776
  32.5407590   7.6816508  50.2646917  23.7690298   6.4728525  37.0408296
  24.7149402   6.3434733  37.1096714  23.3904543   5.7343186  37.5177725
  32.0801455   4.3943515  51.0439376  31.5640504   3.6101972  50.8569304
  32.9641404   4.0662232  51.2085895  29.7412182  -1.8615469  47.0035188
  29.5437003  -2.1700381  47.8878520  30.3511888  -1.1353831  47.1333118
  37.7483517   8.6648478  50.1387129  38.4786905   8.4033767  50.6994832
  37.1390462   7.9277200  50.1789197  35.8298814   6.8056341  50.7361580
  35.1031977   6.6712306  50.1278072  35.4146101   7.1133170  51.5418298
  23.6528990  10.5246271  58.5008953  24.5732000  10.7024870  58.6949000
  23.6178573   9.5802316  58.3488653  21.9533215   4.3978501  36.9763182
  21.0464670   4.1011614  37.0525895  22.2309196   4.1008319  36.1097468
  16.6491063   8.4347305  51.1431734  16.8677072   9.3664413  51.1619768
  17.0616836   8.0755280  51.9286538  21.5218928   4.0080511  60.5334483
  21.4215655   4.9574868  60.4646575  21.3040470   3.6798750  59.6610554
  28.8764636   0.1293963  44.2610384  28.2963305   0.7878767  43.8788436
  28.6100568  -0.6928693  43.8497801  27.3268202  -0.4700980  46.4631704
  27.8267981  -0.3584445  45.6546023  27.9703810  -0.7739927  47.1032513
  21.3850198   7.4377650  59.3499545  20.9017280   8.2378010  59.5563434
  21.4711137   7.4485595  58.3966989  14.6536158   9.2706030  47.2721364
  14.6306846   9.3693717  46.3203248  14.9636794  10.1171180  47.5938531
  17.3123535  11.3282185  51.3867979  18.2666789  11.2966127  51.3197910
  17.1136059  10.8672808  52.2018205  17.9022918   9.8983301  53.9538777
  18.7215807  10.3927379  53.9773614  18.1759725   8.9815269  53.9256344
  27.6589514   2.2894053  43.3166732  26.7715369   2.5743704  43.0986927
  28.0743503   2.1287816  42.4694009  31.0104050   2.3140574  47.0321071
  31.7864440   2.8037026  47.3045688  30.2852184   2.7398628  47.4892941
  33.4476609   3.0268193  48.0895012  34.0421099   2.7863929  47.3788320
  33.5203192   2.3075324  48.7168548  15.6673764  16.8701804  48.4038177
  15.5328232  16.1102205  47.8376175  15.2505827  17.5942704  47.9366966
  26.8032727  12.0538728  37.4114752  27.5068577  12.2588730  38.0272408
  26.0795376  12.6215490  37.6763836  27.6330538   7.8048589  43.5317022
  27.5765739   8.2617140  42.6924655  28.1858880   7.0439274  43.3539865
  31.4435343   3.5938321  44.3567142  31.1872278   3.1934956  45.1875349
  30.8188212   4.3082115  44.2317281  35.7547681   6.3334394  46.8638433
  35.1947239   6.4027583  47.6369995  35.1491185   6.1575379  46.1437929
  18.8242890  17.7671121  48.6156619  18.7075274  18.7116554  48.5135310
  18.0035336  17.4644683  49.0042419  28.7119425  12.4921257  39.4613212
  29.5465029  12.0602455  39.2790687  28.5503768  12.3203271  40.3890107
  28.3665317   8.9953370  40.8269551  28.3114121   8.8297642  39.8857995
  27.7411372   9.7029403  40.9831741  25.6811224  11.3002282  60.1523114
  26.5502384  11.4742934  59.7909749  25.2017976  12.1196699  60.0298843
  19.8497404  18.4199383  51.8312548  20.7524651  18.4522993  52.1479043
  19.6234774  17.4899834  51.8458884  21.6051006  17.1730370  48.4922626
  20.6546637  17.1732231  48.3786999  21.9083492  16.4263104  47.9758661
  37.3403700  23.0090908  49.5568389  37.9782110  22.8897655  48.8531729
  37.2224543  23.9571752  49.6156341  34.1493406  22.9618336  49.4929914
  33.8111918  22.8459401  48.6050448  35.0183174  22.5609501  49.4730920
  30.0080222  24.8153813  45.4826804  29.4445087  24.7243749  44.7143092
  29.8932617  23.9953717  45.9629297  34.6313189  24.1153188  55.4516119
  34.6201830  23.7205986  54.5796623  34.7933829  23.3819260  56.0449890
  27.5544654  26.3105004  48.3211025  28.3465946  25.9695829  47.9057324
  27.7941304  26.4199979  49.2413178  35.5879780  28.4824780  40.7941269
  34.9367760  29.0678861  40.4075283  36.3824143  29.0130975  40.8536307
  29.5135408  25.5713917  41.1928404  30.2866284  25.0242904  41.0541280
  29.8660807  26.4358167  41.4042865  31.3520450  26.8990300  54.3995303
  31.0610316  27.8035930  54.2841969  31.9877435  26.9406827  55.1139373
  32.2776657  24.2767148  50.9896663  32.8740229  24.0523171  50.2753626
  32.3351629  23.5351894  51.5922111  31.8501685  21.7306583  38.8246854
  32.1027206  21.2088105  38.0630317  30.9126245  21.5672729  38.9273537
  36.8944968  20.7342362  46.6321597  37.6808058  20.3161785  46.2812014
  37.1583673  21.6388454  46.8003245  37.0655046  26.1715212  41.3310254
  36.4300879  26.2449839  42.0431158  36.7352452  26.7608811  40.6529333
  42.2953395  20.6717595  47.5354575  43.0278567  20.1016812  47.7692405
  41.5392751  20.2839195  47.9761081  31.5697974  23.6334689  41.0271229
  31.4534232  22.9579593  41.6952313  31.6800234  23.1467063  40.2103382
  33.9129515  23.0944837  44.7317918  33.5487722  22.5675458  45.4430839
  34.7696631  22.7043306  44.5584403  39.8178816  14.3839169  51.9949184
  39.4862141  15.2534580  51.7710399  39.2224429  14.0675453  52.6743214
  33.5535002  18.1234736  39.7279266  33.7209404  18.9914973  40.0949737
  33.3632171  18.2862018  38.8040556  36.3110335  26.5851715  51.3945097
  36.0111058  27.4876754  51.2860904  35.9661395  26.3183898  52.2466250
  29.7622817  23.0365512  47.4281801  28.8373313  22.9041726  47.6359493
  30.0107230  23.8159731  47.9251744  39.7107479  19.1034255  49.0742534
  38.8024356  19.0349664  48.7801295  39.6595075  19.5806200  49.9024360
  33.5324223  20.5792394  40.7125933  33.4123848  21.0249444  41.5511413
  32.8376811  20.9277711  40.1539471  27.1231628  22.6798786  48.2625590
  27.2524009  22.9333264  49.1765002  26.4429079  23.2726494  47.9430245
  31.2931115  33.3496035  44.3616064  31.2155145  34.3003861  44.4404545
  30.6892759  33.0041908  45.0190991  33.7848345  20.5223901  57.0177431
  33.0081679  21.0817821  57.0080296  34.4238908  21.0080684  57.5392301
  41.5769125  17.3050694  50.8520408  40.9343506  17.5983227  50.2060203
  41.0724054  17.1903614  51.6573605  39.2309289  21.0513867  41.5406267
  40.1427145  21.2841254  41.3653965  38.7218936  21.6350911  40.9781346
  32.0394717  23.3309354  56.5795398  32.7809402  23.8694398  56.3030222
  31.3331703  23.9575643  56.7366950  37.5150057  25.4738495  55.1767560
  37.9233413  25.0320905  54.4322192  36.7927318  24.8991122  55.4301753
  33.8681127  20.4111102  52.5501117  34.7142322  20.8350515  52.6935766
  33.8079765  19.7544726  53.2439680  37.8378871  26.0339685  48.9319849
  37.2087734  26.1985399  48.2295917  37.4504534  26.4481295  49.7030813
  41.7168103  26.9694123  46.2864212  41.0319142  27.3493025  45.7361246
  41.8011953  27.5789450  47.0196160  37.0180572  18.0715470  54.2082290
  36.7741504  18.8257530  53.6716566  37.2940503  18.4500817  55.0429537
  38.9719035  24.6154082  52.8859556  39.1835930  25.2585842  52.2093937
  38.9248783  23.7816399  52.4181486  36.5745264  17.2271903  49.7896128
  35.7129743  17.5253156  50.0812866  36.6007699  17.4442302  48.8577161
  33.3906833  25.7714093  46.1969934  33.8545179  26.0501796  45.4074556
  33.1263631  24.8697538  46.0143024  30.2830914  25.3185575  49.1349697
  30.8532271  25.7472843  48.4967182  30.8739026  25.0368160  49.8333883
  32.3275719  21.8937246  43.0059499  33.0299763  22.3458289  43.4733425
  31.9956348  21.2521065  43.6339392  30.7756081  20.4849002  57.3810708
  30.1454741  21.1665283  57.6146105  30.6692169  20.3732084  56.4363847
  26.0701053  20.1520798  48.3076632  25.2800107  20.4078327  47.8316743
  26.5612301  20.9669136  48.4128673  40.0864863  27.4926038  51.0581913
  40.9082307  27.0906225  50.7764595  40.0827266  27.3894272  52.0098029
  28.0215799  20.5165378  45.2660109  27.2246962  20.6284072  45.7843605
  27.7941391  20.8552030  44.4001000  33.8521466  27.0410081  53.2142624
  33.9165899  27.5030488  54.0500796  33.1432390  26.4107446  53.3424934
  24.3538756  20.4051289  50.7391623  24.6046795  21.2898299  51.0049199
  24.8898305  20.2255890  49.9666715  48.1770856  23.8364786  47.4066885
  47.4234564  23.2672184  47.2510889  48.3118397  23.8027451  48.3537519
  33.5669484  28.7078188  43.0821604  33.4315159  29.5529724  43.5106452
  34.1079297  28.9097466  42.3187538  30.0536824  14.7869768  59.7435959
  29.6603769  14.2335967  60.4183604  30.8702964  15.0980347  60.1342477
  27.0198881  26.2253626  43.6549529  27.5323402  27.0196877  43.8055094
  27.6721594  25.5279917  43.5883131  28.8293766  29.3419383  45.7372282
  29.0060394  30.2637347  45.5493266  29.6250600  29.0277802  46.1666662
  32.9704785  16.2027647  57.3356216  33.7114498  16.8034801  57.2560678
  33.2022707  15.4605285  56.7774258  28.1146123  21.3884015  55.6134446
  27.9999638  20.4869272  55.9141545  27.2590640  21.6347711  55.2619262
  35.1937960  29.3301755  57.2121946  34.7501815  28.5438134  56.8942851
  35.8555174  29.5180905  56.5465837  29.9525082  30.8597557  51.7382625
  30.5032507  30.7314620  50.9659619  29.1136557  31.1592446  51.3877518
  37.2919198  29.6104555  55.2403347  37.2737674  30.4313436  54.7483617
  38.2139119  29.4858630  55.4653489  33.7492253  27.1248684  56.0826856
  34.2820589  26.3636973  55.8526164  33.2206334  26.8322336  56.8251010
  36.9161948  12.2308750  51.6120498  36.5726217  13.1210392  51.5359608
  37.2840910  12.0410408  50.7490083  24.9847798  24.5542281  44.4309100
  25.8223020  24.9639289  44.2142807  25.1626066  23.6141723  44.4009294
  36.8812230  22.2217361  40.1192933  36.3658854  22.9921966  40.3581320
  36.6089539  21.5482498  40.7425994  34.4659341  17.0667062  45.1778171
  33.6100938  16.6773913  44.9983810  34.8786293  17.1459023  44.3177957
  35.9958488  14.6013405  49.5769731  35.4923284  14.5643541  48.7637536
  36.2889095  15.5106148  49.6366388  32.2401374  14.6852135  48.5835913
  33.1054371  14.4894944  48.2241802  32.3078883  14.4562487  49.5105269
  41.8546504  24.9749716  42.0546106  41.0775947  24.6360876  41.6101268
  42.5337985  24.9802339  41.3801071  36.6698533  20.0944454  41.9452714
  36.3648669  20.4090603  42.7962857  37.6228976  20.1725873  41.9880047
  35.1144965  26.2534677  43.5945668  34.5866327  25.5187436  43.2818905
  34.6132468  27.0309353  43.3485636  40.0937811  24.4483697  48.7112714
  39.4361486  25.1382959  48.7992843  40.8978211  24.8380129  49.0546701
  29.8463693  16.9154343  45.9552279  30.4207445  16.6929525  45.2225472
  30.4334675  16.9843038  46.7080881  38.9043270  22.8028070  46.7616656
  39.4175152  23.4358062  47.2638366  39.5544494  22.2029266  46.3960016
  30.1733280  18.9458804  39.9748165  29.3370592  19.2833491  40.2957439
  30.0338050  18.8107784  39.0375302  32.1486361  13.7895592  44.6827349
  31.4950773  13.4744609  44.0583964  32.1066835  13.1671332  45.4087172
  33.2597565  24.0714887  36.5980641  32.3524627  23.8404141  36.7971790
  33.7568597  23.2752506  36.7854622  36.1665644  32.7812394  39.5177327
  35.4927343  33.0844091  40.1262285  36.5531466  33.5841475  39.1682784
  35.3824101  20.2777526  49.0074996  34.4646662  20.4992473  48.8496685
  35.7984245  20.3523836  48.1486704  36.1659149  21.6768941  44.1377677
  36.9130968  22.1890338  43.8284799  36.4350738  21.3552994  44.9982070
  34.4385799  24.1727482  41.1204631  33.5297018  23.8886515  41.2177101
  34.4680883  24.5926561  40.2607938  39.6705066  27.7834071  44.8895799
  39.2167393  26.9424981  44.9460989  39.0399033  28.4195470  45.2270579
  38.6137986  18.7126058  46.1196466  37.8760743  18.2003444  46.4506709
  38.8664759  18.2726439  45.3079743  38.1138006  29.6210568  45.8245617
  38.4060980  30.1815625  45.1057982  38.6236626  29.9139129  46.5798776
  38.7149613  11.4902310  46.7138235  39.0208490  10.6299673  46.4264150
  39.4402218  12.0819930  46.5137229  25.0073969  21.8932996  45.1019833
  24.8098369  21.3002357  44.3770900  24.4520633  21.5885206  45.8195772
  32.9870693  21.7856103  47.2214426  33.0419303  20.8329939  47.1456903
  32.1761895  21.9415542  47.7055725  34.1361887  25.7136226  38.4592710
  33.6981317  24.9972085  37.9998347  34.8772328  25.9412340  37.8977801
  30.9263053  20.4033162  44.9804805  30.1130918  20.7027333  45.3869997
  31.4222047  20.0088851  45.6979287  33.0771631  30.3990919  46.9139070
  33.0347810  30.6251766  45.9847602  33.9934330  30.1654294  47.0624871
  36.5237265  20.8674987  53.8119699  36.8786652  21.0946460  54.6714165
  37.1709396  21.1993364  53.1896954  42.2535002  23.9893423  44.5169028
  42.1152900  24.1795019  43.5890217  41.8971220  24.7512805  44.9737079
  30.4177128  17.9751518  50.5966040  31.0576507  17.8340277  49.8989003
  29.5854658  17.6886031  50.2204642  42.2804381  26.0569950  49.5280300
  42.7140888  25.9645239  50.3763354  42.9935962  26.0327450  48.8900316
  31.1937432  27.2753948  46.7101033  31.9878030  26.7804268  46.5083608
  30.4829124  26.7471811  46.3468738  36.0132276  29.6572044  51.0613400
  36.0669298  30.2262980  51.8291116  35.1447057  29.8273929  50.6967437
  27.5020195  21.4197030  42.7860785  26.5717783  21.3581485  43.0030747
  27.5977667  20.8972983  41.9897427  27.4205744  17.9451843  45.3739027
  27.6812561  18.8597176  45.2648187  28.2422916  17.4776285  45.5235640
  28.8930669  19.3589600  52.5437851  29.5653723  19.1506962  51.8950500
  28.0660456  19.1611686  52.1043084  43.1419931  26.0993650  52.0613185
  43.3355821  27.0039461  52.3072460  43.0420549  25.6401069  52.8951770
  34.7956241  15.9851541  54.5603512  34.1484156  16.6841491  54.4667989
  35.5657257  16.4187685  54.9279761  38.2035039  26.2500393  57.6354066
  38.0520546  26.0210945  56.7184149  38.1939719  27.2070995  57.6485411
  34.9720376  23.8232306  52.6200332  35.9012436  23.9743465  52.4469299
  34.5511406  23.9116327  51.7648979  33.7708708  27.8482970  50.3898870
  33.6319793  27.4801755  51.2624808  32.9823304  28.3630610  50.2182828
  34.3656860  32.9492067  41.7324406  34.5408615  32.4780110  42.5470029
  33.6789648  33.5757833  41.9605667  35.3213923  27.2264573  47.7787707
  34.9863755  27.1865343  48.6745357  34.8217868  26.5609289  47.3058118
  29.2958167  22.6332203  53.3040289  29.1577965  21.9012442  53.9051828
  30.2063090  22.5441103  53.0224476  38.2573114  24.5720607  38.0524767
  37.6402285  23.8467435  37.9557820  37.7889603  25.3329968  37.7091841
  31.9240467  22.3452162  52.7923968  32.6340086  21.7045354  52.7510587
  31.8809775  22.5965057  53.7150149  39.9127246  29.2819516  55.7130548
  39.8539792  28.5978736  55.0461131  40.3146764  30.0238506  55.2611173
  30.6369401  19.3317380  54.6119608  30.1006758  18.8808119  55.2641204
  30.0486110  19.4663289  53.8690072  28.9317945  36.0981429  48.5064266
  29.1714543  36.7299954  49.1843285  28.0887141  35.7469470  48.7929626
  30.0471660  18.7906032  37.1746071  29.1701127  18.6694832  36.8108318
  30.5229413  17.9992110  36.9224960  39.9144653  27.2459100  53.9444527
  39.0271432  26.9085021  54.0670926  40.4843204  26.5142131  54.1813293
  21.5673800  23.5783191  47.2687579  22.2544840  23.2644921  46.6808594
  21.4121929  24.4824556  46.9954830  26.3708523  18.4673388  51.6972602
  26.2866711  17.8599057  50.9623012  25.5491229  18.9582406  51.6982099
  33.4445807  31.9060552  50.9105770  33.3715978  32.7115523  51.4225075
  33.0023200  32.1052518  50.0853792  33.2335586  31.1432322  44.4208592
  32.4503108  31.6854002  44.5146816  33.9328331  31.6606302  44.8202833
  36.5432236  16.9526951  47.0642797  37.0400936  16.1996914  46.7443868
  35.7719218  16.9891268  46.4986007  44.3961994  22.6567317  48.7061089
  44.3851870  23.5392032  48.3355022  43.5279373  22.3038868  48.5115626
  35.9044490  31.8047386  53.0663929  36.6172462  32.4394851  52.9939831
  35.4134519  31.9011252  52.2503931  37.6262017  25.7098639  44.6381221
  36.6918296  25.8300101  44.4685925  37.8038686  24.8071105  44.3741231
  33.1267205  19.0944334  46.7914482  32.7564993  18.5415375  47.4795388
  33.6226298  18.4902468  46.2389482  41.0134568  21.5515958  45.1731255
  41.4795021  22.3843950  45.0991558  41.4642069  21.0860939  45.8776513
  30.9556404  29.5541829  53.8869500  31.6565863  30.1878312  54.0398894
  30.4851519  29.8956561  53.1265139  39.0810800  27.8959779  42.1717407
  39.3570643  27.7816374  43.0811281  38.2115298  27.4977264  42.1329580
  38.9851231  13.9196545  49.2122156  38.0714311  14.1500772  49.3804363
  39.4144333  14.0034989  50.0636189  38.7557690  22.1086437  51.7122050
  38.1029140  22.3562344  51.0574503  39.1338070  21.2950575  51.3784528
  35.7164864  32.1446130  45.8150221  35.8987258  31.3267786  46.2777973
  36.5397850  32.3613822  45.3775111  36.0507029  31.0714315  43.0765269
  36.5794795  30.5606770  42.4635431  36.3135249  30.7556845  43.9410802
  34.8045263  22.8506248  58.1988087  34.1285900  22.7500377  58.8690463
  35.6272897  22.6945462  58.6624085  26.5524122  29.0878184  50.8200603
  27.1377559  28.3421872  50.9528507  26.3548960  29.3982141  51.7037266
  29.4062777  32.1229432  45.8363045  28.7373152  32.6075559  45.3527085
  29.2675647  32.3698652  46.7506423  21.1441777  21.6583785  49.5405046
  21.1825876  21.1247375  50.3342164  20.6382069  21.1318990  48.9216023
  33.5468046  34.1573175  52.4345703  34.0986354  34.3204797  53.1994789
  33.8874239  34.7477613  51.7625728  28.5232539  16.5048325  53.0367588
  28.5873865  17.3663156  52.6244986  28.4599659  15.8922327  52.3039947
  27.9984811  18.5771458  56.6840622  28.6256850  18.1948535  57.2978147
  27.1412730  18.3585660  57.0496315  38.3978920  28.9834433  58.2894358
  38.9418824  29.5964391  57.7949313  37.8165765  29.5414011  58.8061371
  24.7750354  20.3847887  42.6158977  25.0703795  19.4758565  42.5626031
  23.8738390  20.3635626  42.2939979  36.6836433  32.1055151  49.4209385
  36.5587572  31.3044891  48.9120331  37.3415524  32.6001344  48.9323355
  28.3044601  18.4603883  48.5986526  27.5831187  19.0739851  48.4593999
  29.0937857  18.9961648  48.5203172  38.7471341  29.9064171  51.0488936
  37.8001677  29.7869522  50.9767262  39.0954114  29.0186669  51.1315197
  31.1070915  15.7958310  54.8727177  31.6305316  16.0420606  55.6353487
  30.8883248  16.6278345  54.4530315  26.5038196  18.0661984  42.7398302
  26.1750902  17.1859363  42.5573408  26.8577566  18.0109653  43.6274691
  35.7517775  29.7016887  47.2493288  35.6042737  28.7733595  47.4300858
  36.5771268  29.7236978  46.7650363  29.6180019  18.3534954  43.1073780
  29.9576091  18.8820876  42.3852388  30.0652139  18.6915360  43.8832346
  39.3551896  30.5245446  48.3358161  40.2798444  30.3188307  48.1982612
  39.1867200  30.2761847  49.2447502  32.3123460  16.7372005  52.5576848
  31.9720280  15.9379818  52.9597528  31.6062466  17.0373716  51.9853681
  32.9639931  13.8221317  51.0104171  33.7866001  13.3481796  50.8883061
  33.2077995  14.6011801  51.5102857  31.6048166  16.8509576  41.3067073
  32.3256528  17.2290829  40.8030790  30.9813470  17.5698453  41.4102051
  35.7479289  17.5554725  42.2425405  35.9642903  18.4379363  41.9414233
  35.2673356  17.1640938  41.5131047  30.4878510  20.5140438  48.8196150
  30.3423091  20.8280741  49.7120431  30.0103714  21.1325338  48.2667048
  32.3474893  17.5042986  48.8677039  32.3336462  16.6084079  48.5309337
  33.0647321  17.5113650  49.5015325  34.2001024  17.9380326  50.9130167
  33.9418802  18.8597397  50.9114497  33.6686064  17.5410761  51.6030631
  39.1447213  31.0431113  43.6920252  39.3184090  30.4777536  42.9394104
  39.6376104  31.8432008  43.5099742  24.9624172  23.0545782  51.7583811
  24.4177640  23.8305590  51.8904085  25.8403522  23.4016587  51.6002932
  31.7511789  16.3857366  44.1364609  31.8727700  15.4574013  44.3355497
  31.4613831  16.3996052  43.2242925  34.6202979  14.0712277  47.2731329
  34.6424676  14.1351610  46.3183309  35.0371038  13.2316785  47.4671835
  44.9986604  23.8067536  45.3110552  45.4417750  23.0574862  44.9129675
  44.1213114  23.7977673  44.9284284  40.1322385  30.3597878  40.7917150
  40.8273290  30.9804570  41.0104465  40.4745535  29.5093229  41.0669528
  25.7490194  22.1815679  54.6513968  25.0071930  22.3298314  55.2378598
  25.4282939  22.4423944  53.7880717  42.0313808  27.8097583  42.3204481
  42.5565132  28.1484856  41.5953801  41.9436161  26.8744599  42.1367616
  33.6933857  31.7231657  54.4494358  34.0020983  31.4780804  55.3217057
  34.4909339  31.9278295  53.9613228  33.7154469  33.8769567  46.6799734
  33.2759459  33.3845945  47.3732591  34.4662586  33.3342534  46.4391809
  26.1946808  30.0681107  46.6824362  27.0204828  29.7684879  46.3023006
  25.8440860  29.2988730  47.1314151  31.1628341  29.4207576  48.7522036
  30.5408350  28.7578281  48.4524264  31.8333208  29.4468708  48.0695684
  24.3955413  27.9867434  47.6413296  23.5587321  27.5589608  47.4597297
  24.3679058  28.1799877  48.5784087  31.2352869  17.8989364  58.3454542
  31.2841024  18.7751487  57.9632312  31.7775383  17.3566757  57.7726185
  41.7207714  28.4430487  57.6255679  40.9303258  28.4254626  57.0860178
  41.4841069  28.9818781  58.3804716  41.8405589  25.2922953  54.9388408
  41.8903594  25.1272961  55.8803930  41.7319513  24.4250212  54.5486288
  30.7241848  27.9711499  42.2280496  30.8729968  28.6546963  41.5747169
  31.5308291  27.9516589  42.7429952  39.1309352  21.2753881  56.2547714
  40.0319214  21.1360346  55.9631712  39.2057326  21.4408336  57.1945892
  33.4652157  18.6520736  55.1000901  32.5955466  18.9454302  54.8283489
  33.7011637  19.2361181  55.8208164  43.3423786  27.7119895  55.1830429
  43.0508594  28.0749875  56.0193890  42.7295917  26.9986903  55.0043761
  44.5419468  25.2772775  47.7032999  45.3766360  25.7162579  47.8670560
  44.6778597  24.8011428  46.8841245  41.5910974  22.8352509  53.6510487
  42.0665096  23.0280156  52.8429338  40.6676540  22.8911695  53.4053871
  28.4794481  23.9976677  43.2341565  28.2340523  23.0939007  43.4321775
  28.6490396  23.9993827  42.2921043  36.1691191  14.8700353  52.6166321
  36.6873135  15.6061380  52.2912810  35.8146324  15.1764346  53.4513080
  27.7490129  19.7305034  40.7327727  27.0559373  19.8049389  40.0767763
  27.5041880  18.9665378  41.2549244  36.4203785  11.2900636  48.1367218
  36.7005539  10.6223825  48.7627644  37.2054392  11.4829731  47.6241881
  34.2237254  30.4659629  39.6992244  33.6511221  31.0849817  39.2462716
  34.7970047  31.0158991  40.2332166  40.2912643  19.7118270  51.8838793
  41.2430066  19.8116367  51.9051017  40.1216094  18.9196538  52.3936877
  38.3127023  16.7973853  52.0698194  37.7176955  17.0778865  51.3744682
  38.0276720  17.2867754  52.8414935  37.4434513  30.7496780  40.8300826
  38.3765186  30.6842341  41.0333702  37.3557726  31.5853046  40.3715359
  40.0722530  30.0662650  37.7904774  39.9936162  29.7322514  38.6840532
  40.8932197  30.5584418  37.7896246  42.7700721  22.9324389  50.9981092
  42.7377041  21.9940390  51.1840776  43.3801345  23.0108426  50.2646917
  34.6084052  21.8020442  37.0408296  35.5543157  21.6726650  37.1096714
  34.2298297  21.0635104  37.5177725  42.9195210  19.7235433  51.0439376
  42.4034258  18.9393889  50.8569304  43.8035158  19.3954149  51.2085895
  40.5805937  13.4676448  47.0035188  40.3830758  13.1591536  47.8878520
  41.1905642  14.1938087  47.1333118  48.5877271  23.9940396  50.1387129
  49.3180660  23.7325684  50.6994832  47.9784217  23.2569118  50.1789197
  46.6692568  22.1348259  50.7361580  45.9425732  22.0004224  50.1278072
  46.2539855  22.4425087  51.5418298  34.4922745  25.8538188  58.5008953
  35.4125754  26.0316787  58.6949000  34.4572328  24.9094234  58.3488653
  32.7926969  19.7270419  36.9763182  31.8858425  19.4303531  37.0525895
  33.0702950  19.4300237  36.1097468  23.7104910  21.0476782  47.4262228
  23.3907694  20.1942090  47.1336602  23.1638338  21.2625360  48.1820195
  27.4884817  23.7639223  51.1431734  27.7070827  24.6956331  51.1619768
  27.9010591  23.4047197  51.9286538  34.4089035  14.2707308  43.1307423
  33.5989763  13.9254393  43.5062669  35.0973452  13.9614852  43.7195034
  36.3379583  13.3485355  44.7531720  36.8910622  13.7680809  45.4121743
  36.5749670  12.4221103  44.7954676  32.3612682  19.3372429  60.5334483
  32.2609409  20.2866786  60.4646575  32.1434224  19.0090668  59.6610554
  31.5625754  16.5857354  37.1175161  32.4244918  16.9112252  37.3770978
  31.7476098  15.7988850  36.6048227  23.5793170  24.6679694  49.3955350
  22.8856641  24.2533646  48.8825304  24.3266161  24.7100230  48.7988768
  39.7158390  15.4585880  44.2610384  39.1357059  16.1170684  43.8788436
  39.4494323  14.6363225  43.8497801  38.1661957  14.8590938  46.4631704
  38.6661735  14.9707473  45.6546023  38.8097565  14.5551991  47.1032513
  32.2243953  22.7669568  59.3499545  31.7411034  23.5669928  59.5563434
  32.3104892  22.7777512  58.3966989  25.4929912  24.5997947  47.2721364
  25.4700600  24.6985635  46.3203248  25.8030549  25.4463098  47.5938531
  28.1517290  26.6574102  51.3867979  29.1060544  26.6258045  51.3197910
  27.9529814  26.1964726  52.2018205  28.7416672  25.2275218  53.9538777
  29.5609561  25.7219297  53.9773614  29.0153480  24.3107187  53.9256344
  38.4983268  17.6185971  43.3166732  37.6109123  17.9035621  43.0986927
  38.9137257  17.4579734  42.4694009  41.8497804  17.6432492  47.0321071
  42.6258195  18.1328944  47.3045688  41.1245939  18.0690546  47.4892941
  44.2870363  18.3560111  48.0895012  44.8814854  18.1155847  47.3788320
  44.3596947  17.6367241  48.7168548  26.5067519  32.1993722  48.4038177
  26.3721987  31.4394123  47.8376175  26.0899581  32.9234622  47.9366966
  37.6426482  27.3830645  37.4114752  38.3462332  27.5880648  38.0272408
  36.9189131  27.9507407  37.6763836  38.4724292  23.1340507  43.5317022
  38.4159493  23.5909058  42.6924655  39.0252635  22.3731191  43.3539865
  42.2829098  18.9230238  44.3567142  42.0266032  18.5226874  45.1875349
  41.6581966  19.6374032  44.2317281  46.5941436  21.6626312  46.8638433
  46.0340994  21.7319501  47.6369995  45.9884939  21.4867296  46.1437929
  29.6636645  33.0963039  48.6156619  29.5469029  34.0408471  48.5135310
  28.8429091  32.7936600  49.0042419  39.5513179  27.8213175  39.4613212
  40.3858783  27.3894373  39.2790687  39.3897522  27.6495188  40.3890107
  39.2059071  24.3245288  40.8269551  39.1507875  24.1589559  39.8857995
  38.5805127  25.0321321  40.9831741  23.9951586  19.5613352  54.6530974
  24.6410450  19.0512306  55.1418199  23.7868737  20.2982034  55.2274399
  36.5204979  26.6294200  60.1523114  37.3896138  26.8034852  59.7909749
  36.0411730  27.4488617  60.0298843  32.5155197  13.8253397  40.4054870
  32.5033867  14.7695237  40.5623141  33.4078619  13.6423542  40.1114331
  30.6891159  33.7491301  51.8312548  31.5918405  33.7814911  52.1479043
  30.4628529  32.8191752  51.8458884  32.4444761  32.5022287  48.4922626
  31.4940392  32.5024149  48.3786999  32.7477247  31.7555022  47.9758661
  36.3307316  10.4196173  44.6600807  35.5639712   9.8654660  44.8057489
  36.7418021  10.4918042  45.5214958  28.3349077  16.7080969  58.7505988
  29.1980539  16.3517774  58.9609312  27.7614488  16.3694864  59.4381392
  48.1797454  38.3382826  49.5568389  48.8175864  38.2189573  48.8531729
  48.0618297  39.2863670  49.6156341  44.9887161  38.2910254  49.4929914
  44.6505672  38.1751318  48.6050448  45.8576929  37.8901419  49.4730920
  40.8473976  40.1445730  45.4826804  40.2838841  40.0535667  44.7143092
  40.7326371  39.3245635  45.9629297  45.4706944  39.4445105  55.4516119
  45.4595584  39.0497904  54.5796623  45.6327583  38.7111178  56.0449890
  38.3938408  41.6396922  48.3211025  39.1859700  41.2987746  47.9057324
  38.6335058  41.7491897  49.2413178  46.4273535  43.8116698  40.7941269
  45.7761515  44.3970778  40.4075283  47.2217898  44.3422893  40.8536307
  40.3529162  40.9005835  41.1928404  41.1260038  40.3534822  41.0541280
  40.7054561  41.7650084  41.4042865  42.1914205  42.2282217  54.3995303
  41.9004071  43.1327848  54.2841969  42.8271189  42.2698745  55.1139373
  43.1170412  39.6059066  50.9896663  43.7133984  39.3815088  50.2753626
  43.1745383  38.8643811  51.5922111  42.6895440  37.0598501  38.8246854
  42.9420961  36.5380022  38.0630317  41.7519999  36.8964647  38.9273537
  47.7338723  36.0634280  46.6321597  48.5201812  35.6453703  46.2812014
  47.9977427  36.9680372  46.8003245  47.9048800  41.5007130  41.3310254
  47.2694633  41.5741756  42.0431158  47.5746207  42.0900729  40.6529333
  53.1347150  36.0009513  47.5354575  53.8672322  35.4308730  47.7692405
  52.3786506  35.6131113  47.9761081  42.4091729  38.9626607  41.0271229
  42.2927987  38.2871510  41.6952313  42.5193989  38.4758981  40.2103382
  44.7523270  38.4236754  44.7317918  44.3881477  37.8967375  45.4430839
  45.6090386  38.0335223  44.5584403  50.6572570  29.7131087  51.9949184
  50.3255895  30.5826498  51.7710399  50.0618184  29.3967371  52.6743214
  44.3928757  33.4526654  39.7279266  44.5603159  34.3206890  40.0949737
  44.2025926  33.6153936  38.8040556  47.1504090  41.9143633  51.3945097
  46.8504813  42.8168672  51.2860904  46.8055149  41.6475816  52.2466250
  40.6016571  38.3657430  47.4281801  39.6767068  38.2333644  47.6359493
  40.8500984  39.1451649  47.9251744  50.5501234  34.4326173  49.0742534
  49.6418111  34.3641581  48.7801295  50.4988829  34.9098118  49.9024360
  44.3717977  35.9084311  40.7125933  44.2517603  36.3541362  41.5511413
  43.6770566  36.2569629  40.1539471  37.9625382  38.0090703  48.2625590
  38.0917763  38.2625182  49.1765002  37.2822834  38.6018411  47.9430245
  42.1324870  48.6787953  44.3616064  42.0548899  49.6295778  44.4404545
  41.5286513  48.3333826  45.0190991  44.6242099  35.8515819  57.0177431
  43.8475433  36.4109739  57.0080296  45.2632662  36.3372602  57.5392301
  52.4162880  32.6342611  50.8520408  51.7737260  32.9275145  50.2060203
  51.9117808  32.5195532  51.6573605  50.0703044  36.3805785  41.5406267
  50.9820900  36.6133171  41.3653965  49.5612691  36.9642829  40.9781346
  42.8788472  38.6601272  56.5795398  43.6203156  39.1986316  56.3030222
  42.1725457  39.2867561  56.7366950  48.3543811  40.8030412  55.1767560
  48.7627167  40.3612823  54.4322192  47.6321073  40.2283040  55.4301753
  44.7074881  35.7403019  52.5501117  45.5536077  36.1642433  52.6935766
  44.6473519  35.0836643  53.2439680  48.6772626  41.3631603  48.9319849
  48.0481488  41.5277317  48.2295917  48.2898288  41.7773213  49.7030813
  52.5561858  42.2986041  46.2864212  51.8712896  42.6784942  45.7361246
  52.6405707  42.9081368  47.0196160  47.8574327  33.4007388  54.2082290
  47.6135259  34.1549448  53.6716566  48.1334257  33.7792735  55.0429537
  49.8112789  39.9446000  52.8859556  50.0229685  40.5877760  52.2093937
  49.7642538  39.1108316  52.4181486  47.4139018  32.5563821  49.7896128
  46.5523497  32.8545074  50.0812866  47.4401453  32.7734219  48.8577161
  44.2300588  41.1006011  46.1969934  44.6938933  41.3793714  45.4074556
  43.9657386  40.1989456  46.0143024  41.1224669  40.6477493  49.1349697
  41.6926026  41.0764761  48.4967182  41.7132781  40.3660077  49.8333883
  43.1669474  37.2229163  43.0059499  43.8693517  37.6750207  43.4733425
  42.8350102  36.5812982  43.6339392  41.6149835  35.8140920  57.3810708
  40.9848496  36.4957201  57.6146105  41.5085923  35.7024002  56.4363847
  36.9094808  35.4812716  48.3076632  36.1193862  35.7370245  47.8316743
  37.4006055  36.2961054  48.4128673  50.9258617  42.8217955  51.0581913
  51.7476061  42.4198143  50.7764595  50.9221020  42.7186189  52.0098029
  38.8609553  35.8457295  45.2660109  38.0640716  35.9575990  45.7843605
  38.6335145  36.1843948  44.4001000  44.6915221  42.3701999  53.2142624
  44.7559653  42.8322406  54.0500796  43.9826145  41.7399364  53.3424934
  35.1932511  35.7343207  50.7391623  35.4440549  36.6190217  51.0049199
  35.7292059  35.5547808  49.9666715  59.0164610  39.1656704  47.4066885
  58.2628319  38.5964102  47.2510889  59.1512152  39.1319368  48.3537519
  44.4063238  44.0370106  43.0821604  44.2708913  44.8821642  43.5106452
  44.9473051  44.2389384  42.3187538  40.8930578  30.1161686  59.7435959
  40.4997524  29.5627885  60.4183604  41.7096718  30.4272264  60.1342477
  37.8592636  41.5545544  43.6549529  38.3717156  42.3488794  43.8055094
  38.5115349  40.8571835  43.5883131  39.6687521  44.6711300  45.7372282
  39.8454149  45.5929265  45.5493266  40.4644354  44.3569720  46.1666662
  43.8098539  31.5319565  57.3356216  44.5508252  32.1326718  57.2560678
  44.0416462  30.7897203  56.7774258  38.9539877  36.7175932  55.6134446
  38.8393392  35.8161190  55.9141545  38.0984395  36.9639629  55.2619262
  46.0331715  44.6593673  57.2121946  45.5895569  43.8730051  56.8942851
  46.6948928  44.8472823  56.5465837  40.7918836  46.1889474  51.7382625
  41.3426261  46.0606538  50.9659619  39.9530312  46.4884363  51.3877518
  48.1312953  44.9396473  55.2403347  48.1131428  45.7605354  54.7483617
  49.0532873  44.8150548  55.4653489  44.5886007  42.4540602  56.0826856
  45.1214344  41.6928890  55.8526164  44.0600088  42.1614254  56.8251010
  47.7555702  27.5600668  51.6120498  47.4119971  28.4502310  51.5359608
  48.1234665  27.3702326  50.7490083  35.8241553  39.8834198  44.4309100
  36.6616775  40.2931207  44.2142807  36.0019820  38.9433641  44.4009294
  47.7205985  37.5509279  40.1192933  47.2052608  38.3213884  40.3581320
  47.4483293  36.8774415  40.7425994  45.3053096  32.3958980  45.1778171
  44.4494692  32.0065830  44.9983810  45.7180048  32.4750941  44.3177957
  46.8352242  29.9305323  49.5769731  46.3317038  29.8935458  48.7637536
  47.1282849  30.8398066  49.6366388  43.0795128  30.0144053  48.5835913
  43.9448125  29.8186862  48.2241802  43.1472637  29.7854405  49.5105269
  52.6940259  40.3041634  42.0546106  51.9169702  39.9652793  41.6101268
  53.3731740  40.3094257  41.3801071  47.5092288  35.4236371  41.9452714
  47.2042424  35.7382520  42.7962857  48.4622730  35.5017791  41.9880047
  45.9538720  41.5826595  43.5945668  45.4260081  40.8479354  43.2818905
  45.4526223  42.3601271  43.3485636  50.9331566  39.7775615  48.7112714
  50.2755240  40.4674876  48.7992843  51.7371965  40.1672047  49.0546701
  40.6857447  32.2446261  45.9552279  41.2601199  32.0221442  45.2225472
  41.2728430  32.3134955  46.7080881  49.7437025  38.1319988  46.7616656
  50.2568906  38.7649980  47.2638366  50.3938249  37.5321183  46.3960016
  41.0127035  34.2750722  39.9748165  40.1764347  34.6125408  40.2957439
  40.8731804  34.1399702  39.0375302  42.9880115  29.1187510  44.6827349
  42.3344527  28.8036527  44.0583964  42.9460589  28.4963250  45.4087172
  44.0991320  39.4006805  36.5980641  43.1918382  39.1696058  36.7971790
  44.5962352  38.6044424  36.7854622  47.0059399  48.1104312  39.5177327
  46.3321098  48.4136009  40.1262285  47.3925221  48.9133392  39.1682784
  46.2217855  35.6069443  49.0074996  45.3040417  35.8284390  48.8496685
  46.6377999  35.6815754  48.1486704  47.0052903  37.0060859  44.1377677
  47.7524722  37.5182256  43.8284799  47.2744493  36.6844912  44.9982070
  45.2779553  39.5019400  41.1204631  44.3690773  39.2178432  41.2177101
  45.3074637  39.9218478  40.2607938  50.5098821  43.1125989  44.8895799
  50.0561148  42.2716899  44.9460989  49.8792788  43.7487388  45.2270579
  49.4531740  34.0417975  46.1196466  48.7154497  33.5295361  46.4506709
  49.7058514  33.6018357  45.3079743  48.9531760  44.9502486  45.8245617
  49.2454734  45.5107543  45.1057982  49.4630381  45.2431047  46.5798776
  49.5543368  26.8194227  46.7138235  49.8602245  25.9591591  46.4264150
  50.2795973  27.4111847  46.5137229  35.8467724  37.2224914  45.1019833
  35.6492124  36.6294274  44.3770900  35.2914388  36.9177124  45.8195772
  43.8264447  37.1148020  47.2214426  43.8813057  36.1621857  47.1456903
  43.0155649  37.2707459  47.7055725  44.9755641  41.0428143  38.4592710
  44.5375071  40.3264002  37.9998347  45.7166082  41.2704258  37.8977801
  41.7656807  35.7325080  44.9804805  40.9524673  36.0319251  45.3869997
  42.2615802  35.3380769  45.6979287  43.9165385  45.7282837  46.9139070
  43.8741564  45.9543683  45.9847602  44.8328084  45.4946212  47.0624871
  47.3631019  36.1966904  53.8119699  47.7180407  36.4238378  54.6714165
  48.0103150  36.5285281  53.1896954  53.0928756  39.3185340  44.5169028
  52.9546655  39.5086936  43.5890217  52.7364975  40.0804723  44.9737079
  41.2570882  33.3043436  50.5966040  41.8970261  33.1632195  49.8989003
  40.4248413  33.0177949  50.2204642  53.1198136  41.3861867  49.5280300
  53.5534642  41.2937156  50.3763354  53.8329716  41.3619368  48.8900316
  42.0331186  42.6045866  46.7101033  42.8271785  42.1096186  46.5083608
  41.3222878  42.0763729  46.3468738  46.8526031  44.9863961  51.0613400
  46.9063053  45.5554898  51.8291116  45.9840812  45.1565847  50.6967437
  38.3413950  36.7488948  42.7860785  37.4111538  36.6873403  43.0030747
  38.4371421  36.2264900  41.9897427  38.2599499  33.2743761  45.3739027
  38.5206316  34.1889094  45.2648187  39.0816671  32.8068203  45.5235640
  39.7324424  34.6881518  52.5437851  40.4047477  34.4798880  51.8950500
  38.9054210  34.4903604  52.1043084  53.9813685  41.4285568  52.0613185
  54.1749575  42.3331379  52.3072460  53.8814303  40.9692987  52.8951770
  45.6349996  31.3143459  54.5603512  44.9877911  32.0133408  54.4667989
  46.4051011  31.7479603  54.9279761  49.0428794  41.5792311  57.6354066
  48.8914300  41.3502862  56.7184149  49.0333473  42.5362912  57.6485411
  45.8114130  39.1524224  52.6200332  46.7406190  39.3035383  52.4469299
  45.3905160  39.2408244  51.7648979  44.6102462  43.1774888  50.3898870
  44.4713548  42.8093672  51.2624808  43.8217058  43.6922527  50.2182828
  45.2050614  48.2783984  41.7324406  45.3802370  47.8072028  42.5470029
  44.5183402  48.9049751  41.9605667  46.1607677  42.5556491  47.7787707
  45.8257510  42.5157261  48.6745357  45.6611623  41.8901207  47.3058118
  40.1351921  37.9624121  53.3040289  39.9971719  37.2304359  53.9051828
  41.0456845  37.8733021  53.0224476  49.0966869  39.9012525  38.0524767
  48.4796039  39.1759353  37.9557820  48.6283357  40.6621885  37.7091841
  42.7634222  37.6744080  52.7923968  43.4733840  37.0337272  52.7510587
  42.7203530  37.9256975  53.7150149  50.7521000  44.6111433  55.7130548
  50.6933547  43.9270653  55.0461131  51.1540519  45.3530423  55.2611173
  41.4763156  34.6609298  54.6119608  40.9400513  34.2100036  55.2641204
  40.8879864  34.7955207  53.8690072  39.7711699  51.4273347  48.5064266
  40.0108298  52.0591871  49.1843285  38.9280896  51.0761387  48.7929626
  40.8865415  34.1197949  37.1746071  40.0094881  33.9986750  36.8108318
  41.3623168  33.3284028  36.9224960  50.7538408  42.5751017  53.9444527
  49.8665187  42.2376939  54.0670926  51.3236959  41.8434048  54.1813293
  32.4067555  38.9075109  47.2687579  33.0938595  38.5936839  46.6808594
  32.2515684  39.8116474  46.9954830  37.2102277  33.7965306  51.6972602
  37.1260466  33.1890975  50.9623012  36.3884983  34.2874324  51.6982099
  44.2839561  47.2352470  50.9105770  44.2109733  48.0407441  51.4225075
  43.8416954  47.4344435  50.0853792  44.0729341  46.4724240  44.4208592
  43.2896863  47.0145920  44.5146816  44.7722086  46.9898219  44.8202833
  47.3825991  32.2818869  47.0642797  47.8794690  31.5288831  46.7443868
  46.6112972  32.3183186  46.4986007  55.2355748  37.9859235  48.7061089
  55.2245625  38.8683950  48.3355022  54.3673128  37.6330785  48.5115626
  46.7438245  47.1339304  53.0663929  47.4566217  47.7686768  52.9939831
  46.2528273  47.2303170  52.2503931  48.4655772  41.0390556  44.6381221
  47.5312050  41.1592019  44.4685925  48.6432440  40.1363023  44.3741231
  43.9660960  34.4236252  46.7914482  43.5958747  33.8707292  47.4795388
  44.4620052  33.8194386  46.2389482  51.8528323  36.8807876  45.1731255
  52.3188775  37.7135867  45.0991558  52.3035823  36.4152857  45.8776513
  41.7950158  44.8833747  53.8869500  42.4959618  45.5170230  54.0398894
  41.3245273  45.2248479  53.1265139  49.9204554  43.2251697  42.1717407
  50.1964398  43.1108291  43.0811281  49.0509053  42.8269182  42.1329580
  49.8244986  29.2488463  49.2122156  48.9108065  29.4792689  49.3804363
  50.2538087  29.3326907  50.0636189  49.5951444  37.4378355  51.7122050
  48.9422894  37.6854262  51.0574503  49.9731824  36.6242493  51.3784528
  46.5558618  47.4738048  45.8150221  46.7381013  46.6559704  46.2777973
  47.3791604  47.6905740  45.3775111  46.8900784  46.4006233  43.0765269
  47.4188550  45.8898687  42.4635431  47.1529003  46.0848763  43.9410802
  45.6439017  38.1798166  58.1988087  44.9679654  38.0792295  58.8690463
  46.4666651  38.0237379  58.6624085  37.3917876  44.4170102  50.8200603
  37.9771313  43.6713790  50.9528507  37.1942715  44.7274059  51.7037266
  40.2456531  47.4521350  45.8363045  39.5766907  47.9367477  45.3527085
  40.1069401  47.6990570  46.7506423  31.9835531  36.9875702  49.5405046
  32.0219631  36.4539293  50.3342164  31.4775824  36.4610908  48.9216023
  44.3861800  49.4865093  52.4345703  44.9380108  49.6496715  53.1994789
  44.7267994  50.0769531  51.7625728  39.3626293  31.8340243  53.0367588
  39.4267620  32.6955074  52.6244986  39.2993414  31.2214245  52.3039947
  38.8378566  33.9063375  56.6840622  39.4650605  33.5240453  57.2978147
  37.9806485  33.6877577  57.0496315  49.2372674  44.3126351  58.2894358
  49.7812578  44.9256309  57.7949313  48.6559519  44.8705929  58.8061371
  35.6144109  35.7139805  42.6158977  35.9097550  34.8050483  42.5626031
  34.7132144  35.6927544  42.2939979  47.5230187  47.4347069  49.4209385
  47.3981327  46.6336808  48.9120331  48.1809278  47.9293262  48.9323355
  39.1438356  33.7895801  48.5986526  38.4224941  34.4031769  48.4593999
  39.9331611  34.3253566  48.5203172  49.5865096  45.2356089  51.0488936
  48.6395431  45.1161440  50.9767262  49.9347869  44.3478587  51.1315197
  41.9464669  31.1250228  54.8727177  42.4699071  31.3712524  55.6353487
  41.7277002  31.9570262  54.4530315  37.3431950  33.3953902  42.7398302
  37.0144656  32.5151281  42.5573408  37.6971321  33.3401571  43.6274691
  46.5911529  45.0308805  47.2493288  46.4436491  44.1025512  47.4300858
  47.4165023  45.0528896  46.7650363  40.4573773  33.6826872  43.1073780
  40.7969846  34.2112793  42.3852388  40.9045894  34.0207278  43.8832346
  50.1945651  45.8537364  48.3358161  51.1192198  45.6480225  48.1982612
  50.0260954  45.6053765  49.2447502  43.1517214  32.0663923  52.5576848
  42.8114035  31.2671736  52.9597528  42.4456220  32.3665634  51.9853681
  43.8033686  29.1513235  51.0104171  44.6259755  28.6773713  50.8883061
  44.0471750  29.9303719  51.5102857  42.4441920  32.1801494  41.3067073
  43.1650283  32.5582746  40.8030790  41.8207225  32.8990370  41.4102051
  46.5873043  32.8846643  42.2425405  46.8036658  33.7671280  41.9414233
  46.1067111  32.4932856  41.5131047  41.3272265  35.8432356  48.8196150
  41.1816845  36.1572659  49.7120431  40.8497468  36.4617256  48.2667048
  43.1868648  32.8334904  48.8677039  43.1730216  31.9375997  48.5309337
  43.9041076  32.8405567  49.5015325  45.0394778  33.2672244  50.9130167
  44.7812556  34.1889315  50.9114497  44.5079819  32.8702678  51.6030631
  49.9840967  46.3723031  43.6920252  50.1577845  45.8069454  42.9394104
  50.4769858  47.1723926  43.5099742  35.8017927  38.3837700  51.7583811
  35.2571395  39.1597508  51.8904085  36.6797277  38.7308505  51.6002932
  42.5905544  31.7149284  44.1364609  42.7121455  30.7865930  44.3355497
  42.3007586  31.7287970  43.2242925  45.4596734  29.4004194  47.2731329
  45.4818431  29.4643528  46.3183309  45.8764793  28.5608703  47.4671835
  55.8380358  39.1359454  45.3110552  56.2811504  38.3866779  44.9129675
  54.9606869  39.1269590  44.9284284  50.9716140  45.6889795  40.7917150
  51.6667044  46.3096488  41.0104465  51.3139290  44.8385147  41.0669528
  36.5883949  37.5107596  54.6513968  35.8465685  37.6590232  55.2378598
  36.2676693  37.7715862  53.7880717  52.8707563  43.1389501  42.3204481
  53.3958887  43.4776774  41.5953801  52.7829915  42.2036516  42.1367616
  44.5327611  47.0523575  54.4494358  44.8414738  46.8072721  55.3217057
  45.3303093  47.2570213  53.9613228  44.5548223  49.2061484  46.6799734
  44.1153214  48.7137863  47.3732591  45.3056340  48.6634452  46.4391809
  37.0340562  45.3973025  46.6824362  37.8598582  45.0976797  46.3023006
  36.6834614  44.6280648  47.1314151  42.0022096  44.7499493  48.7522036
  41.3802105  44.0870198  48.4524264  42.6726963  44.7760625  48.0695684
  35.2349167  43.3159352  47.6413296  34.3981076  42.8881526  47.4597297
  35.2072813  43.5091795  48.5784087  42.0746623  33.2281281  58.3454542
  42.1234779  34.1043404  57.9632312  42.6169137  32.6858674  57.7726185
  52.5601469  43.7722405  57.6255679  51.7697012  43.7546543  57.0860178
  52.3234823  44.3110698  58.3804716  52.6799344  40.6214871  54.9388408
  52.7297349  40.4564878  55.8803930  52.5713267  39.7542130  54.5486288
  41.5635603  43.3003417  42.2280496  41.7123723  43.9838881  41.5747169
  42.3702046  43.2808507  42.7429952  49.9703106  36.6045799  56.2547714
  50.8712969  36.4652264  55.9631712  50.0451081  36.7700254  57.1945892
  44.3045912  33.9812654  55.1000901  43.4349221  34.2746220  54.8283489
  44.5405392  34.5653099  55.8208164  54.1817541  43.0411813  55.1830429
  53.8902349  43.4041793  56.0193890  53.5689672  42.3278821  55.0043761
  55.3813223  40.6064692  47.7032999  56.2160114  41.0454496  47.8670560
  55.5172352  40.1303346  46.8841245  52.4304729  38.1644427  53.6510487
  52.9058850  38.3572073  52.8429338  51.5070294  38.2203613  53.4053871
  39.3188235  39.3268594  43.2341565  39.0734277  38.4230924  43.4321775
  39.4884150  39.3285745  42.2921043  47.0084945  30.1992271  52.6166321
  47.5266889  30.9353298  52.2912810  46.6540078  30.5056264  53.4513080
  38.5883883  35.0596952  40.7327727  37.8953128  35.1341307  40.0767763
  38.3435635  34.2957296  41.2549244  47.2597540  26.6192553  48.1367218
  47.5399293  25.9515742  48.7627644  48.0448146  26.8121649  47.6241881
  45.0631008  45.7951547  39.6992244  44.4904975  46.4141734  39.2462716
  45.6363802  46.3450909  40.2332166  51.1306398  35.0410187  51.8838793
  52.0823821  35.1408285  51.9051017  50.9609848  34.2488456  52.3936877
  49.1520777  32.1265770  52.0698194  48.5570709  32.4070783  51.3744682
  48.8670474  32.6159671  52.8414935  48.2828268  46.0788697  40.8300826
  49.2158941  46.0134259  41.0333702  48.1951481  46.9144964  40.3715359
  50.9116284  45.3954568  37.7904774  50.8329916  45.0614431  38.6840532
  51.7325951  45.8876336  37.7896246  53.6094476  38.2616307  50.9981092
  53.5770796  37.3232308  51.1840776  54.2195099  38.3400344  50.2646917
  45.4477807  37.1312360  37.0408296  46.3936911  37.0018568  37.1096714
  45.0692051  36.3927022  37.5177725  53.7588964  35.0527350  51.0439376
  53.2428013  34.2685807  50.8569304  54.6428913  34.7246067  51.2085895
  51.4199691  28.7968366  47.0035188  51.2224512  28.4883454  47.8878520
  52.0299397  29.5230005  47.1333118  59.4271026  39.3232314  50.1387129
  60.1574414  39.0617602  50.6994832  58.8177971  38.5861036  50.1789197
  57.5086323  37.4640176  50.7361580  56.7819486  37.3296141  50.1278072
  57.0933610  37.7717005  51.5418298  45.3316499  41.1830106  58.5008953
  46.2519509  41.3608705  58.6949000  45.2966082  40.2386151  58.3488653
  43.6320724  35.0562336  36.9763182  42.7252179  34.7595449  37.0525895
  43.9096705  34.7592154  36.1097468  34.5498664  36.3768700  47.4262228
  34.2301448  35.5234008  47.1336602  34.0032092  36.5917278  48.1820195
  38.3278572  39.0931141  51.1431734  38.5464581  40.0248249  51.1619768
  38.7404345  38.7339115  51.9286538  45.2482789  29.5999226  43.1307423
  44.4383518  29.2546311  43.5062669  45.9367206  29.2906770  43.7195034
  47.1773338  28.6777273  44.7531720  47.7304376  29.0972726  45.4121743
  47.4143424  27.7513021  44.7954676  43.2006437  34.6664346  60.5334483
  43.1003164  35.6158703  60.4646575  42.9827979  34.3382585  59.6610554
  42.4019508  31.9149272  37.1175161  43.2638672  32.2404170  37.3770978
  42.5869852  31.1280767  36.6048227  34.4186924  39.9971611  49.3955350
  33.7250396  39.5825564  48.8825304  35.1659915  40.0392148  48.7988768
  50.5552145  30.7877798  44.2610384  49.9750814  31.4462602  43.8788436
  50.2888077  29.9655143  43.8497801  49.0055711  30.1882856  46.4631704
  49.5055490  30.2999390  45.6546023  49.6491319  29.8843909  47.1032513
  43.0637707  38.0961485  59.3499545  42.5804789  38.8961845  59.5563434
  43.1498646  38.1069430  58.3966989  36.3323667  39.9289865  47.2721364
  36.3094355  40.0277552  46.3203248  36.6424303  40.7755016  47.5938531
  38.9911044  41.9866020  51.3867979  39.9454298  41.9549962  51.3197910
  38.7923568  41.5256644  52.2018205  39.5810427  40.5567136  53.9538777
  40.4003316  41.0511215  53.9773614  39.8547234  39.6399104  53.9256344
  49.3377023  32.9477888  43.3166732  48.4502878  33.2327539  43.0986927
  49.7531012  32.7871652  42.4694009  52.6891559  32.9724409  47.0321071
  53.4651949  33.4620862  47.3045688  51.9639693  33.3982464  47.4892941
  55.1264118  33.6852029  48.0895012  55.7208608  33.4447765  47.3788320
  55.1990701  32.9659159  48.7168548  37.3461273  47.5285639  48.4038177
  37.2115741  46.7686040  47.8376175  36.9293336  48.2526539  47.9366966
  48.4820236  42.7122563  37.4114752  49.1856086  42.9172566  38.0272408
  47.7582885  43.2799325  37.6763836  49.3118047  38.4632424  43.5317022
  49.2553248  38.9200976  42.6924655  49.8646389  37.7023109  43.3539865
  53.1222852  34.2522156  44.3567142  52.8659787  33.8518792  45.1875349
  52.4975720  34.9665950  44.2317281  57.4335190  36.9918229  46.8638433
  56.8734748  37.0611419  47.6369995  56.8278694  36.8159214  46.1437929
  40.5030399  48.4254957  48.6156619  40.3862783  49.3700389  48.5135310
  39.6822845  48.1228518  49.0042419  50.3906934  43.1505092  39.4613212
  51.2252538  42.7186291  39.2790687  50.2291277  42.9787106  40.3890107
  50.0452826  39.6537206  40.8269551  49.9901630  39.4881477  39.8857995
  49.4198881  40.3613238  40.9831741  34.8345341  34.8905270  54.6530974
  35.4804204  34.3804224  55.1418199  34.6262492  35.6273952  55.2274399
  47.3598733  41.9586117  60.1523114  48.2289893  42.1326770  59.7909749
  46.8805485  42.7780534  60.0298843  43.3548951  29.1545315  40.4054870
  43.3427621  30.0987154  40.5623141  44.2472373  28.9715460  40.1114331
  41.5284913  49.0783218  51.8312548  42.4312160  49.1106829  52.1479043
  41.3022283  48.1483669  51.8458884  43.2838515  47.8314205  48.4922626
  42.3334146  47.8316067  48.3786999  43.5871001  47.0846940  47.9758661
  47.1701071  25.7488091  44.6600807  46.4033467  25.1946578  44.8057489
  47.5811776  25.8209960  45.5214958  39.1742832  32.0372887  58.7505988
  40.0374293  31.6809692  58.9609312  38.6008242  31.6986782  59.4381392
  59.0191209  53.6674743  49.5568389  59.6569619  53.5481491  48.8531729
  58.9012052  54.6155587  49.6156341  55.8280915  53.6202171  49.4929914
  55.4899427  53.5043236  48.6050448  56.6970683  53.2193337  49.4730920
  51.6867731  55.4737648  45.4826804  51.1232596  55.3827585  44.7143092
  51.5720126  54.6537552  45.9629297  56.3100698  54.7737023  55.4516119
  56.2989339  54.3789821  54.5796623  56.4721338  54.0403096  56.0449890
  49.2332163  56.9688839  48.3211025  50.0253455  56.6279664  47.9057324
  49.4728813  57.0783815  49.2413178  57.2667289  59.1408616  40.7941269
  56.6155269  59.7262696  40.4075283  58.0611652  59.6714810  40.8536307
  51.1922917  56.2297753  41.1928404  51.9653793  55.6826740  41.0541280
  51.5448315  57.0942002  41.4042865  53.0307959  57.5574135  54.3995303
  52.7397825  58.4619766  54.2841969  53.6664944  57.5990663  55.1139373
  53.9564166  54.9350983  50.9896663  54.5527738  54.7107006  50.2753626
  54.0139138  54.1935729  51.5922111  53.5289194  52.3890419  38.8246854
  53.7814715  51.8671940  38.0630317  52.5913754  52.2256564  38.9273537
  58.7442555  56.8299047  41.3310254  58.1088388  56.9033674  42.0431158
  58.4139961  57.4192646  40.6529333  53.2485483  54.2918525  41.0271229
  53.1321741  53.6163428  41.6952313  53.3587743  53.8050899  40.2103382
  55.5917024  53.7528672  44.7317918  55.2275231  53.2259293  45.4430839
  56.4484140  53.3627141  44.5584403  61.4966325  45.0423004  51.9949184
  61.1649650  45.9118415  51.7710399  60.9011938  44.7259288  52.6743214
  57.9897844  57.2435550  51.3945097  57.6898567  58.1460589  51.2860904
  57.6448904  56.9767734  52.2466250  51.4410326  53.6949347  47.4281801
  50.5160822  53.5625561  47.6359493  51.6894739  54.4743567  47.9251744
  61.3894988  49.7618091  49.0742534  60.4811865  49.6933499  48.7801295
  61.3382584  50.2390036  49.9024360  48.8019137  53.3382621  48.2625590
  48.9311518  53.5917100  49.1765002  48.1216588  53.9310329  47.9430245
  52.9718624  64.0079871  44.3616064  52.8942654  64.9587696  44.4404545
  52.3680268  63.6625743  45.0190991  59.1937566  56.1322330  55.1767560
  59.6020922  55.6904741  54.4322192  58.4714827  55.5574958  55.4301753
  55.5468636  51.0694937  52.5501117  56.3929831  51.4934350  52.6935766
  55.4867274  50.4128561  53.2439680  59.5166380  56.6923521  48.9319849
  58.8875243  56.8569235  48.2295917  59.1292043  57.1065130  49.7030813
  58.6968081  48.7299305  54.2082290  58.4529013  49.4841366  53.6716566
  58.9728012  49.1084653  55.0429537  60.6506544  55.2737918  52.8859556
  60.8623439  55.9169677  52.2093937  60.6036292  54.4400234  52.4181486
  58.2532773  47.8855738  49.7896128  57.3917252  48.1836992  50.0812866
  58.2795208  48.1026137  48.8577161  55.0694342  56.4297929  46.1969934
  55.5332688  56.7085632  45.4074556  54.8051140  55.5281373  46.0143024
  51.9618423  55.9769410  49.1349697  52.5319780  56.4056679  48.4967182
  52.5526535  55.6951995  49.8333883  47.7488562  50.8104634  48.3076632
  46.9587616  51.0662162  47.8316743  48.2399810  51.6252972  48.4128673
  61.7652372  58.1509873  51.0581913  62.5869816  57.7490060  50.7764595
  61.7614775  58.0478107  52.0098029  49.7003308  51.1749213  45.2660109
  48.9034471  51.2867907  45.7843605  49.4728900  51.5135865  44.4001000
  55.5308975  57.6993916  53.2142624  55.5953408  58.1614324  54.0500796
  54.8219899  57.0691281  53.3424934  46.0326265  51.0635124  50.7391623
  46.2834304  51.9482134  51.0049199  46.5685814  50.8839726  49.9666715
  69.8558365  54.4948621  47.4066885  69.1022073  53.9256020  47.2510889
  69.9905906  54.4611286  48.3537519  55.2456993  59.3662024  43.0821604
  55.1102668  60.2113560  43.5106452  55.7866805  59.5681301  42.3187538
  48.6986390  56.8837462  43.6549529  49.2110911  57.6780712  43.8055094
  49.3509103  56.1863752  43.5883131  50.5081275  60.0003218  45.7372282
  50.6847903  60.9221183  45.5493266  51.3038109  59.6861637  46.1666662
  54.6492294  46.8611483  57.3356216  55.3902007  47.4618636  57.2560678
  54.8810216  46.1189121  56.7774258  49.7933632  52.0467850  55.6134446
  49.6787147  51.1453107  55.9141545  48.9378149  52.2931547  55.2619262
  56.8725469  59.9885590  57.2121946  56.4289324  59.2021969  56.8942851
  57.5342683  60.1764741  56.5465837  51.6312591  61.5181392  51.7382625
  52.1820016  61.3898455  50.9659619  50.7924066  61.8176281  51.3877518
  58.9706707  60.2688390  55.2403347  58.9525183  61.0897271  54.7483617
  59.8926627  60.1442465  55.4653489  55.4279762  57.7832520  56.0826856
  55.9608098  57.0220808  55.8526164  54.8993843  57.4906172  56.8251010
  58.5949457  42.8892586  51.6120498  58.2513726  43.7794227  51.5359608
  58.9628419  42.6994243  50.7490083  46.6635307  55.2126116  44.4309100
  47.5010529  55.6223124  44.2142807  46.8413575  54.2725558  44.4009294
  56.1446850  47.7250898  45.1778171  55.2888447  47.3357748  44.9983810
  56.5573802  47.8042858  44.3177957  57.6745997  45.2597241  49.5769731
  57.1710793  45.2227376  48.7637536  57.9676604  46.1689984  49.6366388
  53.9188883  45.3435971  48.5835913  54.7841880  45.1478779  48.2241802
  53.9866392  45.1146322  49.5105269  63.5334013  55.6333551  42.0546106
  62.7563456  55.2944711  41.6101268  64.2125494  55.6386175  41.3801071
  56.7932474  56.9118512  43.5945668  56.2653836  56.1771272  43.2818905
  56.2919977  57.6893189  43.3485636  61.7725320  55.1067533  48.7112714
  61.1148995  55.7966794  48.7992843  62.5765720  55.4963965  49.0546701
  51.5251202  47.5738178  45.9552279  52.0994954  47.3513360  45.2225472
  52.1122184  47.6426873  46.7080881  60.5830779  53.4611905  46.7616656
  61.0962661  54.0941897  47.2638366  61.2332003  52.8613101  46.3960016
  51.8520789  49.6042640  39.9748165  51.0158101  49.9417326  40.2957439
  51.7125559  49.4691619  39.0375302  53.8273870  44.4479427  44.6827349
  53.1738282  44.1328445  44.0583964  53.7854344  43.8255168  45.4087172
  54.9385074  54.7298722  36.5980641  54.0312136  54.4987976  36.7971790
  55.4356106  53.9336342  36.7854622  57.8453153  63.4396230  39.5177327
  57.1714852  63.7427926  40.1262285  58.2318975  64.2425310  39.1682784
  57.0611610  50.9361361  49.0074996  56.1434171  51.1576308  48.8496685
  57.4771754  51.0107671  48.1486704  59.7925515  60.2794404  45.8245617
  60.0848489  60.8399461  45.1057982  60.3024135  60.5722965  46.5798776
  46.6861478  52.5516831  45.1019833  46.4885878  51.9586192  44.3770900
  46.1308142  52.2469042  45.8195772  54.6658202  52.4439938  47.2214426
  54.7206812  51.4913774  47.1456903  53.8549404  52.5999377  47.7055725
  55.8149396  56.3720061  38.4592710  55.3768826  55.6555920  37.9998347
  56.5559837  56.5996176  37.8977801  52.6050562  51.0616998  44.9804805
  51.7918427  51.3611168  45.3869997  53.1009556  50.6672686  45.6979287
  54.7559140  61.0574755  46.9139070  54.7135319  61.2835601  45.9847602
  55.6721839  60.8238129  47.0624871  58.2024774  51.5258822  53.8119699
  58.5574161  51.7530295  54.6714165  58.8496905  51.8577199  53.1896954
  63.9322510  54.6477258  44.5169028  63.7940409  54.8378854  43.5890217
  63.5758729  55.4096641  44.9737079  52.0964637  48.6335353  50.5966040
  52.7364016  48.4924112  49.8989003  51.2642167  48.3469867  50.2204642
  52.8724941  57.9337784  46.7101033  53.6665539  57.4388104  46.5083608
  52.1616633  57.4055647  46.3468738  57.6919785  60.3155879  51.0613400
  57.7456807  60.8846815  51.8291116  56.8234566  60.4857764  50.6967437
  49.1807704  52.0780865  42.7860785  48.2505292  52.0165321  43.0030747
  49.2765176  51.5556818  41.9897427  49.0993253  48.6035678  45.3739027
  49.3600070  49.5181011  45.2648187  49.9210425  48.1360121  45.5235640
  50.5718178  50.0173435  52.5437851  51.2441232  49.8090797  51.8950500
  49.7447965  49.8195521  52.1043084  64.8207440  56.7577486  52.0613185
  65.0143330  57.6623296  52.3072460  64.7208058  56.2984905  52.8951770
  56.4743750  46.6435376  54.5603512  55.8271665  47.3425326  54.4667989
  57.2444766  47.0771520  54.9279761  56.6507885  54.4816141  52.6200332
  57.5799945  54.6327301  52.4469299  56.2298915  54.5700162  51.7648979
  55.4496217  58.5066806  50.3898870  55.3107302  58.1385590  51.2624808
  54.6610813  59.0214445  50.2182828  56.0444368  63.6075902  41.7324406
  56.2196124  63.1363945  42.5470029  55.3577157  64.2341668  41.9605667
  57.0001432  57.8848408  47.7787707  56.6651264  57.8449178  48.6745357
  56.5005377  57.2193124  47.3058118  50.9745676  53.2916038  53.3040289
  50.8365474  52.5596277  53.9051828  51.8850599  53.2024938  53.0224476
  53.6027976  53.0035998  52.7923968  54.3127595  52.3629190  52.7510587
  53.5597284  53.2548893  53.7150149  52.3156910  49.9901216  54.6119608
  51.7794267  49.5391954  55.2641204  51.7273619  50.1247124  53.8690072
  50.6105454  66.7565265  48.5064266  50.8502052  67.3883789  49.1843285
  49.7674650  66.4053305  48.7929626  51.7259169  49.4489867  37.1746071
  50.8488636  49.3278668  36.8108318  52.2016922  48.6575945  36.9224960
  61.5932162  57.9042935  53.9444527  60.7058941  57.5668857  54.0670926
  62.1630713  57.1725966  54.1813293  43.2461309  54.2367027  47.2687579
  43.9332349  53.9228757  46.6808594  43.0909438  55.1408391  46.9954830
  48.0496032  49.1257223  51.6972602  47.9654220  48.5182893  50.9623012
  47.2278738  49.6166242  51.6982099  55.1233316  62.5644387  50.9105770
  55.0503487  63.3699359  51.4225075  54.6810709  62.7636353  50.0853792
  54.9123095  61.8016157  44.4208592  54.1290617  62.3437837  44.5146816
  55.6115840  62.3190137  44.8202833  58.2219745  47.6110787  47.0642797
  58.7188445  46.8580749  46.7443868  57.4506727  47.6475103  46.4986007
  66.0749503  53.3151152  48.7061089  66.0639379  54.1975868  48.3355022
  65.2066882  52.9622703  48.5115626  57.5831999  62.4631221  53.0663929
  58.2959971  63.0978686  52.9939831  57.0922028  62.5595087  52.2503931
  59.3049526  56.3682474  44.6381221  58.3705805  56.4883936  44.4685925
  59.4826195  55.4654941  44.3741231  54.8054714  49.7528170  46.7914482
  54.4352502  49.1999210  47.4795388  55.3013807  49.1486303  46.2389482
  52.6343913  60.2125665  53.8869500  53.3353372  60.8462148  54.0398894
  52.1639028  60.5540396  53.1265139  60.7598309  58.5543615  42.1717407
  61.0358152  58.4400209  43.0811281  59.8902807  58.1561099  42.1329580
  60.6638740  44.5780380  49.2122156  59.7501820  44.8084607  49.3804363
  61.0931842  44.6618824  50.0636189  60.4345199  52.7670272  51.7122050
  59.7816649  53.0146180  51.0574503  60.8125579  51.9534410  51.3784528
  57.3952373  62.8029965  45.8150221  57.5774767  61.9851621  46.2777973
  58.2185359  63.0197658  45.3775111  57.7294538  61.7298151  43.0765269
  58.2582304  61.2190605  42.4635431  57.9922758  61.4140681  43.9410802
  48.2311631  59.7462020  50.8200603  48.8165068  59.0005708  50.9528507
  48.0336469  60.0565977  51.7037266  51.0850286  62.7813267  45.8363045
  50.4160661  63.2659395  45.3527085  50.9463156  63.0282488  46.7506423
  42.8229285  52.3167620  49.5405046  42.8613385  51.7831211  50.3342164
  42.3169578  51.7902826  48.9216023  55.2255555  64.8157011  52.4345703
  55.7773863  64.9788632  53.1994789  55.5661748  65.4061449  51.7625728
  50.2020048  47.1632161  53.0367588  50.2661374  48.0246991  52.6244986
  50.1387168  46.5506162  52.3039947  49.6772320  49.2355293  56.6840622
  50.3044359  48.8532370  57.2978147  48.8200239  49.0169495  57.0496315
  60.0766429  59.6418268  58.2894358  60.6206333  60.2548227  57.7949313
  59.4953274  60.1997847  58.8061371  46.4537863  51.0431722  42.6158977
  46.7491304  50.1342401  42.5626031  45.5525899  51.0219462  42.2939979
  58.3623942  62.7638986  49.4209385  58.2375081  61.9628726  48.9120331
  59.0203033  63.2585180  48.9323355  49.9832110  49.1187719  48.5986526
  49.2618696  49.7323686  48.4593999  50.7725366  49.6545484  48.5203172
  60.4258850  60.5648006  51.0488936  59.4789186  60.4453358  50.9767262
  60.7741623  59.6770504  51.1315197  52.7858424  46.4542145  54.8727177
  53.3092825  46.7004442  55.6353487  52.5670757  47.2862180  54.4530315
  48.1825705  48.7245820  42.7398302  47.8538411  47.8443199  42.5573408
  48.5365075  48.6693489  43.6274691  57.4305284  60.3600723  47.2493288
  57.2830246  59.4317430  47.4300858  58.2558777  60.3820813  46.7650363
  51.2967528  49.0118790  43.1073780  51.6363600  49.5404711  42.3852388
  51.7439648  49.3499196  43.8832346  53.9910969  47.3955840  52.5576848
  53.6507789  46.5963653  52.9597528  53.2849975  47.6957551  51.9853681
  54.6427440  44.4805153  51.0104171  55.4653510  44.0065631  50.8883061
  54.8865504  45.2595637  51.5102857  52.1666019  51.1724273  48.8196150
  52.0210600  51.4864576  49.7120431  51.6891223  51.7909174  48.2667048
  54.0262402  48.1626821  48.8677039  54.0123971  47.2667915  48.5309337
  54.7434830  48.1697485  49.5015325  55.8788533  48.5964162  50.9130167
  55.6206311  49.5181232  50.9114497  55.3473573  48.1994596  51.6030631
  60.8234722  61.7014949  43.6920252  60.9971599  61.1361371  42.9394104
  61.3163613  62.5015844  43.5099742  46.6411681  53.7129618  51.7583811
  46.0965149  54.4889426  51.8904085  47.5191031  54.0600422  51.6002932
  53.4299298  47.0441202  44.1364609  53.5515209  46.1157848  44.3355497
  53.1401340  47.0579888  43.2242925  56.2990488  44.7296112  47.2731329
  56.3212185  44.7935445  46.3183309  56.7158547  43.8900621  47.4671835
  66.6774113  54.4651372  45.3110552  67.1205259  53.7158697  44.9129675
  65.8000623  54.4561508  44.9284284  61.8109894  61.0181713  40.7917150
  62.5060799  61.6388406  41.0104465  62.1533044  60.1677064  41.0669528
  47.4277703  52.8399514  54.6513968  46.6859439  52.9882149  55.2378598
  47.1070448  53.1007780  53.7880717  63.7101317  58.4681419  42.3204481
  64.2352641  58.8068691  41.5953801  63.6223670  57.5328434  42.1367616
  55.3721366  62.3815492  54.4494358  55.6808492  62.1364639  55.3217057
  56.1696848  62.5862131  53.9613228  55.3941978  64.5353402  46.6799734
  54.9546968  64.0429781  47.3732591  56.1450095  63.9926370  46.4391809
  47.8734317  60.7264943  46.6824362  48.6992337  60.4268715  46.3023006
  47.5228369  59.9572565  47.1314151  52.8415850  60.0791411  48.7522036
  52.2195859  59.4162116  48.4524264  53.5120717  60.1052543  48.0695684
  46.0742922  58.6451269  47.6413296  45.2374830  58.2173444  47.4597297
  46.0466567  58.8383713  48.5784087  52.4029357  58.6295334  42.2280496
  52.5517477  59.3130799  41.5747169  53.2095800  58.6100424  42.7429952
  55.1439666  49.3104571  55.1000901  54.2742975  49.6038138  54.8283489
  55.3799146  49.8945016  55.8208164  65.0211295  58.3703730  55.1830429
  64.7296103  58.7333711  56.0193890  64.4083426  57.6570738  55.0043761
  66.2206977  55.9356610  47.7032999  67.0553869  56.3746414  47.8670560
  66.3566106  55.4595263  46.8841245  63.2698483  53.4936345  53.6510487
  63.7452605  53.6863991  52.8429338  62.3464049  53.5495531  53.4053871
  50.1581990  54.6560512  43.2341565  49.9128032  53.7522842  43.4321775
  50.3277905  54.6577662  42.2921043  57.8478700  45.5284188  52.6166321
  58.3660644  46.2645215  52.2912810  57.4933833  45.8348182  53.4513080
  49.4277638  50.3888870  40.7327727  48.7346882  50.4633225  40.0767763
  49.1829389  49.6249213  41.2549244  58.0991294  41.9484471  48.1367218
  58.3793048  41.2807660  48.7627644  58.8841901  42.1413567  47.6241881
  55.9024763  61.1243465  39.6992244  55.3298730  61.7433652  39.2462716
  56.4757556  61.6742827  40.2332166  61.9700152  50.3702105  51.8838793
  62.9217575  50.4700203  51.9051017  61.8003603  49.5780373  52.3936877
  59.9914532  47.4557688  52.0698194  59.3964464  47.7362701  51.3744682
  59.7064229  47.9451589  52.8414935  59.1222022  61.4080615  40.8300826
  60.0552695  61.3426177  41.0333702  59.0345235  62.2436882  40.3715359
  61.7510039  60.7246485  37.7904774  61.6723671  60.3906349  38.6840532
  62.5719706  61.2168253  37.7896246  64.4488230  53.5908225  50.9981092
  64.4164550  52.6524225  51.1840776  65.0588854  53.6692261  50.2646917
  56.2871561  52.4604278  37.0408296  57.2330666  52.3310486  37.1096714
  55.9085806  51.7218939  37.5177725  54.4714478  50.3854254  36.9763182
  53.5645934  50.0887367  37.0525895  54.7490459  50.0884072  36.1097468
  45.3892419  51.7060617  47.4262228  45.0695203  50.8525926  47.1336602
  44.8425847  51.9209196  48.1820195  49.1672326  54.4223058  51.1431734
  49.3858336  55.3540166  51.1619768  49.5798100  54.0631033  51.9286538
  56.0876544  44.9291144  43.1307423  55.2777272  44.5838229  43.5062669
  56.7760961  44.6198687  43.7195034  58.0167092  44.0069190  44.7531720
  58.5698131  44.4264644  45.4121743  58.2537179  43.0804939  44.7954676
  45.2580679  55.3263529  49.3955350  44.5644150  54.9117482  48.8825304
  46.0053670  55.3684065  48.7988768  59.8449466  45.5174773  46.4631704
  60.3449244  45.6291308  45.6546023  60.4885074  45.2135826  47.1032513
  47.1717421  55.2581783  47.2721364  47.1488109  55.3569470  46.3203248
  47.4818058  56.1046933  47.5938531  49.8304799  57.3157938  51.3867979
  50.7848053  57.2841880  51.3197910  49.6317323  56.8548561  52.2018205
  50.4204181  55.8859054  53.9538777  51.2397070  56.3803132  53.9773614
  50.6940989  54.9691022  53.9256344  48.1855028  62.8577557  48.4038177
  48.0509496  62.0977958  47.8376175  47.7687090  63.5818457  47.9366966
  59.3213991  58.0414481  37.4114752  60.0249841  58.2464483  38.0272408
  58.5976640  58.6091243  37.6763836  51.3424154  63.7546874  48.6156619
  51.2256538  64.6992307  48.5135310  50.5216600  63.4520436  49.0042419
  61.2300688  58.4797010  39.4613212  62.0646292  58.0478208  39.2790687
  61.0685031  58.3079024  40.3890107  45.6739095  50.2197188  54.6530974
  46.3197959  49.7096142  55.1418199  45.4656246  50.9565869  55.2274399
  54.1942706  44.4837232  40.4054870  54.1821376  45.4279072  40.5623141
  55.0866128  44.3007378  40.1114331  52.3678668  64.4075136  51.8312548
  53.2705914  64.4398746  52.1479043  52.1416038  63.4775587  51.8458884
  54.1232270  63.1606123  48.4922626  53.1727901  63.1607984  48.3786999
  54.4264756  62.4138857  47.9758661  58.0094825  41.0780009  44.6600807
  57.2427221  40.5238496  44.8057489  58.4205530  41.1501878  45.5214958
  50.0136586  47.3664805  58.7505988  50.8768048  47.0101610  58.9609312
  49.4401997  47.0278699  59.4381392  62.0316671  71.5589670  41.1928404
  62.8047547  71.0118657  41.0541280  62.3842070  72.4233920  41.4042865
  64.3682949  67.7182337  38.8246854  64.6208470  67.1963858  38.0630317
  63.4307508  67.5548482  38.9273537  64.0879238  69.6210442  41.0271229
  63.9715496  68.9455346  41.6952313  64.1981498  69.1342816  40.2103382
  66.0716266  64.1110489  39.7279266  66.2390668  64.9790726  40.0949737
  65.8813435  64.2737771  38.8040556  63.8112379  79.3371789  44.3616064
  63.7336408  80.2879614  44.4404545  63.2074022  78.9917661  45.0190991
  56.8720020  66.3927042  50.7391623  57.1228058  67.2774052  51.0049199
  57.4079568  66.2131643  49.9666715  66.0850747  74.6953941  43.0821604
  65.9496422  75.5405477  43.5106452  66.6260560  74.8973219  42.3187538
  59.5380145  72.2129380  43.6549529  60.0504665  73.0072630  43.8055094
  60.1902858  71.5155670  43.5883131  57.5029062  70.5418034  44.4309100
  58.3404284  70.9515042  44.2142807  57.6807329  69.6017476  44.4009294
  62.6914543  64.9334557  39.9748165  61.8551856  65.2709244  40.2957439
  62.5519313  64.7983537  39.0375302  65.7778829  70.0590640  36.5980641
  64.8705891  69.8279894  36.7971790  66.2749861  69.2628259  36.7854622
  68.6846908  78.7688147  39.5177327  68.0108607  79.0719844  40.1262285
  69.0712730  79.5717228  39.1682784  66.8838123  78.9367820  41.7324406
  67.0589879  78.4655863  42.5470029  66.1970911  79.5633586  41.9605667
  61.4499208  82.0857183  48.5064266  61.6895806  82.7175707  49.1843285
  60.6068405  81.7345223  48.7929626  62.5652924  64.7781785  37.1746071
  61.6882390  64.6570585  36.8108318  63.0410677  63.9867863  36.9224960
  54.0855064  69.5658944  47.2687579  54.7726104  69.2520674  46.6808594
  53.9303193  70.4700309  46.9954830  65.9627070  77.8936305  50.9105770
  65.8897242  78.6991276  51.4225075  65.5204463  78.0928271  50.0853792
  65.7516850  77.1308075  44.4208592  64.9684372  77.6729755  44.5146816
  66.4509595  77.6482055  44.8202833  68.2346127  78.1321883  45.8150221
  68.4168522  77.3143539  46.2777973  69.0579113  78.3489575  45.3775111
  68.5688293  77.0590068  43.0765269  69.0976059  76.5482523  42.4635431
  68.8316512  76.7432598  43.9410802  61.9244040  78.1105185  45.8363045
  61.2554416  78.5951313  45.3527085  61.7856910  78.3574405  46.7506423
  53.6623040  67.6459538  49.5405046  53.7007140  67.1123128  50.3342164
  53.1563333  67.1194743  48.9216023  66.0649309  80.1448928  52.4345703
  66.6167617  80.3080550  53.1994789  66.4055503  80.7353366  51.7625728
  57.2931618  66.3723640  42.6158977  57.5885059  65.4634318  42.5626031
  56.3919653  66.3511379  42.2939979  69.2017696  78.0930904  49.4209385
  69.0768836  77.2920644  48.9120331  69.8596787  78.5877097  48.9323355
  59.0219459  64.0537738  42.7398302  58.6932165  63.1735116  42.5573408
  59.3758830  63.9985406  43.6274691  64.1229429  62.8385329  41.3067073
  64.8437792  63.2166582  40.8030790  63.4994734  63.5574206  41.4102051
  71.6628476  77.0306866  43.6920252  71.8365354  76.4653289  42.9394104
  72.1557367  77.8307761  43.5099742  57.4805436  69.0421535  51.7583811
  56.9358904  69.8181343  51.8904085  58.3584786  69.3892340  51.6002932
  66.2335732  79.8645320  46.6799734  65.7940723  79.3721698  47.3732591
  66.9843849  79.3218287  46.4391809  63.2423111  73.9587252  42.2280496
  63.3911232  74.6422716  41.5747169  64.0489555  73.9392342  42.7429952
  60.2671392  65.7180787  40.7327727  59.5740637  65.7925142  40.0767763
  60.0223144  64.9541131  41.2549244  66.7418517  76.4535382  39.6992244
  66.1692484  77.0725570  39.2462716  67.3151311  77.0034744  40.2332166
  69.9615777  76.7372533  40.8300826  70.8946450  76.6718094  41.0333702
  69.8738990  77.5728799  40.3715359  72.5903793  76.0538403  37.7904774
  72.5117425  75.7198267  38.6840532  73.4113460  76.5460171  37.7896246
  67.1265316  67.7896195  37.0408296  68.0724420  67.6602403  37.1096714
  66.7479560  67.0510857  37.5177725  65.3108233  65.7146172  36.9763182
  64.4039688  65.4179284  37.0525895  65.5884214  65.4175990  36.1097468
  56.2286173  67.0352535  47.4262228  55.9088957  66.1817843  47.1336602
  55.6819601  67.2501113  48.1820195  68.8560847  59.3361108  44.7531720
  69.4091885  59.7556562  45.4121743  69.0930933  58.4096856  44.7954676
  64.0807017  62.5733107  37.1175161  64.9426181  62.8988005  37.3770978
  64.2657361  61.7864603  36.6048227  56.0974433  70.6555447  49.3955350
  55.4037904  70.2409399  48.8825304  56.8447424  70.6975983  48.7988768
  58.0111176  70.5873700  47.2721364  57.9881864  70.6861388  46.3203248
  58.3211812  71.4338851  47.5938531  59.0248782  78.1869475  48.4038177
  58.8903250  77.4269876  47.8376175  58.6080845  78.9110375  47.9366966
  70.1607745  73.3706398  37.4114752  70.8643595  73.5756401  38.0272408
  69.4370394  73.9383160  37.6763836  62.1817908  79.0838792  48.6156619
  62.0650292  80.0284224  48.5135310  61.3610354  78.7812353  49.0042419
  56.5132850  65.5489105  54.6530974  57.1591713  65.0388059  55.1418199
  56.3050001  66.2857787  55.2274399  65.0336460  59.8129150  40.4054870
  65.0215130  60.7570990  40.5623141  65.9259882  59.6299295  40.1114331
  63.2072422  79.7367054  51.8312548  64.1099669  79.7690664  52.1479043
  62.9809792  78.8067505  51.8458884  64.9626024  78.4898040  48.4922626
  64.0121655  78.4899902  48.3786999  65.2658510  77.7430775  47.9758661
  80.6978718  84.3258579  49.5568389  81.3357128  84.2065326  48.8531729
  80.5799561  85.2739423  49.6156341  77.5068424  84.2786007  49.4929914
  77.1686936  84.1627071  48.6050448  78.3758192  83.8777172  49.4730920
  73.3655240  86.1321483  45.4826804  72.8020105  86.0411420  44.7143092
  73.2507635  85.3121388  45.9629297  77.9888207  85.4320859  55.4516119
  77.9776848  85.0373657  54.5796623  78.1508847  84.6986931  56.0449890
  70.9119672  87.6272675  48.3211025  71.7040964  87.2863499  47.9057324
  71.1516322  87.7367650  49.2413178  78.9454798  89.7992451  40.7941269
  78.2942778  90.3846531  40.4075283  79.7399161  90.3298646  40.8536307
  72.8710426  86.8881588  41.1928404  73.6441302  86.3410575  41.0541280
  73.2235824  87.7525837  41.4042865  74.7095468  88.2157970  54.3995303
  74.4185334  89.1203601  54.2841969  75.3452453  88.2574498  55.1139373
  75.6351675  85.5934819  50.9896663  76.2315247  85.3690841  50.2753626
  75.6926647  84.8519564  51.5922111  75.2076703  83.0474254  38.8246854
  75.4602224  82.5255775  38.0630317  74.2701263  82.8840400  38.9273537
  80.2519986  82.0510033  46.6321597  81.0383075  81.6329456  46.2812014
  80.5158691  82.9556125  46.8003245  80.4230064  87.4882883  41.3310254
  79.7875897  87.5617509  42.0431158  80.0927470  88.0776482  40.6529333
  85.6528413  81.9885266  47.5354575  86.3853585  81.4184483  47.7692405
  84.8967769  81.6006866  47.9761081  74.9272992  84.9502360  41.0271229
  74.8109250  84.2747264  41.6952313  75.0375252  84.4634734  40.2103382
  77.2704533  84.4112507  44.7317918  76.9062740  83.8843128  45.4430839
  78.1271649  84.0210976  44.5584403  76.9110020  79.4402407  39.7279266
  77.0784422  80.3082643  40.0949737  76.7207189  79.6029689  38.8040556
  79.6685353  87.9019386  51.3945097  79.3686076  88.8044425  51.2860904
  79.3236413  87.6351569  52.2466250  73.1197835  84.3533183  47.4281801
  72.1948331  84.2209397  47.6359493  73.3682248  85.1327402  47.9251744
  83.0682497  80.4201926  49.0742534  82.1599374  80.3517334  48.7801295
  83.0170093  80.8973871  49.9024360  76.8899241  81.8960064  40.7125933
  76.7698866  82.3417115  41.5511413  76.1951829  82.2445382  40.1539471
  70.4806646  83.9966456  48.2625590  70.6099027  84.2500935  49.1765002
  69.8004097  84.5894164  47.9430245  74.6506133  94.6663706  44.3616064
  74.5730163  95.6171531  44.4404545  74.0467777  94.3209579  45.0190991
  77.1423363  81.8391572  57.0177431  76.3656697  82.3985492  57.0080296
  77.7813926  82.3248355  57.5392301  84.9344143  78.6218364  50.8520408
  84.2918524  78.9150898  50.2060203  84.4299072  78.5071285  51.6573605
  82.5884307  82.3681538  41.5406267  83.5002163  82.6008924  41.3653965
  82.0793954  82.9518582  40.9781346  75.3969735  84.6477025  56.5795398
  76.1384419  85.1862069  56.3030222  74.6906721  85.2743314  56.7366950
  80.8725075  86.7906165  55.1767560  81.2808431  86.3488576  54.4322192
  80.1502336  86.2158793  55.4301753  77.2256145  81.7278772  52.5501117
  78.0717340  82.1518186  52.6935766  77.1654782  81.0712397  53.2439680
  81.1953889  87.3507356  48.9319849  80.5662752  87.5153070  48.2295917
  80.8079551  87.7648966  49.7030813  85.0743121  88.2861794  46.2864212
  84.3894159  88.6660695  45.7361246  85.1586971  88.8957121  47.0196160
  80.3755590  79.3883141  54.2082290  80.1316522  80.1425201  53.6716566
  80.6515521  79.7668488  55.0429537  82.3294053  85.9321753  52.8859556
  82.5410948  86.5753513  52.2093937  82.2823801  85.0984069  52.4181486
  79.9320282  78.5439574  49.7896128  79.0704761  78.8420827  50.0812866
  79.9582717  78.7609972  48.8577161  76.7481851  87.0881764  46.1969934
  77.2120197  87.3669467  45.4074556  76.4838649  86.1865209  46.0143024
  73.6405932  86.6353246  49.1349697  74.2107289  87.0640514  48.4967182
  74.2314044  86.3535830  49.8333883  75.6850737  83.2104917  43.0059499
  76.3874781  83.6625960  43.4733425  75.3531366  82.5688735  43.6339392
  74.1331099  81.8016673  57.3810708  73.5029759  82.4832954  57.6146105
  74.0267187  81.6899755  56.4363847  69.4276071  81.4688469  48.3076632
  68.6375125  81.7245998  47.8316743  69.9187319  82.2836807  48.4128673
  83.4439881  88.8093708  51.0581913  84.2657325  88.4073896  50.7764595
  83.4402284  88.7061943  52.0098029  71.3790817  81.8333048  45.2660109
  70.5821980  81.9451743  45.7843605  71.1516409  82.1719701  44.4001000
  77.2096484  88.3577752  53.2142624  77.2740917  88.8198159  54.0500796
  76.5007408  87.7275117  53.3424934  67.7113774  81.7218960  50.7391623
  67.9621813  82.6065970  51.0049199  68.2473323  81.5423561  49.9666715
  91.5345874  85.1532457  47.4066885  90.7809582  84.5839855  47.2510889
  91.6693415  85.1195121  48.3537519  76.9244502  90.0245859  43.0821604
  76.7890177  90.8697395  43.5106452  77.4654314  90.2265137  42.3187538
  73.4111842  76.1037439  59.7435959  73.0178787  75.5503638  60.4183604
  74.2277982  76.4148017  60.1342477  70.3773899  87.5421297  43.6549529
  70.8898420  88.3364547  43.8055094  71.0296612  86.8447588  43.5883131
  72.1868784  90.6587053  45.7372282  72.3635412  91.5805018  45.5493266
  72.9825618  90.3445473  46.1666662  71.4721141  82.7051685  55.6134446
  71.3574656  81.8036943  55.9141545  70.6165658  82.9515382  55.2619262
  78.5512978  90.6469426  57.2121946  78.1076833  89.8605804  56.8942851
  79.2130192  90.8348576  56.5465837  73.3100100  92.1765227  51.7382625
  73.8607525  92.0482291  50.9659619  72.4711575  92.4760116  51.3877518
  80.6494216  90.9272226  55.2403347  80.6312692  91.7481107  54.7483617
  81.5714136  90.8026301  55.4653489  77.1067271  88.4416355  56.0826856
  77.6395607  87.6804643  55.8526164  76.5781352  88.1490007  56.8251010
  68.3422816  85.8709951  44.4309100  69.1798038  86.2806960  44.2142807
  68.5201084  84.9309394  44.4009294  80.2387248  83.5385032  40.1192933
  79.7233872  84.3089637  40.3581320  79.9664557  82.8650168  40.7425994
  77.8234359  78.3834733  45.1778171  76.9675956  77.9941583  44.9983810
  78.2361311  78.4626694  44.3177957  85.2121522  86.2917387  42.0546106
  84.4350965  85.9528546  41.6101268  85.8913003  86.2970010  41.3801071
  80.0273551  81.4112124  41.9452714  79.7223687  81.7258273  42.7962857
  80.9803994  81.4893544  41.9880047  78.4719983  87.5702348  43.5945668
  77.9441345  86.8355107  43.2818905  77.9707486  88.3477024  43.3485636
  83.4512829  85.7651368  48.7112714  82.7936504  86.4550629  48.7992843
  84.2553229  86.1547800  49.0546701  82.2618288  84.1195741  46.7616656
  82.7750170  84.7525733  47.2638366  82.9119512  83.5196936  46.3960016
  73.5308298  80.2626475  39.9748165  72.6945610  80.6001161  40.2957439
  73.3913068  80.1275455  39.0375302  76.6172583  85.3882558  36.5980641
  75.7099645  85.1571811  36.7971790  77.1143615  84.5920177  36.7854622
  79.5240662  94.0980065  39.5177327  78.8502361  94.4011762  40.1262285
  79.9106484  94.9009145  39.1682784  78.7399119  81.5945196  49.0074996
  77.8221680  81.8160143  48.8496685  79.1559263  81.6691507  48.1486704
  79.5234167  82.9936612  44.1377677  80.2705986  83.5058009  43.8284799
  79.7925756  82.6720665  44.9982070  77.7960817  85.4895153  41.1204631
  76.8872036  85.2054185  41.2177101  77.8255901  85.9094231  40.2607938
  83.0280084  89.1001742  44.8895799  82.5742411  88.2592652  44.9460989
  82.3974051  89.7363141  45.2270579  81.9713004  80.0293728  46.1196466
  81.2335761  79.5171114  46.4506709  82.2239777  79.5894110  45.3079743
  81.4713024  90.9378239  45.8245617  81.7635998  91.4983296  45.1057982
  81.9811644  91.2306800  46.5798776  68.3648987  83.2100667  45.1019833
  68.1673387  82.6170028  44.3770900  67.8095651  82.9052877  45.8195772
  76.3445711  83.1023773  47.2214426  76.3994321  82.1497610  47.1456903
  75.5336913  83.2583212  47.7055725  77.4936905  87.0303896  38.4592710
  77.0556335  86.3139755  37.9998347  78.2347346  87.2580011  37.8977801
  74.2838071  81.7200833  44.9804805  73.4705936  82.0195004  45.3869997
  74.7797065  81.3256522  45.6979287  76.4346649  91.7158590  46.9139070
  76.3922828  91.9419436  45.9847602  77.3509348  91.4821965  47.0624871
  79.8812283  82.1842657  53.8119699  80.2361670  82.4114131  54.6714165
  80.5284414  82.5161034  53.1896954  85.6110019  85.3061093  44.5169028
  85.4727918  85.4962689  43.5890217  85.2546238  86.0680476  44.9737079
  85.6379399  87.3737620  49.5280300  86.0715906  87.2812909  50.3763354
  86.3510980  87.3495121  48.8900316  74.5512450  88.5921619  46.7101033
  75.3453048  88.0971939  46.5083608  73.8404142  88.0639482  46.3468738
  79.3707294  90.9739715  51.0613400  79.4244316  91.5430651  51.8291116
  78.5022075  91.1441600  50.6967437  70.8595213  82.7364701  42.7860785
  69.9292801  82.6749156  43.0030747  70.9552685  82.2140653  41.9897427
  70.7780762  79.2619514  45.3739027  71.0387579  80.1764847  45.2648187
  71.5997934  78.7943956  45.5235640  72.2505687  80.6757271  52.5437851
  72.9228741  80.4674633  51.8950500  71.4235474  80.4779357  52.1043084
  86.4994949  87.4161321  52.0613185  86.6930839  88.3207132  52.3072460
  86.3995567  86.9568740  52.8951770  81.5610057  87.5668064  57.6354066
  81.4095564  87.3378615  56.7184149  81.5514737  88.5238665  57.6485411
  78.3295394  85.1399977  52.6200332  79.2587454  85.2911136  52.4469299
  77.9086424  85.2283997  51.7648979  77.1283726  89.1650641  50.3898870
  76.9894811  88.7969425  51.2624808  76.3398322  89.6798280  50.2182828
  77.7231877  94.2659737  41.7324406  77.8983633  93.7947781  42.5470029
  77.0364666  94.8925504  41.9605667  78.6788941  88.5432244  47.7787707
  78.3438773  88.5033014  48.6745357  78.1792886  87.8776960  47.3058118
  72.6533185  83.9499874  53.3040289  72.5152983  83.2180113  53.9051828
  73.5638108  83.8608774  53.0224476  81.6148132  85.8888278  38.0524767
  80.9977303  85.1635106  37.9557820  81.1464621  86.6497638  37.7091841
  75.2815485  83.6619833  52.7923968  75.9915104  83.0213025  52.7510587
  75.2384793  83.9132728  53.7150149  83.2702264  90.5987186  55.7130548
  83.2114810  89.9146406  55.0461131  83.6721782  91.3406176  55.2611173
  73.9944419  80.6485051  54.6119608  73.4581776  80.1975789  55.2641204
  73.4061128  80.7830960  53.8690072  72.2892963  97.4149100  48.5064266
  72.5289561  98.0467624  49.1843285  71.4462159  97.0637140  48.7929626
  73.4046678  80.1073702  37.1746071  72.5276145  79.9862503  36.8108318
  73.8804431  79.3159781  36.9224960  83.2719671  88.5626770  53.9444527
  82.3846450  88.2252692  54.0670926  83.8418222  87.8309802  54.1813293
  64.9248818  84.8950862  47.2687579  65.6119858  84.5812592  46.6808594
  64.7696947  85.7992227  46.9954830  69.7283540  79.7841059  51.6972602
  69.6441729  79.1766728  50.9623012  68.9066247  80.2750077  51.6982099
  76.8020825  93.2228223  50.9105770  76.7290996  94.0283194  51.4225075
  76.3598218  93.4220188  50.0853792  76.5910604  92.4599993  44.4208592
  75.8078126  93.0021673  44.5146816  77.2903349  92.9773972  44.8202833
  79.9007254  78.2694622  47.0642797  80.3975954  77.5164584  46.7443868
  79.1294236  78.3058939  46.4986007  87.7537012  83.9734988  48.7061089
  87.7426888  84.8559703  48.3355022  86.8854391  83.6206538  48.5115626
  79.2619508  93.1215057  53.0663929  79.9747480  93.7562521  52.9939831
  78.7709537  93.2178923  52.2503931  80.9837035  87.0266309  44.6381221
  80.0493314  87.1467772  44.4685925  81.1613704  86.1238776  44.3741231
  76.4842223  80.4112005  46.7914482  76.1140011  79.8583045  47.4795388
  76.9801316  79.8070139  46.2389482  84.3709586  82.8683629  45.1731255
  84.8370039  83.7011620  45.0991558  84.8217087  82.4028610  45.8776513
  74.3131422  90.8709500  53.8869500  75.0140881  91.5045983  54.0398894
  73.8426537  91.2124232  53.1265139  82.4385818  89.2127450  42.1717407
  82.7145661  89.0984044  43.0811281  81.5690316  88.8144935  42.1329580
  82.1132708  83.4254108  51.7122050  81.4604158  83.6730015  51.0574503
  82.4913088  82.6118246  51.3784528  79.0739882  93.4613801  45.8150221
  79.2562276  92.6435457  46.2777973  79.8972868  93.6781493  45.3775111
  79.4082047  92.3881986  43.0765269  79.9369813  91.8774440  42.4635431
  79.6710267  92.0724516  43.9410802  78.1620281  84.1673919  58.1988087
  77.4860918  84.0668048  58.8690463  78.9847915  84.0113132  58.6624085
  69.9099140  90.4045855  50.8200603  70.4952577  89.6589543  50.9528507
  69.7123978  90.7149812  51.7037266  72.7637795  93.4397103  45.8363045
  72.0948170  93.9243230  45.3527085  72.6250665  93.6866323  46.7506423
  64.5016794  82.9751455  49.5405046  64.5400894  82.4415046  50.3342164
  63.9957087  82.4486661  48.9216023  76.9043064  95.4740846  52.4345703
  77.4561372  95.6372468  53.1994789  77.2449257  96.0645284  51.7625728
  71.3559829  79.8939128  56.6840622  71.9831868  79.5116206  57.2978147
  70.4987748  79.6753330  57.0496315  81.7553938  90.3002104  58.2894358
  82.2993842  90.9132062  57.7949313  81.1740783  90.8581682  58.8061371
  68.1325372  81.7015558  42.6158977  68.4278813  80.7926236  42.5626031
  67.2313408  81.6803297  42.2939979  80.0411451  93.4222822  49.4209385
  79.9162590  92.6212561  48.9120331  80.6990542  93.9169015  48.9323355
  71.6619619  79.7771554  48.5986526  70.9406205  80.3907522  48.4593999
  72.4512875  80.3129319  48.5203172  82.1046359  91.2231842  51.0488936
  81.1576695  91.1037193  50.9767262  82.4529132  90.3354340  51.1315197
  69.8613214  79.3829655  42.7398302  69.5325920  78.5027034  42.5573408
  70.2152584  79.3277324  43.6274691  79.1092793  91.0184558  47.2493288
  78.9617755  90.0901265  47.4300858  79.9346286  91.0404649  46.7650363
  72.9755037  79.6702625  43.1073780  73.3151109  80.1988546  42.3852388
  73.4227157  80.0083031  43.8832346  82.7126914  91.8413117  48.3358161
  83.6373462  91.6355978  48.1982612  82.5442218  91.5929518  49.2447502
  74.9623184  78.1677247  41.3067073  75.6831546  78.5458499  40.8030790
  74.3388488  78.8866123  41.4102051  79.1054307  78.8722396  42.2425405
  79.3217921  79.7547033  41.9414233  78.6248374  78.4808609  41.5131047
  73.8453528  81.8308109  48.8196150  73.6998109  82.1448412  49.7120431
  73.3678732  82.4493009  48.2667048  77.5576042  79.2547997  50.9130167
  77.2993820  80.1765068  50.9114497  77.0261082  78.8578432  51.6030631
  82.5022231  92.3598784  43.6920252  82.6759108  91.7945207  42.9394104
  82.9951122  93.1599679  43.5099742  68.3199190  84.3713453  51.7583811
  67.7752658  85.1473261  51.8904085  69.1978540  84.7184258  51.6002932
  75.1086807  77.7025037  44.1364609  75.2302718  76.7741683  44.3355497
  74.8188849  77.7163723  43.2242925  88.3561622  85.1235207  45.3110552
  88.7992768  84.3742532  44.9129675  87.4788132  85.1145343  44.9284284
  83.4897403  91.6765549  40.7917150  84.1848308  92.2972241  41.0104465
  83.8320553  90.8260900  41.0669528  69.1065212  83.4983349  54.6513968
  68.3646948  83.6465985  55.2378598  68.7857957  83.7591615  53.7880717
  85.3888826  89.1265254  42.3204481  85.9140150  89.4652527  41.5953801
  85.3011179  88.1912269  42.1367616  77.0508875  93.0399328  54.4494358
  77.3596001  92.7948474  55.3217057  77.8484357  93.2445966  53.9613228
  77.0729487  95.1937237  46.6799734  76.6334477  94.7013616  47.3732591
  77.8237604  94.6510205  46.4391809  69.5521826  91.3848778  46.6824362
  70.3779846  91.0852550  46.3023006  69.2015878  90.6156401  47.1314151
  74.5203359  90.7375246  48.7522036  73.8983368  90.0745951  48.4524264
  75.1908226  90.7636378  48.0695684  67.7530431  89.3035105  47.6413296
  66.9162339  88.8757279  47.4597297  67.7254076  89.4967548  48.5784087
  74.5927887  79.2157034  58.3454542  74.6416042  80.0919157  57.9632312
  75.1350401  78.6734427  57.7726185  85.0782732  89.7598158  57.6255679
  84.2878276  89.7422297  57.0860178  84.8416087  90.2986451  58.3804716
  85.1980607  86.6090624  54.9388408  85.2478612  86.4440631  55.8803930
  85.0894531  85.7417883  54.5486288  74.0816866  89.2879170  42.2280496
  74.2304986  89.9714634  41.5747169  74.8883309  89.2684260  42.7429952
  82.4884370  82.5921552  56.2547714  83.3894232  82.4528017  55.9631712
  82.5632344  82.7576007  57.1945892  76.8227175  79.9688407  55.1000901
  75.9530484  80.2621973  54.8283489  77.0586655  80.5528852  55.8208164
  86.6998804  89.0287566  55.1830429  86.4083612  89.3917546  56.0193890
  86.0870935  88.3154574  55.0043761  87.8994486  86.5940445  47.7032999
  88.7341378  87.0330249  47.8670560  88.0353615  86.1179099  46.8841245
  84.9485992  84.1520180  53.6510487  85.4240114  84.3447826  52.8429338
  84.0251558  84.2079366  53.4053871  71.8369499  85.3144347  43.2341565
  71.5915541  84.4106677  43.4321775  72.0065414  85.3161498  42.2921043
  79.5266209  76.1868024  52.6166321  80.0448153  76.9229051  52.2912810
  79.1721342  76.4932017  53.4513080  71.1065146  81.0472705  40.7327727
  70.4134391  81.1217060  40.0767763  70.8616898  80.2833049  41.2549244
  77.5812272  91.7827300  39.6992244  77.0086239  92.4017487  39.2462716
  78.1545065  92.3326662  40.2332166  83.6487661  81.0285940  51.8838793
  84.6005084  81.1284038  51.9051017  83.4791112  80.2364209  52.3936877
  81.6702041  78.1141523  52.0698194  81.0751973  78.3946536  51.3744682
  81.3851738  78.6035424  52.8414935  80.8009531  92.0664450  40.8300826
  81.7340204  92.0010012  41.0333702  80.7132744  92.9020717  40.3715359
  83.4297548  91.3830321  37.7904774  83.3511179  91.0490184  38.6840532
  84.2507215  91.8752089  37.7896246  86.1275739  84.2492060  50.9981092
  86.0952059  83.3108061  51.1840776  86.7376363  84.3276097  50.2646917
  77.9659070  83.1188113  37.0408296  78.9118175  82.9894321  37.1096714
  77.5873315  82.3802775  37.5177725  86.2770228  81.0403103  51.0439376
  85.7609276  80.2561560  50.8569304  87.1610176  80.7121820  51.2085895
  91.9452289  85.3108067  50.1387129  92.6755677  85.0493355  50.6994832
  91.3359234  84.5736789  50.1789197  90.0267586  83.4515929  50.7361580
  89.3000750  83.3171894  50.1278072  89.6114873  83.7592758  51.5418298
  77.8497763  87.1705859  58.5008953  78.7700772  87.3484458  58.6949000
  77.8147346  86.2261904  58.3488653  76.1501987  81.0438089  36.9763182
  75.2433443  80.7471202  37.0525895  76.4277968  80.7467907  36.1097468
  67.0679928  82.3644453  47.4262228  66.7482712  81.5109761  47.1336602
  66.5213356  82.5793031  48.1820195  70.8459835  85.0806894  51.1431734
  71.0645845  86.0124002  51.1619768  71.2585609  84.7214868  51.9286538
  75.7187700  80.6540099  60.5334483  75.6184427  81.6034456  60.4646575
  75.5009242  80.3258338  59.6610554  74.9200772  77.9025025  37.1175161
  75.7819936  78.2279923  37.3770978  75.1051116  77.1156520  36.6048227
  66.9368188  85.9847364  49.3955350  66.2431659  85.5701317  48.8825304
  67.6841179  86.0267901  48.7988768  75.5818970  84.0837238  59.3499545
  75.0986052  84.8837598  59.5563434  75.6679910  84.0945183  58.3966989
  68.8504930  85.9165618  47.2721364  68.8275618  86.0153305  46.3203248
  69.1605567  86.7630769  47.5938531  71.5092308  87.9741773  51.3867979
  72.4635561  87.9425715  51.3197910  71.3104832  87.5132397  52.2018205
  72.0991690  86.5442889  53.9538777  72.9184579  87.0386968  53.9773614
  72.3728498  85.6274857  53.9256344  81.8558286  78.9353641  43.3166732
  80.9684141  79.2203292  43.0986927  82.2712275  78.7747405  42.4694009
  85.2072822  78.9600162  47.0321071  85.9833213  79.4496615  47.3045688
  84.4820957  79.3858217  47.4892941  87.6445381  79.6727782  48.0895012
  88.2389872  79.4323518  47.3788320  87.7171965  78.9534912  48.7168548
  69.8642537  93.5161393  48.4038177  69.7297005  92.7561793  47.8376175
  69.4474599  94.2402292  47.9366966  81.0001500  88.6998316  37.4114752
  81.7037350  88.9048319  38.0272408  80.2764149  89.2675078  37.6763836
  81.8299310  84.4508177  43.5317022  81.7734511  84.9076729  42.6924655
  82.3827652  83.6898862  43.3539865  85.6404116  80.2397909  44.3567142
  85.3841050  79.8394545  45.1875349  85.0156984  80.9541703  44.2317281
  89.9516454  82.9793982  46.8638433  89.3916012  83.0487172  47.6369995
  89.3459957  82.8034967  46.1437929  73.0211663  94.4130710  48.6156619
  72.9044047  95.3576142  48.5135310  72.2004109  94.1104271  49.0042419
  82.9088197  89.1380845  39.4613212  83.7433801  88.7062044  39.2790687
  82.7472540  88.9662859  40.3890107  82.5634089  85.6412959  40.8269551
  82.5082893  85.4757230  39.8857995  81.9380145  86.3488991  40.9831741
  67.3526604  80.8781023  54.6530974  67.9985468  80.3679977  55.1418199
  67.1443755  81.6149705  55.2274399  79.8779997  87.9461870  60.1523114
  80.7471156  88.1202523  59.7909749  79.3986748  88.7656287  60.0298843
  74.0466177  95.0658971  51.8312548  74.9493423  95.0982582  52.1479043
  73.8203547  94.1359422  51.8458884  75.8019779  93.8189958  48.4922626
  74.8515410  93.8191820  48.3786999  76.1052265  93.0722693  47.9758661
  71.6924095  78.0248640  58.7505988  72.5555557  77.6685445  58.9609312
  71.1189506  77.6862535  59.4381392  91.5372472  99.6550496  49.5568389
  92.1750882  99.5357244  48.8531729  91.4193315 100.6031340  49.6156341
  88.3462179  99.6077924  49.4929914  88.0080690  99.4918989  48.6050448
  89.2151947  99.2069090  49.4730920  84.2048994 101.4613401  45.4826804
  83.6413859 101.3703338  44.7143092  84.0901389 100.6413305  45.9629297
  88.8281962 100.7612776  55.4516119  88.8170602 100.3665574  54.5796623
  88.9902601 100.0278849  56.0449890  81.7513426 102.9564592  48.3211025
  82.5434718 102.6155417  47.9057324  81.9910076 103.0659568  49.2413178
  89.7848553 105.1284369  40.7941269  89.1336533 105.7138449  40.4075283
  90.5792916 105.6590563  40.8536307  83.7104180 102.2173506  41.1928404
  84.4835056 101.6702493  41.0541280  84.0629579 103.0817755  41.4042865
  85.5489223 103.5449888  54.3995303  85.2579089 104.4495519  54.2841969
  86.1846207 103.5866416  55.1139373  86.4745430 100.9226737  50.9896663
  87.0709002 100.6982759  50.2753626  86.5320401 100.1811482  51.5922111
  86.0470458  98.3766172  38.8246854  86.2995979  97.8547693  38.0630317
  85.1095017  98.2132317  38.9273537  91.0913741  97.3801950  46.6321597
  91.8776830  96.9621373  46.2812014  91.3552445  98.2848042  46.8003245
  91.2623818 102.8174801  41.3310254  90.6269651 102.8909427  42.0431158
  90.9321224 103.4068399  40.6529333  96.4922168  97.3177183  47.5354575
  97.2247340  96.7476400  47.7692405  95.7361524  96.9298784  47.9761081
  85.7666747 100.2794278  41.0271229  85.6503005  99.6039181  41.6952313
  85.8769007  99.7926652  40.2103382  88.1098288  99.7404425  44.7317918
  87.7456495  99.2135046  45.4430839  88.9665403  99.3502894  44.5584403
  94.0147588  91.0298758  51.9949184  93.6830913  91.8994168  51.7710399
  93.4193202  90.7135042  52.6743214  87.7503775  94.7694325  39.7279266
  87.9178177  95.6374561  40.0949737  87.5600944  94.9321606  38.8040556
  90.5079108 103.2311304  51.3945097  90.2079831 104.1336342  51.2860904
  90.1630167 102.9643487  52.2466250  83.9591589  99.6825100  47.4281801
  83.0342086  99.5501314  47.6359493  84.2076002 100.4619320  47.9251744
  93.9076252  95.7493844  49.0742534  92.9993129  95.6809252  48.7801295
  93.8563847  96.2265789  49.9024360  87.7292995  97.2251982  40.7125933
  87.6092621  97.6709033  41.5511413  87.0345584  97.5737300  40.1539471
  81.3200400  99.3258374  48.2625590  81.4492781  99.5792853  49.1765002
  80.6397852  99.9186082  47.9430245  85.4899888 109.9955624  44.3616064
  85.4123917 110.9463449  44.4404545  84.8861531 109.6501496  45.0190991
  87.9817117  97.1683489  57.0177431  87.2050451  97.7277409  57.0080296
  88.6207680  97.6540272  57.5392301  95.7737898  93.9510282  50.8520408
  95.1312278  94.2442815  50.2060203  95.2692826  93.8363202  51.6573605
  93.4278062  97.6973455  41.5406267  94.3395918  97.9300842  41.3653965
  92.9187709  98.2810499  40.9781346  86.2363490  99.9768943  56.5795398
  86.9778174 100.5153987  56.3030222  85.5300475 100.6035231  56.7366950
  91.7118829 102.1198083  55.1767560  92.1202185 101.6780494  54.4322192
  90.9896091 101.5450711  55.4301753  88.0649899  97.0570690  52.5501117
  88.9111095  97.4810103  52.6935766  88.0048537  96.4004314  53.2439680
  92.0347644 102.6799274  48.9319849  91.4056506 102.8444988  48.2295917
  91.6473306 103.0940883  49.7030813  95.9136876 103.6153712  46.2864212
  95.2287914 103.9952613  45.7361246  95.9980725 104.2249038  47.0196160
  91.2149345  94.7175058  54.2082290  90.9710277  95.4717119  53.6716566
  91.4909275  95.0960406  55.0429537  93.1687807 101.2613671  52.8859556
  93.3804703 101.9045431  52.2093937  93.1217556 100.4275987  52.4181486
  90.7714036  93.8731491  49.7896128  89.9098515  94.1712745  50.0812866
  90.7976471  94.0901890  48.8577161  87.5875606 102.4173682  46.1969934
  88.0513951 102.6961385  45.4074556  87.3232404 101.5157126  46.0143024
  84.4799687 101.9645163  49.1349697  85.0501044 102.3932432  48.4967182
  85.0707799 101.6827748  49.8333883  86.5244492  98.5396834  43.0059499
  87.2268535  98.9917878  43.4733425  86.1925120  97.8980653  43.6339392
  84.9724853  97.1308591  57.3810708  84.3423514  97.8124872  57.6146105
  84.8660941  97.0191672  56.4363847  80.2669826  96.7980387  48.3076632
  79.4768880  97.0537915  47.8316743  80.7581073  97.6128725  48.4128673
  94.2833635 104.1385626  51.0581913  95.1051079 103.7365813  50.7764595
  94.2796038 104.0353860  52.0098029  82.2184571  97.1624966  45.2660109
  81.4215734  97.2743660  45.7843605  81.9910163  97.5011618  44.4001000
  88.0490239 103.6869669  53.2142624  88.1134671 104.1490077  54.0500796
  87.3401163 103.0567034  53.3424934  78.5507529  97.0510877  50.7391623
  78.8015567  97.9357887  51.0049199  79.0867077  96.8715479  49.9666715
 102.3739628 100.4824375  47.4066885 101.6203337  99.9131773  47.2510889
 102.5087170 100.4487039  48.3537519  87.7638256 105.3537777  43.0821604
  87.6283931 106.1989313  43.5106452  88.3048069 105.5557054  42.3187538
  84.2505596  91.4329357  59.7435959  83.8572542  90.8795555  60.4183604
  85.0671736  91.7439935  60.1342477  81.2167654 102.8713215  43.6549529
  81.7292174 103.6656465  43.8055094  81.8690367 102.1739505  43.5883131
  83.0262539 105.9878971  45.7372282  83.2029167 106.9096936  45.5493266
  83.8219372 105.6737390  46.1666662  87.1673557  92.8487236  57.3356216
  87.9083270  93.4494389  57.2560678  87.3991480  92.1064874  56.7774258
  82.3114895  98.0343603  55.6134446  82.1968410  97.1328860  55.9141545
  81.4559413  98.2807300  55.2619262  89.3906733 105.9761343  57.2121946
  88.9470587 105.1897722  56.8942851  90.0523946 106.1640494  56.5465837
  84.1493854 107.5057145  51.7382625  84.7001279 107.3774208  50.9659619
  83.3105330 107.8052034  51.3877518  91.4887971 106.2564143  55.2403347
  91.4706446 107.0773024  54.7483617  92.4107891 106.1318218  55.4653489
  87.9461025 103.7708273  56.0826856  88.4789362 103.0096561  55.8526164
  87.4175106 103.4781925  56.8251010  91.1130720  88.8768339  51.6120498
  90.7694989  89.7669980  51.5359608  91.4809683  88.6869996  50.7490083
  79.1816571 101.2001869  44.4309100  80.0191793 101.6098878  44.2142807
  79.3594838 100.2601311  44.4009294  91.0781003  98.8676950  40.1192933
  90.5627626  99.6381554  40.3581320  90.8058311  98.1942086  40.7425994
  88.6628114  93.7126651  45.1778171  87.8069710  93.3233501  44.9983810
  89.0755066  93.7918611  44.3177957  90.1927260  91.2472994  49.5769731
  89.6892056  91.2103129  48.7637536  90.4857867  92.1565737  49.6366388
  86.4370146  91.3311724  48.5835913  87.3023143  91.1354532  48.2241802
  86.5047655  91.1022075  49.5105269  96.0515277 101.6209304  42.0546106
  95.2744720 101.2820464  41.6101268  96.7306758 101.6261928  41.3801071
  90.8667306  96.7404042  41.9452714  90.5617441  97.0550191  42.7962857
  91.8197748  96.8185462  41.9880047  89.3113738 102.8994265  43.5945668
  88.7835099 102.1647025  43.2818905  88.8101240 103.6768942  43.3485636
  94.2906584 101.0943286  48.7112714  93.6330258 101.7842547  48.7992843
  95.0946983 101.4839718  49.0546701  84.0432465  93.5613932  45.9552279
  84.6176217  93.3389113  45.2225472  84.6303448  93.6302626  46.7080881
  93.1012043  99.4487658  46.7616656  93.6143924 100.0817650  47.2638366
  93.7513266  98.8488854  46.3960016  84.3702052  95.5918393  39.9748165
  83.5339365  95.9293079  40.2957439  84.2306822  95.4567372  39.0375302
  86.3455133  90.4355180  44.6827349  85.6919545  90.1204198  44.0583964
  86.3035607  89.8130921  45.4087172  87.4566338 100.7174475  36.5980641
  86.5493400 100.4863729  36.7971790  87.9537370  99.9212095  36.7854622
  90.3634417 109.4271983  39.5177327  89.6896116 109.7303679  40.1262285
  90.7500239 110.2301063  39.1682784  89.5792873  96.9237114  49.0074996
  88.6615435  97.1452061  48.8496685  89.9953017  96.9983424  48.1486704
  90.3627921  98.3228530  44.1377677  91.1099740  98.8349927  43.8284799
  90.6319511  98.0012582  44.9982070  88.6354571 100.8187070  41.1204631
  87.7265791 100.5346103  41.2177101  88.6649655 101.2386149  40.2607938
  93.8673839 104.4293660  44.8895799  93.4136166 103.5884570  44.9460989
  93.2367806 105.0655058  45.2270579  92.8106758  95.3585646  46.1196466
  92.0729515  94.8463032  46.4506709  93.0633532  94.9186027  45.3079743
  92.3106778 106.2670157  45.8245617  92.6029752 106.8275214  45.1057982
  92.8205399 106.5598718  46.5798776  92.9118386  88.1361898  46.7138235
  93.2177262  87.2759261  46.4264150  93.6370990  88.7279518  46.5137229
  79.2042742  98.5392584  45.1019833  79.0067142  97.9461945  44.3770900
  78.6489406  98.2344795  45.8195772  87.1839465  98.4315691  47.2214426
  87.2388075  97.4789527  47.1456903  86.3730667  98.5875130  47.7055725
  88.3330659 102.3595814  38.4592710  87.8950089 101.6431673  37.9998347
  89.0741100 102.5871929  37.8977801  85.1231825  97.0492751  44.9804805
  84.3099691  97.3486921  45.3869997  85.6190820  96.6548439  45.6979287
  87.2740403 107.0450508  46.9139070  87.2316582 107.2711354  45.9847602
  88.1903102 106.8113882  47.0624871  90.7206037  97.5134575  53.8119699
  91.0755425  97.7406048  54.6714165  91.3678168  97.8452952  53.1896954
  96.4503774 100.6353011  44.5169028  96.3121673 100.8254607  43.5890217
  96.0939993 101.3972394  44.9737079  84.6145900  94.6211106  50.5966040
  85.2545279  94.4799865  49.8989003  83.7823431  94.3345620  50.2204642
  96.4773154 102.7029538  49.5280300  96.9109660 102.6104827  50.3763354
  97.1904734 102.6787039  48.8900316  85.3906204 103.9213537  46.7101033
  86.1846803 103.4263857  46.5083608  84.6797896 103.3931400  46.3468738
  90.2101048 106.3031632  51.0613400  90.2638071 106.8722568  51.8291116
  89.3415830 106.4733517  50.6967437  81.6988967  98.0656618  42.7860785
  80.7686556  98.0041074  43.0030747  81.7946439  97.5432571  41.9897427
  81.6174517  94.5911431  45.3739027  81.8781334  95.5056764  45.2648187
  82.4391689  94.1235874  45.5235640  83.0899442  96.0049188  52.5437851
  83.7622495  95.7966551  51.8950500  82.2629228  95.8071274  52.1043084
  97.3388703 102.7453239  52.0613185  97.5324593 103.6499049  52.3072460
  97.2389321 102.2860658  52.8951770  88.9925014  92.6311129  54.5603512
  88.3452929  93.3301079  54.4667989  89.7626029  93.0647273  54.9279761
  92.4003812 102.8959981  57.6354066  92.2489318 102.6670533  56.7184149
  92.3908491 103.8530583  57.6485411  89.1689148 100.4691894  52.6200332
  90.0981208 100.6203054  52.4469299  88.7480178 100.5575915  51.7648979
  87.9677480 104.4942559  50.3898870  87.8288566 104.1261343  51.2624808
  87.1792076 105.0090198  50.2182828  88.5625632 109.5951655  41.7324406
  88.7377388 109.1239698  42.5470029  87.8758420 110.2217421  41.9605667
  89.5182695 103.8724161  47.7787707  89.1832528 103.8324931  48.6745357
  89.0186641 103.2068877  47.3058118  83.4926939  99.2791791  53.3040289
  83.3546737  98.5472030  53.9051828  84.4031863  99.1900691  53.0224476
  92.4541887 101.2180196  38.0524767  91.8371057 100.4927024  37.9557820
  91.9858375 101.9789556  37.7091841  86.1209240  98.9911751  52.7923968
  86.8308858  98.3504943  52.7510587  86.0778548  99.2424646  53.7150149
  94.1096018 105.9279104  55.7130548  94.0508565 105.2438324  55.0461131
  94.5115537 106.6698094  55.2611173  84.8338174  95.9776969  54.6119608
  84.2975531  95.5267707  55.2641204  84.2454882  96.1122877  53.8690072
  83.1286717 112.7441018  48.5064266  83.3683315 113.3759542  49.1843285
  82.2855914 112.3929058  48.7929626  84.2440433  95.4365620  37.1746071
  83.3669899  95.3154421  36.8108318  84.7198186  94.6451698  36.9224960
  94.1113426 103.8918688  53.9444527  93.2240204 103.5544610  54.0670926
  94.6811977 103.1601719  54.1813293  75.7642573 100.2242780  47.2687579
  76.4513613  99.9104510  46.6808594  75.6090702 101.1284144  46.9954830
  80.5677295  95.1132976  51.6972602  80.4835484  94.5058646  50.9623012
  79.7460001  95.6041995  51.6982099  87.6414579 108.5520140  50.9105770
  87.5684751 109.3575112  51.4225075  87.1991972 108.7512106  50.0853792
  87.4304359 107.7891910  44.4208592  86.6471881 108.3313591  44.5146816
  88.1297104 108.3065890  44.8202833  90.7401009  93.5986540  47.0642797
  91.2369708  92.8456502  46.7443868  89.9687990  93.6350856  46.4986007
  98.5930766  99.3026905  48.7061089  98.5820643 100.1851621  48.3355022
  97.7248146  98.9498456  48.5115626  90.1013263 108.4506974  53.0663929
  90.8141235 109.0854439  52.9939831  89.6103291 108.5470840  52.2503931
  91.8230790 102.3558227  44.6381221  90.8887068 102.4759689  44.4685925
  92.0007458 101.4530694  44.3741231  87.3235978  95.7403923  46.7914482
  86.9533765  95.1874963  47.4795388  87.8195070  95.1362056  46.2389482
  95.2103341  98.1975546  45.1731255  95.6763793  99.0303538  45.0991558
  95.6610841  97.7320528  45.8776513  85.1525176 106.2001418  53.8869500
  85.8534636 106.8337901  54.0398894  84.6820291 106.5416149  53.1265139
  93.2779572 104.5419368  42.1717407  93.5539416 104.4275962  43.0811281
  92.4084071 104.1436852  42.1329580  93.1820004  90.5656133  49.2122156
  92.2683083  90.7960360  49.3804363  93.6113105  90.6494577  50.0636189
  92.9526462  98.7546025  51.7122050  92.2997912  99.0021933  51.0574503
  93.3306842  97.9410163  51.3784528  89.9133636 108.7905718  45.8150221
  90.0956031 107.9727374  46.2777973  90.7366622 109.0073411  45.3775111
  90.2475802 107.7173904  43.0765269  90.7763568 107.2066358  42.4635431
  90.5104021 107.4016434  43.9410802  89.0014035  99.4965836  58.1988087
  88.3254672  99.3959966  58.8690463  89.8241669  99.3405050  58.6624085
  80.7492894 105.7337773  50.8200603  81.3346331 104.9881461  50.9528507
  80.5517733 106.0441730  51.7037266  83.6031549 108.7689020  45.8363045
  82.9341925 109.2535148  45.3527085  83.4644419 109.0158241  46.7506423
  75.3410549  98.3043373  49.5405046  75.3794648  97.7706964  50.3342164
  74.8350842  97.7778579  48.9216023  87.7436818 110.8032764  52.4345703
  88.2955126 110.9664385  53.1994789  88.0843011 111.3937202  51.7625728
  82.7201311  93.1507914  53.0367588  82.7842638  94.0122744  52.6244986
  82.6568432  92.5381915  52.3039947  82.1953584  95.2231046  56.6840622
  82.8225623  94.8408123  57.2978147  81.3381503  95.0045248  57.0496315
  92.5947692 105.6294021  58.2894358  93.1387596 106.2423980  57.7949313
  92.0134537 106.1873600  58.8061371  78.9719127  97.0307475  42.6158977
  79.2672568  96.1218154  42.5626031  78.0707162  97.0095215  42.2939979
  90.8805205 108.7514739  49.4209385  90.7556345 107.9504479  48.9120331
  91.5384296 109.2460933  48.9323355  82.5013374  95.1063472  48.5986526
  81.7799959  95.7199439  48.4593999  83.2906629  95.6421237  48.5203172
  92.9440114 106.5523759  51.0488936  91.9970449 106.4329111  50.9767262
  93.2922887 105.6646257  51.1315197  85.3039687  92.4417898  54.8727177
  85.8274089  92.6880195  55.6353487  85.0852020  93.2737933  54.4530315
  80.7006968  94.7121573  42.7398302  80.3719674  93.8318952  42.5573408
  81.0546339  94.6569242  43.6274691  89.9486547 106.3476476  47.2493288
  89.8011509 105.4193183  47.4300858  90.7740041 106.3696566  46.7650363
  83.8148791  94.9994543  43.1073780  84.1544864  95.5280464  42.3852388
  84.2620912  95.3374949  43.8832346  93.5520669 107.1705034  48.3358161
  94.4767216 106.9647896  48.1982612  93.3835972 106.9221435  49.2447502
  86.5092232  93.3831593  52.5576848  86.1689052  92.5839406  52.9597528
  85.8031238  93.6833304  51.9853681  87.1608704  90.4680906  51.0104171
  87.9834773  89.9941384  50.8883061  87.4046767  91.2471390  51.5102857
  85.8016938  93.4969164  41.3067073  86.5225301  93.8750417  40.8030790
  85.1782243  94.2158041  41.4102051  89.9448061  94.2014313  42.2425405
  90.1611676  95.0838951  41.9414233  89.4642128  93.8100527  41.5131047
  84.6847283  97.1600026  48.8196150  84.5391863  97.4740330  49.7120431
  84.2072486  97.7784927  48.2667048  86.5443666  94.1502574  48.8677039
  86.5305234  93.2543668  48.5309337  87.2616094  94.1573238  49.5015325
  88.3969796  94.5839915  50.9130167  88.1387574  95.5056985  50.9114497
  87.8654837  94.1870349  51.6030631  93.3415985 107.6890702  43.6920252
  93.5152863 107.1237124  42.9394104  93.8344876 108.4891597  43.5099742
  79.1592945  99.7005371  51.7583811  78.6146413 100.4765179  51.8904085
  80.0372295 100.0476175  51.6002932  85.9480562  93.0316955  44.1364609
  86.0696473  92.1033601  44.3355497  85.6582604  93.0455641  43.2242925
  88.8171752  90.7171865  47.2731329  88.8393449  90.7811198  46.3183309
  89.2339811  89.8776374  47.4671835  99.1955376 100.4527125  45.3110552
  99.6386522  99.7034450  44.9129675  98.3181887 100.4437261  44.9284284
  94.3291158 107.0057466  40.7917150  95.0242062 107.6264159  41.0104465
  94.6714308 106.1552817  41.0669528  79.9458967  98.8275267  54.6513968
  79.2040703  98.9757902  55.2378598  79.6251711  99.0883533  53.7880717
  96.2282581 104.4557172  42.3204481  96.7533905 104.7944444  41.5953801
  96.1404933 103.5204187  42.1367616  87.8902629 108.3691245  54.4494358
  88.1989756 108.1240392  55.3217057  88.6878111 108.5737884  53.9613228
  87.9123241 110.5229155  46.6799734  87.4728232 110.0305534  47.3732591
  88.6631358 109.9802123  46.4391809  80.3915580 106.7140696  46.6824362
  81.2173600 106.4144468  46.3023006  80.0409632 105.9448318  47.1314151
  85.3597114 106.0667164  48.7522036  84.7377123 105.4037869  48.4524264
  86.0301980 106.0928296  48.0695684  78.5924185 104.6327022  47.6413296
  77.7556094 104.2049197  47.4597297  78.5647831 104.8259466  48.5784087
  85.4321641  94.5448952  58.3454542  85.4809797  95.4211075  57.9632312
  85.9744155  94.0026345  57.7726185  95.9176487 105.0890075  57.6255679
  95.1272030 105.0714214  57.0860178  95.6809841 105.6278369  58.3804716
  96.0374362 101.9382542  54.9388408  96.0872367 101.7732549  55.8803930
  95.9288285 101.0709801  54.5486288  84.9210620 104.6171087  42.2280496
  85.0698741 105.3006552  41.5747169  85.7277064 104.5976177  42.7429952
  93.3278124  97.9213470  56.2547714  94.2287987  97.7819935  55.9631712
  93.4026099  98.0867925  57.1945892  87.6620929  95.2980325  55.1000901
  86.7924239  95.5913891  54.8283489  87.8980410  95.8820769  55.8208164
  97.5392559 104.3579483  55.1830429  97.2477367 104.7209464  56.0193890
  96.9264690 103.6446492  55.0043761  98.7388241 101.9232363  47.7032999
  99.5735132 102.3622167  47.8670560  98.8747370 101.4471016  46.8841245
  95.7879747  99.4812098  53.6510487  96.2633868  99.6739744  52.8429338
  94.8645312  99.5371284  53.4053871  82.6763253 100.6436265  43.2341565
  82.4309295  99.7398595  43.4321775  82.8459168 100.6453415  42.2921043
  90.3659963  91.5159941  52.6166321  90.8841907  92.2520968  52.2912810
  90.0115096  91.8223935  53.4513080  81.9458901  96.3764623  40.7327727
  81.2528146  96.4508978  40.0767763  81.7010653  95.6124966  41.2549244
  90.6172557  87.9360224  48.1367218  90.8974311  87.2683413  48.7627644
  91.4023164  88.1289320  47.6241881  88.4206026 107.1119218  39.6992244
  87.8479993 107.7309405  39.2462716  88.9938820 107.6618580  40.2332166
  94.4881416  96.3577858  51.8838793  95.4398839  96.4575956  51.9051017
  94.3184866  95.5656127  52.3936877  92.5095795  93.4433441  52.0698194
  91.9145727  93.7238454  51.3744682  92.2245492  93.9327342  52.8414935
  91.6403286 107.3956368  40.8300826  92.5733959 107.3301930  41.0333702
  91.5526499 108.2312635  40.3715359  94.2691302 106.7122238  37.7904774
  94.1904934 106.3782102  38.6840532  95.0900969 107.2044006  37.7896246
  96.9669494  99.5783978  50.9981092  96.9345814  98.6399978  51.1840776
  97.5770117  99.6568014  50.2646917  88.8052824  98.4480031  37.0408296
  89.7511929  98.3186239  37.1096714  88.4267069  97.7094693  37.5177725
  97.1163982  96.3695021  51.0439376  96.6003031  95.5853478  50.8569304
  98.0003931  96.0413738  51.2085895  94.7774709  90.1136037  47.0035188
  94.5799530  89.8051125  47.8878520  95.3874415  90.8397676  47.1333118
 102.7846043 100.6399984  50.1387129 103.5149432 100.3785273  50.6994832
 102.1752989  99.9028706  50.1789197 100.8661341  98.7807847  50.7361580
 100.1394504  98.6463812  50.1278072 100.4508627  99.0884676  51.5418298
  88.6891517 102.4997777  58.5008953  89.6094526 102.6776376  58.6949000
  88.6541100 101.5553822  58.3488653  86.9895742  96.3730007  36.9763182
  86.0827197  96.0763120  37.0525895  87.2671723  96.0759825  36.1097468
  77.9073682  97.6936370  47.4262228  77.5876466  96.8401679  47.1336602
  77.3607110  97.9084949  48.1820195  81.6853590 100.4098811  51.1431734
  81.9039599 101.3415919  51.1619768  82.0979363 100.0506786  51.9286538
  88.6057807  90.9166897  43.1307423  87.7958536  90.5713982  43.5062669
  89.2942224  90.6074440  43.7195034  90.5348356  89.9944944  44.7531720
  91.0879394  90.4140397  45.4121743  90.7718442  89.0680692  44.7954676
  86.5581455  95.9832017  60.5334483  86.4578182  96.9326374  60.4646575
  86.3402997  95.6550256  59.6610554  85.7594526  93.2316942  37.1175161
  86.6213690  93.5571841  37.3770978  85.9444870  92.4448438  36.6048227
  77.7761942 101.3139282  49.3955350  77.0825413 100.8993235  48.8825304
  78.5234933 101.3559818  48.7988768  93.9127163  92.1045469  44.2610384
  93.3325832  92.7630273  43.8788436  93.6463095  91.2822813  43.8497801
  92.3630729  91.5050526  46.4631704  92.8630507  91.6167061  45.6546023
  93.0066337  91.2011579  47.1032513  86.4212725  99.4129156  59.3499545
  85.9379807 100.2129516  59.5563434  86.5073664  99.4237101  58.3966989
  79.6898685 101.2457536  47.2721364  79.6669373 101.3445223  46.3203248
  79.9999321 102.0922686  47.5938531  82.3486062 103.3033691  51.3867979
  83.3029316 103.2717633  51.3197910  82.1498586 102.8424314  52.2018205
  82.9385445 101.8734807  53.9538777  83.7578334 102.3678885  53.9773614
  83.2122252 100.9566775  53.9256344  92.6952041  94.2645559  43.3166732
  91.8077896  94.5495210  43.0986927  93.1106030  94.1039322  42.4694009
  96.0466577  94.2892080  47.0321071  96.8226967  94.7788532  47.3045688
  95.3214711  94.7150134  47.4892941  98.4839136  95.0019699  48.0895012
  99.0783626  94.7615435  47.3788320  98.5565719  94.2826830  48.7168548
  80.7036291 108.8453310  48.4038177  80.5690759 108.0853711  47.8376175
  80.2868353 109.5694210  47.9366966  91.8395254 104.0290234  37.4114752
  92.5431104 104.2340236  38.0272408  91.1157903 104.5966996  37.6763836
  92.6693065  99.7800095  43.5317022  92.6128266 100.2368646  42.6924655
  93.2221407  99.0190780  43.3539865  96.4797870  95.5689827  44.3567142
  96.2234805  95.1686463  45.1875349  95.8550738  96.2833621  44.2317281
 100.7910208  98.3085900  46.8638433 100.2309766  98.3779089  47.6369995
 100.1853712  98.1326885  46.1437929  83.8605417 109.7422627  48.6156619
  83.7437801 110.6868060  48.5135310  83.0397863 109.4396189  49.0042419
  93.7481952 104.4672763  39.4613212  94.5827556 104.0353961  39.2790687
  93.5866295 104.2954777  40.3890107  93.4027844 100.9704876  40.8269551
  93.3476648 100.8049148  39.8857995  92.7773899 101.6780909  40.9831741
  78.1920359  96.2072941  54.6530974  78.8379222  95.6971895  55.1418199
  77.9837510  96.9441622  55.2274399  90.7173751 103.2753788  60.1523114
  91.5864911 103.4494440  59.7909749  90.2380502 104.0948205  60.0298843
  86.7123969  90.4712985  40.4054870  86.7002639  91.4154825  40.5623141
  87.6047391  90.2883131  40.1114331  84.8859931 110.3950889  51.8312548
  85.7887178 110.4274499  52.1479043  84.6597301 109.4651340  51.8458884
  86.6413533 109.1481876  48.4922626  85.6909164 109.1483737  48.3786999
  86.9446019 108.4014610  47.9758661  90.5276089  87.0655762  44.6600807
  89.7608485  86.5114249  44.8057489  90.9386794  87.1377631  45.5214958
  82.5317850  93.3540558  58.7505988  83.3949311  92.9977363  58.9609312
  81.9583260  93.0154453  59.4381392 102.3766227 114.9842414  49.5568389
 103.0144637 114.8649161  48.8531729 102.2587070 115.9323258  49.6156341
  99.1855933 114.9369842  49.4929914  98.8474445 114.8210907  48.6050448
 100.0545701 114.5361007  49.4730920  95.0442749 116.7905319  45.4826804
  94.4807614 116.6995256  44.7143092  94.9295144 115.9705223  45.9629297
  99.6675716 116.0904694  55.4516119  99.6564357 115.6957492  54.5796623
  99.8296355 115.3570766  56.0449890  92.5907181 118.2856510  48.3211025
  93.3828473 117.9447335  47.9057324  92.8303831 118.3951485  49.2413178
  94.5497935 117.5465423  41.1928404  95.3228811 116.9994410  41.0541280
  94.9023333 118.4109673  41.4042865  96.3882977 118.8741806  54.3995303
  96.0972843 119.7787437  54.2841969  97.0239962 118.9158333  55.1139373
  97.3139184 116.2518654  50.9896663  97.9102756 116.0274677  50.2753626
  97.3714156 115.5103400  51.5922111  96.8864212 113.7058090  38.8246854
  97.1389733 113.1839611  38.0630317  95.9488771 113.5424235  38.9273537
 101.9307495 112.7093868  46.6321597 102.7170584 112.2913291  46.2812014
 102.1946200 113.6139960  46.8003245 102.1017573 118.1466718  41.3310254
 101.4663406 118.2201345  42.0431158 101.7714979 118.7360317  40.6529333
 107.3315922 112.6469101  47.5354575 108.0641094 112.0768318  47.7692405
 106.5755278 112.2590702  47.9761081  96.6060501 115.6086195  41.0271229
  96.4896759 114.9331099  41.6952313  96.7162761 115.1218569  40.2103382
  98.9492042 115.0696343  44.7317918  98.5850249 114.5426964  45.4430839
  99.8059158 114.6794812  44.5584403 104.8541343 106.3590675  51.9949184
 104.5224667 107.2286086  51.7710399 104.2586956 106.0426959  52.6743214
  98.5897529 110.0986242  39.7279266  98.7571931 110.9666479  40.0949737
  98.3994698 110.2613524  38.8040556 101.3472862 118.5603221  51.3945097
 101.0473585 119.4628260  51.2860904 101.0023922 118.2935404  52.2466250
  94.7985344 115.0117018  47.4281801  93.8735840 114.8793232  47.6359493
  95.0469757 115.7911237  47.9251744 104.7470006 111.0785761  49.0742534
 103.8386883 111.0101170  48.7801295 104.6957602 111.5557706  49.9024360
  98.5686750 112.5543900  40.7125933  98.4486375 113.0000951  41.5511413
  97.8739338 112.9029217  40.1539471  92.1594155 114.6550292  48.2625590
  92.2886536 114.9084771  49.1765002  91.4791606 115.2478000  47.9430245
  98.8210872 112.4975407  57.0177431  98.0444206 113.0569327  57.0080296
  99.4601435 112.9832190  57.5392301 106.6131652 109.2802200  50.8520408
 105.9706033 109.5734733  50.2060203 106.1086581 109.1655120  51.6573605
 104.2671816 113.0265373  41.5406267 105.1789672 113.2592760  41.3653965
 103.7581463 113.6102417  40.9781346  97.0757244 115.3060860  56.5795398
  97.8171928 115.8445904  56.3030222  96.3694230 115.9327149  56.7366950
 102.5512584 117.4490001  55.1767560 102.9595940 117.0072411  54.4322192
 101.8289845 116.8742628  55.4301753  98.9043654 112.3862608  52.5501117
  99.7504849 112.8102021  52.6935766  98.8442291 111.7296232  53.2439680
 102.8741398 118.0091191  48.9319849 102.2450261 118.1736906  48.2295917
 102.4867060 118.4232801  49.7030813 102.0543099 110.0466976  54.2082290
 101.8104031 110.8009036  53.6716566 102.3303030 110.4252324  55.0429537
 104.0081562 116.5905588  52.8859556 104.2198457 117.2337348  52.2093937
 103.9611310 115.7567905  52.4181486 101.6107791 109.2023409  49.7896128
 100.7492270 109.5004663  50.0812866 101.6370226 109.4193808  48.8577161
  98.4269360 117.7465600  46.1969934  98.8907706 118.0253302  45.4074556
  98.1626158 116.8449044  46.0143024  95.3193441 117.2937081  49.1349697
  95.8894798 117.7224349  48.4967182  95.9101553 117.0119666  49.8333883
  97.3638246 113.8688752  43.0059499  98.0662290 114.3209796  43.4733425
  97.0318875 113.2272571  43.6339392  95.8118608 112.4600509  57.3810708
  95.1817268 113.1416789  57.6146105  95.7054696 112.3483590  56.4363847
  91.1063580 112.1272305  48.3076632  90.3162634 112.3829833  47.8316743
  91.5974828 112.9420642  48.4128673  93.0578326 112.4916884  45.2660109
  92.2609489 112.6035578  45.7843605  92.8303918 112.8303536  44.4001000
  98.8883993 119.0161587  53.2142624  98.9528426 119.4781994  54.0500796
  98.1794917 118.3858952  53.3424934  89.3901283 112.3802795  50.7391623
  89.6409322 113.2649805  51.0049199  89.9260832 112.2007397  49.9666715
  98.6032011 120.6829695  43.0821604  98.4677686 121.5281230  43.5106452
  99.1441823 120.8848972  42.3187538  95.0899351 106.7621274  59.7435959
  94.6966296 106.2087473  60.4183604  95.9065491 107.0731853  60.1342477
  92.0561408 118.2005133  43.6549529  92.5685929 118.9948383  43.8055094
  92.7084121 117.5031423  43.5883131  93.8656293 121.3170889  45.7372282
  94.0422921 122.2388854  45.5493266  94.6613127 121.0029308  46.1666662
  98.0067312 108.1779153  57.3356216  98.7477025 108.7786307  57.2560678
  98.2385234 107.4356791  56.7774258  93.1508650 113.3635521  55.6134446
  93.0362165 112.4620778  55.9141545  92.2953167 113.6099217  55.2619262
  94.9887609 122.8349063  51.7382625  95.5395034 122.7066126  50.9659619
  94.1499084 123.1343952  51.3877518  98.7854780 119.1000190  56.0826856
  99.3183116 118.3388479  55.8526164  98.2568861 118.8073842  56.8251010
 101.9524475 104.2060256  51.6120498 101.6088744 105.0961898  51.5359608
 102.3203437 104.0161914  50.7490083  90.0210325 116.5293787  44.4309100
  90.8585547 116.9390795  44.2142807  90.1988593 115.5893229  44.4009294
 101.9174757 114.1968867  40.1192933 101.4021381 114.9673472  40.3581320
 101.6452066 113.5234004  40.7425994  99.5021868 109.0418568  45.1778171
  98.6463465 108.6525419  44.9983810  99.9148820 109.1210529  44.3177957
 101.0321015 106.5764912  49.5769731 100.5285810 106.5395047  48.7637536
 101.3251622 107.4857654  49.6366388  97.2763901 106.6603641  48.5835913
  98.1416898 106.4646450  48.2241802  97.3441410 106.4313993  49.5105269
 101.7061060 112.0695960  41.9452714 101.4011196 112.3842109  42.7962857
 102.6591503 112.1477379  41.9880047 100.1507492 118.2286183  43.5945668
  99.6228854 117.4938942  43.2818905  99.6494995 119.0060859  43.3485636
  94.8826220 108.8905849  45.9552279  95.4569972 108.6681031  45.2225472
  95.4697202 108.9594544  46.7080881 103.9405797 114.7779576  46.7616656
 104.4537679 115.4109568  47.2638366 104.5907021 114.1780772  46.3960016
  95.2095807 110.9210310  39.9748165  94.3733119 111.2584997  40.2957439
  95.0700577 110.7859290  39.0375302  97.1848888 105.7647098  44.6827349
  96.5313300 105.4496115  44.0583964  97.1429362 105.1422839  45.4087172
  98.2960092 116.0466393  36.5980641  97.3887154 115.8155647  36.7971790
  98.7931124 115.2504012  36.7854622 100.4186628 112.2529032  49.0074996
  99.5009189 112.4743979  48.8496685 100.8346772 112.3275342  48.1486704
 101.2021676 113.6520447  44.1377677 101.9493495 114.1641845  43.8284799
 101.4713265 113.3304500  44.9982070  99.4748326 116.1478988  41.1204631
  98.5659545 115.8638021  41.2177101  99.5043410 116.5678067  40.2607938
 103.6500513 110.6877564  46.1196466 102.9123270 110.1754950  46.4506709
 103.9027286 110.2477945  45.3079743 103.7512140 103.4653816  46.7138235
 104.0571017 102.6051179  46.4264150 104.4764745 104.0571436  46.5137229
  90.0436496 113.8684502  45.1019833  89.8460896 113.2753863  44.3770900
  89.4883160 113.5636712  45.8195772  98.0233220 113.7607609  47.2214426
  98.0781830 112.8081445  47.1456903  97.2124422 113.9167048  47.7055725
  99.1724414 117.6887732  38.4592710  98.7343844 116.9723591  37.9998347
  99.9134855 117.9163847  37.8977801  95.9625580 112.3784668  44.9804805
  95.1493445 112.6778839  45.3869997  96.4584574 111.9840357  45.6979287
 101.5599792 112.8426493  53.8119699 101.9149179 113.0697966  54.6714165
 102.2071923 113.1744870  53.1896954  95.4539655 109.9503024  50.5966040
  96.0939034 109.8091783  49.8989003  94.6217185 109.6637537  50.2204642
  96.2299958 119.2505454  46.7101033  97.0240557 118.7555774  46.5083608
  95.5191651 118.7223317  46.3468738  92.5382722 113.3948536  42.7860785
  91.6080310 113.3332992  43.0030747  92.6340194 112.8724489  41.9897427
  92.4568271 109.9203349  45.3739027  92.7175088 110.8348682  45.2648187
  93.2785443 109.4527791  45.5235640  93.9293196 111.3341106  52.5437851
  94.6016250 111.1258468  51.8950500  93.1022983 111.1363192  52.1043084
  99.8318768 107.9603047  54.5603512  99.1846683 108.6592997  54.4667989
 100.6019784 108.3939191  54.9279761 100.0082903 115.7983812  52.6200332
 100.9374963 115.9494972  52.4469299  99.5873933 115.8867833  51.7648979
  98.8071234 119.8234476  50.3898870  98.6682320 119.4553261  51.2624808
  98.0185831 120.3382116  50.2182828 100.3576450 119.2016079  47.7787707
 100.0226282 119.1616849  48.6745357  99.8580395 118.5360795  47.3058118
  94.3320694 114.6083709  53.3040289  94.1940492 113.8763948  53.9051828
  95.2425617 114.5192609  53.0224476 103.2935641 116.5472113  38.0524767
 102.6764812 115.8218942  37.9557820 102.8252130 117.3081474  37.7091841
  96.9602994 114.3203668  52.7923968  97.6702613 113.6796861  52.7510587
  96.9172302 114.5716563  53.7150149  95.6731928 111.3068886  54.6119608
  95.1369285 110.8559625  55.2641204  95.0848637 111.4414795  53.8690072
  95.0834187 110.7657538  37.1746071  94.2063654 110.6446338  36.8108318
  95.5591940 109.9743616  36.9224960  86.6036327 115.5534697  47.2687579
  87.2907367 115.2396427  46.6808594  86.4484456 116.4576062  46.9954830
  91.4071049 110.4424894  51.6972602  91.3229238 109.8350563  50.9623012
  90.5853756 110.9333912  51.6982099 101.5794763 108.9278457  47.0642797
 102.0763463 108.1748420  46.7443868 100.8081745 108.9642774  46.4986007
 102.6624544 117.6850145  44.6381221 101.7280823 117.8051607  44.4685925
 102.8401213 116.7822611  44.3741231  98.1629732 111.0695840  46.7914482
  97.7927520 110.5166881  47.4795388  98.6588825 110.4653974  46.2389482
 106.0497095 113.5267464  45.1731255 106.5157548 114.3595456  45.0991558
 106.5004596 113.0612446  45.8776513  95.9918931 121.5293335  53.8869500
  96.6928390 122.1629818  54.0398894  95.5214046 121.8708067  53.1265139
 104.0213758 105.8948051  49.2122156 103.1076838 106.1252278  49.3804363
 104.4506860 105.9786495  50.0636189 103.7920217 114.0837943  51.7122050
 103.1391667 114.3313850  51.0574503 104.1700597 113.2702081  51.3784528
  99.8407790 114.8257754  58.1988087  99.1648427 114.7251883  58.8690463
 100.6635424 114.6696968  58.6624085  91.5886649 121.0629691  50.8200603
  92.1740086 120.3173378  50.9528507  91.3911487 121.3733647  51.7037266
  94.4425304 124.0980938  45.8363045  93.7735679 124.5827066  45.3527085
  94.3038174 124.3450158  46.7506423  86.1804303 113.6335291  49.5405046
  86.2188403 113.0998881  50.3342164  85.6744596 113.1070496  48.9216023
  93.5595066 108.4799831  53.0367588  93.6236392 109.3414662  52.6244986
  93.4962186 107.8673833  52.3039947  93.0347338 110.5522964  56.6840622
  93.6619377 110.1700041  57.2978147  92.1775257 110.3337166  57.0496315
  89.8112881 112.3599393  42.6158977  90.1066322 111.4510071  42.5626031
  88.9100917 112.3387132  42.2939979  93.3407128 110.4355389  48.5986526
  92.6193714 111.0491357  48.4593999  94.1300384 110.9713154  48.5203172
  96.1433442 107.7709816  54.8727177  96.6667843 108.0172113  55.6353487
  95.9245775 108.6029851  54.4530315  91.5400723 110.0413491  42.7398302
  91.2113429 109.1610869  42.5573408  91.8940093 109.9861159  43.6274691
  94.6542546 110.3286460  43.1073780  94.9938618 110.8572382  42.3852388
  95.1014666 110.6666866  43.8832346  97.3485987 108.7123511  52.5576848
  97.0082807 107.9131324  52.9597528  96.6424993 109.0125222  51.9853681
  98.0002458 105.7972823  51.0104171  98.8228528 105.3233302  50.8883061
  98.2440522 106.5763307  51.5102857  96.6410693 108.8261082  41.3067073
  97.3619055 109.2042335  40.8030790  96.0175997 109.5449959  41.4102051
 100.7841816 109.5306231  42.2425405 101.0005430 110.4130869  41.9414233
 100.3035883 109.1392444  41.5131047  95.5241037 112.4891944  48.8196150
  95.3785618 112.8032247  49.7120431  95.0466241 113.1076844  48.2667048
  97.3837420 109.4794492  48.8677039  97.3698989 108.5835585  48.5309337
  98.1009848 109.4865156  49.5015325  99.2363551 109.9131832  50.9130167
  98.9781329 110.8348903  50.9114497  98.7048591 109.5162267  51.6030631
  89.9986699 115.0297289  51.7583811  89.4540167 115.8057096  51.8904085
  90.8766049 115.3768093  51.6002932  96.7874316 108.3608872  44.1364609
  96.9090227 107.4325519  44.3355497  96.4976358 108.3747558  43.2242925
  99.6565506 106.0463783  47.2731329  99.6787203 106.1103116  46.3183309
 100.0733565 105.2068291  47.4671835  90.7852721 114.1567185  54.6513968
  90.0434457 114.3049820  55.2378598  90.4645465 114.4175450  53.7880717
  91.2309335 122.0432614  46.6824362  92.0567355 121.7436385  46.3023006
  90.8803387 121.2740236  47.1314151  96.1990868 121.3959082  48.7522036
  95.5770877 120.7329787  48.4524264  96.8695735 121.4220214  48.0695684
  89.4317940 119.9618940  47.6413296  88.5949848 119.5341114  47.4597297
  89.4041585 120.1551383  48.5784087  96.2715396 109.8740870  58.3454542
  96.3203551 110.7502993  57.9632312  96.8137910 109.3318263  57.7726185
  95.7604375 119.9463005  42.2280496  95.9092495 120.6298469  41.5747169
  96.5670818 119.9268095  42.7429952 104.1671879 113.2505387  56.2547714
 105.0681741 113.1111852  55.9631712 104.2419853 113.4159842  57.1945892
  98.5014684 110.6272242  55.1000901  97.6317993 110.9205808  54.8283489
  98.7374164 111.2112687  55.8208164 106.6273501 114.8104016  53.6510487
 107.1027623 115.0031662  52.8429338 105.7039067 114.8663201  53.4053871
  93.5157008 115.9728183  43.2341565  93.2703050 115.0690513  43.4321775
  93.6852922 115.9745333  42.2921043 101.2053718 106.8451859  52.6166321
 101.7235662 107.5812886  52.2912810 100.8508851 107.1515852  53.4513080
  92.7852655 111.7056540  40.7327727  92.0921900 111.7800895  40.0767763
  92.5404407 110.9416884  41.2549244 101.4566312 103.2652142  48.1367218
 101.7368066 102.5975331  48.7627644 102.2416919 103.4581237  47.6241881
 105.3275170 111.6869776  51.8838793 106.2792593 111.7867873  51.9051017
 105.1578621 110.8948044  52.3936877 103.3489550 108.7725359  52.0698194
 102.7539482 109.0530372  51.3744682 103.0639247 109.2619260  52.8414935
  99.6446579 113.7771948  37.0408296 100.5905684 113.6478156  37.1096714
  99.2660824 113.0386610  37.5177725 107.9557737 111.6986939  51.0439376
 107.4396785 110.9145395  50.8569304 108.8397685 111.3705655  51.2085895
 105.6168464 105.4427954  47.0035188 105.4193285 105.1343043  47.8878520
 106.2268169 106.1689593  47.1333118  99.5285272 117.8289694  58.5008953
 100.4488281 118.0068293  58.6949000  99.4934855 116.8845740  58.3488653
  97.8289496 111.7021925  36.9763182  96.9220952 111.4055037  37.0525895
  98.1065477 111.4051743  36.1097468  88.7467437 113.0228288  47.4262228
  88.4270221 112.1693596  47.1336602  88.2000865 113.2376866  48.1820195
  92.5247344 115.7390729  51.1431734  92.7433354 116.6707837  51.1619768
  92.9373118 115.3798703  51.9286538  99.4451562 106.2458814  43.1307423
  98.6352290 105.9005899  43.5062669 100.1335979 105.9366358  43.7195034
 101.3742110 105.3236861  44.7531720 101.9273149 105.7432315  45.4121743
 101.6112197 104.3972609  44.7954676  97.3975209 111.3123935  60.5334483
  97.2971936 112.2618292  60.4646575  97.1796751 110.9842174  59.6610554
  96.5988281 108.5608860  37.1175161  97.4607445 108.8863758  37.3770978
  96.7838625 107.7740356  36.6048227  88.6155697 116.6431200  49.3955350
  87.9219168 116.2285152  48.8825304  89.3628688 116.6851736  48.7988768
 104.7520917 107.4337386  44.2610384 104.1719586 108.0922190  43.8788436
 104.4856850 106.6114731  43.8497801 103.2024484 106.8342444  46.4631704
 103.7024262 106.9458979  45.6546023 103.8460092 106.5303497  47.1032513
  97.2606479 114.7421074  59.3499545  96.7773561 115.5421434  59.5563434
  97.3467418 114.7529019  58.3966989  90.5292439 116.5749453  47.2721364
  90.5063127 116.6737141  46.3203248  90.8393076 117.4214604  47.5938531
  93.1879817 118.6325608  51.3867979  94.1423070 118.6009551  51.3197910
  92.9892341 118.1716232  52.2018205  93.7779199 117.2026724  53.9538777
  94.5972088 117.6970803  53.9773614  94.0516007 116.2858693  53.9256344
 103.5345795 109.5937477  43.3166732 102.6471650 109.8787127  43.0986927
 103.9499784 109.4331240  42.4694009 106.8860331 109.6183998  47.0321071
 107.6620722 110.1080450  47.3045688 106.1608466 110.0442052  47.4892941
 109.3232890 110.3311617  48.0895012 109.9177381 110.0907353  47.3788320
 109.3959474 109.6118748  48.7168548  91.5430046 124.1745228  48.4038177
  91.4084514 123.4145629  47.8376175  91.1262108 124.8986128  47.9366966
 103.5086819 115.1092013  43.5317022 103.4522020 115.5660564  42.6924655
 104.0615161 114.3482697  43.3539865 107.3191625 110.8981745  44.3567142
 107.0628559 110.4978380  45.1875349 106.6944493 111.6125538  44.2317281
 104.2421598 116.2996794  40.8269551 104.1870402 116.1341065  39.8857995
 103.6167654 117.0072827  40.9831741  89.0314113 111.5364858  54.6530974
  89.6772977 111.0263812  55.1418199  88.8231264 112.2733540  55.2274399
  97.5517724 105.8004903  40.4054870  97.5396394 106.7446743  40.5623141
  98.4441146 105.6175048  40.1114331 101.3669843 102.3947680  44.6600807
 100.6002239 101.8406166  44.8057489 101.7780548 102.4669548  45.5214958
  93.3711604 108.6832475  58.7505988  94.2343066 108.3269280  58.9609312
  92.7977015 108.3446370  59.4381392  37.3403701   0.0153031  36.2813695
  37.9782111  -0.1040222  35.5777036  37.2224544   0.9633875  36.3401648
  34.1493407  -0.0319541  36.2175220  33.8111919  -0.1478477  35.3295755
  35.0183176  -0.4328376  36.1976226  34.6313190   1.1215310  42.1761426
  34.6201831   0.7268109  41.3041929  34.7933830   0.3881383  42.7695197
  27.5544655   3.3167127  35.0456332  28.3465947   2.9757951  34.6302631
  27.7941305   3.4262102  35.9658485  31.3520451   3.9052422  41.1240610
  31.0610317   4.8098053  41.0087276  31.9877436   3.9468950  41.8384679
  32.2776658   1.2829271  37.7141969  32.8740231   1.0585293  36.9998932
  32.3351630   0.5414016  38.3167417  42.2953397  -2.3220282  34.2599882
  43.0278569  -2.8921066  34.4937711  41.5392752  -2.7098682  34.7006388
  39.8178817  -8.6098708  38.7194491  39.4862142  -7.7403297  38.4955706
  39.2224430  -8.9262424  39.3988521  36.3110337   3.5913838  38.1190403
  36.0111060   4.4938877  38.0106211  35.9661396   3.3246021  38.9711556
  39.7107480  -3.8903622  35.7987841  38.8024358  -3.9588214  35.5046602
  39.6595076  -3.4131677  36.6269666  31.2931116  10.3558158  31.0861371
  31.2155146  11.3065983  31.1649852  30.6892760  10.0104031  31.7436297
  33.7848346  -2.4713976  43.7422738  33.0081680  -1.9120056  43.7325603
  34.4238909  -1.9857194  44.2637608  41.5769127  -5.6887184  37.5765715
  40.9343507  -5.3954651  36.9305509  41.0724055  -5.8034263  38.3818911
  32.0394718   0.3371477  43.3040705  32.7809403   0.8756521  43.0275529
  31.3331704   0.9637766  43.4612257  37.5150058   2.4800617  41.9012866
  37.9233414   2.0383028  41.1567499  36.7927320   1.9053245  42.1547059
  33.8681128  -2.5826776  39.2746423  34.7142323  -2.1587362  39.4181072
  33.8079766  -3.2393152  39.9684986  37.8378873   3.0401808  35.6565155
  37.2087735   3.2047522  34.9541223  37.4504535   3.4543418  36.4276119
  41.7168105   3.9756246  33.0109519  41.0319143   4.3555147  32.4606552
  41.8011954   4.5851572  33.7441467  37.0180573  -4.9222408  40.9327597
  36.7741505  -4.1680347  40.3961873  37.2940504  -4.5437060  41.7674844
  38.9719036   1.6216205  39.6104863  39.1835931   2.2647965  38.9339244
  38.9248784   0.7878521  39.1426793  33.3906835   2.7776216  32.9215240
  33.8545180   3.0563919  32.1319863  33.1263633   1.8759661  32.7388331
  30.2830916   2.3247698  35.8595004  30.8532273   2.7534966  35.2212488
  30.8739027   2.0430282  36.5579189  30.7756082  -2.5088875  44.1056015
  30.1454743  -1.8272594  44.3391412  30.6692170  -2.6205793  43.1609153
  40.0864864   4.4988160  37.7827220  40.9082308   4.0968348  37.5009902
  40.0827267   4.3956394  38.7343336  33.8521468   4.0472204  39.9387930
  33.9165900   4.5092611  40.7746102  33.1432391   3.4169568  40.0670240
  48.1770857   0.8426909  34.1312191  47.4234566   0.2734307  33.9756196
  48.3118398   0.8089573  35.0782826  28.8293767   6.3481505  32.4617589
  29.0060396   7.2699470  32.2738573  29.6250601   6.0339925  32.8911969
  35.1937962   6.3363878  43.9367253  34.7501816   5.5500256  43.6188157
  35.8555175   6.5243028  43.2711144  29.9525083   7.8659679  38.4627931
  30.5032508   7.7376742  37.6904925  29.1136559   8.1654568  38.1122824
  37.2919200   6.6166677  41.9648654  37.2737675   7.4375559  41.4728923
  38.2139120   6.4920753  42.1898795  33.7492254   4.1310807  42.8072162
  34.2820591   3.3699095  42.5771470  33.2206335   3.8384459  43.5496317
  40.0937813   1.4545820  35.4358021  39.4361487   2.1445081  35.5238149
  40.8978212   1.8442252  35.7792007  38.9043271  -0.1909807  33.4861963
  39.4175153   0.4420184  33.9883672  39.5544495  -0.7908612  33.1205323
  35.3824102  -2.7160352  35.7320303  34.4646664  -2.4945405  35.5741991
  35.7984246  -2.6414041  34.8732010  39.6705068   4.7896194  31.6141105
  39.2167395   3.9487104  31.6706296  39.0399034   5.4257592  31.9515885
  38.1138007   6.6272691  32.5490923  38.4060981   7.1877748  31.8303289
  38.6236627   6.9201252  33.3044082  33.0771632   7.4053042  33.6384377
  33.0347811   7.6313888  32.7092909  33.9934331   7.1716416  33.7870178
  36.5237266  -2.1262891  40.5365006  36.8786654  -1.8991417  41.3959471
  37.1709397  -1.7944514  39.9142261  42.2535003   0.9955545  31.2414335
  42.1152901   1.1857141  30.3135524  41.8971222   1.7574928  31.6982386
  42.2804382   3.0632072  36.2525606  42.7140889   2.9707361  37.1008660
  42.9935963   3.0389573  35.6145622  31.1937433   4.2816071  33.4346339
  31.9878031   3.7866391  33.2328914  30.4829125   3.7533934  33.0714045
  36.0132277   6.6634166  37.7858707  36.0669300   7.2325103  38.5536423
  35.1447059   6.8336051  37.4212744  43.1419932   3.1055773  38.7858492
  43.3355822   4.0101583  39.0317767  43.0420550   2.6463192  39.6197077
  38.2035041   3.2562516  44.3599372  38.0520547   3.0273067  43.4429456
  38.1939720   4.2133117  44.3730717  34.9720377   0.8294428  39.3445639
  35.9012437   0.9805588  39.1714606  34.5511407   0.9178449  38.4894285
  33.7708709   4.8545093  37.1144176  33.6319795   4.4863877  37.9870114
  32.9823305   5.3692732  36.9428134  34.3656861   9.9554189  28.4569713
  34.5408616   9.4842233  29.2715336  33.6789649  10.5819956  28.6850974
  35.3213924   4.2326696  34.5033014  34.9863757   4.1927466  35.3990664
  34.8217870   3.5671411  34.0303424  29.2958168  -0.3605674  40.0285595
  29.1577966  -1.0925436  40.6297134  30.2063091  -0.4496774  39.7469783
  31.9240469  -0.6485715  39.5169275  32.6340087  -1.2892523  39.4755893
  31.8809777  -0.3972820  40.4395456  39.9127247   6.2881638  42.4375854
  39.8539793   5.6040858  41.7706437  40.3146766   7.0300628  41.9856480
  28.9317946  13.1043552  35.2309573  29.1714544  13.7362076  35.9088592
  28.0887143  12.7531592  35.5174932  39.9144655   4.2521222  40.6689834
  39.0271433   3.9147144  40.7916233  40.4843206   3.5204253  40.9058599
  33.4445808   8.9122675  37.6351077  33.3715979   9.7177646  38.1470382
  33.0023201   9.1114640  36.8099098  33.2335588   8.1494445  31.1453899
  32.4503109   8.6916125  31.2392123  33.9328333   8.6668424  31.5448140
  44.3961995  -0.3370560  35.4306395  44.3851871   0.5454155  35.0600329
  43.5279375  -0.6899010  35.2360933  35.9044491   8.8109509  39.7909236
  36.6172464   9.4456973  39.7185137  35.4134520   8.9073375  38.9749238
  37.6262018   2.7160761  31.3626527  36.6918297   2.8362224  31.1931232
  37.8038687   1.8133228  31.0986537  41.0134570  -1.4421919  31.8976562
  41.4795022  -0.6093928  31.8236864  41.4642070  -1.9076938  32.6021820
  30.9556405   6.5603952  40.6114807  31.6565864   7.1940435  40.7644201
  30.4851520   6.9018684  39.8510446  38.7557691  -0.8851441  38.4367357
  38.1029141  -0.6375533  37.7819810  39.1338071  -1.6987302  38.1029834
  35.7164865   9.1508253  32.5395527  35.8987259   8.3329909  33.0023279
  36.5397851   9.3675945  32.1020417  36.0507030   8.0776438  29.8010576
  36.5794797   7.5668892  29.1880738  36.3135250   7.7618968  30.6656109
  34.8045264  -0.1431629  44.9233394  34.1285901  -0.2437500  45.5935769
  35.6272898  -0.2992416  45.3869391  26.5524123   6.0940307  37.5445909
  27.1377560   5.3483995  37.6773813  26.3548961   6.4044264  38.4282573
  29.4062778   9.1291554  32.5608352  28.7373154   9.6137682  32.0772392
  29.2675648   9.3760775  33.4751730  33.5468047  11.1635298  39.1591010
  34.0986355  11.3266919  39.9240095  33.8874240  11.7539736  38.4871035
  38.3978921   5.9896555  45.0139664  38.9418825   6.6026514  44.5194619
  37.8165766   6.5476134  45.5306677  36.6836434   9.1117273  36.1454692
  36.5587574   8.3107013  35.6365638  37.3415525   9.6063467  35.6568662
  38.7471343   6.9126294  37.7734242  37.8001678   6.7931645  37.7012569
  39.0954116   6.0248792  37.8560504  35.7517776   6.7079010  33.9738594
  35.6042738   5.7795717  34.1546164  36.5771269   6.7299101  33.4895670
  39.3551898   7.5307569  35.0603467  40.2798445   7.3250430  34.9227918
  39.1867201   7.2823970  35.9692809  39.1447214   8.0493236  30.4165559
  39.3184091   7.4839658  29.6639411  39.6376105   8.8494131  30.2345049
  44.9986605   0.8129659  32.0355858  45.4417751   0.0636984  31.6374982
  44.1213115   0.8039795  31.6529590  40.1322386   7.3660000  27.5162457
  40.8273291   7.9866693  27.7349772  40.4745536   6.5155352  27.7914835
  42.0313809   4.8159706  29.0449788  42.5565134   5.1546979  28.3199108
  41.9436162   3.8806721  28.8612922  33.6933858   8.7293780  41.1739664
  34.0020985   8.4842926  42.0462364  34.4909340   8.9340418  40.6858535
  33.7154470  10.8831689  33.4045041  33.2759461  10.3908068  34.0977898
  34.4662587  10.3404657  33.1637116  26.1946809   7.0743230  33.4069669
  27.0204829   6.7747002  33.0268312  25.8440861   6.3050852  33.8559458
  31.1628342   6.4269698  35.4767343  30.5408352   5.7640403  35.1769570
  31.8333209   6.4530830  34.7940990  41.7207716   5.4492610  44.3500986
  40.9303259   5.4316748  43.8105485  41.4841070   5.9880903  45.1050022
  41.8405591   2.2985076  41.6633714  41.8903596   2.1335083  42.6049237
  41.7319514   1.4312335  41.2731595  39.1309353  -1.7183996  42.9793021
  40.0319216  -1.8577531  42.6877019  39.2057327  -1.5529541  43.9191198
  33.4652158  -4.3417141  41.8246207  32.5955468  -4.0483575  41.5528796
  33.7011639  -3.7576696  42.5453471  43.3423787   4.7182017  41.9075736
  43.0508596   5.0811998  42.7439197  42.7295919   4.0049026  41.7289068
  44.5419470   2.2834897  34.4278306  45.3766361   2.7224701  34.5915866
  44.6778599   1.8073550  33.6086552  41.5910976  -0.1585368  40.3755794
  42.0665097   0.0342278  39.5674645  40.6676541  -0.1026182  40.1299177
  40.2912645  -3.2819608  38.6084099  41.2430068  -3.1821510  38.6296323
  40.1216095  -4.0741339  39.1182184  38.3127024  -6.1964025  38.7943500
  37.7176956  -5.9159012  38.0989989  38.0276721  -5.7070124  39.5660241
  42.7700722  -0.0613488  37.7226399  42.7377043  -0.9997487  37.9086083
  43.3801346   0.0170549  36.9892224  42.9195211  -3.2702445  37.7684682
  42.4034260  -4.0543988  37.5814611  43.8035159  -3.5983728  37.9331202
  48.5877272   1.0002519  36.8632436  49.3180661   0.7387807  37.4240139
  47.9784218   0.2631241  36.9034504  46.6692569  -0.8589619  37.4606887
  45.9425733  -0.9933654  36.8523379  46.2539856  -0.5512790  38.2663605
  34.4922746   2.8600311  45.2254260  35.4125755   3.0378910  45.4194306
  34.4572329   1.9156356  45.0733959  27.4884818   0.7701346  37.8677041
  27.7070828   1.7018453  37.8865075  27.9010592   0.4109320  38.6531845
  32.3612684  -3.6565449  47.2579790  32.2609411  -2.7071092  47.1891881
  32.1434226  -3.9847210  46.3855860  32.2243954  -0.2268310  46.0744852
  31.7411035   0.5732050  46.2808741  32.3104893  -0.2160365  45.1212296
  28.1517291   3.6636225  38.1113285  29.1060545   3.6320167  38.0443217
  27.9529815   3.2026849  38.9263511  28.7416673   2.2337341  40.6784083
  29.5609562   2.7281420  40.7018920  29.0153481   1.3169309  40.6501651
  41.8497806  -5.3505386  33.7566378  42.6258196  -4.8608933  34.0290995
  41.1245940  -4.9247332  34.2138247  44.2870364  -4.6377767  34.8140319
  44.8814855  -4.8782031  34.1033627  44.3596948  -5.3570636  35.4413855
  26.5067520   9.2055844  35.1283483  26.3721988   8.4456245  34.5621481
  26.0899582   9.9296744  34.6612272  46.5941437  -1.3311566  33.5883740
  46.0340995  -1.2618376  34.3615302  45.9884940  -1.5070581  32.8683236
  29.6636646  10.1025161  35.3401926  29.5469030  11.0470594  35.2380616
  28.8429092   9.7998723  35.7287725  36.5204980   3.6356322  46.8768421
  37.3896139   3.8096975  46.5155056  36.0411731   4.4550739  46.7544150
  30.6891160  10.7553423  38.5557854  31.5918407  10.7877034  38.8724349
  30.4628530   9.8253874  38.5704190  32.4444762   9.5084410  35.2167933
  31.4940393   9.5086271  35.1032305  32.7477248   8.7617144  34.7003968
  48.1797456  15.3444948  36.2813695  48.8175865  15.2251696  35.5777036
  48.0618298  16.2925792  36.3401648  44.9887162  15.2972376  36.2175220
  44.6505673  15.1813441  35.3295755  45.8576930  14.8963541  36.1976226
  40.8473978  17.1507853  32.2072111  40.2838843  17.0597790  31.4388399
  40.7326373  16.3307757  32.6874604  45.4706945  16.4507228  42.1761426
  45.4595586  16.0560026  41.3041929  45.6327584  15.7173301  42.7695197
  38.3938409  18.6459044  35.0456332  39.1859701  18.3049869  34.6302631
  38.6335060  18.7554019  35.9658485  46.4273536  20.8178820  27.5186576
  45.7761516  21.4032901  27.1320590  47.2217899  21.3485015  27.5781613
  40.3529163  17.9067958  27.9173710  41.1260039  17.3596945  27.7786586
  40.7054562  18.7712207  28.1288172  42.1914206  19.2344340  41.1240610
  41.9004072  20.1389971  41.0087276  42.8271190  19.2760868  41.8384679
  43.1170413  16.6121188  37.7141969  43.7133985  16.3877211  36.9998932
  43.1745384  15.8705934  38.3167417  42.6895441  14.0660624  25.5492160
  42.9420962  13.5442145  24.7875623  41.7520000  13.9026769  25.6518844
  47.7338724  13.0696402  33.3566903  48.5201813  12.6515825  33.0057321
  47.9977428  13.9742494  33.5248552  47.9048801  18.5069252  28.0555560
  47.2694634  18.5803879  28.7676465  47.5746208  19.0962851  27.3774640
  53.1347151  13.0071635  34.2599882  53.8672323  12.4370852  34.4937711
  52.3786507  12.6193236  34.7006388  42.4091730  15.9688730  27.7516535
  42.2927988  15.2933633  28.4197620  42.5193990  15.4821104  26.9348688
  44.7523271  15.4298877  31.4563224  44.3881478  14.9029498  32.1676146
  45.6090387  15.0397346  31.2829710  50.6572571   6.7193209  38.7194491
  50.3255896   7.5888620  38.4955706  50.0618185   6.4029493  39.3988521
  44.3928758  10.4588776  26.4524573  44.5603160  11.3269013  26.8195044
  44.2025927  10.6216058  25.5285862  47.1504091  18.9205755  38.1190403
  46.8504814  19.8230794  38.0106211  46.8055151  18.6537939  38.9711556
  40.6016573  15.3719552  34.1527108  39.6767069  15.2395766  34.3604800
  40.8500986  16.1513771  34.6497050  50.5501235  11.4388296  35.7987841
  49.6418112  11.3703704  35.5046602  50.4988831  11.9160241  36.6269666
  44.3717979  12.9146434  27.4371240  44.2517604  13.3603485  28.2756720
  43.6770567  13.2631752  26.8784778  37.9625384  15.0152826  34.9870897
  38.0917765  15.2687305  35.9010309  37.2822835  15.6080534  34.6675552
  42.1324871  25.6850076  31.0861371  42.0548901  26.6357901  31.1649852
  41.5286514  25.3395948  31.7436297  44.6242101  12.8577941  43.7422738
  43.8475435  13.4171861  43.7325603  45.2632664  13.3434724  44.2637608
  52.4162881   9.6404734  37.5765715  51.7737261   9.9337267  36.9305509
  51.9117810   9.5257654  38.3818911  50.0703045  13.3867907  28.2651574
  50.9820901  13.6195294  28.0899271  49.5612692  13.9704951  27.7026652
  42.8788473  15.6663395  43.3040705  43.6203157  16.2048439  43.0275529
  42.1725458  16.2929683  43.4612257  48.3543813  17.8092535  41.9012866
  48.7627169  17.3674946  41.1567499  47.6321074  17.2345163  42.1547059
  44.7074883  12.7465142  39.2746423  45.5536078  13.1704555  39.4181072
  44.6473520  12.0898766  39.9684986  48.6772627  18.3693726  35.6565155
  48.0481490  18.5339440  34.9541223  48.2898289  18.7835335  36.4276119
  52.5561859  19.3048163  33.0109519  51.8712897  19.6847065  32.4606552
  52.6405708  19.9143490  33.7441467  47.8574328  10.4069510  40.9327597
  47.6135260  11.1611571  40.3961873  48.1334258  10.7854858  41.7674844
  49.8112791  16.9508123  39.6104863  50.0229686  17.5939882  38.9339244
  49.7642539  16.1170439  39.1426793  47.4139020   9.5625943  36.5141435
  46.5523499   9.8607197  36.8058172  47.4401454   9.7796342  35.5822467
  44.2300589  18.1068134  32.9215240  44.6938935  18.3855837  32.1319863
  43.9657387  17.2051578  32.7388331  41.1224670  17.6539615  35.8595004
  41.6926027  18.0826884  35.2212488  41.7132782  17.3722200  36.5579189
  43.1669475  14.2291286  29.7304806  43.8693518  14.6812330  30.1978732
  42.8350104  13.5875105  30.3584699  41.6149837  12.8203043  44.1056015
  40.9848497  13.5019324  44.3391412  41.5085925  12.7086124  43.1609153
  36.9094809  12.4874839  35.0321939  36.1193863  12.7432367  34.5562050
  37.4006056  13.3023177  35.1373980  50.9258619  19.8280078  37.7827220
  51.7476062  19.4260265  37.5009902  50.9221022  19.7248312  38.7343336
  38.8609554  12.8519418  31.9905416  38.0640718  12.9638112  32.5088911
  38.6335147  13.1906070  31.1246306  44.6915222  19.3764121  39.9387930
  44.7559655  19.8384528  40.7746102  43.9826146  18.7461486  40.0670240
  35.1932512  12.7405329  37.4636930  35.4440550  13.6252339  37.7294506
  35.7292060  12.5609931  36.6912022  59.0164612  16.1718826  34.1312191
  58.2628320  15.6026224  33.9756196  59.1512153  16.1381491  35.0782826
  44.4063240  21.0432229  29.8066911  44.2708915  21.8883764  30.2351759
  44.9473052  21.2451506  29.0432845  40.8930579   7.1223809  46.4681266
  40.4997525   6.5690007  47.1428910  41.7096720   7.4334387  46.8587784
  37.8592637  18.5607667  30.3794836  38.3717158  19.3550917  30.5300401
  38.5115350  17.8633957  30.3128437  39.6687522  21.6773423  32.4617589
  39.8454150  22.5991388  32.2738573  40.4644355  21.3631842  32.8911969
  43.8098540   8.5381688  44.0601523  44.5508254   9.1388841  43.9805985
  44.0416463   7.7959325  43.5019565  38.9539878  13.7238055  42.3379752
  38.8393394  12.8223312  42.6386851  38.0984396  13.9701752  41.9864569
  46.0331716  21.6655795  43.9367253  45.5895570  20.8792174  43.6188157
  46.6948930  21.8534946  43.2711144  40.7918837  23.1951597  38.4627931
  41.3426262  23.0668660  37.6904925  39.9530313  23.4946486  38.1122824
  48.1312954  21.9458595  41.9648654  48.1131430  22.7667476  41.4728923
  49.0532874  21.8212670  42.1898795  44.5886008  19.4602725  42.8072162
  45.1214345  18.6991013  42.5771470  44.0600089  19.1676376  43.5496317
  47.7555703   4.5662791  38.3365804  47.4119973   5.4564432  38.2604915
  48.1234666   4.3764448  37.4735389  35.8241554  16.8896321  31.1554406
  36.6616776  17.2993329  30.9388114  36.0019822  15.9495763  31.1254600
  47.7205986  14.5571402  26.8438239  47.2052609  15.3276006  27.0826627
  47.4483294  13.8836538  27.4671301  45.3053097   9.4021102  31.9023478
  44.4494693   9.0127953  31.7229116  45.7180049   9.4813063  31.0423263
  46.8352244   6.9367446  36.3015037  46.3317039   6.8997581  35.4882843
  47.1282851   7.8460188  36.3611694  43.0795130   7.0206175  35.3081219
  43.9448126   6.8248984  34.9487109  43.1472638   6.7916527  36.2350576
  52.6940260  17.3103756  28.7791413  51.9169703  16.9714916  28.3346575
  53.3731741  17.3156380  28.1046378  47.5092289  12.4298494  28.6698021
  47.2042425  12.7444643  29.5208164  48.4622731  12.5079914  28.7125354
  45.9538721  18.5888717  30.3190974  45.4260083  17.8541477  30.0064212
  45.4526224  19.3663393  30.0730943  50.9331567  16.7837738  35.4358021
  50.2755242  17.4736999  35.5238149  51.7371966  17.1734170  35.7792007
  40.6857449   9.2508383  32.6797586  41.2601201   9.0283565  31.9470779
  41.2728431   9.3197078  33.4326187  49.7437026  15.1382110  33.4861963
  50.2568908  15.7712102  33.9883672  50.3938250  14.5383306  33.1205323
  41.0127036  11.2812844  26.6993471  40.1764348  11.6187531  27.0202746
  40.8731805  11.1461824  25.7620608  42.9880116   6.1249632  31.4072655
  42.3344529   5.8098649  30.7829270  42.9460591   5.5025373  32.1332478
  44.0991321  16.4068927  23.3225948  43.1918383  16.1758181  23.5217097
  44.5962353  15.6106547  23.5099929  47.0059400  25.1166435  26.2422634
  46.3321099  25.4198131  26.8507592  47.3925222  25.9195515  25.8928091
  46.2217857  12.6131566  35.7320303  45.3040418  12.8346513  35.5741991
  46.6378000  12.6877876  34.8732010  47.0052904  14.0122982  30.8622983
  47.7524723  14.5244379  30.5530105  47.2744494  13.6907034  31.7227377
  45.2779555  16.5081522  27.8449938  44.3690774  16.2240555  27.9422407
  45.3074638  16.9280601  26.9853244  50.5098822  20.1188112  31.6141105
  50.0561149  19.2779022  31.6706296  49.8792789  20.7549510  31.9515885
  49.4531742  11.0480098  32.8441773  48.7154498  10.5357484  33.1752015
  49.7058515  10.6080479  32.0325050  48.9531761  21.9564608  32.5490923
  49.2454736  22.5169666  31.8303289  49.4630382  22.2493169  33.3044082
  49.5543369   3.8256350  33.4383542  49.8602246   2.9653713  33.1509457
  50.2795974   4.4173970  33.2382536  35.8467725  14.2287036  31.8265140
  35.6492125  13.6356397  31.1016206  35.2914389  13.9239247  32.5441079
  43.8264449  14.1210143  33.9459733  43.8813058  13.1683979  33.8702210
  43.0155651  14.2769582  34.4301031  44.9755642  18.0490266  25.1838016
  44.5375072  17.3326125  24.7243654  45.7166083  18.2766381  24.6223108
  41.7656809  12.7387203  31.7050112  40.9524674  13.0381373  32.1115304
  42.2615803  12.3442891  32.4224594  43.9165387  22.7344960  33.6384377
  43.8741565  22.9605806  32.7092909  44.8328085  22.5008334  33.7870178
  47.3631020  13.2029027  40.5365006  47.7180408  13.4300500  41.3959471
  48.0103152  13.5347404  39.9142261  53.0928757  16.3247463  31.2414335
  52.9546656  16.5149059  30.3135524  52.7364976  17.0866846  31.6982386
  41.2570883  10.3105558  37.3211347  41.8970263  10.1694317  36.6234310
  40.4248414  10.0240072  36.9449949  53.1198137  18.3923990  36.2525606
  53.5534644  18.2999279  37.1008660  53.8329718  18.3681490  35.6145622
  42.0331187  19.6107989  33.4346339  42.8271786  19.1158309  33.2328914
  41.3222880  19.0825852  33.0714045  46.8526032  21.9926084  37.7858707
  46.9063054  22.5617020  38.5536423  45.9840813  22.1627969  37.4212744
  38.3413951  13.7551070  29.5106092  37.4111539  13.6935526  29.7276054
  38.4371423  13.2327023  28.7142733  38.2599500  10.2805883  32.0984334
  38.5206317  11.1951216  31.9893494  39.0816672   9.8130326  32.2480946
  39.7324425  11.6943640  39.2683158  40.4047479  11.4861002  38.6195807
  38.9054212  11.4965726  38.8288390  53.9813686  18.4347691  38.7858492
  54.1749577  19.3393501  39.0317767  53.8814305  17.9755110  39.6197077
  45.6349997   8.3205581  41.2848819  44.9877912   9.0195531  41.1913295
  46.4051013   8.7541725  41.6525067  49.0428795  18.5854433  44.3599372
  48.8914302  18.3564985  43.4429456  49.0333475  19.5425035  44.3730717
  45.8114132  16.1586346  39.3445639  46.7406192  16.3097506  39.1714606
  45.3905162  16.2470367  38.4894285  44.6102463  20.1837011  37.1144176
  44.4713549  19.8155795  37.9870114  43.8217060  20.6984650  36.9428134
  45.2050615  25.2846107  28.4569713  45.3802371  24.8134150  29.2715336
  44.5183403  25.9111873  28.6850974  46.1607678  19.5618613  34.5033014
  45.8257511  19.5219383  35.3990664  45.6611624  18.8963329  34.0303424
  40.1351922  14.9686243  40.0285595  39.9971720  14.2366482  40.6297134
  41.0456846  14.8795143  39.7469783  49.0966870  16.9074648  24.7770074
  48.4796041  16.1821476  24.6803126  48.6283359  17.6684008  24.4337148
  42.7634223  14.6806203  39.5169275  43.4733842  14.0399395  39.4755893
  42.7203531  14.9319097  40.4395456  50.7521002  21.6173556  42.4375854
  50.6933548  20.9332776  41.7706437  51.1540520  22.3592546  41.9856480
  41.4763157  11.6671420  41.3364914  40.9400514  11.2162159  41.9886511
  40.8879866  11.8017329  40.5935379  39.7711701  28.4335470  35.2309573
  40.0108299  29.0653994  35.9088592  38.9280897  28.0823510  35.5174932
  50.7538409  19.5813140  40.6689834  49.8665188  19.2439062  40.7916233
  51.3236960  18.8496171  40.9058599  32.4067556  15.9137232  33.9932885
  33.0938596  15.5998962  33.4053901  32.2515685  16.8178596  33.7200137
  37.2102278  10.8027428  38.4217909  37.1260467  10.1953098  37.6868319
  36.3884985  11.2936446  38.4227405  44.2839562  24.2414592  37.6351077
  44.2109734  25.0469564  38.1470382  43.8416956  24.4406558  36.8099098
  44.0729342  23.4786362  31.1453899  43.2896864  24.0208042  31.2392123
  44.7722087  23.9960342  31.5448140  47.3825992   9.2880992  33.7888104
  47.8794692   8.5350954  33.4689174  46.6112974   9.3245308  33.2231313
  55.2355750  14.9921357  35.4306395  55.2245626  15.8746073  35.0600329
  54.3673129  14.6392908  35.2360933  46.7438246  24.1401426  39.7909236
  47.4566218  24.7748891  39.7185137  46.2528275  24.2365292  38.9749238
  48.4655773  18.0452679  31.3626527  47.5312052  18.1654141  31.1931232
  48.6432441  17.1425146  31.0986537  43.9660961  11.4298375  33.5159789
  43.5958748  10.8769415  34.2040694  44.4620053  10.8256508  32.9634789
  51.8528324  13.8869998  31.8976562  52.3188776  14.7197990  31.8236864
  52.3035825  13.4214980  32.6021820  41.7950159  21.8895870  40.6114807
  42.4959619  22.5232353  40.7644201  41.3245274  22.2310601  39.8510446
  49.9204555  20.2313819  28.8962714  50.1964399  20.1170414  29.8056588
  49.0509054  19.8331304  28.8574887  49.8244987   6.2550585  35.9367463
  48.9108067   6.4854812  36.1049670  50.2538088   6.3389029  36.7881495
  49.5951445  14.4440477  38.4367357  48.9422896  14.6916385  37.7819810
  49.9731825  13.6304615  38.1029834  46.5558619  24.4800170  32.5395527
  46.7381014  23.6621826  33.0023279  47.3791605  24.6967863  32.1020417
  46.8900785  23.4068355  29.8010576  47.4188551  22.8960810  29.1880738
  47.1529004  23.0910886  30.6656109  45.6439018  15.1860288  44.9233394
  44.9679655  15.0854418  45.5935769  46.4666652  15.0299502  45.3869391
  37.3917878  21.4232225  37.5445909  37.9771314  20.6775913  37.6773813
  37.1942716  21.7336181  38.4282573  40.2456533  24.4583472  32.5608352
  39.5766908  24.9429600  32.0772392  40.1069402  24.7052693  33.4751730
  31.9835532  13.9937825  36.2650352  32.0219632  13.4601416  37.0587470
  31.4775825  13.4673030  35.6461330  44.3861801  26.4927216  39.1591010
  44.9380109  26.6558837  39.9240095  44.7267995  27.0831653  38.4871035
  39.3626295   8.8402365  39.7612895  39.4267621   9.7017196  39.3490292
  39.2993415   8.2276367  39.0285253  38.8378567  10.9125498  43.4085929
  39.4650606  10.5302575  44.0223453  37.9806486  10.6939700  43.7741621
  49.2372676  21.3188473  45.0139664  49.7812580  21.9318431  44.5194619
  48.6559521  21.8768052  45.5306677  35.6144110  12.7201927  29.3404284
  35.9097551  11.8112606  29.2871337  34.7132146  12.6989667  29.0185286
  47.5230189  24.4409191  36.1454692  47.3981328  23.6398931  35.6365638
  48.1809280  24.9355385  35.6568662  39.1438357  10.7957924  35.3231832
  38.4224943  11.4093891  35.1839306  39.9331613  11.3315689  35.2448478
  49.5865097  22.2418211  37.7734242  48.6395433  22.1223562  37.7012569
  49.9347870  21.3540709  37.8560504  41.9464670   8.1312350  41.5972484
  42.4699072   8.3774647  42.3598793  41.7277004   8.9632385  41.1775621
  37.3431951  10.4016025  29.4643609  37.0144658   9.5213404  29.2818715
  37.6971322  10.3463693  30.3519998  46.5911530  22.0370927  33.9738594
  46.4436493  21.1087635  34.1546164  47.4165024  22.0591018  33.4895670
  40.4573775  10.6888995  29.8319087  40.7969847  11.2174916  29.1097695
  40.9045895  11.0269401  30.6077653  50.1945652  22.8599486  35.0603467
  51.1192200  22.6542348  34.9227918  50.0260956  22.6115887  35.9692809
  43.1517215   9.0726045  39.2822155  42.8114036   8.2733858  39.6842834
  42.4456222   9.3727756  38.7098988  43.8033687   6.1575358  37.7349478
  44.6259757   5.6835836  37.6128368  44.0471751   6.9365841  38.2348164
  42.4441922   9.1863616  28.0312379  43.1650284   9.5644869  27.5276096
  41.8207226   9.9052493  28.1347357  46.5873045   9.8908765  28.9670712
  46.8036659  10.7733403  28.6659540  46.1067112   9.4994979  28.2376354
  41.3272266  12.8494478  35.5441456  41.1816847  13.1634781  36.4365738
  40.8497470  13.4679379  34.9912355  43.1868649   9.8397026  35.5922346
  43.1730218   8.9438120  35.2554644  43.9041077   9.8467690  36.2260632
  45.0394780  10.2734367  37.6375473  44.7812557  11.1951437  37.6359804
  44.5079820   9.8764801  38.3275937  49.9840968  23.3785154  30.4165559
  50.1577846  22.8131576  29.6639411  50.4769860  24.1786049  30.2345049
  35.8017928  15.3899823  38.4829117  35.2571396  16.1659631  38.6149392
  36.6797278  15.7370627  38.3248239  42.5905545   8.7211407  30.8609916
  42.7121456   7.7928053  31.0600803  42.3007587   8.7350093  29.9488231
  45.4596735   6.4066317  33.9976636  45.4818432   6.4705650  33.0428615
  45.8764794   5.5670826  34.1917142  55.8380360  16.1421577  32.0355858
  56.2811506  15.3928902  31.6374982  54.9606870  16.1331713  31.6529590
  50.9716141  22.6951918  27.5162457  51.6667045  23.3158611  27.7349772
  51.3139291  21.8447269  27.7914835  36.5883950  14.5169719  41.3759274
  35.8465686  14.6652354  41.9623905  36.2676694  14.7777985  40.5126024
  52.8707564  20.1451624  29.0449788  53.3958888  20.4838896  28.3199108
  52.7829917  19.2098639  28.8612922  44.5327613  24.0585697  41.1739664
  44.8414739  23.8134844  42.0462364  45.3303095  24.2632336  40.6858535
  44.5548225  26.2123607  33.4045041  44.1153215  25.7199986  34.0977898
  45.3056342  25.6696575  33.1637116  37.0340564  22.4035148  33.4069669
  37.8598584  22.1038920  33.0268312  36.6834616  21.6342770  33.8559458
  42.0022097  21.7561616  35.4767343  41.3802106  21.0932321  35.1769570
  42.6726964  21.7822748  34.7940990  35.2349169  20.3221474  34.3658603
  34.3981077  19.8943649  34.1842604  35.2072814  20.5153918  35.3029394
  42.0746624  10.2343404  45.0699849  42.1234780  11.1105527  44.6877618
  42.6169139   9.6920797  44.4971492  52.5601470  20.7784527  44.3500986
  51.7697014  20.7608666  43.8105485  52.3234825  21.3172821  45.1050022
  52.6799345  17.6276994  41.6633714  52.7297350  17.4627001  42.6049237
  52.5713268  16.7604253  41.2731595  41.5635604  20.3065539  28.9525803
  41.7123724  20.9901004  28.2992476  42.3702047  20.2870629  29.4675259
  49.9703107  13.6107922  42.9793021  50.8712970  13.4714386  42.6877019
  50.0451082  13.7762376  43.9191198  44.3045913  10.9874776  41.8246207
  43.4349222  11.2808342  41.5528796  44.5405393  11.5715221  42.5453471
  54.1817542  20.0473935  41.9075736  53.8902350  20.4103916  42.7439197
  53.5689673  19.3340943  41.7289068  55.3813224  17.6126815  34.4278306
  56.2160116  18.0516619  34.5915866  55.5172353  17.1365468  33.6086552
  52.4304730  15.1706550  40.3755794  52.9058852  15.3634196  39.5674645
  51.5070296  15.2265736  40.1299177  39.3188237  16.3330717  29.9586872
  39.0734279  15.4293047  30.1567082  39.4884151  16.3347867  29.0166350
  47.0084947   7.2054393  39.3411628  47.5266890   7.9415420  39.0158116
  46.6540079   7.5118387  40.1758387  38.5883884  12.0659075  27.4573033
  37.8953129  12.1403429  26.8013069  38.3435636  11.3019418  27.9794550
  47.2597541   3.6254676  34.8612524  47.5399295   2.9577865  35.4872951
  48.0448148   3.8183771  34.3487188  45.0631009  22.8013670  26.4237550
  44.4904976  23.4203857  25.9708022  45.6363803  23.3513031  26.9577472
  51.1306399  12.0472310  38.6084099  52.0823822  12.1470408  38.6296323
  50.9609850  11.2550578  39.1182184  49.1520779   9.1327893  38.7943500
  48.5570711   9.4132906  38.0989989  48.8670475   9.6221794  39.5660241
  48.2828269  23.0850820  27.5546133  49.2158942  23.0196382  27.7579008
  48.1951482  23.9207087  27.0960665  50.9116286  22.4016690  24.5150080
  50.8329917  22.0676554  25.4085838  51.7325953  22.8938458  24.5141553
  53.6094477  15.2678430  37.7226399  53.5770797  14.3294430  37.9086083
  54.2195101  15.3462466  36.9892224  45.4477808  14.1374483  23.7653603
  46.3936913  14.0080691  23.8342021  45.0692053  13.3989144  24.2423031
  53.7588965  12.0589473  37.7684682  53.2428014  11.2747930  37.5814611
  54.6428914  11.7308190  37.9331202  51.4199692   5.8030489  33.7280495
  51.2224513   5.4945577  34.6123827  52.0299398   6.5292127  33.8578425
  59.4271027  16.3294436  36.8632436  60.1574415  16.0679725  37.4240139
  58.8177972  15.5923158  36.9034504  57.5086324  14.4702299  37.4606887
  56.7819487  14.3358264  36.8523379  57.0933611  14.7779128  38.2663605
  45.3316500  18.1892229  45.2254260  46.2519510  18.3670828  45.4194306
  45.2966083  17.2448274  45.0733959  43.6320725  12.0624459  23.7008488
  42.7252180  11.7657572  23.7771202  43.9096706  11.7654277  22.8342774
  34.5498665  13.3830822  34.1507535  34.2301450  12.5296130  33.8581909
  34.0032094  13.5979400  34.9065502  38.3278573  16.0993263  37.8677041
  38.5464583  17.0310371  37.8865075  38.7404347  15.7401238  38.6531845
  45.2482791   6.6061349  29.8552730  44.4383519   6.2608434  30.2307976
  45.9367208   6.2968892  30.4440341  47.1773339   5.6839395  31.4777026
  47.7304378   6.1034849  32.1367049  47.4143425   4.7575144  31.5199982
  43.2006438  11.6726469  47.2579790  43.1003165  12.6220826  47.1891881
  42.9827980  11.3444708  46.3855860  34.4186925  17.0033734  36.1200656
  33.7250397  16.5887687  35.6070611  35.1659916  17.0454270  35.5234075
  50.5552146   7.7939921  30.9855690  49.9750815   8.4524725  30.6033743
  50.2888079   6.9717265  30.5743108  49.0055712   7.1944978  33.1877011
  49.5055491   7.3061513  32.3791330  49.6491320   6.8906031  33.8277819
  43.0637708  15.1023608  46.0744852  42.5804790  15.9023968  46.2808741
  43.1498647  15.1131553  45.1212296  36.3323668  16.9351988  33.9966671
  36.3094356  17.0339675  33.0448554  36.6424304  17.7817138  34.3183837
  38.9911046  18.9928143  38.1113285  39.9454299  18.9612085  38.0443217
  38.7923569  18.5318766  38.9263511  39.5810428  17.5629259  40.6784083
  40.4003317  18.0573337  40.7018920  39.8547236  16.6461227  40.6501651
  49.3377024   9.9540011  30.0412039  48.4502879  10.2389662  29.8232233
  49.7531013   9.7933774  29.1939316  52.6891560   9.9786532  33.7566378
  53.4651950  10.4682984  34.0290995  51.9639694  10.4044586  34.2138247
  55.1264119  10.6914151  34.8140319  55.7208610  10.4509887  34.1033627
  55.1990703   9.9721282  35.4413855  37.3461275  24.5347762  35.1283483
  37.2115742  23.7748163  34.5621481  36.9293337  25.2588662  34.6612272
  48.4820238  19.7184686  24.1360059  49.1856088  19.9234688  24.7517714
  47.7582886  20.2861448  24.4009142  49.3118048  15.4694547  30.2562329
  49.2553249  15.9263098  29.4169961  49.8646390  14.7085231  30.0785172
  53.1222854  11.2584279  31.0812448  52.8659788  10.8580914  31.9120656
  52.4975722  11.9728073  30.9562587  57.4335192  13.9980352  33.5883740
  56.8734750  14.0673541  34.3615302  56.8278695  13.8221337  32.8683236
  40.5030400  25.4317079  35.3401926  40.3862785  26.3762512  35.2380616
  39.6822847  25.1290641  35.7287725  50.3906935  20.1567215  26.1858519
  51.2252539  19.7248413  26.0035994  50.2291278  19.9849229  27.1135413
  50.0452827  16.6599328  27.5514858  49.9901631  16.4943600  26.6103302
  49.4198882  17.3675361  27.7077048  34.8345342  11.8967393  41.3776280
  35.4804206  11.3866346  41.8663505  34.6262493  12.6336074  41.9519705
  47.3598734  18.9648240  46.8768421  48.2289894  19.1388892  46.5155056
  46.8805486  19.7842657  46.7544150  43.3548953   6.1607437  27.1300176
  43.3427622   7.1049277  27.2868447  44.2472374   5.9777583  26.8359638
  41.5284915  26.0845341  38.5557854  42.4312161  26.1168951  38.8724349
  41.3022285  25.1545792  38.5704190  43.2838517  24.8376328  35.2167933
  42.3334148  24.8378189  35.1032305  43.5871003  24.0909062  34.7003968
  47.1701072   2.7550214  31.3846113  46.4033468   2.2008700  31.5302796
  47.5811777   2.8272083  32.2460265  39.1742833   9.0435010  45.4751294
  40.0374295   8.6871814  45.6854619  38.6008244   8.7048904  46.1626699
  59.0191210  30.6736866  36.2813695  59.6569620  30.5543613  35.5777036
  58.9012053  31.6217710  36.3401648  55.8280916  30.6264294  36.2175220
  55.4899428  30.5105359  35.3295755  56.6970685  30.2255459  36.1976226
  51.6867732  32.4799770  32.2072111  51.1232597  32.3889707  31.4388399
  51.5720127  31.6599675  32.6874604  56.3100699  31.7799146  42.1761426
  56.2989340  31.3851944  41.3041929  56.4721339  31.0465218  42.7695197
  49.2332164  33.9750962  35.0456332  50.0253456  33.6341787  34.6302631
  49.4728814  34.0845937  35.9658485  57.2667291  36.1470738  27.5186576
  56.6155270  36.7324819  27.1320590  58.0611654  36.6776933  27.5781613
  51.1922918  33.2359875  27.9173710  51.9653794  32.6888862  27.7786586
  51.5448317  34.1004125  28.1288172  53.0307960  34.5636258  41.1240610
  52.7397826  35.4681888  41.0087276  53.6664945  34.6052785  41.8384679
  53.9564167  31.9413106  37.7141969  54.5527740  31.7169128  36.9998932
  54.0139139  31.1997852  38.3167417  53.5289196  29.3952541  25.5492160
  53.7814716  28.8734063  24.7875623  52.5913755  29.2318687  25.6518844
  58.5732479  28.3988320  33.3566903  59.3595568  27.9807743  33.0057321
  58.8371183  29.3034412  33.5248552  58.7442556  33.8361170  28.0555560
  58.1088389  33.9095797  28.7676465  58.4139962  34.4254769  27.3774640
  63.9740906  28.3363553  34.2599882  64.7066078  27.7662770  34.4937711
  63.2180261  27.9485153  34.7006388  53.2485484  31.2980647  27.7516535
  53.1321743  30.6225551  28.4197620  53.3587744  30.8113021  26.9348688
  55.5917025  30.7590794  31.4563224  55.2275233  30.2321415  32.1676146
  56.4484141  30.3689264  31.2829710  55.2322512  25.7880694  26.4524573
  55.3996915  26.6560931  26.8195044  55.0419681  25.9507976  25.5285862
  57.9897846  34.2497673  38.1190403  57.6898569  35.1522712  38.0106211
  57.6448905  33.9829856  38.9711556  51.4410327  30.7011470  34.1527108
  50.5160823  30.5687684  34.3604800  51.6894740  31.4805689  34.6497050
  61.3894989  26.7680213  35.7987841  60.4811867  26.6995622  35.5046602
  61.3382585  27.2452158  36.6269666  55.2111733  28.2438352  27.4371240
  55.0911358  28.6895402  28.2756720  54.5164322  28.5923669  26.8784778
  48.8019138  30.3444743  34.9870897  48.9311519  30.5979222  35.9010309
  48.1216589  30.9372451  34.6675552  52.9718625  41.0141993  31.0861371
  52.8942655  41.9649819  31.1649852  52.3680269  40.6687866  31.7436297
  55.4635855  28.1869859  43.7422738  54.6869189  28.7463779  43.7325603
  56.1026418  28.6726642  44.2637608  60.9096799  28.7159825  28.2651574
  61.8214655  28.9487212  28.0899271  60.4006446  29.2996869  27.7026652
  53.7182227  30.9955312  43.3040705  54.4596912  31.5340356  43.0275529
  53.0119213  31.6221601  43.4612257  55.5468637  28.0757059  39.2746423
  56.3929832  28.4996473  39.4181072  55.4867275  27.4190684  39.9684986
  59.5166382  33.6985643  35.6565155  58.8875244  33.8631357  34.9541223
  59.1292044  34.1127253  36.4276119  58.2532774  24.8917861  36.5141435
  57.3917253  25.1899114  36.8058172  58.2795209  25.1088260  35.5822467
  55.0694344  33.4360051  32.9215240  55.5332689  33.7147754  32.1319863
  54.8051142  32.5343496  32.7388331  51.9618425  32.9831533  35.8595004
  52.5319782  33.4118801  35.2212488  52.5526536  32.7014118  36.5579189
  54.0063230  29.5583204  29.7304806  54.7087273  30.0104247  30.1978732
  53.6743858  28.9167023  30.3584699  52.4543591  28.1494960  44.1056015
  51.8242252  28.8311241  44.3391412  52.3479679  28.0378042  43.1609153
  47.7488564  27.8166756  35.0321939  46.9587618  28.0724285  34.5562050
  48.2399811  28.6315094  35.1373980  49.7003309  28.1811336  31.9905416
  48.9034472  28.2930030  32.5088911  49.4728901  28.5197988  31.1246306
  55.5308977  34.7056039  39.9387930  55.5953409  35.1676446  40.7746102
  54.8219900  34.0753404  40.0670240  46.0326267  28.0697247  37.4636930
  46.2834305  28.9544257  37.7294506  46.5685815  27.8901848  36.6912022
  55.2456994  36.3724146  29.8066911  55.1102669  37.2175682  30.2351759
  55.7866807  36.5743424  29.0432845  51.7324334  22.4515726  46.4681266
  51.3391279  21.8981925  47.1428910  52.5490474  22.7626305  46.8587784
  48.6986392  33.8899584  30.3794836  49.2110912  34.6842835  30.5300401
  49.3509104  33.1925875  30.3128437  50.5081276  37.0065341  32.4617589
  50.6847905  37.9283305  32.2738573  51.3038110  36.6923760  32.8911969
  54.6492295  23.8673605  44.0601523  55.3902008  24.4680758  43.9805985
  54.8810218  23.1251243  43.5019565  49.7933633  29.0529973  42.3379752
  49.6787148  28.1515230  42.6386851  48.9378151  29.2993669  41.9864569
  56.8725471  36.9947713  43.9367253  56.4289325  36.2084091  43.6188157
  57.5342684  37.1826863  43.2711144  51.6312592  38.5243514  38.4627931
  52.1820017  38.3960578  37.6904925  50.7924068  38.8238404  38.1122824
  58.9706709  37.2750513  41.9648654  58.9525184  38.0959394  41.4728923
  59.8926629  37.1504588  42.1898795  55.4279763  34.7894642  42.8072162
  55.9608100  34.0282930  42.5771470  54.8993844  34.4968294  43.5496317
  58.5949458  19.8954708  38.3365804  58.2513727  20.7856350  38.2604915
  58.9628420  19.7056366  37.4735389  46.6635308  32.2188239  31.1554406
  47.5010530  32.6285247  30.9388114  46.8413576  31.2787681  31.1254600
  58.5599741  29.8863319  26.8438239  58.0446364  30.6567924  27.0826627
  58.2877049  29.2128456  27.4671301  56.1446852  24.7313020  31.9023478
  55.2888448  24.3419871  31.7229116  56.5573803  24.8104981  31.0423263
  57.6745998  22.2659363  36.3015037  57.1710794  22.2289499  35.4882843
  57.9676605  23.1752106  36.3611694  53.9188884  22.3498093  35.3081219
  54.7841881  22.1540902  34.9487109  53.9866393  22.1208445  36.2350576
  58.3486044  27.7590411  28.6698021  58.0436179  28.0736561  29.5208164
  59.3016486  27.8371831  28.7125354  56.7932476  33.9180635  30.3190974
  56.2653837  33.1833394  30.0064212  56.2919978  34.6955311  30.0730943
  51.5251203  24.5800301  32.6797586  52.0994955  24.3575483  31.9470779
  52.1122186  24.6488996  33.4326187  51.8520790  26.6104762  26.6993471
  51.0158103  26.9479449  27.0202746  51.7125560  26.4753742  25.7620608
  53.8273871  21.4541550  31.4072655  53.1738283  21.1390567  30.7829270
  53.7854345  20.8317290  32.1332478  54.9385076  31.7360845  23.3225948
  54.0312137  31.5050099  23.5217097  55.4356108  30.9398464  23.5099929
  57.8453155  40.4458352  26.2422634  57.1714853  40.7490049  26.8507592
  58.2318977  41.2487433  25.8928091  57.0611611  27.9423484  35.7320303
  56.1434173  28.1638431  35.5741991  57.4771755  28.0169794  34.8732010
  57.8446659  29.3414899  30.8622983  58.5918478  29.8536296  30.5530105
  58.1138249  29.0198952  31.7227377  56.1173309  31.8373440  27.8449938
  55.2084528  31.5532473  27.9422407  56.1468393  32.2572518  26.9853244
  60.2925496  26.3772015  32.8441773  59.5548253  25.8649402  33.1752015
  60.5452270  25.9372397  32.0325050  59.7925516  37.2856526  32.5490923
  60.0848490  37.8461583  31.8303289  60.3024136  37.5785087  33.3044082
  60.3937123  19.1548267  33.4383542  60.6996000  18.2945631  33.1509457
  61.1189728  19.7465888  33.2382536  46.6861480  29.5578954  31.8265140
  46.4885879  28.9648315  31.1016206  46.1308144  29.2531164  32.5441079
  54.6658203  29.4502061  33.9459733  54.7206813  28.4975897  33.8702210
  53.8549405  29.6061500  34.4301031  55.8149397  33.3782184  25.1838016
  55.3768827  32.6618043  24.7243654  56.5559838  33.6058298  24.6223108
  52.6050563  28.0679120  31.7050112  51.7918429  28.3673291  32.1115304
  53.1009557  27.6734809  32.4224594  54.7559141  38.0636877  33.6384377
  54.7135320  38.2897724  32.7092909  55.6721840  37.8300252  33.7870178
  58.2024775  28.5320945  40.5365006  58.5574163  28.7592418  41.3959471
  58.8496906  28.8639322  39.9142261  52.0964638  25.6397476  37.3211347
  52.7364017  25.4986235  36.6234310  51.2642168  25.3531989  36.9449949
  52.8724942  34.9399906  33.4346339  53.6665540  34.4450226  33.2328914
  52.1616634  34.4117769  33.0714045  57.6919786  37.3218002  37.7858707
  57.7456809  37.8908938  38.5536423  56.8234568  37.4919887  37.4212744
  49.1807705  29.0842988  29.5106092  48.2505293  29.0227443  29.7276054
  49.2765177  28.5618941  28.7142733  49.0993254  25.6097801  32.0984334
  49.3600072  26.5243134  31.9893494  49.9210427  25.1422243  32.2480946
  50.5718180  27.0235558  39.2683158  51.2441233  26.8152920  38.6195807
  49.7447966  26.8257644  38.8288390  56.4743752  23.6497499  41.2848819
  55.8271667  24.3487449  41.1913295  57.2444767  24.0833643  41.6525067
  59.8822550  33.9146351  44.3599372  59.7308056  33.6856903  43.4429456
  59.8727229  34.8716952  44.3730717  56.6507886  31.4878264  39.3445639
  57.5799946  31.6389423  39.1714606  56.2298916  31.5762285  38.4894285
  55.4496218  35.5128928  37.1144176  55.3107303  35.1447713  37.9870114
  54.6610814  36.0276568  36.9428134  56.0444370  40.6138025  28.4569713
  56.2196125  40.1426068  29.2715336  55.3577158  41.2403791  28.6850974
  57.0001433  34.8910531  34.5033014  56.6651266  34.8511301  35.3990664
  56.5005379  34.2255247  34.0303424  50.9745677  30.2978161  40.0285595
  50.8365475  29.5658400  40.6297134  51.8850600  30.2087061  39.7469783
  59.9360625  32.2366565  24.7770074  59.3189795  31.5113393  24.6803126
  59.4677113  32.9975926  24.4337148  53.6027978  30.0098120  39.5169275
  54.3127596  29.3691312  39.4755893  53.5597286  30.2611015  40.4395456
  61.5914756  36.9465474  42.4375854  61.5327302  36.2624694  41.7706437
  61.9934275  37.6884464  41.9856480  52.3156912  26.9963338  41.3364914
  51.7794269  26.5454077  41.9886511  51.7273620  27.1309247  40.5935379
  50.6105455  43.7627387  35.2309573  50.8502053  44.3945912  35.9088592
  49.7674652  43.4115427  35.5174932  51.7259170  26.4551990  23.8991378
  50.8488637  26.3340790  23.5353625  52.2016924  25.6638068  23.6470267
  43.2461311  31.2429149  33.9932885  43.9332350  30.9290879  33.4053901
  43.0909439  32.1470514  33.7200137  48.0496033  26.1319346  38.4217909
  47.9654222  25.5245015  37.6868319  47.2278739  26.6228364  38.4227405
  55.1233317  39.5706510  37.6351077  55.0503488  40.3761481  38.1470382
  54.6810710  39.7698476  36.8099098  54.9123097  38.8078280  31.1453899
  54.1290618  39.3499960  31.2392123  55.6115842  39.3252260  31.5448140
  58.2219747  24.6172909  33.7888104  58.7188446  23.8642872  33.4689174
  57.4506728  24.6537226  33.2231313  57.5832000  39.4693344  39.7909236
  58.2959973  40.1040809  39.7185137  57.0922029  39.5657210  38.9749238
  59.3049527  33.3744597  31.3626527  58.3705806  33.4946059  31.1931232
  59.4826196  32.4717063  31.0986537  54.8054715  26.7590292  33.5159789
  54.4352503  26.2061333  34.2040694  55.3013808  26.1548426  32.9634789
  52.6343914  37.2187787  40.6114807  53.3353373  37.8524270  40.7644201
  52.1639029  37.5602519  39.8510446  60.6638741  21.5842503  35.9367463
  59.7501821  21.8146730  36.1049670  61.0931843  21.6680947  36.7881495
  57.3952374  39.8092088  32.5395527  57.5774768  38.9913744  33.0023279
  58.2185360  40.0259780  32.1020417  57.7294539  38.7360273  29.8010576
  58.2582306  38.2252728  29.1880738  57.9922759  38.4202803  30.6656109
  56.4832773  30.5152206  44.9233394  55.8073410  30.4146335  45.5935769
  57.3060407  30.3591420  45.3869391  48.2311632  36.7524142  37.5445909
  48.8165069  36.0067830  37.6773813  48.0336470  37.0628099  38.4282573
  51.0850287  39.7875390  32.5608352  50.4160663  40.2721517  32.0772392
  50.9463157  40.0344610  33.4751730  42.8229287  29.3229743  36.2650352
  42.8613386  28.7893333  37.0587470  42.3169580  28.7964948  35.6461330
  55.2255556  41.8219133  39.1591010  55.7773864  41.9850755  39.9240095
  55.5661749  42.4123571  38.4871035  50.2020049  24.1694283  39.7612895
  50.2661376  25.0309114  39.3490292  50.1387169  23.5568285  39.0285253
  49.6772322  26.2417416  43.4085929  50.3044360  25.8594493  44.0223453
  48.8200240  26.0231618  43.7741621  60.0766430  36.6480391  45.0139664
  60.6206334  37.2610349  44.5194619  59.4953275  37.2059969  45.5306677
  46.4537864  28.0493845  29.3404284  46.7491305  27.1404523  29.2871337
  45.5525900  28.0281584  29.0185286  58.3623943  39.7701109  36.1454692
  58.2375083  38.9690849  35.6365638  59.0203034  40.2647302  35.6568662
  49.9832111  26.1249841  35.3231832  49.2618697  26.7385809  35.1839306
  50.7725367  26.6607606  35.2448478  60.4258851  37.5710129  37.7734242
  59.4789187  37.4515480  37.7012569  60.7741625  36.6832627  37.8560504
  52.7858425  23.4604268  41.5972484  53.3092827  23.7066564  42.3598793
  52.5670758  24.2924303  41.1775621  48.1825706  25.7307942  29.4643609
  47.8538412  24.8505321  29.2818715  48.5365077  25.6755611  30.3519998
  57.4305285  37.3662845  33.9738594  57.2830247  36.4379553  34.1546164
  58.2558778  37.3882936  33.4895670  51.2967529  26.0180912  29.8319087
  51.6363602  26.5466833  29.1097695  51.7439650  26.3561318  30.6077653
  53.9910970  24.4017963  39.2822155  53.6507790  23.6025776  39.6842834
  53.2849976  24.7019674  38.7098988  54.6427442  21.4867275  37.7349478
  55.4653511  21.0127754  37.6128368  54.8865505  22.2657759  38.2348164
  53.2835676  24.5155534  28.0312379  54.0044039  24.8936787  27.5276096
  52.6600980  25.2344411  28.1347357  57.4266799  25.2200683  28.9670712
  57.6430413  26.1025321  28.6659540  56.9460866  24.8286896  28.2376354
  52.1666020  28.1786396  35.5441456  52.0210601  28.4926699  36.4365738
  51.6891224  28.7971296  34.9912355  54.0262403  25.1688944  35.5922346
  54.0123972  24.2730037  35.2554644  54.7434831  25.1759608  36.2260632
  55.8788534  25.6026284  37.6375473  55.6206312  26.5243355  37.6359804
  55.3473574  25.2056719  38.3275937  46.6411683  30.7191740  38.4829117
  46.0965151  31.4951548  38.6149392  47.5191033  31.0662545  38.3248239
  53.4299299  24.0503324  30.8609916  53.5515210  23.1219970  31.0600803
  53.1401342  24.0642010  29.9488231  56.2990490  21.7358235  33.9976636
  56.3212187  21.7997568  33.0428615  56.7158549  20.8962743  34.1917142
  47.4277705  29.8461637  41.3759274  46.6859441  29.9944272  41.9623905
  47.1070449  30.1069902  40.5126024  55.3721367  39.3877615  41.1739664
  55.6808494  39.1426762  42.0462364  56.1696849  39.5924253  40.6858535
  55.3941979  41.5415525  33.4045041  54.9546969  41.0491903  34.0977898
  56.1450096  40.9988492  33.1637116  47.8734318  37.7327065  33.4069669
  48.6992338  37.4330837  33.0268312  47.5228370  36.9634688  33.8559458
  52.8415851  37.0853534  35.4767343  52.2195861  36.4224239  35.1769570
  53.5120718  37.1114666  34.7940990  46.0742923  35.6513392  34.3658603
  45.2374832  35.2235566  34.1842604  46.0466569  35.8445835  35.3029394
  52.9140379  25.5635322  45.0699849  52.9628534  26.4397444  44.6877618
  53.4562893  25.0212715  44.4971492  52.4029358  35.6357457  28.9525803
  52.5517479  36.3192921  28.2992476  53.2095802  35.6162547  29.4675259
  55.1439667  26.3166694  41.8246207  54.2742977  26.6100260  41.5528796
  55.3799148  26.9007139  42.5453471  50.1581991  31.6622635  29.9586872
  49.9128033  30.7584965  30.1567082  50.3277906  31.6639785  29.0166350
  57.8478701  22.5346311  39.3411628  58.3660645  23.2707338  39.0158116
  57.4933834  22.8410304  40.1758387  49.4277639  27.3950992  27.4573033
  48.7346884  27.4695347  26.8013069  49.1829391  26.6311336  27.9794550
  58.0991295  18.9546594  34.8612524  58.3793049  18.2869783  35.4872951
  58.8841902  19.1475689  34.3487188  55.9024764  38.1305587  26.4237550
  55.3298731  38.7495775  25.9708022  56.4757557  38.6804949  26.9577472
  59.9914533  24.4619811  38.7943500  59.3964465  24.7424823  38.0989989
  59.7064230  24.9513712  39.5660241  59.1222024  38.4142738  27.5546133
  60.0552697  38.3488299  27.7579008  59.0345236  39.2499004  27.0960665
  61.7510040  37.7308608  24.5150080  61.6723672  37.3968472  25.4085838
  62.5719707  38.2230376  24.5141553  56.2871562  29.4666400  23.7653603
  57.2330667  29.3372608  23.8342021  55.9085807  28.7281062  24.2423031
  62.2593447  21.1322406  33.7280495  62.0618268  20.8237494  34.6123827
  62.8693152  21.8584045  33.8578425  56.1710255  33.5184146  45.2254260
  57.0913264  33.6962745  45.4194306  56.1359838  32.5740192  45.0733959
  54.4714479  27.3916377  23.7008488  53.5645935  27.0949489  23.7771202
  54.7490460  27.0946195  22.8342774  45.3892420  28.7122740  34.1507535
  45.0695204  27.8588048  33.8581909  44.8425848  28.9271318  34.9065502
  49.1672327  31.4285181  37.8677041  49.3858337  32.3602289  37.8865075
  49.5798101  31.0693155  38.6531845  56.0876545  21.9353266  29.8552730
  55.2777273  21.5900351  30.2307976  56.7760962  21.6260810  30.4440341
  58.0167093  21.0131313  31.4777026  58.5698132  21.4326767  32.1367049
  58.2537180  20.0867061  31.5199982  54.0400193  27.0018387  47.2579790
  53.9396920  27.9512744  47.1891881  53.8221735  26.6736626  46.3855860
  53.2413264  24.2503312  23.8420467  54.1032428  24.5758210  24.1016285
  53.4263608  23.4634808  23.3293533  45.2580680  32.3325651  36.1200656
  44.5644151  31.9179604  35.6070611  46.0053671  32.3746188  35.5234075
  61.3945901  23.1231838  30.9855690  60.8144570  23.7816642  30.6033743
  61.1281833  22.3009183  30.5743108  59.8449467  22.5236896  33.1877011
  60.3449245  22.6353430  32.3791330  60.4885075  22.2197949  33.8277819
  53.9031463  30.4315526  46.0744852  53.4198544  31.2315886  46.2808741
  53.9892402  30.4423470  45.1212296  47.1717422  32.2643905  33.9966671
  47.1488110  32.3631593  33.0448554  47.4818059  33.1109056  34.3183837
  49.8304800  34.3220060  38.1113285  50.7848054  34.2904003  38.0443217
  49.6317324  33.8610684  38.9263511  50.4204182  32.8921176  40.6784083
  51.2397071  33.3865255  40.7018920  50.6940990  31.9753144  40.6501651
  60.1770779  25.2831929  30.0412039  59.2896634  25.5681579  29.8232233
  60.5924768  25.1225692  29.1939316  63.5285315  25.3078450  33.7566378
  64.3045705  25.7974902  34.0290995  62.8033449  25.7336504  34.2138247
  65.9657873  26.0206069  34.8140319  66.5602364  25.7801805  34.1033627
  66.0384457  25.3013199  35.4413855  48.1855029  39.8639680  35.1283483
  48.0509497  39.1040081  34.5621481  47.7687091  40.5880580  34.6612272
  59.3213992  35.0476603  24.1360059  60.0249842  35.2526606  24.7517714
  58.5976641  35.6153365  24.4009142  60.1511802  30.7986465  30.2562329
  60.0947004  31.2555016  29.4169961  60.7040145  30.0377149  30.0785172
  63.9616608  26.5876196  31.0812448  63.7053542  26.1872832  31.9120656
  63.3369476  27.3019990  30.9562587  51.3424155  40.7608997  35.3401926
  51.2256539  41.7054429  35.2380616  50.5216601  40.4582558  35.7287725
  61.2300689  35.4859133  26.1858519  62.0646293  35.0540331  26.0035994
  61.0685032  35.3141146  27.1135413  60.8846582  31.9891246  27.5514858
  60.8295385  31.8235517  26.6103302  60.2592637  32.6967279  27.7077048
  45.6739097  27.2259310  41.3776280  46.3197960  26.7158264  41.8663505
  45.4656248  27.9627992  41.9519705  58.1992489  34.2940158  46.8768421
  59.0683648  34.4680810  46.5155056  57.7199240  35.1134574  46.7544150
  54.1942707  21.4899355  27.1300176  54.1821377  22.4341195  27.2868447
  55.0866129  21.3069500  26.8359638  52.3678669  41.4137259  38.5557854
  53.2705916  41.4460869  38.8724349  52.1416039  40.4837710  38.5704190
  54.1232271  40.1668245  35.2167933  53.1727902  40.1670107  35.1032305
  54.4264757  39.4200980  34.7003968  58.0094827  18.0842131  31.3846113
  57.2427222  17.5300618  31.5302796  58.4205531  18.1564000  32.2460265
  50.0136588  24.3726927  45.4751294  50.8768049  24.0163732  45.6854619
  49.4401998  24.0340822  46.1626699  68.1061045  51.4762656  27.5186576
  67.4549025  52.0616736  27.1320590  68.9005408  52.0068851  27.5781613
  62.0316672  48.5651793  27.9173710  62.8047548  48.0180780  27.7786586
  62.3842071  49.4296042  28.1288172  64.3682950  44.7244459  25.5492160
  64.6208471  44.2025980  24.7875623  63.4307509  44.5610605  25.6518844
  66.0716267  41.1172612  26.4524573  66.2390669  41.9852848  26.8195044
  65.8813436  41.2799894  25.5285862  66.0505488  43.5730269  27.4371240
  65.9305113  44.0187320  28.2756720  65.3558076  43.9215587  26.8784778
  63.8112380  56.3433911  31.0861371  63.7336410  57.2941736  31.1649852
  63.2074023  55.9979784  31.7436297  58.5882318  43.1458674  35.0321939
  57.7981372  43.4016203  34.5562050  59.0793565  43.9607012  35.1373980
  60.5397063  43.5103253  31.9905416  59.7428227  43.6221948  32.5088911
  60.3122656  43.8489906  31.1246306  56.8720021  43.3989165  37.4636930
  57.1228059  44.2836174  37.7294506  57.4079569  43.2193766  36.6912022
  66.0850749  51.7016064  29.8066911  65.9496424  52.5467600  30.2351759
  66.6260561  51.9035342  29.0432845  59.5380146  49.2191502  30.3794836
  60.0504667  50.0134752  30.5300401  60.1902859  48.5217793  30.3128437
  57.5029063  47.5480156  31.1554406  58.3404285  47.9577165  30.9388114
  57.6807331  46.6079599  31.1254600  62.6914545  41.9396680  26.6993471
  61.8551857  42.2771366  27.0202746  62.5519314  41.8045660  25.7620608
  65.7778830  47.0652763  23.3225948  64.8705892  46.8342016  23.5217097
  66.2749862  46.2690382  23.5099929  68.6846909  55.7750270  26.2422634
  68.0108608  56.0781967  26.8507592  69.0712731  56.5779350  25.8928091
  57.5255234  44.8870872  31.8265140  57.3279634  44.2940232  31.1016206
  56.9701898  44.5823082  32.5441079  66.6543151  48.7074101  25.1838016
  66.2162581  47.9909960  24.7243654  67.3953592  48.9350216  24.6223108
  63.4444318  43.3971038  31.7050112  62.6312183  43.6965208  32.1115304
  63.9403312  43.0026727  32.4224594  60.0201460  44.4134906  29.5106092
  59.0899048  44.3519361  29.7276054  60.1158932  43.8910858  28.7142733
  59.9387009  40.9389718  32.0984334  60.1993826  41.8535052  31.9893494
  60.7604181  40.4714161  32.2480946  66.8838124  55.9429942  28.4569713
  67.0589880  55.4717986  29.2715336  66.1970912  56.5695709  28.6850974
  61.4499210  59.0919305  35.2309573  61.6895808  59.7237829  35.9088592
  60.6068406  58.7407345  35.5174932  62.5652925  41.7843907  23.8991378
  61.6882391  41.6632708  23.5353625  63.0410678  40.9929986  23.6470267
  54.0855065  46.5721067  33.9932885  54.7726105  46.2582797  33.4053901
  53.9303194  47.4762432  33.7200137  58.8889787  41.4611264  38.4217909
  58.8047976  40.8536933  37.6868319  58.0672494  41.9520282  38.4227405
  65.7516851  54.1370198  31.1453899  64.9684373  54.6791878  31.2392123
  66.4509596  54.6544177  31.5448140  61.9244042  55.1167307  32.5608352
  61.2554417  55.6013435  32.0772392  61.7856911  55.3636528  33.4751730
  53.6623041  44.6521660  36.2650352  53.7007141  44.1185251  37.0587470
  53.1563334  44.1256866  35.6461330  66.0649310  57.1511051  39.1591010
  66.6167618  57.3142673  39.9240095  66.4055504  57.7415489  38.4871035
  61.0413804  39.4986201  39.7612895  61.1055130  40.3601032  39.3490292
  60.9780924  38.8860202  39.0285253  57.2931619  43.3785762  29.3404284
  57.5885060  42.4696441  29.2871337  56.3919655  43.3573502  29.0185286
  60.8225866  41.4541759  35.3231832  60.1012452  42.0677727  35.1839306
  61.6119122  41.9899524  35.2448478  59.0219460  41.0599860  29.4643609
  58.6932167  40.1797239  29.2818715  59.3758831  41.0047529  30.3519998
  62.1361284  41.3472830  29.8319087  62.4757356  41.8758751  29.1097695
  62.5833404  41.6853236  30.6077653  64.1229431  39.8447452  28.0312379
  64.8437793  40.2228704  27.5276096  63.4994735  40.5636328  28.1347357
  66.2115122  54.7169533  41.1739664  66.5202248  54.4718679  42.0462364
  67.0090604  54.9216171  40.6858535  66.2335734  56.8707442  33.4045041
  65.7940724  56.3783821  34.0977898  66.9843851  56.3280410  33.1637116
  58.7128073  53.0618983  33.4069669  59.5386093  52.7622755  33.0268312
  58.3622125  52.2926606  33.8559458  56.9136678  50.9805310  34.3658603
  56.0768586  50.5527484  34.1842604  56.8860323  51.1737753  35.3029394
  63.2423113  50.9649375  28.9525803  63.3911233  51.6484839  28.2992476
  64.0489556  50.9454465  29.4675259  60.9975746  46.9914552  29.9586872
  60.7521788  46.0876882  30.1567082  61.1671660  46.9931703  29.0166350
  60.2671393  42.7242910  27.4573033  59.5740638  42.7987265  26.8013069
  60.0223145  41.9603254  27.9794550  66.7418518  53.4597505  26.4237550
  66.1692485  54.0787692  25.9708022  67.3151312  54.0096867  26.9577472
  72.5903795  53.0600526  24.5150080  72.5117426  52.7260389  25.4085838
  73.4113462  53.5522293  24.5141553  67.1265317  44.7958318  23.7653603
  68.0724422  44.6664526  23.8342021  66.7479562  44.0572980  24.2423031
  65.3108234  42.7208294  23.7008488  64.4039689  42.4241407  23.7771202
  65.5884215  42.4238112  22.8342774  56.2286174  44.0414658  34.1507535
  55.9088959  43.1879966  33.8581909  55.6819602  44.2563236  34.9065502
  64.0807019  39.5795229  23.8420467  64.9426183  39.9050128  24.1016285
  64.2657363  38.7926725  23.3293533  59.0248784  55.1931597  35.1283483
  58.8903251  54.4331998  34.5621481  58.6080846  55.9172497  34.6612272
  70.1607747  50.3768521  24.1360059  70.8643597  50.5818523  24.7517714
  69.4370395  50.9445283  24.4009142  62.1817909  56.0900914  35.3401926
  62.0650294  57.0346347  35.2380616  61.3610356  55.7874476  35.7287725
  72.0694444  50.8151050  26.1858519  72.9040048  50.3832249  26.0035994
  71.9078787  50.6433064  27.1135413  56.5132851  42.5551228  41.3776280
  57.1591715  42.0450182  41.8663505  56.3050002  43.2919910  41.9519705
  65.0336462  36.8191272  27.1300176  65.0215131  37.7633112  27.2868447
  65.9259883  36.6361418  26.8359638  63.2072424  56.7429176  38.5557854
  64.1099670  56.7752787  38.8724349  62.9809794  55.8129627  38.5704190
  64.9626026  55.4960163  35.2167933  64.0121657  55.4962025  35.1032305
  65.2658512  54.7492897  34.7003968  70.9119673  64.6334797  35.0456332
  71.7040965  64.2925622  34.6302631  71.1516323  64.7429772  35.9658485
  72.8710427  63.8943711  27.9173710  73.6441303  63.3472698  27.7786586
  73.2235826  64.7587960  28.1288172  75.2076705  60.0536377  25.5492160
  75.4602225  59.5317898  24.7875623  74.2701264  59.8902522  25.6518844
  74.9272993  61.9564483  27.7516535  74.8109252  61.2809386  28.4197620
  75.0375253  61.4696857  26.9348688  70.3773901  64.5483420  30.3794836
  70.8898421  65.3426670  30.5300401  71.0296613  63.8509710  30.3128437
  72.1868785  67.6649176  32.4617589  72.3635414  68.5867141  32.2738573
  72.9825619  67.3507595  32.8911969  68.3422817  62.8772074  31.1554406
  69.1798039  63.2869082  30.9388114  68.5201085  61.9371516  31.1254600
  80.2387250  60.5447155  26.8438239  79.7233873  61.3151759  27.0826627
  79.9664558  59.8712291  27.4671301  73.5308299  57.2688597  26.6993471
  72.6945612  57.6063284  27.0202746  73.3913069  57.1337577  25.7620608
  76.6172585  62.3944680  23.3225948  75.7099646  62.1633934  23.5217097
  77.1143617  61.5982300  23.5099929  79.5240664  71.1042188  26.2422634
  78.8502362  71.4073884  26.8507592  79.9106486  71.9071268  25.8928091
  77.7960818  62.4957275  27.8449938  76.8872037  62.2116308  27.9422407
  77.8255902  62.9156354  26.9853244  68.3648989  60.2162789  31.8265140
  68.1673388  59.6232150  31.1016206  67.8095653  59.9115000  32.5441079
  77.4936906  64.0366019  25.1838016  77.0556336  63.3201878  24.7243654
  78.2347347  64.2642134  24.6223108  74.5512451  65.5983742  33.4346339
  75.3453049  65.1034062  33.2328914  73.8404143  65.0701605  33.0714045
  70.8595214  59.7426823  29.5106092  69.9292802  59.6811279  29.7276054
  70.9552686  59.2202776  28.7142733  72.2892964  74.4211223  35.2309573
  72.5289562  75.0529747  35.9088592  71.4462161  74.0699263  35.5174932
  73.4046679  57.1135825  23.8991378  72.5276146  56.9924626  23.5353625
  73.8804433  56.3221903  23.6470267  64.9248820  61.9012985  33.9932885
  65.6119859  61.5874715  33.4053901  64.7696948  62.8054349  33.7200137
  69.9099141  67.4107978  37.5445909  70.4952578  66.6651666  37.6773813
  69.7123979  67.7211934  38.4282573  64.5016796  59.9813578  36.2650352
  64.5400895  59.4477169  37.0587470  63.9957089  59.4548783  35.6461330
  68.1325373  58.7077680  29.3404284  68.4278814  57.7988359  29.2871337
  67.2313409  58.6865420  29.0185286  83.4897404  68.6827671  27.5162457
  84.1848309  69.3034364  27.7349772  83.8320554  67.8323022  27.7914835
  69.5521827  68.3910901  33.4069669  70.3779847  68.0914673  33.0268312
  69.2015879  67.6218523  33.8559458  67.7530432  66.3097227  34.3658603
  66.9162341  65.8819402  34.1842604  67.7254078  66.5029671  35.3029394
  74.0816867  66.2941292  28.9525803  74.2304988  66.9776757  28.2992476
  74.8883311  66.2746382  29.4675259  71.8369500  62.3206470  29.9586872
  71.5915542  61.4168800  30.1567082  72.0065415  62.3223620  29.0166350
  71.1065148  58.0534828  27.4573033  70.4134393  58.1279183  26.8013069
  70.8616900  57.2895171  27.9794550  77.5812273  68.7889423  26.4237550
  77.0086240  69.4079610  25.9708022  78.1545066  69.3388784  26.9577472
  83.4297549  68.3892443  24.5150080  83.3511181  68.0552307  25.4085838
  84.2507216  68.8814211  24.5141553  77.9659071  60.1250236  23.7653603
  78.9118176  59.9956444  23.8342021  77.5873316  59.3864897  24.2423031
  76.1501988  58.0500212  23.7008488  75.2433444  57.7533325  23.7771202
  76.4277969  57.7530030  22.8342774  74.9200773  54.9087147  23.8420467
  75.7819937  55.2342045  24.1016285  75.1051117  54.1218643  23.3293533
  66.9368189  62.9909487  36.1200656  66.2431660  62.5763440  35.6070611
  67.6841180  63.0330023  35.5234075  68.8504931  62.9227741  33.9966671
  68.8275619  63.0215428  33.0448554  69.1605568  63.7692891  34.3183837
  69.8642538  70.5223515  35.1283483  69.7297006  69.7623916  34.5621481
  69.4474600  71.2464415  34.6612272  81.0001501  65.7060439  24.1360059
  81.7037351  65.9110441  24.7517714  80.2764150  66.2737201  24.4009142
  82.9088198  66.1442968  26.1858519  83.7433802  65.7124166  26.0035994
  82.7472541  65.9724982  27.1135413  91.5372473  76.6612619  36.2813695
  92.1750883  76.5419366  35.5777036  91.4193316  77.6093463  36.3401648
  88.3462180  76.6140047  36.2175220  88.0080691  76.4981112  35.3295755
  89.2151948  76.2131212  36.1976226  84.2048995  78.4675523  32.2072111
  83.6413861  78.3765460  31.4388399  84.0901391  77.6475428  32.6874604
  88.8281963  77.7674899  42.1761426  88.8170604  77.3727697  41.3041929
  88.9902602  77.0340971  42.7695197  81.7513427  79.9626715  35.0456332
  82.5434719  79.6217540  34.6302631  81.9910078  80.0721690  35.9658485
  89.7848554  82.1346491  27.5186576  89.1336534  82.7200572  27.1320590
  90.5792917  82.6652686  27.5781613  83.7104181  79.2235628  27.9173710
  84.4835057  78.6764615  27.7786586  84.0629580  80.0879878  28.1288172
  85.5489224  80.5512011  41.1240610  85.2579090  81.4557641  41.0087276
  86.1846208  80.5928538  41.8384679  86.4745431  77.9288859  37.7141969
  87.0709003  77.7044882  36.9998932  86.5320402  77.1873605  38.3167417
  86.0470459  75.3828294  25.5492160  86.2995980  74.8609816  24.7875623
  85.1095018  75.2194440  25.6518844  91.0913742  74.3864073  33.3566903
  91.8776831  73.9683496  33.0057321  91.3552446  75.2910165  33.5248552
  91.2623819  79.8236923  28.0555560  90.6269652  79.8971550  28.7676465
  90.9321226  80.4130522  27.3774640  96.4922169  74.3239306  34.2599882
  97.2247341  73.7538523  34.4937711  95.7361525  73.9360906  34.7006388
  85.7666748  77.2856400  27.7516535  85.6503006  76.6101304  28.4197620
  85.8769008  76.7988774  26.9348688  88.1098289  76.7466548  31.4563224
  87.7456496  76.2197168  32.1676146  88.9665405  76.3565017  31.2829710
  87.7503776  71.7756447  26.4524573  87.9178178  72.6436684  26.8195044
  87.5600945  71.9383729  25.5285862  90.5079109  80.2373426  38.1190403
  90.2079832  81.1398465  38.0106211  90.1630169  79.9705609  38.9711556
  83.9591590  76.6887223  34.1527108  83.0342087  76.5563437  34.3604800
  84.2076004  77.4681442  34.6497050  87.7292997  74.2314105  27.4371240
  87.6092622  74.6771155  28.2756720  87.0345585  74.5799422  26.8784778
  81.3200402  76.3320497  34.9870897  81.4492783  76.5854975  35.9010309
  80.6397853  76.9248205  34.6675552  85.4899889  87.0017746  31.0861371
  85.4123918  87.9525572  31.1649852  84.8861532  86.6563619  31.7436297
  93.4278063  74.7035578  28.2651574  94.3395919  74.9362965  28.0899271
  92.9187710  75.2872622  27.7026652  86.2363491  76.9831065  43.3040705
  86.9778175  77.5216109  43.0275529  85.5300476  77.6097354  43.4612257
  91.7118831  79.1260206  41.9012866  92.1202187  78.6842616  41.1567499
  90.9896092  78.5512833  42.1547059  92.0347645  79.6861396  35.6565155
  91.4056508  79.8507110  34.9541223  91.6473307  80.1003006  36.4276119
  95.9136877  80.6215834  33.0109519  95.2287915  81.0014736  32.4606552
  95.9980726  81.2311161  33.7441467  93.1687809  78.2675793  39.6104863
  93.3804704  78.9107553  38.9339244  93.1217557  77.4338110  39.1426793
  87.5875607  79.4235804  32.9215240  88.0513953  79.7023507  32.1319863
  87.3232405  78.5219249  32.7388331  84.4799688  78.9707286  35.8595004
  85.0501045  79.3994554  35.2212488  85.0707800  78.6889871  36.5579189
  86.5244493  75.5458957  29.7304806  87.2268536  75.9980000  30.1978732
  86.1925122  74.9042776  30.3584699  94.2833637  81.1447749  37.7827220
  95.1051080  80.7427936  37.5009902  94.2796039  81.0415983  38.7343336
  82.2184572  74.1687089  31.9905416  81.4215736  74.2805783  32.5088911
  81.9910165  74.5073741  31.1246306  88.0490240  80.6931792  39.9387930
  88.1134673  81.1552199  40.7746102  87.3401164  80.0629157  40.0670240
 102.3739630  77.4886497  34.1312191 101.6203338  76.9193895  33.9756196
 102.5087171  77.4549162  35.0782826  87.7638258  82.3599899  29.8066911
  87.6283932  83.2051435  30.2351759  88.3048070  82.5619177  29.0432845
  81.2167655  79.8775337  30.3794836  81.7292176  80.6718588  30.5300401
  81.8690368  79.1801628  30.3128437  83.0262540  82.9941094  32.4617589
  83.2029168  83.9159058  32.2738573  83.8219373  82.6799513  32.8911969
  89.3906734  82.9823466  43.9367253  88.9470588  82.1959844  43.6188157
  90.0523948  83.1702616  43.2711144  84.1493855  84.5119268  38.4627931
  84.7001280  84.3836331  37.6904925  83.3105331  84.8114157  38.1122824
  91.4887972  83.2626266  41.9648654  91.4706448  84.0835147  41.4728923
  92.4107892  83.1380341  42.1898795  87.9461026  80.7770395  42.8072162
  88.4789363  80.0158684  42.5771470  87.4175107  80.4844047  43.5496317
  79.1816572  78.2063992  31.1554406  80.0191794  78.6161000  30.9388114
  79.3594840  77.2663434  31.1254600  91.0781004  75.8739072  26.8438239
  90.5627627  76.6443677  27.0826627  90.8058312  75.2004209  27.4671301
  96.0515278  78.6271427  28.7791413  95.2744721  78.2882587  28.3346575
  96.7306759  78.6324050  28.1046378  90.8667307  73.7466165  28.6698021
  90.5617443  74.0612314  29.5208164  91.8197749  73.8247584  28.7125354
  89.3113739  79.9056388  30.3190974  88.7835101  79.1709147  30.0064212
  88.8101242  80.6831064  30.0730943  94.2906585  78.1005408  35.4358021
  93.6330259  78.7904670  35.5238149  95.0946984  78.4901840  35.7792007
  93.1012044  76.4549781  33.4861963  93.6143926  77.0879773  33.9883672
  93.7513268  75.8550977  33.1205323  84.3702054  72.5980515  26.6993471
  83.5339366  72.9355202  27.0202746  84.2306823  72.4629495  25.7620608
  87.4566339  77.7236598  23.3225948  86.5493401  77.4925852  23.5217097
  87.9537371  76.9274217  23.5099929  90.3634418  86.4334105  26.2422634
  89.6896117  86.7365802  26.8507592  90.7500240  87.2363186  25.8928091
  89.5792875  73.9299237  35.7320303  88.6615436  74.1514184  35.5741991
  89.9953018  74.0045547  34.8732010  90.3627922  75.3290652  30.8622983
  91.1099741  75.8412049  30.5530105  90.6319512  75.0074705  31.7227377
  88.6354573  77.8249193  27.8449938  87.7265792  77.5408226  27.9422407
  88.6649656  78.2448272  26.9853244  93.8673840  81.4355782  31.6141105
  93.4136167  80.5946692  31.6706296  93.2367807  82.0717181  31.9515885
  92.3106779  83.2732279  32.5490923  92.6029754  83.8337336  31.8303289
  92.8205400  83.5660840  33.3044082  79.2042743  75.5454707  31.8265140
  79.0067143  74.9524068  31.1016206  78.6489407  75.2406917  32.5441079
  87.1839467  75.4377814  33.9459733  87.2388076  74.4851650  33.8702210
  86.3730669  75.5937253  34.4301031  88.3330660  79.3657937  25.1838016
  87.8950090  78.6493796  24.7243654  89.0741101  79.5934051  24.6223108
  85.1231827  74.0554873  31.7050112  84.3099692  74.3549044  32.1115304
  85.6190821  73.6610562  32.4224594  87.2740404  84.0512630  33.6384377
  87.2316583  84.2773477  32.7092909  88.1903103  83.8176005  33.7870178
  96.4503775  77.6415134  31.2414335  96.3121674  77.8316730  30.3135524
  96.0939994  78.4034516  31.6982386  96.4773155  79.7091661  36.2525606
  96.9109661  79.6166950  37.1008660  97.1904736  79.6849161  35.6145622
  85.3906205  80.9275659  33.4346339  86.1846804  80.4325979  33.2328914
  84.6797898  80.3993522  33.0714045  90.2101050  83.3093755  37.7858707
  90.2638072  83.8784691  38.5536423  89.3415831  83.4795640  37.4212744
  81.6988969  75.0718741  29.5106092  80.7686557  75.0103196  29.7276054
  81.7946441  74.5494694  28.7142733  97.3388704  79.7515361  38.7858492
  97.5324594  80.6561172  39.0317767  97.2389323  79.2922780  39.6197077
  92.4003813  79.9022104  44.3599372  92.2489319  79.6732656  43.4429456
  92.3908493  80.8592705  44.3730717  89.1689149  77.4754017  39.3445639
  90.0981209  77.6265176  39.1714606  88.7480179  77.5638038  38.4894285
  87.9677481  81.5004681  37.1144176  87.8288567  81.1323466  37.9870114
  87.1792077  82.0152321  36.9428134  88.5625633  86.6013778  28.4569713
  88.7377389  86.1301821  29.2715336  87.8758421  87.2279544  28.6850974
  89.5182696  80.8786284  34.5033014  89.1832529  80.8387054  35.3990664
  89.0186642  80.2131000  34.0303424  83.4926940  76.2853914  40.0285595
  83.3546738  75.5534153  40.6297134  84.4031864  76.1962814  39.7469783
  92.4541888  78.2242318  24.7770074  91.8371059  77.4989146  24.6803126
  91.9858377  78.9851679  24.4337148  86.1209241  75.9973873  39.5169275
  86.8308860  75.3567065  39.4755893  86.0778549  76.2486768  40.4395456
  94.1096020  82.9341227  42.4375854  94.0508566  82.2500447  41.7706437
  94.5115538  83.6760217  41.9856480  83.1286719  89.7503140  35.2309573
  83.3683317  90.3821665  35.9088592  82.2855915  89.3991180  35.5174932
  84.2440434  72.4427743  23.8991378  83.3669900  72.3216543  23.5353625
  84.7198187  71.6513821  23.6470267  94.1113427  80.8980811  40.6689834
  93.2240206  80.5606732  40.7916233  94.6811978  80.1663842  40.9058599
  75.7642574  77.2304902  33.9932885  76.4513614  76.9166632  33.4053901
  75.6090703  78.1346267  33.7200137  87.6414580  85.5582263  37.6351077
  87.5684752  86.3637234  38.1470382  87.1991973  85.7574229  36.8099098
  87.4304360  84.7954033  31.1453899  86.6471882  85.3375713  31.2392123
  88.1297105  85.3128013  31.5448140  98.5930768  76.3089028  35.4306395
  98.5820644  77.1913743  35.0600329  97.7248147  75.9560579  35.2360933
  90.1013264  85.4569097  39.7909236  90.8141236  86.0916562  39.7185137
  89.6103293  85.5532963  38.9749238  91.8230791  79.3620350  31.3626527
  90.8887070  79.4821812  31.1931232  92.0007459  78.4592816  31.0986537
  87.3235979  72.7466045  33.5159789  86.9533766  72.1937086  34.2040694
  87.8195071  72.1424179  32.9634789  95.2103342  75.2037669  31.8976562
  95.6763794  76.0365660  31.8236864  95.6610843  74.7382650  32.6021820
  85.1525177  83.2063540  40.6114807  85.8534637  83.8400023  40.7644201
  84.6820292  83.5478272  39.8510446  93.2779573  81.5481490  28.8962714
  93.5539417  81.4338085  29.8056588  92.4084072  81.1498975  28.8574887
  89.9133637  85.7967841  32.5395527  90.0956032  84.9789497  33.0023279
  90.7366623  86.0135533  32.1020417  90.2475803  84.7236026  29.8010576
  90.7763569  84.2128481  29.1880738  90.5104022  84.4078556  30.6656109
  89.0014036  76.5027959  44.9233394  88.3254673  76.4022088  45.5935769
  89.8241670  76.3467173  45.3869391  80.7492895  82.7399895  37.5445909
  81.3346332  81.9943583  37.6773813  80.5517734  83.0503852  38.4282573
  83.6031551  85.7751143  32.5608352  82.9341926  86.2597270  32.0772392
  83.4644420  86.0220363  33.4751730  75.3410550  75.3105496  36.2650352
  75.3794650  74.7769086  37.0587470  74.8350843  74.7840701  35.6461330
  87.7436819  87.8094886  39.1591010  88.2955127  87.9726508  39.9240095
  88.0843013  88.3999324  38.4871035  92.5947694  82.6356144  45.0139664
  93.1387598  83.2486102  44.5194619  92.0134538  83.1935722  45.5306677
  78.9719128  74.0369598  29.3404284  79.2672569  73.1280276  29.2871337
  78.0707164  74.0157337  29.0185286  90.8805207  85.7576862  36.1454692
  90.7556346  84.9566602  35.6365638  91.5384298  86.2523055  35.6568662
  92.9440115  83.5585882  37.7734242  91.9970450  83.4391233  37.7012569
  93.2922888  82.6708380  37.8560504  80.7006969  71.7183695  29.4643609
  80.3719676  70.8381074  29.2818715  81.0546340  71.6631364  30.3519998
  89.9486548  83.3538598  33.9738594  89.8011511  82.4255306  34.1546164
  90.7740042  83.3758689  33.4895670  93.5520670  84.1767157  35.0603467
  94.4767218  83.9710018  34.9227918  93.3835973  83.9283558  35.9692809
  85.8016940  70.5031287  28.0312379  86.5225302  70.8812540  27.5276096
  85.1782244  71.2220164  28.1347357  84.6847284  74.1662149  35.5441456
  84.5391865  74.4802452  36.4365738  84.2072488  74.7847049  34.9912355
  93.3415986  84.6952824  30.4165559  93.5152864  84.1299247  29.6639411
  93.8344878  85.4953719  30.2345049  79.1592946  76.7067493  38.4829117
  78.6146414  77.4827301  38.6149392  80.0372296  77.0538298  38.3248239
  99.1955377  77.4589247  32.0355858  99.6386524  76.7096573  31.6374982
  98.3181888  77.4499384  31.6529590  94.3291159  84.0119589  27.5162457
  95.0242063  84.6326281  27.7349772  94.6714309  83.1614940  27.7914835
  96.2282582  81.4619294  29.0449788  96.7533906  81.8006567  28.3199108
  96.1404934  80.5266310  28.8612922  87.8902631  85.3753368  41.1739664
  88.1989757  85.1302515  42.0462364  88.6878113  85.5800006  40.6858535
  87.9123243  87.5291278  33.4045041  87.4728233  87.0367656  34.0977898
  88.6631360  86.9864245  33.1637116  80.3915582  83.7202818  33.4069669
  81.2173602  83.4206590  33.0268312  80.0409634  82.9510441  33.8559458
  85.3597115  83.0729287  35.4767343  84.7377124  82.4099992  35.1769570
  86.0301982  83.0990419  34.7940990  78.5924187  81.6389145  34.3658603
  77.7556095  81.2111319  34.1842604  78.5647832  81.8321588  35.3029394
  95.9176488  82.0952198  44.3500986  95.1272032  82.0776337  43.8105485
  95.6809843  82.6340492  45.1050022  96.0374363  78.9444664  41.6633714
  96.0872368  78.7794672  42.6049237  95.9288286  78.0771923  41.2731595
  84.9210622  81.6233210  28.9525803  85.0698742  82.3068674  28.2992476
  85.7277065  81.6038300  29.4675259  97.5392560  81.3641606  41.9075736
  97.2477368  81.7271586  42.7439197  96.9264691  80.6508614  41.7289068
  98.7388242  78.9294486  34.4278306  99.5735134  79.3684290  34.5915866
  98.8747371  78.4533139  33.6086552  95.7879748  76.4874220  40.3755794
  96.2633870  76.6801867  39.5674645  94.8645313  76.5433406  40.1299177
  82.6763255  77.6498388  29.9586872  82.4309297  76.7460718  30.1567082
  82.8459169  77.6515538  29.0166350  81.9458902  73.3826745  27.4573033
  81.2528147  73.4571100  26.8013069  81.7010654  72.6187089  27.9794550
  88.4206027  84.1181340  26.4237550  87.8479994  84.7371528  25.9708022
  88.9938821  84.6680702  26.9577472  91.6403287  84.4018491  27.5546133
  92.5733960  84.3364052  27.7579008  91.5526500  85.2374757  27.0960665
  94.2691304  83.7184361  24.5150080  94.1904935  83.3844225  25.4085838
  95.0900971  84.2106129  24.5141553  96.9669495  76.5846100  37.7226399
  96.9345815  75.6462101  37.9086083  97.5770119  76.6630137  36.9892224
  88.8052826  75.4542153  23.7653603  89.7511930  75.3248361  23.8342021
  88.4267071  74.7156815  24.2423031 102.7846045  77.6462107  36.8632436
 103.5149433  77.3847395  37.4240139 102.1752990  76.9090829  36.9034504
 100.8661342  75.7869970  37.4606887 100.1394505  75.6525935  36.8523379
 100.4508629  76.0946798  38.2663605  88.6891518  79.5059899  45.2254260
  89.6094528  79.6838498  45.4194306  88.6541101  78.5615945  45.0733959
  86.9895743  73.3792130  23.7008488  86.0827198  73.0825242  23.7771202
  87.2671724  73.0821948  22.8342774  77.9073683  74.6998493  34.1507535
  77.5876468  73.8463801  33.8581909  77.3607111  74.9147071  34.9065502
  81.6853591  77.4160934  37.8677041  81.9039601  78.3478042  37.8865075
  82.0979365  77.0568908  38.6531845  85.7594528  70.2379065  23.8420467
  86.6213692  70.5633963  24.1016285  85.9444872  69.4510561  23.3293533
  77.7761943  78.3201404  36.1200656  77.0825415  77.9055357  35.6070611
  78.5234934  78.3621941  35.5234075  79.6898686  78.2519658  33.9966671
  79.6669374  78.3507346  33.0448554  79.9999322  79.0984809  34.3183837
  82.3486064  80.3095813  38.1113285  83.3029317  80.2779756  38.0443217
  82.1498587  79.8486437  38.9263511  82.9385446  78.8796929  40.6784083
  83.7578335  79.3741008  40.7018920  83.2122254  77.9628897  40.6501651
  96.0466578  71.2954203  33.7566378  96.8226968  71.7850655  34.0290995
  95.3214712  71.7212257  34.2138247  98.4839137  72.0081822  34.8140319
  99.0783628  71.7677558  34.1033627  98.5565720  71.2888952  35.4413855
  80.7036292  85.8515433  35.1283483  80.5690760  85.0915834  34.5621481
  80.2868355  86.5756333  34.6612272  91.8395255  81.0352356  24.1360059
  92.5431106  81.2402359  24.7517714  91.1157904  81.6029118  24.4009142
  92.6693066  76.7862218  30.2562329  92.6128267  77.2430769  29.4169961
  93.2221408  76.0252902  30.0785172  96.4797872  72.5751949  31.0812448
  96.2234806  72.1748585  31.9120656  95.8550740  73.2895743  30.9562587
 100.7910210  75.3148023  33.5883740 100.2309768  75.3841212  34.3615302
 100.1853713  75.1389007  32.8683236  83.8605418  86.7484750  35.3401926
  83.7437803  87.6930182  35.2380616  83.0397865  86.4458311  35.7287725
  93.7481953  81.4734886  26.1858519  94.5827557  81.0416084  26.0035994
  93.5866296  81.3016899  27.1135413  93.4027845  77.9766999  27.5514858
  93.3476649  77.8111270  26.6103302  92.7773900  78.6843032  27.7077048
  90.7173752  80.2815911  46.8768421  91.5864912  80.4556563  46.5155056
  90.2380504  81.1010328  46.7544150  86.7123971  67.4775108  27.1300176
  86.7002640  68.4216948  27.2868447  87.6047392  67.2945253  26.8359638
  84.8859932  87.4013012  38.5557854  85.7887179  87.4336622  38.8724349
  84.6597303  86.4713463  38.5704190  86.6413535  86.1543998  35.2167933
  85.6909166  86.1545860  35.1032305  86.9446021  85.4076733  34.7003968
 102.3766228  91.9904537  36.2813695 103.0144638  91.8711284  35.5777036
 102.2587071  92.9385381  36.3401648  99.1855934  91.9431965  36.2175220
  98.8474446  91.8273029  35.3295755 100.0545702  91.5423130  36.1976226
  95.0442750  93.7967441  32.2072111  94.4807615  93.7057378  31.4388399
  94.9295145  92.9767346  32.6874604  99.6675717  93.0966816  42.1761426
  99.6564358  92.7019615  41.3041929  99.8296357  92.3632889  42.7695197
  92.5907182  95.2918633  35.0456332  93.3828474  94.9509457  34.6302631
  92.8303832  95.4013608  35.9658485 100.6242309  97.4638409  27.5186576
  99.9730288  98.0492489  27.1320590 101.4186671  97.9944604  27.5781613
  94.5497936  94.5527546  27.9173710  95.3228812  94.0056533  27.7786586
  94.9023335  95.4171795  28.1288172  96.3882978  95.8803928  41.1240610
  96.0972844  96.7849559  41.0087276  97.0239963  95.9220456  41.8384679
  97.3139185  93.2580777  37.7141969  97.9102758  93.0336799  36.9998932
  97.3714157  92.5165522  38.3167417  96.8864214  90.7120212  25.5492160
  97.1389734  90.1901733  24.7875623  95.9488773  90.5486358  25.6518844
 101.9307496  89.7155990  33.3566903 102.7170586  89.2975414  33.0057321
 102.1946201  90.6202083  33.5248552 102.1017574  95.1528841  28.0555560
 101.4663407  95.2263467  28.7676465 101.7714980  95.7422440  27.3774640
 107.3315924  89.6531224  34.2599882 108.0641096  89.0830440  34.4937711
 106.5755279  89.2652824  34.7006388  96.6060502  92.6148318  27.7516535
  96.4896760  91.9393221  28.4197620  96.7162762  92.1280692  26.9348688
  98.9492043  92.0758465  31.4563224  98.5850251  91.5489086  32.1676146
  99.8059159  91.6856934  31.2829710 104.8541344  83.3652798  38.7194491
 104.5224669  84.2348209  38.4955706 104.2586957  83.0489082  39.3988521
  98.5897530  87.1048365  26.4524573  98.7571933  87.9728601  26.8195044
  98.3994699  87.2675647  25.5285862 101.3472863  95.5665344  38.1190403
 101.0473587  96.4690383  38.0106211 101.0023923  95.2997527  38.9711556
  94.7985345  92.0179141  34.1527108  93.8735841  91.8855355  34.3604800
  95.0469758  92.7973360  34.6497050 104.7470007  88.0847884  35.7987841
 103.8386885  88.0163292  35.5046602 104.6957603  88.5619829  36.6269666
  98.5686751  89.5606022  27.4371240  98.4486376  90.0063073  28.2756720
  97.8739340  89.9091340  26.8784778  92.1594156  91.6612414  34.9870897
  92.2886537  91.9146893  35.9010309  91.4791607  92.2540122  34.6675552
  96.3293643 102.3309664  31.0861371  96.2517673 103.2817489  31.1649852
  95.7255287 101.9855537  31.7436297  98.8210873  89.5037530  43.7422738
  98.0444207  90.0631450  43.7325603  99.4601436  89.9894313  44.2637608
 106.6131654  86.2864322  37.5765715 105.9706034  86.5796856  36.9305509
 106.1086582  86.1717243  38.3818911 104.2671817  90.0327496  28.2651574
 105.1789673  90.2654882  28.0899271 103.7581464  90.6164540  27.7026652
  97.0757245  92.3122983  43.3040705  97.8171930  92.8508027  43.0275529
  96.3694231  92.9389272  43.4612257 102.5512585  94.4552123  41.9012866
 102.9595941  94.0134534  41.1567499 101.8289847  93.8804751  42.1547059
  98.9043655  89.3924730  39.2746423  99.7504850  89.8164144  39.4181072
  98.8442293  88.7358354  39.9684986 102.8741400  95.0153314  35.6565155
 102.2450262  95.1799028  34.9541223 102.4867062  95.4294924  36.4276119
 106.7530632  95.9507752  33.0109519 106.0681670  96.3306653  32.4606552
 106.8374481  96.5603079  33.7441467 102.0543100  87.0529099  40.9327597
 101.8104032  87.8071159  40.3961873 102.3303031  87.4314446  41.7674844
 104.0081563  93.5967711  39.6104863 104.2198458  94.2399471  38.9339244
 103.9611311  92.7630027  39.1426793 101.6107792  86.2085532  36.5141435
 100.7492271  86.5066785  36.8058172 101.6370227  86.4255930  35.5822467
  98.4269362  94.7527722  32.9215240  98.8907707  95.0315425  32.1319863
  98.1626160  93.8511167  32.7388331  95.3193443  94.2999204  35.8595004
  95.8894800  94.7286472  35.2212488  95.9101554  94.0181788  36.5579189
  97.3638248  90.8750874  29.7304806  98.0662291  91.3271918  30.1978732
  97.0318876  90.2334693  30.3584699  95.8118609  89.4662631  44.1056015
  95.1817270  90.1478912  44.3391412  95.7054697  89.3545713  43.1609153
  91.1063582  89.1334427  35.0321939  90.3162636  89.3891956  34.5562050
  91.5974829  89.9482765  35.1373980 105.1227391  96.4739666  37.7827220
 105.9444835  96.0719854  37.5009902 105.1189794  96.3707900  38.7343336
  93.0578327  89.4979006  31.9905416  92.2609490  89.6097701  32.5088911
  92.8303919  89.8365659  31.1246306  98.8883995  96.0223710  39.9387930
  98.9528427  96.4844117  40.7746102  98.1794918  95.3921075  40.0670240
  89.3901285  89.3864918  37.4636930  89.6409323  90.2711927  37.7294506
  89.9260833  89.2069519  36.6912022 113.2133384  92.8178415  34.1312191
 112.4597093  92.2485813  33.9756196 113.3480925  92.7841079  35.0782826
  98.6032012  97.6891817  29.8066911  98.4677687  98.5343353  30.2351759
  99.1441825  97.8911095  29.0432845  95.0899352  83.7683397  46.4681266
  94.6966297  83.2149595  47.1428910  95.9065492  84.0793975  46.8587784
  92.0561410  95.2067255  30.3794836  92.5685930  96.0010505  30.5300401
  92.7084122  94.5093546  30.3128437  93.8656294  98.3233011  32.4617589
  94.0422923  99.2450976  32.2738573  94.6613128  98.0091431  32.8911969
  98.0067313  85.1841276  44.0601523  98.7477026  85.7848429  43.9805985
  98.2385236  84.4418914  43.5019565  93.1508651  90.3697643  42.3379752
  93.0362166  89.4682901  42.6386851  92.2953169  90.6161340  41.9864569
 100.2300489  98.3115384  43.9367253  99.7864343  97.5251762  43.6188157
 100.8917702  98.4994534  43.2711144  94.9887610  99.8411185  38.4627931
  95.5395035  99.7128249  37.6904925  94.1499086 100.1406074  38.1122824
 102.3281727  98.5918184  41.9648654 102.3100202  99.4127065  41.4728923
 103.2501647  98.4672259  42.1898795  98.7854781  96.1062313  42.8072162
  99.3183118  95.3450601  42.5771470  98.2568862  95.8135965  43.5496317
 101.9524476  81.2122379  38.3365804 101.6088745  82.1024021  38.2604915
 102.3203438  81.0224037  37.4735389  90.0210326  93.5355909  31.1554406
  90.8585548  93.9452918  30.9388114  90.1988594  92.5955352  31.1254600
 101.9174758  91.2030990  26.8438239 101.4021382  91.9735595  27.0826627
 101.6452067  90.5296126  27.4671301  99.5021870  86.0480691  31.9023478
  98.6463466  85.6587541  31.7229116  99.9148821  86.1272652  31.0423263
 101.0321016  83.5827034  36.3015037 100.5285812  83.5457169  35.4882843
 101.3251623  84.4919777  36.3611694  97.2763902  83.6665764  35.3081219
  98.1416899  83.4708573  34.9487109  97.3441411  83.4376116  36.2350576
 106.8909033  93.9563345  28.7791413 106.1138475  93.6174504  28.3346575
 107.5700514  93.9615968  28.1046378 101.7061062  89.0758082  28.6698021
 101.4011197  89.3904231  29.5208164 102.6591504  89.1539502  28.7125354
 100.1507494  95.2348305  30.3190974  99.6228855  94.5001065  30.0064212
  99.6494996  96.0122982  30.0730943 105.1300340  93.4297326  35.4358021
 104.4724014  94.1196587  35.5238149 105.9340739  93.8193758  35.7792007
  94.8826221  85.8967972  32.6797586  95.4569973  85.6743153  31.9470779
  95.4697204  85.9656666  33.4326187 103.9405798  91.7841699  33.4861963
 104.4537680  92.4171691  33.9883672 104.5907022  91.1842894  33.1205323
  95.2095808  87.9272433  26.6993471  94.3733120  88.2647119  27.0202746
  95.0700578  87.7921413  25.7620608  97.1848889  82.7709221  31.4072655
  96.5313301  82.4558238  30.7829270  97.1429363  82.1484961  32.1332478
  98.2960094  93.0528516  23.3225948  97.3887155  92.8217769  23.5217097
  98.7931126  92.2566135  23.5099929 100.4186629  89.2591154  35.7320303
  99.5009191  89.4806101  35.5741991 100.8346773  89.3337465  34.8732010
 101.2021677  90.6582570  30.8622983 101.9493496  91.1703967  30.5530105
 101.4713267  90.3366623  31.7227377  99.4748327  93.1541111  27.8449938
  98.5659546  92.8700143  27.9422407  99.5043411  93.5740189  26.9853244
 104.7067595  96.7647700  31.6141105 104.2529922  95.9238610  31.6706296
 104.0761561  97.4009098  31.9515885 103.6500514  87.6939686  32.8441773
 102.9123271  87.1817072  33.1752015 103.9027288  87.2540068  32.0325050
 103.1500534  98.6024197  32.5490923 103.4423508  99.1629254  31.8303289
 103.6599154  98.8952758  33.3044082 103.7512141  80.4715938  33.4383542
 104.0571018  79.6113302  33.1509457 104.4764746  81.0633558  33.2382536
  90.0436498  90.8746625  31.8265140  89.8460897  90.2815985  31.1016206
  89.4883162  90.5698835  32.5441079  98.0233221  90.7669731  33.9459733
  98.0781831  89.8143568  33.8702210  97.2124423  90.9229170  34.4301031
  99.1724415  94.6949854  25.1838016  98.7343845  93.9785713  24.7243654
  99.9134856  94.9225969  24.6223108  95.9625581  89.3846791  31.7050112
  95.1493447  89.6840962  32.1115304  96.4584575  88.9902480  32.4224594
  98.1134159  99.3804548  33.6384377  98.0710338  99.6065394  32.7092909
  99.0296858  99.1467922  33.7870178 101.5599793  89.8488615  40.5365006
 101.9149180  90.0760089  41.3959471 102.2071924  90.1806992  39.9142261
 107.2897530  92.9707051  31.2414335 107.1515428  93.1608647  30.3135524
 106.9333749  93.7326434  31.6982386  95.4539656  86.9565146  37.3211347
  96.0939035  86.8153906  36.6234310  94.6217186  86.6699660  36.9449949
 107.3166909  95.0383578  36.2525606 107.7503416  94.9458867  37.1008660
 108.0298490  95.0141079  35.6145622  96.2299960  96.2567577  33.4346339
  97.0240558  95.7617897  33.2328914  95.5191652  95.7285440  33.0714045
 101.0494804  98.6385672  37.7858707 101.1031827  99.2076609  38.5536423
 100.1809586  98.8087557  37.4212744  92.5382723  90.4010659  29.5106092
  91.6080311  90.3395114  29.7276054  92.6340195  89.8786611  28.7142733
  92.4568272  86.9265471  32.0984334  92.7175090  87.8410805  31.9893494
  93.2785445  86.4589914  32.2480946  93.9293198  88.3403229  39.2683158
  94.6016251  88.1320591  38.6195807  93.1022984  88.1425315  38.8288390
 108.1782459  95.0807279  38.7858492 108.3718349  95.9853089  39.0317767
 108.0783077  94.6214698  39.6197077  99.8318770  84.9665170  41.2848819
  99.1846685  85.6655119  41.1913295 100.6019785  85.4001313  41.6525067
 103.2397568  95.2314022  44.3599372 103.0883074  95.0024573  43.4429456
 103.2302247  96.1884623  44.3730717 100.0082904  92.8045934  39.3445639
 100.9374964  92.9557094  39.1714606  99.5873934  92.8929955  38.4894285
  98.8071236  96.8296599  37.1144176  98.6682321  96.4615383  37.9870114
  98.0185832  97.3444238  36.9428134  99.4019388 101.9305695  28.4569713
  99.5771143 101.4593739  29.2715336  98.7152176 102.5571462  28.6850974
 100.3576451  96.2078202  34.5033014 100.0226284  96.1678972  35.3990664
  99.8580397  95.5422918  34.0303424  94.3320695  91.6145832  40.0285595
  94.1940493  90.8826070  40.6297134  95.2425618  91.5254732  39.7469783
 103.2935643  93.5534236  24.7770074 102.6764813  92.8281064  24.6803126
 102.8252131  94.3143596  24.4337148  96.9602996  91.3265791  39.5169275
  97.6702614  90.6858983  39.4755893  96.9172304  91.5778686  40.4395456
 104.9489774  98.2633144  42.4375854 104.8902320  97.5792364  41.7706437
 105.3509293  99.0052134  41.9856480  95.6731930  88.3131009  41.3364914
  95.1369287  87.8621747  41.9886511  95.0848638  88.4476918  40.5935379
  93.9680473 105.0795058  35.2309573  94.2077071 105.7113582  35.9088592
  93.1249669 104.7283098  35.5174932  95.0834188  87.7719660  23.8991378
  94.2063655  87.6508461  23.5353625  95.5591942  86.9805739  23.6470267
 104.9507181  96.2272728  40.6689834 104.0633960  95.8898650  40.7916233
 105.5205733  95.4955759  40.9058599  86.6036329  92.5596820  33.9932885
  87.2907368  92.2458550  33.4053901  86.4484457  93.4638185  33.7200137
  91.4071051  87.4487017  38.4217909  91.3229239  86.8412686  37.6868319
  90.5853757  87.9396035  38.4227405  98.4808335 100.8874181  37.6351077
  98.4078506 101.6929152  38.1470382  98.0385728 101.0866146  36.8099098
  98.2698114 100.1245951  31.1453899  97.4865636 100.6667631  31.2392123
  98.9690860 100.6419930  31.5448140 101.5794765  85.9340580  33.7888104
 102.0763464  85.1810542  33.4689174 100.8081746  85.9704897  33.2231313
 109.4324522  91.6380946  35.4306395 109.4214398  92.5205661  35.0600329
 108.5641901  91.2852496  35.2360933 100.9407018 100.7861015  39.7909236
 101.6534991 101.4208479  39.7185137 100.4497047 100.8824881  38.9749238
 102.6624545  94.6912267  31.3626527 101.7280824  94.8113730  31.1931232
 102.8401214  93.7884734  31.0986537  98.1629733  88.0757963  33.5159789
  97.7927521  87.5229003  34.2040694  98.6588826  87.4716097  32.9634789
 106.0497097  90.5329587  31.8976562 106.5157549  91.3657578  31.8236864
 106.5004597  90.0674568  32.6021820  95.9918932  98.5355458  40.6114807
  96.6928391  99.1691941  40.7644201  95.5214047  98.8770190  39.8510446
 104.1173328  96.8773408  28.8962714 104.3933172  96.7630002  29.8056588
 103.2477826  96.4790893  28.8574887 104.0213759  82.9010174  35.9367463
 103.1076839  83.1314400  36.1049670 104.4506861  82.9848618  36.7881495
 103.7920218  91.0900066  38.4367357 103.1391668  91.3375973  37.7819810
 104.1700598  90.2764204  38.1029834 100.7527392 101.1259759  32.5395527
 100.9349786 100.3081415  33.0023279 101.5760378 101.3427451  32.1020417
 101.0869557 100.0527944  29.8010576 101.6157324  99.5420398  29.1880738
 101.3497777  99.7370474  30.6656109  99.8407791  91.8319877  44.9233394
  99.1648428  91.7314006  45.5935769 100.6635425  91.6759090  45.3869391
  91.5886650  98.0691813  37.5445909  92.1740087  97.3235501  37.6773813
  91.3911488  98.3795770  38.4282573  94.4425305 101.1043061  32.5608352
  93.7735680 101.5889188  32.0772392  94.3038175 101.3512281  33.4751730
  86.1804305  90.6397413  36.2650352  86.2188404  90.1061004  37.0587470
  85.6744598  90.1132619  35.6461330  98.5830574 103.1386804  39.1591010
  99.1348882 103.3018426  39.9240095  98.9236767 103.7291242  38.4871035
  93.5595067  85.4861954  39.7612895  93.6236394  86.3476785  39.3490292
  93.4962187  84.8735955  39.0285253  93.0347340  87.5585086  43.4085929
  93.6619378  87.1762164  44.0223453  92.1775258  87.3399288  43.7741621
 103.4341448  97.9648062  45.0139664 103.9781352  98.5778020  44.5194619
 102.8528293  98.5227640  45.5306677  89.8112882  89.3661515  29.3404284
  90.1066323  88.4572194  29.2871337  88.9100918  89.3449255  29.0185286
 101.7198961 101.0868780  36.1454692 101.5950101 100.2858519  35.6365638
 102.3778052 101.5814973  35.6568662  93.3407129  87.4417512  35.3231832
  92.6193715  88.0553480  35.1839306  94.1300385  87.9775277  35.2448478
 103.7833869  98.8877800  37.7734242 102.8364205  98.7683151  37.7012569
 104.1316643  98.0000298  37.8560504  96.1433443  84.7771939  41.5972484
  96.6667845  85.0234235  42.3598793  95.9245776  85.6091973  41.1775621
  91.5400724  87.0475613  29.4643609  91.2113430  86.1672992  29.2818715
  91.8940095  86.9923282  30.3519998 100.7880303  98.6830516  33.9738594
 100.6405265  97.7547223  34.1546164 101.6133796  98.7050607  33.4895670
  94.6542547  87.3348583  29.8319087  94.9938620  87.8634504  29.1097695
  95.1014668  87.6728989  30.6077653 104.3914425  99.5059075  35.0603467
 105.3160972  99.3001936  34.9227918 104.2229728  99.2575476  35.9692809
  97.3485988  85.7185634  39.2822155  97.0082808  84.9193447  39.6842834
  96.6424994  86.0187345  38.7098988  98.0002460  82.8034946  37.7349478
  98.8228529  82.3295424  37.6128368  98.2440523  83.5825430  38.2348164
  96.6410694  85.8323205  28.0312379  97.3619057  86.2104457  27.5276096
  96.0175998  86.5512081  28.1347357 100.7841817  86.5368354  28.9670712
 101.0005431  87.4192991  28.6659540 100.3035884  86.1454567  28.2376354
  95.5241038  89.4954067  35.5441456  95.3785619  89.8094370  36.4365738
  95.0466242  90.1138967  34.9912355  97.3837421  86.4856615  35.5922346
  97.3698990  85.5897708  35.2554644  98.1009849  86.4927278  36.2260632
  99.2363552  86.9193955  37.6375473  98.9781330  87.8411026  37.6359804
  98.7048592  86.5224389  38.3275937 104.1809741 100.0244742  30.4165559
 104.3546618  99.4591165  29.6639411 104.6738632 100.8245637  30.2345049
  89.9986701  92.0359411  38.4829117  89.4540169  92.8119219  38.6149392
  90.8766050  92.3830216  38.3248239  96.7874317  85.3670995  30.8609916
  96.9090228  84.4387641  31.0600803  96.4976360  85.3809681  29.9488231
  99.6565508  83.0525905  33.9976636  99.6787204  83.1165239  33.0428615
 100.0733567  82.2130414  34.1917142 110.0349132  92.7881165  32.0355858
 110.4780278  92.0388490  31.6374982 109.1575642  92.7791301  31.6529590
 105.1684913  99.3411506  27.5162457 105.8635818  99.9618199  27.7349772
 105.5108063  98.4906858  27.7914835  90.7852722  91.1629307  41.3759274
  90.0434459  91.3111943  41.9623905  90.4645467  91.4237573  40.5126024
 107.0676336  96.7911212  29.0449788 107.5927661  97.1298485  28.3199108
 106.9798689  95.8558227  28.8612922  98.7296385 100.7045286  41.1739664
  99.0383512 100.4594432  42.0462364  99.5271867 100.9091924  40.6858535
  98.7516997 102.8583195  33.4045041  98.3121987 102.3659574  34.0977898
  99.5025114 102.3156163  33.1637116  91.2309336  99.0494736  33.4069669
  92.0567356  98.7498508  33.0268312  90.8803388  98.2802359  33.8559458
  96.1990869  98.4021204  35.4767343  95.5770879  97.7391909  35.1769570
  96.8695736  98.4282336  34.7940990  89.4317941  96.9681063  34.3658603
  88.5949850  96.5403237  34.1842604  89.4041587  97.1613506  35.3029394
  96.2715397  86.8802992  45.0699849  96.3203552  87.7565115  44.6877618
  96.8137911  86.3380385  44.4971492 106.7570242  97.4244116  44.3500986
 105.9665786  97.4068254  43.8105485 106.5203597  97.9632409  45.1050022
 106.8768118  94.2736582  41.6633714 106.9266122  94.1086589  42.6049237
 106.7682041  93.4063841  41.2731595  95.7604376  96.9525128  28.9525803
  95.9092497  97.6360592  28.2992476  96.5670820  96.9330218  29.4675259
 104.1671880  90.2567510  42.9793021 105.0681743  90.1173975  42.6877019
 104.2419854  90.4221965  43.9191198  98.5014685  87.6334365  41.8246207
  97.6317995  87.9267931  41.5528796  98.7374166  88.2174810  42.5453471
 108.3786314  96.6933524  41.9075736 108.0871123  97.0563504  42.7439197
 107.7658446  95.9800532  41.7289068 109.5781997  94.2586403  34.4278306
 110.4128888  94.6976207  34.5915866 109.7141125  93.7825056  33.6086552
 106.6273503  91.8166138  40.3755794 107.1027624  92.0093784  39.5674645
 105.7039068  91.8725324  40.1299177  93.5157009  92.9790305  29.9586872
  93.2703051  92.0752635  30.1567082  93.6852924  92.9807456  29.0166350
 101.2053719  83.8513982  39.3411628 101.7235663  84.5875009  39.0158116
 100.8508852  84.1577975  40.1758387  92.7852657  88.7118663  27.4573033
  92.0921902  88.7863018  26.8013069  92.5404409  87.9479007  27.9794550
 101.4566313  80.2714264  34.8612524 101.7368067  79.6037453  35.4872951
 102.2416920  80.4643360  34.3487188  99.2599782  99.4473258  26.4237550
  98.6873749 100.0663445  25.9708022  99.8332575  99.9972620  26.9577472
 105.3275172  88.6931898  38.6084099 106.2792594  88.7929996  38.6296323
 105.1578622  87.9010167  39.1182184 103.3489551  85.7787481  38.7943500
 102.7539483  86.0592494  38.0989989 103.0639248  86.2681382  39.5660241
 102.4797042  99.7310408  27.5546133 103.4127715  99.6655970  27.7579008
 102.3920254 100.5666675  27.0960665 107.8063249  91.9138018  37.7226399
 107.7739569  90.9754019  37.9086083 108.4163873  91.9922055  36.9892224
  99.6446580  90.7834071  23.7653603 100.5905685  90.6540279  23.8342021
  99.2660825  90.0448733  24.2423031 107.9557738  88.7049061  37.7684682
 107.4396787  87.9207518  37.5814611 108.8397686  88.3767778  37.9331202
 105.6168465  82.4490077  33.7280495 105.4193286  82.1405165  34.6123827
 106.2268170  83.1751716  33.8578425 113.6239799  92.9754025  36.8632436
 114.3543188  92.7139313  37.4240139 113.0146745  92.2382747  36.9034504
 111.7055096  91.1161887  37.4606887 110.9788260  90.9817852  36.8523379
 111.2902383  91.4238716  38.2663605  99.5285273  94.8351817  45.2254260
 100.4488282  95.0130416  45.4194306  99.4934856  93.8907862  45.0733959
  97.8289497  88.7084047  23.7008488  96.9220953  88.4117160  23.7771202
  98.1065478  88.4113865  22.8342774  88.7467438  90.0290411  34.1507535
  88.4270222  89.1755719  33.8581909  88.2000866  90.2438989  34.9065502
  92.5247345  92.7452852  37.8677041  92.7433355  93.6769959  37.8865075
  92.9373119  92.3860826  38.6531845  99.4451563  83.2520937  29.8552730
  98.6352291  82.9068022  30.2307976 100.1335980  82.9428481  30.4440341
 101.3742111  82.3298984  31.4777026 101.9273150  82.7494437  32.1367049
 101.6112198  81.4034732  31.5199982  97.3975211  88.3186057  47.2579790
  97.2971938  89.2680414  47.1891881  97.1796753  87.9904296  46.3855860
  96.5988282  85.5670982  23.8420467  97.4607446  85.8925881  24.1016285
  96.7838626  84.7802478  23.3293533  88.6155698  93.6493322  36.1200656
  87.9219169  93.2347275  35.6070611  89.3628689  93.6913859  35.5234075
 104.7520918  84.4399509  30.9855690 104.1719588  85.0984313  30.6033743
 104.4856851  83.6176854  30.5743108 103.2024485  83.8404567  33.1877011
 103.7024263  83.9521101  32.3791330 103.8460093  83.5365620  33.8277819
  97.2606481  91.7483196  46.0744852  96.7773562  92.5483556  46.2808741
  97.3467420  91.7591141  45.1212296  90.5292440  93.5811576  33.9966671
  90.5063128  93.6799263  33.0448554  90.8393077  94.4276727  34.3183837
  93.1879818  95.6387731  38.1113285  94.1423072  95.6071673  38.0443217
  92.9892342  95.1778355  38.9263511  93.7779200  94.2088847  40.6784083
  94.5972089  94.7032926  40.7018920  94.0516008  93.2920815  40.6501651
 103.5345797  86.5999599  30.0412039 102.6471652  86.8849250  29.8232233
 103.9499786  86.4393363  29.1939316 106.8860333  86.6246120  33.7566378
 107.6620723  87.1142573  34.0290995 106.1608467  87.0504175  34.2138247
 109.3232891  87.3373740  34.8140319 109.9177382  87.0969475  34.1033627
 109.3959475  86.6180870  35.4413855  91.5430047 101.1807350  35.1283483
  91.4084515 100.4207751  34.5621481  91.1262109 101.9048250  34.6612272
 102.6789010  96.3644274  24.1360059 103.3824860  96.5694277  24.7517714
 101.9551659  96.9321036  24.4009142 103.5086820  92.1154135  30.2562329
 103.4522022  92.5722687  29.4169961 104.0615163  91.3544820  30.0785172
 107.3191626  87.9043867  31.0812448 107.0628560  87.5040503  31.9120656
 106.6944494  88.6187661  30.9562587 111.6303964  90.6439940  33.5883740
 111.0703522  90.7133130  34.3615302 111.0247467  90.4680925  32.8683236
  94.6999173 102.0776667  35.3401926  94.5831557 103.0222100  35.2380616
  93.8791619 101.7750229  35.7287725 104.5875707  96.8026803  26.1858519
 105.4221311  96.3708002  26.0035994 104.4260050  96.6308817  27.1135413
 104.2421600  93.3058917  27.5514858 104.1870403  93.1403188  26.6103302
 103.6167655  94.0134949  27.7077048  89.0314115  88.5426981  41.3776280
  89.6772978  88.0325935  41.8663505  88.8231266  89.2795663  41.9519705
 101.5567507  95.6107828  46.8768421 102.4258666  95.7848481  46.5155056
 101.0774258  96.4302245  46.7544150  97.5517725  82.8067026  27.1300176
  97.5396395  83.7508865  27.2868447  98.4441147  82.6237171  26.8359638
  95.7253687 102.7304929  38.5557854  96.6280934 102.7628540  38.8724349
  95.4991057 101.8005380  38.5704190  97.4807289 101.4835916  35.2167933
  96.5302920 101.4837778  35.1032305  97.7839775 100.7368650  34.7003968
 101.3669844  79.4009802  31.3846113 100.6002240  78.8468289  31.5302796
 101.7780549  79.4731671  32.2460265  93.3711606  85.6894598  45.4751294
  94.2343067  85.3331403  45.6854619  92.7977016  85.3508493  46.1626699
 113.2159982 107.3196454  36.2813695 113.8538392 107.2003202  35.5777036
 113.0980825 108.2677298  36.3401648 110.0249689 107.2723882  36.2175220
 109.6868200 107.1564947  35.3295755 110.8939457 106.8715048  36.1976226
 110.5069472 108.4258734  42.1761426 110.4958113 108.0311532  41.3041929
 110.6690111 107.6924807  42.7695197 103.4300936 110.6210550  35.0456332
 104.2222228 110.2801375  34.6302631 103.6697587 110.7305525  35.9658485
 107.2276733 111.2095846  41.1240610 106.9366599 112.1141477  41.0087276
 107.8633717 111.2512374  41.8384679 108.1532940 108.5872694  37.7141969
 108.7496512 108.3628717  36.9998932 108.2107911 107.8457440  38.3167417
 112.7701251 105.0447908  33.3566903 113.5564340 104.6267331  33.0057321
 113.0339955 105.9494000  33.5248552 115.6935098  98.6944715  38.7194491
 115.3618423  99.5640126  38.4955706 115.0980712  98.3780999  39.3988521
 112.1866618 110.8957261  38.1190403 111.8867341 111.7982300  38.0106211
 111.8417677 110.6289445  38.9711556 105.6379099 107.3471058  34.1527108
 104.7129596 107.2147272  34.3604800 105.8863513 108.1265278  34.6497050
 115.5863762 103.4139802  35.7987841 114.6780639 103.3455210  35.5046602
 115.5351358 103.8911747  36.6269666 102.9987910 106.9904332  34.9870897
 103.1280292 107.2438811  35.9010309 102.3185362 107.5832040  34.6675552
 109.6604628 104.8329447  43.7422738 108.8837962 105.3923367  43.7325603
 110.2995191 105.3186230  44.2637608 117.4525408 101.6156240  37.5765715
 116.8099788 101.9088773  36.9305509 116.9480337 101.5009160  38.3818911
 107.9151000 107.6414901  43.3040705 108.6565684 108.1799945  43.0275529
 107.2087985 108.2681189  43.4612257 113.3906339 109.7844041  41.9012866
 113.7989696 109.3426452  41.1567499 112.6683601 109.2096669  42.1547059
 109.7437410 104.7216648  39.2746423 110.5898605 105.1456061  39.4181072
 109.6836047 104.0650272  39.9684986 112.8936855 102.3821016  40.9327597
 112.6497787 103.1363077  40.3961873 113.1696785 102.7606364  41.7674844
 114.8475318 108.9259629  39.6104863 115.0592213 109.5691388  38.9339244
 114.8005066 108.0921945  39.1426793 112.4501547 101.5377449  36.5141435
 111.5886026 101.8358703  36.8058172 112.4763981 101.7547848  35.5822467
 106.1587197 109.6291121  35.8595004 106.7288554 110.0578390  35.2212488
 106.7495309 109.3473706  36.5579189 106.6512364 104.7954549  44.1056015
 106.0211024 105.4770830  44.3391412 106.5448451 104.6837630  43.1609153
 101.9457336 104.4626345  35.0321939 101.1556390 104.7183873  34.5562050
 102.4368583 105.2774683  35.1373980 103.8972081 104.8270924  31.9905416
 103.1003245 104.9389618  32.5088911 103.6697674 105.1657576  31.1246306
 109.7277749 111.3515627  39.9387930 109.7922182 111.8136035  40.7746102
 109.0188673 110.7212992  40.0670240 100.2295039 104.7156835  37.4636930
 100.4803077 105.6003845  37.7294506 100.7654587 104.5361437  36.6912022
 105.9293106  99.0975315  46.4681266 105.5360052  98.5441513  47.1428910
 106.7459247  99.4085893  46.8587784 108.8461067 100.5133194  44.0601523
 109.5870781 101.1140347  43.9805985 109.0778990  99.7710832  43.5019565
 103.9902405 105.6989561  42.3379752 103.8755920 104.7974818  42.6386851
 103.1346923 105.9453258  41.9864569 105.8281364 115.1703103  38.4627931
 106.3788789 115.0420166  37.6904925 104.9892840 115.4697992  38.1122824
 109.6248535 111.4354231  42.8072162 110.1576872 110.6742519  42.5771470
 109.0962616 111.1427883  43.5496317 112.7918230  96.5414297  38.3365804
 112.4482500  97.4315938  38.2604915 113.1597193  96.3515954  37.4735389
 100.8604081 108.8647827  31.1554406 101.6979303 109.2744835  30.9388114
 101.0382349 107.9247269  31.1254600 110.3415624 101.3772609  31.9023478
 109.4857220 100.9879459  31.7229116 110.7542576 101.4564569  31.0423263
 111.8714771  98.9118952  36.3015037 111.3679566  98.8749087  35.4882843
 112.1645378  99.8211695  36.3611694 108.1157657  98.9957682  35.3081219
 108.9810653  98.8000490  34.9487109 108.1835165  98.7668033  36.2350576
 105.7219976 101.2259889  32.6797586 106.2963728 101.0035071  31.9470779
 106.3090958 101.2948584  33.4326187 108.0242643  98.1001138  31.4072655
 107.3707056  97.7850156  30.7829270 107.9823117  97.4776879  32.1332478
 111.2580384 104.5883072  35.7320303 110.3402945 104.8098019  35.5741991
 111.6740527 104.6629382  34.8732010 114.5905896  95.8007856  33.4383542
 114.8964773  94.9405219  33.1509457 115.3158501  96.3925476  33.2382536
 100.8830252 106.2038542  31.8265140 100.6854652 105.6107903  31.1016206
 100.3276916 105.8990753  32.5441079 108.8626976 106.0961649  33.9459733
 108.9175585 105.1435485  33.8702210 108.0518178 106.2521088  34.4301031
 106.8019336 104.7138709  31.7050112 105.9887201 105.0132879  32.1115304
 107.2978330 104.3194397  32.4224594 112.3993547 105.1780533  40.5365006
 112.7542935 105.4052006  41.3959471 113.0465678 105.5098910  39.9142261
 106.2933410 102.2857064  37.3211347 106.9332790 102.1445823  36.6234310
 105.4610941 101.9991578  36.9449949 103.2962027 102.2557389  32.0984334
 103.5568844 103.1702722  31.9893494 104.1179199 101.7881832  32.2480946
 104.7686952 103.6695146  39.2683158 105.4410006 103.4612508  38.6195807
 103.9416739 103.4717232  38.8288390 110.6712524 100.2957087  41.2848819
 110.0240439 100.9947037  41.1913295 111.4413540 100.7293231  41.6525067
 110.8476658 108.1337852  39.3445639 111.7768718 108.2849012  39.1714606
 110.4267688 108.2221873  38.4894285 109.6464990 112.1588517  37.1144176
 109.5076076 111.7907301  37.9870114 108.8579586 112.6736156  36.9428134
 105.1714449 106.9437749  40.0285595 105.0334247 106.2117988  40.6297134
 106.0819373 106.8546649  39.7469783 107.7996750 106.6557709  39.5169275
 108.5096369 106.0150901  39.4755893 107.7566058 106.9070603  40.4395456
 106.5125684 103.6422927  41.3364914 105.9763041 103.1913665  41.9886511
 105.9242392 103.7768835  40.5935379  97.4430083 107.8888738  33.9932885
  98.1301123 107.5750468  33.4053901  97.2878212 108.7930102  33.7200137
 102.2464805 102.7778934  38.4217909 102.1622994 102.1704604  37.6868319
 101.4247512 103.2687953  38.4227405 112.4188519 101.2632498  33.7888104
 112.9157219 100.5102460  33.4689174 111.6475501 101.2996814  33.2231313
 109.0023488 103.4049881  33.5159789 108.6321275 102.8520921  34.2040694
 109.4982580 102.8008014  32.9634789 106.8312686 113.8647376  40.6114807
 107.5322146 114.4983859  40.7644201 106.3607801 114.2062107  39.8510446
 114.8607514  98.2302091  35.9367463 113.9470594  98.4606318  36.1049670
 115.2900615  98.3140535  36.7881495 114.6313972 106.4191983  38.4367357
 113.9785423 106.6667891  37.7819810 115.0094352 105.6056121  38.1029834
 110.6801545 107.1611794  44.9233394 110.0042182 107.0605924  45.5935769
 111.5029179 107.0051008  45.3869391 102.4280404 113.3983731  37.5445909
 103.0133841 112.6527419  37.6773813 102.2305243 113.7087688  38.4282573
  97.0198059 105.9689331  36.2650352  97.0582159 105.4352922  37.0587470
  96.5138352 105.4424537  35.6461330 104.3988822 100.8153872  39.7612895
 104.4630148 101.6768702  39.3490292 104.3355942 100.2027873  39.0285253
 103.8741094 102.8877004  43.4085929 104.5013133 102.5054081  44.0223453
 103.0169013 102.6691206  43.7741621 100.6506637 104.6953433  29.3404284
 100.9460078 103.7864112  29.2871337  99.7494673 104.6741173  29.0185286
 104.1800884 102.7709430  35.3231832 103.4587470 103.3845397  35.1839306
 104.9694140 103.3067195  35.2448478 106.9827197 100.1063856  41.5972484
 107.5061599 100.3526153  42.3598793 106.7639531 100.9383891  41.1775621
 102.3794478 102.3767531  29.4643609 102.0507185 101.4964910  29.2818715
 102.7333849 102.3215200  30.3519998 105.4936302 102.6640501  29.8319087
 105.8332374 103.1926422  29.1097695 105.9408422 103.0020907  30.6077653
 108.1879742 101.0477551  39.2822155 107.8476563 100.2485364  39.6842834
 107.4818749 101.3479262  38.7098988 108.8396214  98.1326864  37.7349478
 109.6622283  97.6587342  37.6128368 109.0834278  98.9117348  38.2348164
 106.3634793 104.8245984  35.5441456 106.2179374 105.1386287  36.4365738
 105.8859997 105.4430885  34.9912355 108.2231176 101.8148532  35.5922346
 108.2092745 100.9189626  35.2554644 108.9403604 101.8219196  36.2260632
 110.0757307 102.2485873  37.6375473 109.8175084 103.1702943  37.6359804
 109.5442347 101.8516307  38.3275937 100.8380455 107.3651329  38.4829117
 100.2933923 108.1411137  38.6149392 101.7159805 107.7122133  38.3248239
 107.6268072 100.6962913  30.8609916 107.7483983  99.7679559  31.0600803
 107.3370114 100.7101599  29.9488231 110.4959262  98.3817823  33.9976636
 110.5180959  98.4457156  33.0428615 110.9127321  97.5422332  34.1917142
 101.6246477 106.4921225  41.3759274 100.8828213 106.6403860  41.9623905
 101.3039221 106.7529491  40.5126024 100.2711696 112.2972980  34.3658603
  99.4343604 111.8695155  34.1842604 100.2435341 112.4905424  35.3029394
 107.1109151 102.2094910  45.0699849 107.1597307 103.0857033  44.6877618
 107.6531665 101.6672303  44.4971492 115.0065634 105.5859428  42.9793021
 115.9075497 105.4465893  42.6877019 115.0813609 105.7513883  43.9191198
 109.3408440 102.9626282  41.8246207 108.4711749 103.2559849  41.5528796
 109.5767920 103.5466727  42.5453471 117.4667257 107.1458056  40.3755794
 117.9421379 107.3385702  39.5674645 116.5432822 107.2017242  40.1299177
 112.0447474  99.1805899  39.3411628 112.5629417  99.9166926  39.0158116
 111.6902606  99.4869893  40.1758387 112.2960068  95.6006182  34.8612524
 112.5761822  94.9329371  35.4872951 113.0810675  95.7935278  34.3487188
 116.1668926 104.0223816  38.6084099 117.1186349 104.1221914  38.6296323
 115.9972377 103.2302084  39.1182184 114.1883306 101.1079399  38.7943500
 113.5933238 101.3884412  38.0989989 113.9033002 101.5973300  39.5660241
 118.7951492 104.0340979  37.7684682 118.2790541 103.2499436  37.5814611
 119.6791441 103.7059696  37.9331202 116.4562219  97.7781995  33.7280495
 116.2587040  97.4697083  34.6123827 117.0661925  98.5043633  33.8578425
 110.3679027 110.1643735  45.2254260 111.2882037 110.3422334  45.4194306
 110.3328610 109.2199780  45.0733959  99.5861192 105.3582328  34.1507535
  99.2663977 104.5047637  33.8581909  99.0394620 105.5730907  34.9065502
 103.3641100 108.0744769  37.8677041 103.5827110 109.0061877  37.8865075
 103.7766874 107.7152744  38.6531845 110.2845318  98.5812855  29.8552730
 109.4746046  98.2359940  30.2307976 110.9729735  98.2720398  30.4440341
 112.2135866  97.6590901  31.4777026 112.7666905  98.0786355  32.1367049
 112.4505952  96.7326650  31.5199982 108.2368965 103.6477975  47.2579790
 108.1365692 104.5972332  47.1891881 108.0190507 103.3196214  46.3855860
  99.4549452 108.9785240  36.1200656  98.7612924 108.5639193  35.6070611
 100.2022443 109.0205776  35.5234075 114.0418239  99.1696484  33.1877011
 114.5418018  99.2813019  32.3791330 114.6853847  98.8657537  33.8277819
 108.1000235 107.0775114  46.0744852 107.6167317 107.8775474  46.2808741
 108.1861174 107.0883059  45.1212296 101.3686195 108.9103494  33.9966671
 101.3456883 109.0091181  33.0448554 101.6786831 109.7568644  34.3183837
 104.0273573 110.9679649  38.1113285 104.9816826 110.9363591  38.0443217
 103.8286096 110.5070272  38.9263511 104.6172955 109.5380765  40.6784083
 105.4365844 110.0324843  40.7018920 104.8909763 108.6212733  40.6501651
 117.7254087 101.9538038  33.7566378 118.5014477 102.4434490  34.0290995
 117.0002221 102.3796092  34.2138247  99.8707869 103.8718899  41.3776280
 100.5166733 103.3617853  41.8663505  99.6625020 104.6087580  41.9519705
 112.2063599  94.7301720  31.3846113 111.4395995  94.1760207  31.5302796
 112.6174304  94.8023589  32.2460265 104.2105360 101.0186516  45.4751294
 105.0736822 100.6623320  45.6854619 103.6370771 100.6800410  46.1626699
  46.0331717  -1.3282082  30.6612559  45.5895572  -2.1145704  30.3433464
  46.6948931  -1.1402932  29.9956450  48.1312955  -1.0479282  28.6893961
  48.1131431  -0.2270401  28.1974230  49.0532876  -1.1725207  28.9144102
  49.0428796  -4.4083444  31.0844679  48.8914303  -4.6372892  30.1674763
  49.0333476  -3.4512843  31.0976024  50.7521003  -1.3764321  29.1621161
  50.6933549  -2.0605101  28.4951744  51.1540521  -0.6345331  28.7101787
  49.2372677  -1.6749404  31.7384971  49.7812581  -1.0619446  31.2439926
  48.6559522  -1.1169826  32.2551984  52.5601471  -2.2153350  31.0746292
  51.7697015  -2.2329211  30.5350792  52.3234826  -1.6765056  31.8295329
  54.1817543  -2.9463942  28.6321042  53.8902351  -2.5833962  29.4684503
  53.5689674  -3.6596934  28.4534374  47.3598736  -4.0289637  33.6013727
  48.2289895  -3.8548985  33.2400362  46.8805487  -3.2095221  33.4789457
  59.0191211   7.6798989  23.0059002  59.6569621   7.5605736  22.3022342
  58.9012054   8.6279832  23.0646954  55.8280918   7.6326417  22.9420527
  55.4899429   7.5167481  22.0541062  56.6970686   7.2317582  22.9221533
  56.3100701   8.7861268  28.9006732  56.2989341   8.3914067  28.0287236
  56.4721340   8.0527341  29.4940504  49.2332165  10.9813085  21.7701638
  50.0253457  10.6403909  21.3547937  49.4728815  11.0908060  22.6903792
  53.0307962  11.5698380  27.8485916  52.7397828  12.4744011  27.7332583
  53.6664946  11.6114908  28.5629986  53.9564169   8.9475229  24.4387276
  54.5527741   8.7231251  23.7244239  54.0139140   8.2059974  25.0412724
  63.9740907   5.3425676  20.9845189  64.7066079   4.7724892  21.2183018
  63.2180263   4.9547276  21.4251694  61.4966327  -0.9452750  25.4439797
  61.1649652  -0.0757339  25.2201012  60.9011941  -1.2616466  26.1233828
  57.9897847  11.2559796  24.8435710  57.6898570  12.1584834  24.7351517
  57.6448906  10.9891979  25.6956863  61.3894991   3.7742336  22.5233147
  60.4811868   3.7057744  22.2291908  61.3382586   4.2514281  23.3514973
  52.9718627  18.0204116  17.8106678  52.8942656  18.9711941  17.8895158
  52.3680270  17.6749989  18.4681604  55.4635856   5.1931981  30.4668045
  54.6869190   5.7525902  30.4570909  56.1026419   5.6788764  30.9882915
  63.2556637   1.9758774  24.3011021  62.6131017   2.2691307  23.6550816
  62.7511566   1.8611695  25.1064218  53.7182229   8.0017435  30.0286012
  54.4596913   8.5402479  29.7520835  53.0119214   8.6283724  30.1857563
  59.1937568  10.1446575  28.6258173  59.6020924   9.7028986  27.8812805
  58.4714830   9.5699203  28.8792366  55.5468638   5.0819182  25.9991730
  56.3929834   5.5058596  26.1426379  55.4867276   4.4252806  26.6930293
  59.5166383  10.7047766  22.3810462  58.8875245  10.8693480  21.6786530
  59.1292045  11.1189375  23.1521426  63.3955615  11.6402204  19.7354826
  62.7106653  12.0201105  19.1851859  63.4799464  12.2497530  20.4686773
  58.6968084   2.7423550  27.6572904  58.4529016   3.4965611  27.1207179
  58.9728014   3.1208898  28.4920151  60.6506546   9.2862163  26.3350169
  60.8623442   9.9293923  25.6584550  60.6036295   8.4524479  25.8672099
  55.0694345  10.4422174  19.6460547  55.5332690  10.7209877  18.8565170
  54.8051143   9.5405619  19.4633638  51.9618426   9.9893656  22.5840310
  52.5319783  10.4180924  21.9457795  52.5526538   9.7076240  23.2824496
  52.4543592   5.1557083  30.8301322  51.8242253   5.8373364  31.0636718
  52.3479680   5.0440165  29.8854460  61.7652374  12.1634118  24.5072527
  62.5869818  11.7614305  24.2255208  61.7614777  12.0602352  25.4588642
  55.5308978  11.7118161  26.6633237  55.5953410  12.1738569  27.4991409
  54.8219902  11.0815526  26.7915547  69.8558367   8.5072867  20.8557498
  69.1022076   7.9380265  20.7001502  69.9905909   8.4735531  21.8028133
  51.7324335  -0.5422151  33.1926573  51.3391281  -1.0955953  33.8674217
  52.5490475  -0.2311573  33.5833090  50.5081278  14.0127463  19.1862896
  50.6847906  14.9345428  18.9983880  51.3038111  13.6985883  19.6157275
  54.6492296   0.8735728  30.7846829  55.3902009   1.4742881  30.7051292
  54.8810219   0.1313366  30.2264872  49.7933634   6.0592095  29.0625059
  49.6787149   5.1577352  29.3632158  48.9378152   6.3055792  28.7109875
  56.8725472  14.0009835  30.6612559  56.4289326  13.2146214  30.3433464
  57.5342685  14.1888986  29.9956450  51.6312593  15.5305637  25.1873238
  52.1820018  15.4022700  24.4150232  50.7924069  15.8300526  24.8368131
  58.9706710  14.2812635  28.6893961  58.9525185  15.1021516  28.1974230
  59.8926630  14.1566711  28.9144102  55.4279764  11.7956765  29.5317469
  55.9608101  11.0345053  29.3016777  54.8993845  11.5030417  30.2741624
  61.7725323   9.1191778  22.1603327  61.1148997   9.8091039  22.2483456
  62.5765722   9.5088210  22.5037314  60.5830782   7.4736151  20.2107269
  61.0962663   8.1066142  20.7128979  61.2332006   6.8737346  19.8450629
  57.0611612   4.9485606  22.4565610  56.1434174   5.1700553  22.2987298
  57.4771756   5.0231917  21.5977317  61.3492578  12.4542152  18.3386412
  60.8954905  11.6133062  18.3951602  60.7186545  13.0903550  18.6761192
  59.7925517  14.2918649  19.2736230  60.0848491  14.8523706  18.5548596
  60.3024138  14.5847210  20.0289389  54.7559142  15.0699000  20.3629683
  54.7135321  15.2959846  19.4338215  55.6721841  14.8362374  20.5115484
  58.2024776   5.5383067  27.2610312  58.5574164   5.7654540  28.1204778
  58.8496907   5.8701444  26.6387568  63.9322513   8.6601503  17.9659641
  63.7940412   8.8503099  17.0380831  63.5758732   9.4220886  18.4227693
  63.9591893  10.7278030  22.9770913  64.3928399  10.6353319  23.8253967
  64.6723473  10.7035531  22.3390929  52.8724943  11.9462029  20.1591646
  53.6665542  11.4512349  19.9574221  52.1616635  11.4179892  19.7959351
  57.6919788  14.3280124  24.5104014  57.7456810  14.8971061  25.2781729
  56.8234569  14.4982009  24.1458051  50.5718181   4.0297681  25.9928465
  51.2441234   3.8215043  25.3441114  49.7447967   3.8319767  25.5533697
  64.8207442  10.7701731  25.5103798  65.0143332  11.6747541  25.7563073
  64.7208060  10.3109150  26.3442383  56.4743753   0.6559621  28.0094126
  55.8271668   1.3549571  27.9158602  57.2444768   1.0895765  28.3770374
  59.8822551  10.9208474  31.0844679  59.7308057  10.6919025  30.1674763
  59.8727230  11.8779075  31.0976024  56.6507887   8.4940386  26.0690945
  57.5799947   8.6451546  25.8959913  56.2298917   8.5824407  25.2139592
  55.4496219  12.5191051  23.8389483  55.3107305  12.1509835  24.7115421
  54.6610815  13.0338690  23.6673441  56.0444371  17.6200147  15.1815020
  56.2196127  17.1488190  15.9960642  55.3577159  18.2465913  15.4096280
  57.0001434  11.8972653  21.2278321  56.6651267  11.8573423  22.1235971
  56.5005380  11.2317369  20.7548731  50.9745678   7.3040284  26.7530902
  50.8365476   6.5720522  27.3542441  51.8850602   7.2149184  26.4715090
  53.6027979   7.0160243  26.2414582  54.3127597   6.3753435  26.2001200
  53.5597287   7.2673138  27.1640762  61.5914757  13.9527596  29.1621161
  61.5327304  13.2686816  28.4951744  61.9934276  14.6946586  28.7101787
  52.3156913   4.0025461  28.0610221  51.7794270   3.5516199  28.7131817
  51.7273621   4.1371370  27.3180685  50.6105456  20.7689510  21.9554880
  50.8502055  21.4008034  22.6333898  49.7674653  20.4177550  22.2420239
  61.5932165  11.9167180  27.3935140  60.7058944  11.5793102  27.5161539
  62.1630716  11.1850211  27.6303906  55.1233318  16.5768632  24.3596384
  55.0503490  17.3823604  24.8715688  54.6810711  16.7760598  23.5344405
  54.9123098  15.8140402  17.8699205  54.1290620  16.3562083  17.9637430
  55.6115843  16.3314382  18.2693446  66.0749505   7.3275397  22.1551702
  66.0639382   8.2100113  21.7845635  65.2066885   6.9746948  21.9606239
  57.5832002  16.4755466  26.5154542  58.2959974  17.1102931  26.4430444
  57.0922030  16.5719332  25.6994544  59.3049529  10.3806719  18.0871834
  58.3705807  10.5008182  17.9176538  59.4826197   9.4779186  17.8231844
  62.6922080   6.2224038  18.6221868  63.1582532   7.0552030  18.5482171
  63.1429580   5.7569020  19.3267127  52.6343915  14.2249910  27.3360113
  53.3353375  14.8586393  27.4889507  52.1639030  14.5664642  26.5755752
  60.4345201   6.7794517  25.1612663  59.7816651   7.0270425  24.5065116
  60.8125581   5.9658656  24.8275141  57.3952375  16.8154211  19.2640834
  57.5774770  15.9975867  19.7268586  58.2185361  17.0321903  18.8265724
  57.7294541  15.7422396  16.5255882  58.2582307  15.2314850  15.9126044
  57.9922760  15.4264926  17.3901415  56.4832774   7.5214328  31.6478701
  55.8073411   7.4208458  32.3181076  57.3060408   7.3653542  32.1114698
  48.2311633  13.7586265  24.2691216  48.8165070  13.0129953  24.4019120
  48.0336472  14.0690222  25.1527880  51.0850288  16.7937512  19.2853658
  50.4160664  17.2783640  18.8017698  50.9463158  17.0406733  20.1997037
  55.2255557  18.8281256  25.8836317  55.7773865  18.9912877  26.6485402
  55.5661751  19.4185694  25.2116341  49.6772323   3.2479538  30.1331236
  50.3044362   2.8656616  30.7468760  48.8200242   3.0293740  30.4986928
  60.0766431  13.6542513  31.7384971  60.6206335  14.2672472  31.2439926
  59.4953276  14.2122092  32.2551984  58.3623944  16.7763231  22.8699999
  58.2375084  15.9752971  22.3610944  59.0203035  17.2709425  22.3813969
  60.4258853  14.5772252  24.4979549  59.4789188  14.4577603  24.4257876
  60.7741626  13.6894750  24.5805810  52.7858426   0.4666390  28.3217791
  53.3092828   0.7128687  29.0844100  52.5670759   1.2986425  27.9020928
  57.4305286  14.3724968  20.6983901  57.2830248  13.4441675  20.8791471
  58.2558780  14.3945058  20.2140976  61.0339408  15.1953526  21.7848774
  61.9585955  14.9896388  21.6473225  60.8654711  14.9469928  22.6938115
  53.9910971   1.4080086  26.0067461  53.6507792   0.6087899  26.4088141
  53.2849977   1.7081796  25.4344294  55.8788535   2.6088407  24.3620780
  55.6206313   3.5305477  24.3605110  55.3473576   2.2118841  25.0521244
  60.8234724  15.7139194  17.1410865  60.9971602  15.1485616  16.3884718
  61.3163615  16.5140089  16.9590355  46.6411684   7.7253863  25.2074424
  46.0965152   8.5013671  25.3394698  47.5191034   8.0724667  25.0493545
  66.6774115   8.4775617  18.7601165  67.1205261   7.7282942  18.3620288
  65.8000626   8.4685753  18.3774897  61.8109897  15.0305958  14.2407764
  62.5060801  15.6512651  14.4595078  62.1533047  14.1801310  14.5160141
  47.4277706   6.8523759  28.1004581  46.6859442   7.0006395  28.6869211
  47.1070450   7.1132025  27.2371330  63.7101320  12.4805664  15.7695094
  64.2352644  12.8192937  15.0444414  63.6223672  11.5452679  15.5858229
  55.3721368  16.3939738  27.8984971  55.6808495  16.1488884  28.7707671
  56.1696850  16.5986376  27.4103841  55.3941980  18.5477647  20.1290347
  54.9546971  18.0554026  20.8223204  56.1450097  18.0050615  19.8882423
  47.8734319  14.7389188  20.1314976  48.6992339  14.4392960  19.7513619
  47.5228371  13.9696810  20.5804764  52.8415853  14.0915656  22.2012649
  52.2195862  13.4286361  21.9014877  53.5120720  14.1176788  21.5186297
  52.9140380   2.5697444  31.7945155  52.9628536   3.4459567  31.4122925
  53.4562894   2.0274837  31.2216798  63.3995226  13.1138568  31.0746292
  62.6090769  13.0962706  30.5350792  63.1628580  13.6526861  31.8295329
  63.5193101   9.9631034  28.3879021  63.5691106   9.7981041  29.3294544
  63.4107024   9.0958293  27.9976902  60.8096863   5.9461962  29.7038328
  61.7106726   5.8068427  29.4122325  60.8844838   6.1116417  30.6436505
  55.1439669   3.3228817  28.5491514  54.2742978   3.6162383  28.2774102
  55.3799149   3.9069262  29.2698777  65.0211298  12.3827975  28.6321042
  64.7296106  12.7457956  29.4684503  64.4083429  11.6694984  28.4534374
  66.2206980   9.9480855  21.1523613  67.0553871  10.3870659  21.3161173
  66.3566109   9.4719508  20.3331858  63.2698486   7.5060590  27.1001100
  63.7452607   7.6988236  26.2919952  62.3464051   7.5619776  26.8544484
  57.8478702  -0.4591566  26.0656934  58.3660646   0.2769461  25.7403423
  57.4933835  -0.1527573  26.9003693  61.9700155   4.3826350  25.3329406
  62.9217578   4.4824448  25.3541630  61.8003605   3.5904619  25.8427490
  59.9914534   1.4681933  25.5188807  59.3964466   1.7486946  24.8235295
  59.7064231   1.9575834  26.2905548  64.4488233   7.6032470  24.4471706
  64.4164553   6.6648471  24.6331389  65.0588856   7.6816507  23.7137530
  64.5982721   4.3943513  24.4929989  64.0821770   3.6101970  24.3059918
  65.4822670   4.0662230  24.6576508  70.2664783   8.6648477  23.5877742
  70.9968171   8.4033765  24.1485446  69.6571728   7.9277199  23.6279810
  68.3480080   6.8056339  24.1852194  67.6213243   6.6712304  23.5768685
  67.9327367   7.1133168  24.9908912  56.1710256  10.5246269  31.9499567
  57.0913266  10.7024868  32.1439613  56.1359839   9.5802314  31.7979266
  49.1672329   8.4347304  24.5922348  49.3858338   9.3664411  24.6110382
  49.5798102   8.0755278  25.3777152  54.0400194   4.0080509  33.9825097
  53.9396921   4.9574866  33.9137188  53.8221736   3.6798748  33.1101167
  53.9031464   7.4377648  32.7990158  53.4198546   8.2378008  33.0054047
  53.9892403   7.4485593  31.8457602  49.8304801  11.3282183  24.8358592
  50.7848055  11.2966125  24.7688524  49.6317325  10.8672807  25.6508818
  50.4204184   9.8983299  27.4029390  51.2397073  10.3927378  27.4264227
  50.6940991   8.9815267  27.3746957  63.5285316   2.3140572  20.4811685
  64.3045706   2.8037025  20.7536301  62.8033450   2.7398626  20.9383554
  65.9657875   3.0268191  21.5385625  66.5602365   2.7863927  20.8278933
  66.0384458   2.3075322  22.1659161  48.1855030  16.8701802  21.8528790
  48.0509498  16.1102203  21.2866788  47.7687093  17.5942702  21.3857579
  68.2728947   6.3334392  20.3129046  67.7128505   6.4027582  21.0860608
  67.6672451   6.1575377  19.5928543  51.3424156  17.7671119  22.0647233
  51.2256540  18.7116552  21.9625923  50.5216602  17.4644681  22.4533032
  45.6739098   4.2321433  28.1021587  46.3197961   3.7220387  28.5908812
  45.4656249   4.9690114  28.6765012  58.1992490  11.3002280  33.6013727
  59.0683650  11.4742933  33.2400362  57.7199242  12.1196697  33.4789457
  52.3678670  18.4199381  25.2803161  53.2705917  18.4522992  25.5969656
  52.1416040  17.4899832  25.2949497  54.1232272  17.1730368  21.9413240
  53.1727903  17.1732229  21.8277612  54.4264758  16.4263102  21.4249274
  50.0136589   1.3789050  32.1996601  50.8768050   1.0225855  32.4099926
  49.4402000   1.0402945  32.8872005  69.8584966  23.0090906  23.0059002
  70.4963376  22.8897654  22.3022342  69.7405809  23.9571750  23.0646954
  66.6674672  22.9618334  22.9420527  66.3293184  22.8459399  22.0541062
  67.5364440  22.5609499  22.9221533  62.5261488  24.8153811  18.9317418
  61.9626353  24.7243748  18.1633705  62.4113883  23.9953715  19.4119910
  67.1494455  24.1153186  28.9006732  67.1383096  23.7205984  28.0287236
  67.3115095  23.3819259  29.4940504  60.0725920  26.3105002  21.7701638
  60.8647212  25.9695827  21.3547937  60.3122570  26.4199977  22.6903792
  68.1061046  28.4824778  14.2431883  67.4549026  29.0678859  13.8565896
  68.9005409  29.0130973  14.3026920  62.0316674  25.5713916  14.6419017
  62.8047550  25.0242903  14.5031893  62.3842072  26.4358165  14.8533478
  63.8701716  26.8990298  27.8485916  63.5791582  27.8035929  27.7332583
  64.5058701  26.9406825  28.5629986  64.7957923  24.2767146  24.4387276
  65.3921495  24.0523169  23.7244239  64.8532895  23.5351892  25.0412724
  64.3682951  21.7306582  12.2737467  64.6208472  21.2088103  11.5120930
  63.4307511  21.5672727  12.3764151  69.4126234  20.7342360  20.0812210
  70.1989323  20.3161783  19.7302627  69.6764939  21.6388452  20.2493859
  69.5836312  26.1715210  14.7800867  68.9482145  26.2449837  15.4921772
  69.2533718  26.7608809  14.1019946  74.8134661  20.6717593  20.9845189
  75.5459833  20.1016810  21.2183018  74.0574017  20.2839194  21.4251694
  64.0879240  23.6334688  14.4761842  63.9715498  22.9579591  15.1442926
  64.1981500  23.1467062  13.6593995  66.4310781  23.0944835  18.1808531
  66.0668988  22.5675456  18.8921453  67.2877897  22.7043304  18.0075017
  72.3360082  14.3839167  25.4439797  72.0043407  15.2534578  25.2201012
  71.7405695  14.0675451  26.1233828  66.0716268  18.1234734  13.1769880
  66.2390670  18.9914971  13.5440351  65.8813437  18.2862016  12.2531169
  68.8291601  26.5851713  24.8435710  68.5292324  27.4876752  24.7351517
  68.4842661  26.3183897  25.6956863  62.2804083  23.0365510  20.8772414
  61.3554579  22.9041724  21.0850106  62.5288496  23.8159729  21.3742357
  72.2288745  19.1034254  22.5233147  71.3205622  19.0349662  22.2291908
  72.1776341  19.5806198  23.3514973  66.0505489  20.5792392  14.1616546
  65.9305114  21.0249443  15.0002027  65.3558077  20.9277710  13.6030085
  59.6412894  22.6798784  21.7116203  59.7705275  22.9333263  22.6255615
  58.9610345  23.2726492  21.3920859  63.8112381  33.3496034  17.8106678
  63.7336411  34.3003859  17.8895158  63.2074025  33.0041906  18.4681604
  66.3029611  20.5223899  30.4668045  65.5262945  21.0817819  30.4570909
  66.9420174  21.0080682  30.9882915  74.0950391  17.3050692  24.3011021
  73.4524772  17.5983225  23.6550816  73.5905320  17.1903612  25.1064218
  71.7490555  21.0513865  14.9896880  72.6608411  21.2841252  14.8144578
  71.2400202  21.6350909  14.4271959  64.5575983  23.3309352  30.0286012
  65.2990668  23.8694396  29.7520835  63.8512969  23.9575641  30.1857563
  70.0331323  25.4738493  28.6258173  70.4414679  25.0320903  27.8812805
  69.3108584  24.8991120  28.8792366  66.3862393  20.4111100  25.9991730
  67.2323588  20.8350513  26.1426379  66.3261031  19.7544724  26.6930293
  70.3560137  26.0339684  22.3810462  69.7269000  26.1985398  21.6786530
  69.9685800  26.4481293  23.1521426  74.2349369  26.9694121  19.7354826
  73.5500407  27.3493023  19.1851859  74.3193219  27.5789448  20.4686773
  69.5361838  18.0715468  27.6572904  69.2922770  18.8257529  27.1207179
  69.8121769  18.4500816  28.4920151  71.4900301  24.6154080  26.3350169
  71.7017196  25.2585840  25.6584550  71.4430049  23.7816397  25.8672099
  69.0926530  17.2271901  23.2386741  68.2311009  17.5253155  23.5303479
  69.1188965  17.4442300  22.3067774  65.9088099  25.7714092  19.6460547
  66.3726445  26.0501795  18.8565170  65.6444897  24.8697536  19.4633638
  62.8012180  25.3185573  22.5840310  63.3713537  25.7472842  21.9457795
  63.3920292  25.0368158  23.2824496  64.8456985  21.8937244  16.4550112
  65.5481029  22.3458288  16.9224039  64.5137614  21.2521063  17.0830005
  63.2937347  20.4849001  30.8301322  62.6636007  21.1665282  31.0636718
  63.1873435  20.3732082  29.8854460  58.5882319  20.1520797  21.7567246
  57.7981373  20.4078325  21.2807356  59.0793567  20.9669135  21.8619286
  72.6046129  27.4926036  24.5072527  73.4263573  27.0906223  24.2255208
  72.6008532  27.3894270  25.4588642  60.5397065  20.5165376  18.7150722
  59.7428228  20.6284070  19.2334218  60.3122657  20.8552028  17.8491613
  66.3702732  27.0410079  26.6633237  66.4347165  27.5030486  27.4991409
  65.6613656  26.4107444  26.7915547  56.8720022  20.4051287  24.1882237
  57.1228061  21.2898297  24.4539812  57.4079571  20.2255889  23.4157328
  80.6952122  23.8364784  20.8557498  79.9415830  23.2672182  20.7001502
  80.8299663  23.8027449  21.8028133  66.0850750  28.7078187  16.5312217
  65.9496425  29.5529722  16.9597065  66.6260562  28.9097464  15.7678151
  62.5718090  14.7869767  33.1926573  62.1785035  14.2335965  33.8674217
  63.3884230  15.0980345  33.5833090  59.5380147  26.2253625  17.1040142
  60.0504668  27.0196875  17.2545707  60.1902860  25.5279915  17.0373744
  61.3475032  29.3419381  19.1862896  61.5241660  30.2637346  18.9983880
  62.1431866  29.0277800  19.6157275  65.4886051  16.2027646  30.7846829
  66.2295764  16.8034799  30.7051292  65.7203973  15.4605283  30.2264872
  60.6327389  21.3884013  29.0625059  60.5180904  20.4869270  29.3632158
  59.7771906  21.6347710  28.7109875  62.4706348  30.8597555  25.1873238
  63.0213773  30.7314618  24.4150232  61.6317823  31.1592444  24.8368131
  66.2673519  27.1248683  29.5317469  66.8001855  26.3636971  29.3016777
  65.7387600  26.8322334  30.2741624  69.4343214  12.2308749  25.0611111
  69.0907483  13.1210390  24.9850221  69.8022176  12.0410406  24.1980696
  57.5029064  24.5542279  17.8799713  58.3404286  24.9639287  17.6633421
  57.6807332  23.6141721  17.8499907  69.3993496  22.2217360  13.5683546
  68.8840120  22.9921964  13.8071933  69.1270805  21.5482496  14.1916607
  66.9840607  17.0667060  18.6268784  66.1282204  16.6773911  18.4474423
  67.3967559  17.1459021  17.7668570  68.5139754  14.6013404  23.0260344
  68.0104550  14.5643539  22.2128149  68.8070361  15.5106146  23.0857001
  64.7582640  14.6852133  22.0326526  65.6235637  14.4894942  21.6732415
  64.8260149  14.4562485  22.9595883  74.3727770  24.9749714  15.5036719
  73.5957213  24.6360874  15.0591882  75.0519251  24.9802337  14.8291685
  69.1879799  20.0944452  15.3943327  68.8829935  20.4090601  16.2453470
  70.1410242  20.1725872  15.4370660  67.6326231  26.2534675  17.0436281
  67.1047593  25.5187435  16.7309519  67.1313734  27.0309351  16.7976249
  72.6119077  24.4483696  22.1603327  71.9542752  25.1382957  22.2483456
  73.4159477  24.8380127  22.5037314  62.3644959  16.9154341  19.4042893
  62.9388711  16.6929523  18.6716086  62.9515941  16.9843036  20.1571494
  71.4224536  22.8028068  20.2107269  71.9356418  23.4358060  20.7128979
  72.0725760  22.2029264  19.8450629  62.6914546  18.9458802  13.4238778
  61.8551858  19.2833489  13.7448053  62.5519316  18.8107782  12.4865915
  64.6667627  13.7895590  18.1317962  64.0132039  13.4744607  17.5074577
  64.6248101  13.1671331  18.8577785  65.7778831  24.0714885  10.0471254
  64.8705893  23.8404139  10.2462403  66.2749863  23.2752505  10.2345236
  68.6846910  32.7812393  12.9667940  68.0108609  33.0844089  13.5752898
  69.0712732  33.5841473  12.6173397  67.9005367  20.2777524  22.4565610
  66.9827928  20.4992471  22.2987298  68.3165511  20.3523834  21.5977317
  68.6840415  21.6768939  17.5868290  69.4312234  22.1890337  17.2775412
  68.9532004  21.3552992  18.4472684  66.9567065  24.1727480  14.5695244
  66.0478284  23.8886513  14.6667714  66.9862149  24.5926559  13.7098551
  72.1886332  27.7834070  18.3386412  71.7348659  26.9424980  18.3951602
  71.5580299  28.4195468  18.6761192  71.1319252  18.7126056  19.5687079
  70.3942009  18.2003442  19.8997322  71.3846025  18.2726437  18.7570356
  70.6319272  29.6210566  19.2736230  70.9242246  30.1815623  18.5548596
  71.1417892  29.9139127  20.0289389  71.2330879  11.4902308  20.1628849
  71.5389756  10.6299671  19.8754764  71.9583484  12.0819928  19.9627842
  57.5255235  21.8932994  18.5510446  57.3279635  21.3002355  17.8261513
  56.9701899  21.5885205  19.2686385  65.5051959  21.7856101  20.6705040
  65.5600569  20.8329937  20.5947516  64.6943161  21.9415540  21.1546338
  66.6543153  25.7136224  11.9083323  66.2162583  24.9972083  11.4488960
  67.3953594  25.9412339  11.3468414  63.4444319  20.4033161  18.4295418
  62.6312184  20.7027331  18.8360611  63.9403313  20.0088849  19.1469901
  65.5952897  30.3990917  20.3629683  65.5529076  30.6251764  19.4338215
  66.5115596  30.1654292  20.5115484  69.0418531  20.8674985  27.2610312
  69.3967918  21.0946458  28.1204778  69.6890662  21.1993362  26.6387568
  74.7716267  23.9893421  17.9659641  74.6334166  24.1795017  17.0380831
  74.4152486  24.7512804  18.4227693  62.9358394  17.9751516  24.0456653
  63.5757773  17.8340275  23.3479617  62.1035924  17.6886029  23.6695255
  74.7985647  26.0569948  22.9770913  75.2322154  25.9645237  23.8253967
  75.5117228  26.0327448  22.3390929  63.7118698  27.2753946  20.1591646
  64.5059296  26.7804267  19.9574221  63.0010390  26.7471810  19.7959351
  68.5313542  29.6572042  24.5104014  68.5850564  30.2262978  25.2781729
  67.6628323  29.8273927  24.1458051  60.0201461  21.4197028  16.2351399
  59.0899049  21.3581484  16.4521361  60.1158933  20.8972981  15.4388040
  59.9387010  17.9451841  18.8229640  60.1993827  18.8597174  18.7138801
  60.7604182  17.4776284  18.9726253  61.4111935  19.3589598  25.9928465
  62.0834989  19.1506960  25.3441114  60.5841722  19.1611684  25.5533697
  75.6601197  26.0993649  25.5103798  75.8537087  27.0039459  25.7563073
  75.5601815  25.6401068  26.3442383  67.3137507  15.9851539  28.0094126
  66.6665422  16.6841489  27.9158602  68.0838523  16.4187683  28.3770374
  70.7216305  26.2500391  31.0844679  70.5701812  26.0210943  30.1674763
  70.7120985  27.2070993  31.0976024  67.4901642  23.8232304  26.0690945
  68.4193702  23.9743464  25.8959913  67.0692672  23.9116325  25.2139592
  66.2889974  27.8482968  23.8389483  66.1501059  27.4801753  24.7115421
  65.5004570  28.3630608  23.6673441  66.8838126  32.9492065  15.1815020
  67.0589881  32.4780108  15.9960642  66.1970914  33.5757831  15.4096280
  67.8395189  27.2264571  21.2278321  67.5045021  27.1865341  22.1235971
  67.3399134  26.5609287  20.7548731  61.8139433  22.6332201  26.7530902
  61.6759231  21.9012440  27.3542441  62.7244356  22.5441101  26.4715090
  70.7754380  24.5720606  11.5015380  70.1583551  23.8467434  11.4048433
  70.3070869  25.3329966  11.1582455  64.4421733  22.3452161  26.2414582
  65.1521352  21.7045353  26.2001200  64.3991041  22.5965055  27.1640762
  72.4308512  29.2819514  29.1621161  72.3721058  28.5978734  28.4951744
  72.8328030  30.0238504  28.7101787  63.1550667  19.3317378  28.0610221
  62.6188024  18.8808117  28.7131817  62.5667376  19.4663287  27.3180685
  61.4499211  36.0981428  21.9554880  61.6895809  36.7299952  22.6333898
  60.6068407  35.7469468  22.2420239  72.4325919  27.2459098  27.3935140
  71.5452698  26.9085020  27.5161539  73.0024470  26.5142129  27.6303906
  54.0855066  23.5783190  20.7178192  54.7726106  23.2644920  20.1299207
  53.9303195  24.4824554  20.4445443  58.8889789  18.4673386  25.1463216
  58.8047977  17.8599056  24.4113625  58.0672495  18.9582404  25.1472712
  65.9627073  31.9060550  24.3596384  65.8897244  32.7115522  24.8715688
  65.5204466  32.1052516  23.5344405  65.7516852  31.1432320  17.8699205
  64.9684374  31.6854000  17.9637430  66.4509597  31.6606300  18.2693446
  69.0613502  16.9526950  20.5133411  69.5582202  16.1996912  20.1934481
  68.2900484  16.9891266  19.9476620  76.9143260  22.6567315  22.1551702
  76.9033136  23.5392031  21.7845635  76.0460639  22.3038866  21.9606239
  68.4225756  31.8047384  26.5154542  69.1353728  32.4394849  26.4430444
  67.9315785  31.9011250  25.6994544  70.1443283  25.7098637  18.0871834
  69.2099562  25.8300099  17.9176538  70.3219952  24.8071104  17.8231844
  65.6448471  19.0944333  20.2405095  65.2746259  18.5415373  20.9286001
  66.1407564  18.4902466  19.6880095  73.5315834  21.5515956  18.6221868
  73.9976287  22.3843948  18.5482171  73.9823335  21.0860938  19.3267127
  63.4737670  29.5541828  27.3360113  64.1747129  30.1878311  27.4889507
  63.0032785  29.8956559  26.5755752  71.5992066  27.8959777  15.6208020
  71.8751909  27.7816372  16.5301894  70.7296564  27.4977262  15.5820193
  71.5032497  13.9196543  22.6612769  70.5895577  14.1500770  22.8294976
  71.9325599  14.0034987  23.5126802  71.2738956  22.1086435  25.1612663
  70.6210406  22.3562343  24.5065116  71.6519336  21.2950573  24.8275141
  68.2346130  32.1446128  19.2640834  68.4168524  31.3267784  19.7268586
  69.0579116  32.3613821  18.8265724  68.5688295  31.0714313  16.5255882
  69.0976061  30.5606768  15.9126044  68.8316515  30.7556844  17.3901415
  67.3226529  22.8506246  31.6478701  66.6467166  22.7500375  32.3181076
  68.1454163  22.6945460  32.1114698  59.0705388  29.0878183  24.2691216
  59.6558825  28.3421871  24.4019120  58.8730226  29.3982139  25.1527880
  61.9244043  32.1229430  19.2853658  61.2554418  32.6075558  18.8017698
  61.7856913  32.3698651  20.1997037  53.6623043  21.6583783  22.9895659
  53.7007142  21.1247374  23.7832777  53.1563335  21.1318988  22.3706636
  66.0649312  34.1573174  25.8836317  66.6167620  34.3204795  26.6485402
  66.4055505  34.7477611  25.2116341  61.0413805  16.5048323  26.4858201
  61.1055131  17.3663154  26.0735599  60.9780925  15.8922325  25.7530560
  60.5166077  18.5771456  30.1331236  61.1438116  18.1948533  30.7468760
  59.6593996  18.3585658  30.4986928  57.2931620  20.3847885  16.0649590
  57.5885061  19.4758563  16.0116644  56.3919656  20.3635625  15.7430593
  69.2017699  32.1055149  22.8699999  69.0768838  31.3044889  22.3610944
  69.8596790  32.6001342  22.3813969  60.8225867  18.4603882  22.0477139
  60.1012453  19.0739849  21.9084612  61.6119123  18.9961646  21.9693785
  71.2652607  29.9064169  24.4979549  70.3182943  29.7869520  24.4257876
  71.6135380  29.0186667  24.5805810  63.6252181  15.7958308  28.3217791
  64.1486582  16.0420605  29.0844100  63.4064514  16.6278343  27.9020928
  59.0219462  18.0661983  16.1888916  58.6932168  17.1859362  16.0064021
  59.3758832  18.0109651  17.0765305  68.2699041  29.7016885  20.6983901
  68.1224003  28.7733593  20.8791471  69.0952534  29.7236976  20.2140976
  62.1361285  18.3534953  16.5564393  62.4757357  18.8820874  15.8343002
  62.5833405  18.6915359  17.3322960  71.8733162  30.5245444  21.7848774
  72.7979710  30.3188305  21.6473225  71.7048466  30.2761845  22.6938115
  64.8304726  16.7372003  26.0067461  64.4901546  15.9379816  26.4088141
  64.1243732  17.0373714  25.4344294  65.4821197  13.8221316  24.4594784
  66.3047267  13.3481794  24.3373675  65.7259261  14.6011799  24.9593471
  64.1229432  16.8509574  14.7557686  64.8437794  17.2290827  14.2521403
  63.4994736  17.5698451  14.8592664  68.2660555  17.5554723  15.6916018
  68.4824169  18.4379361  15.3904846  67.7854622  17.1640936  14.9621660
  63.0059776  20.5140436  22.2686763  62.8604357  20.8280739  23.1611044
  62.5284980  21.1325337  21.7157662  64.8656159  17.5042984  22.3167652
  64.8517728  16.6084078  21.9799950  65.5828587  17.5113648  22.9505938
  66.7182290  17.9380324  24.3620780  66.4600068  18.8597395  24.3605110
  66.1867330  17.5410759  25.0521244  71.6628479  31.0431112  17.1410865
  71.8365356  30.4777534  16.3884718  72.1557370  31.8432006  16.9590355
  57.4805438  23.0545781  25.2074424  56.9358906  23.8305589  25.3394698
  58.3584788  23.4016585  25.0493545  64.2693055  16.3857365  17.5855223
  64.3908966  15.4574011  17.7846110  63.9795097  16.3996051  16.6733538
  67.1384245  14.0712275  20.7221942  67.1605942  14.1351608  19.7673922
  67.5552304  13.2316784  20.9162449  77.5167870  23.8067535  18.7601165
  77.9599016  23.0574860  18.3620288  76.6394380  23.7977671  18.3774897
  72.6503651  30.3597876  14.2407764  73.3454556  30.9804569  14.4595078
  72.9926801  29.5093227  14.5160141  58.2671460  22.1815677  28.1004581
  57.5253196  22.3298312  28.6869211  57.9464205  22.4423943  27.2371330
  74.5495074  27.8097582  15.7695094  75.0746398  28.1484854  15.0444414
  74.4617427  26.8744597  15.5858229  66.2335735  33.8769565  20.1290347
  65.7940725  33.3845944  20.8223204  66.9843852  33.3342532  19.8882423
  58.7128074  30.0681106  20.1314976  59.5386094  29.7684878  19.7513619
  58.3622126  29.2988728  20.5804764  63.6809607  29.4207574  22.2012649
  63.0589616  28.7578279  21.9014877  64.3514474  29.4468706  21.5186297
  56.9136679  27.9867432  21.0903909  56.0768587  27.5589606  20.9087910
  56.8860324  28.1799875  22.0274700  63.7534135  17.8989362  31.7945155
  63.8022290  18.7751485  31.4122925  64.2956649  17.3566755  31.2216798
  74.2388980  28.4430485  31.0746292  73.4484524  28.4254624  30.5350792
  74.0022335  28.9818779  31.8295329  74.3586855  25.2922952  28.3879021
  74.4084860  25.1272959  29.3294544  74.2500779  24.4250211  27.9976902
  63.2423114  27.9711497  15.6771110  63.3911234  28.6546962  15.0237782
  64.0489557  27.9516587  16.1920565  71.6490618  21.2753880  29.7038328
  72.5500480  21.1360344  29.4122325  71.7238592  21.4408334  30.6436505
  65.9833423  18.6520734  28.5491514  65.1136732  18.9454300  28.2774102
  66.2192903  19.2361179  29.2698777  75.8605052  27.7119893  28.6321042
  75.5689860  28.0749874  29.4684503  75.2477183  26.9986901  28.4534374
  77.0600734  25.2772773  21.1523613  77.8947626  25.7162577  21.3161173
  77.1959863  24.8011426  20.3331858  74.1092240  22.8352508  27.1001100
  74.5846362  23.0280154  26.2919952  73.1857806  22.8911694  26.8544484
  60.9975747  23.9976675  16.6832179  60.7521789  23.0939005  16.8812389
  61.1671662  23.9993825  15.7411657  68.6872457  14.8700351  26.0656934
  69.2054401  15.6061378  25.7403423  68.3327590  15.1764345  26.9003693
  60.2671395  19.7305032  14.1818340  59.5740639  19.8049387  13.5258376
  60.0223146  18.9665376  14.7039857  68.9385051  11.2900634  21.5857831
  69.2186805  10.6223823  22.2118257  69.7235658  11.4829729  21.0732495
  66.7418520  30.4659628  13.1482857  66.1692487  31.0849815  12.6953329
  67.3151313  31.0158989  13.6822779  72.8093909  19.7118268  25.3329406
  73.7611332  19.8116365  25.3541630  72.6397360  18.9196536  25.8427490
  70.8308289  16.7973851  25.5188807  70.2358221  17.0778864  24.8235295
  70.5457986  17.2867752  26.2905548  69.9615779  30.7496778  14.2791439
  70.8946452  30.6842340  14.4824315  69.8738992  31.5853045  13.8205972
  72.5903796  30.0662648  11.2395387  72.5117428  29.7322512  12.1331145
  73.4113463  30.5584416  11.2386859  75.2881987  22.9324387  24.4471706
  75.2558307  21.9940388  24.6331389  75.8982611  23.0108424  23.7137530
  67.1265318  21.8020440  10.4898910  68.0724423  21.6726649  10.5587328
  66.7479563  21.0635102  10.9668338  75.4376476  19.7235431  24.4929989
  74.9215524  18.9393888  24.3059918  76.3216424  19.3954148  24.6576508
  73.0987203  13.4676446  20.4525801  72.9012024  13.1591535  21.3369133
  73.7086908  14.1938085  20.5823731  81.1058537  23.9940394  23.5877742
  81.8361925  23.7325682  24.1485446  80.4965482  23.2569116  23.6279810
  79.1873834  22.1348257  24.1852194  78.4606998  22.0004222  23.5768685
  78.7721121  22.4425086  24.9908912  67.0104011  25.8538187  31.9499567
  67.9307020  26.0316786  32.1439613  66.9753594  24.9094232  31.7979266
  65.3108235  19.7270417  10.4253795  64.4039691  19.4303530  10.5016508
  65.5884216  19.4300235   9.5588081  56.2286176  21.0476780  20.8752841
  55.9088960  20.1942088  20.5827215  55.6819604  21.2625358  21.6310809
  60.0066083  23.7639221  24.5922348  60.2252093  24.6956329  24.6110382
  60.4191857  23.4047196  25.3777152  66.9270301  14.2707307  16.5798036
  66.1171029  13.9254392  16.9553282  67.6154718  13.9614850  17.1685648
  68.8560849  13.3485353  18.2022333  69.4091888  13.7680807  18.8612356
  69.0930936  12.4221101  18.2445289  64.8793948  19.3372427  33.9825097
  64.7790675  20.2866784  33.9137188  64.6615490  19.0090666  33.1101167
  56.0974436  24.6679692  22.8445963  55.4037907  24.2533645  22.3315917
  56.8447427  24.7100228  22.2479382  72.2339656  15.4585879  17.7100997
  71.6538325  16.1170683  17.3279049  71.9675589  14.6363223  17.2988415
  70.6843223  14.8590936  19.9122317  71.1843001  14.9707471  19.1036636
  71.3278831  14.5551989  20.5523126  64.7425218  22.7669566  32.7990158
  64.2592300  23.5669926  33.0054047  64.8286158  22.7777511  31.8457602
  58.0111178  24.5997946  20.7211978  57.9881866  24.6985633  19.7693861
  58.3211815  25.4463096  21.0429144  60.6698556  26.6574101  24.8358592
  61.6241810  26.6258043  24.7688524  60.4711080  26.1964724  25.6508818
  61.2597938  25.2275217  27.4029390  62.0790827  25.7219295  27.4264227
  61.5334746  24.3107185  27.3746957  71.0164534  17.6185969  16.7657345
  70.1290389  17.9035620  16.5477540  71.4318523  17.4579732  15.9184622
  74.3679070  17.6432490  20.4811685  75.1439461  18.1328942  20.7536301
  73.6427205  18.0690544  20.9383554  76.8051629  18.3560109  21.5385625
  77.3996120  18.1155845  20.8278933  76.8778213  17.6367240  22.1659161
  59.0248785  32.1993720  21.8528790  58.8903253  31.4394121  21.2866788
  58.6080847  32.9234620  21.3857579  70.1607748  27.3830644  10.8605365
  70.8643598  27.5880646  11.4763021  69.4370397  27.9507405  11.1254449
  70.9905558  23.1340505  16.9807635  70.9340759  23.5909056  16.1415268
  71.5433901  22.3731189  16.8030478  74.8010364  18.9230237  17.8057755
  74.5447298  18.5226872  18.6365963  74.1763232  19.6374031  17.6807894
  79.1122702  21.6626310  20.3129046  78.5522260  21.7319499  21.0860608
  78.5066205  21.4867295  19.5928543  62.1817911  33.0963037  22.0647233
  62.0650295  34.0408470  21.9625923  61.3610357  32.7936599  22.4533032
  72.0694445  27.8213173  12.9103825  72.9040049  27.3894371  12.7281300
  71.9078788  27.6495186  13.8380720  71.7240337  24.3245286  14.2760165
  71.6689141  24.1589558  13.3348609  71.0986393  25.0321319  14.4322354
  56.5132852  19.5613350  28.1021587  57.1591716  19.0512304  28.5908812
  56.3050003  20.2982032  28.6765012  69.0386245  26.6294198  33.6013727
  69.9077404  26.8034850  33.2400362  68.5592996  27.4488615  33.4789457
  65.0336463  13.8253395  13.8545483  65.0215133  14.7695235  14.0113754
  65.9259885  13.6423540  13.5604944  63.2072425  33.7491299  25.2803161
  64.1099671  33.7814909  25.5969656  62.9809795  32.8191750  25.2949497
  64.9626027  32.5022285  21.9413240  64.0121658  32.5024147  21.8277612
  65.2658513  31.7555020  21.4249274  68.8488582  10.4196172  18.1091420
  68.0820978   9.8654658  18.2548102  69.2599287  10.4918040  18.9705571
  60.8530343  16.7080968  32.1996601  61.7161805  16.3517772  32.4099926
  60.2795754  16.3694862  32.8872005  73.3655242  40.1445728  18.9317418
  72.8020107  40.0535665  18.1633705  73.2507637  39.3245633  19.4119910
  70.9119674  41.6396920  21.7701638  71.7040966  41.2987745  21.3547937
  71.1516324  41.7491895  22.6903792  78.9454801  43.8116696  14.2431883
  78.2942781  44.3970777  13.8565896  79.7399164  44.3422891  14.3026920
  72.8710428  40.9005833  14.6419017  73.6441304  40.3534820  14.5031893
  73.2235827  41.7650083  14.8533478  75.2076706  37.0598499  12.2737467
  75.4602227  36.5380021  11.5120930  74.2701265  36.8964645  12.3764151
  80.2519989  36.0634278  20.0812210  81.0383078  35.6453701  19.7302627
  80.5158693  36.9680370  20.2493859  80.4230066  41.5007128  14.7800867
  79.7875899  41.5741755  15.4921772  80.0927473  42.0900727  14.1019946
  85.6528416  36.0009511  20.9845189  86.3853588  35.4308728  21.2183018
  84.8967772  35.6131111  21.4251694  74.9272995  38.9626605  14.4761842
  74.8109253  38.2871509  15.1442926  75.0375255  38.4758979  13.6593995
  77.2704536  38.4236752  18.1808531  76.9062743  37.8967373  18.8921453
  78.1271652  38.0335221  18.0075017  83.1753836  29.7131085  25.4439797
  82.8437161  30.5826496  25.2201012  82.5799450  29.3967369  26.1233828
  76.9110023  33.4526652  13.1769880  77.0784425  34.3206889  13.5440351
  76.7207192  33.6153934  12.2531169  73.1197837  38.3657428  20.8772414
  72.1948334  38.2333642  21.0850106  73.3682250  39.1451647  21.3742357
  83.0682500  34.4326171  22.5233147  82.1599377  34.3641580  22.2291908
  83.0170095  34.9098116  23.3514973  76.8899243  35.9084310  14.1616546
  76.7698869  36.3541360  15.0002027  76.1951832  36.2569627  13.6030085
  70.4806648  38.0090701  21.7116203  70.6099029  38.2625180  22.6255615
  69.8004100  38.6018409  21.3920859  74.6506136  48.6787951  17.8106678
  74.5730165  49.6295776  17.8895158  74.0467779  48.3333824  18.4681604
  84.9344146  32.6342610  24.3011021  84.2918526  32.9275143  23.6550816
  84.4299074  32.5195530  25.1064218  82.5884310  36.3805783  14.9896880
  83.5002166  36.6133170  14.8144578  82.0793957  36.9642827  14.4271959
  85.0743124  42.2986039  19.7354826  84.3894162  42.6784940  19.1851859
  85.1586973  42.9081366  20.4686773  79.9320284  32.5563819  23.2386741
  79.0704763  32.8545072  23.5303479  79.9582719  32.7734218  22.3067774
  76.7481854  41.1006009  19.6460547  77.2120199  41.3793712  18.8565170
  76.4838652  40.1989454  19.4633638  73.6405935  40.6477491  22.5840310
  74.2107292  41.0764759  21.9457795  74.2314047  40.3660076  23.2824496
  75.6850740  37.2229162  16.4550112  76.3874783  37.6750205  16.9224039
  75.3531368  36.5812981  17.0830005  69.4276074  35.4812714  21.7567246
  68.6375128  35.7370243  21.2807356  69.9187321  36.2961052  21.8619286
  71.3790819  35.8457294  18.7150722  70.5821982  35.9575988  19.2334218
  71.1516411  36.1843946  17.8491613  67.7113777  35.7343205  24.1882237
  67.9621815  36.6190215  24.4539812  68.2473325  35.5547806  23.4157328
  91.5345876  39.1656702  20.8557498  90.7809585  38.5964100  20.7001502
  91.6693418  39.1319367  21.8028133  76.9244504  44.0370104  16.5312217
  76.7890179  44.8821640  16.9597065  77.4654317  44.2389382  15.7678151
  70.3773902  41.5545542  17.1040142  70.8898422  42.3488793  17.2545707
  71.0296615  40.8571833  17.0373744  72.1868787  44.6711299  19.1862896
  72.3635415  45.5929263  18.9983880  72.9825620  44.3569718  19.6157275
  80.2736968  27.5600666  25.0611111  79.9301237  28.4502308  24.9850221
  80.6415931  27.3702324  24.1980696  68.3422819  39.8834197  17.8799713
  69.1798041  40.2931205  17.6633421  68.5201086  38.9433639  17.8499907
  80.2387251  37.5509277  13.5683546  79.7233874  38.3213882  13.8071933
  79.9664559  36.8774413  14.1916607  77.8234362  32.3958978  18.6268784
  76.9675958  32.0065828  18.4474423  78.2361314  32.4750939  17.7668570
  79.3533508  29.9305321  23.0260344  78.8498304  29.8935457  22.2128149
  79.6464115  30.8398064  23.0857001  75.5976394  30.0144051  22.0326526
  76.4629391  29.8186860  21.6732415  75.6653903  29.7854403  22.9595883
  85.2121525  40.3041632  15.5036719  84.4350968  39.9652791  15.0591882
  85.8913006  40.3094255  14.8291685  80.0273554  35.4236369  15.3943327
  79.7223690  35.7382519  16.2453470  80.9803996  35.5017789  15.4370660
  78.4719986  41.5826593  17.0436281  77.9441347  40.8479352  16.7309519
  77.9707489  42.3601269  16.7976249  73.2038713  32.2446259  19.4042893
  73.7782465  32.0221441  18.6716086  73.7909696  32.3134954  20.1571494
  73.5308301  34.2750720  13.4238778  72.6945613  34.6125407  13.7448053
  73.3913070  34.1399700  12.4865915  75.5061381  29.1187508  18.1317962
  74.8525793  28.8036525  17.5074577  75.4641855  28.4963248  18.8577785
  76.6172586  39.4006803  10.0471254  75.7099648  39.1696056  10.2462403
  77.1143618  38.6044422  10.2345236  79.5240665  48.1104310  12.9667940
  78.8502364  48.4136007  13.5752898  79.9106487  48.9133391  12.6173397
  78.7399121  35.6069441  22.4565610  77.8221683  35.8284388  22.2987298
  79.1559265  35.6815752  21.5977317  79.5234169  37.0060857  17.5868290
  80.2705988  37.5182254  17.2775412  79.7925759  36.6844910  18.4472684
  77.7960819  39.5019398  14.5695244  76.8872039  39.2178431  14.6667714
  77.8255903  39.9218476  13.7098551  83.0280087  43.1125987  18.3386412
  82.5742414  42.2716897  18.3951602  82.3974054  43.7487386  18.6761192
  81.9713006  34.0417973  19.5687079  81.2335763  33.5295360  19.8997322
  82.2239780  33.6018355  18.7570356  81.4713026  44.9502484  19.2736230
  81.7636000  45.5107541  18.5548596  81.9811647  45.2431045  20.0289389
  82.0724634  26.8194225  20.1628849  82.3783511  25.9591589  19.8754764
  82.7977239  27.4111846  19.9627842  68.3648990  37.2224912  18.5510446
  68.1673390  36.6294273  17.8261513  67.8095654  36.9177122  19.2686385
  76.3445713  37.1148018  20.6705040  76.3994323  36.1621855  20.5947516
  75.5336915  37.2707458  21.1546338  77.4936907  41.0428142  11.9083323
  77.0556337  40.3264000  11.4488960  78.2347348  41.2704256  11.3468414
  74.2838073  35.7325078  18.4295418  73.4705939  36.0319249  18.8360611
  74.7797068  35.3380767  19.1469901  76.4346651  45.7282835  20.3629683
  76.3922830  45.9543681  19.4338215  77.3509350  45.4946210  20.5115484
  85.6110022  39.3185339  17.9659641  85.4727921  39.5086935  17.0380831
  85.2546241  40.0804721  18.4227693  74.5512452  42.6045864  20.1591646
  75.3453051  42.1096184  19.9574221  73.8404144  42.0763727  19.7959351
  70.8595215  36.7488946  16.2351399  69.9292804  36.6873401  16.4521361
  70.9552687  36.2264899  15.4388040  70.7780765  33.2743759  18.8229640
  71.0387582  34.1889092  18.7138801  71.5997937  32.8068201  18.9726253
  77.7231880  48.2783983  15.1815020  77.8983636  47.8072026  15.9960642
  77.0364668  48.9049749  15.4096280  78.6788943  42.5556489  21.2278321
  78.3438776  42.5157259  22.1235971  78.1792889  41.8901205  20.7548731
  81.6148135  39.9012523  11.5015380  80.9977305  39.1759351  11.4048433
  81.1464623  40.6621883  11.1582455  72.2892965  51.4273345  21.9554880
  72.5289564  52.0591870  22.6333898  71.4462162  51.0761385  22.2420239
  73.4046681  34.1197947  10.6236685  72.5276147  33.9986748  10.2598931
  73.8804434  33.3284026  10.3715573  64.9248821  38.9075107  20.7178192
  65.6119861  38.5936837  20.1299207  64.7696950  39.8116472  20.4445443
  69.7283543  33.7965304  25.1463216  69.6441732  33.1890973  24.4113625
  68.9066249  34.2874322  25.1472712  76.8020827  47.2352468  24.3596384
  76.7290999  48.0407439  24.8715688  76.3598220  47.4344434  23.5344405
  76.5910607  46.4724238  17.8699205  75.8078129  47.0145918  17.9637430
  77.2903352  46.9898217  18.2693446  79.9007257  32.2818867  20.5133411
  80.3975956  31.5288830  20.1934481  79.1294238  32.3183184  19.9476620
  87.7537014  37.9859233  22.1551702  87.7426891  38.8683948  21.7845635
  86.8854394  37.6330784  21.9606239  80.9837038  41.0390555  18.0871834
  80.0493316  41.1592017  17.9176538  81.1613706  40.1363021  17.8231844
  76.4842226  34.4236250  20.2405095  76.1140013  33.8707291  20.9286001
  76.9801318  33.8194384  19.6880095  84.3709589  36.8807874  18.6221868
  84.8370041  37.7135865  18.5482171  84.8217089  36.4152855  19.3267127
  82.4385820  43.2251695  15.6208020  82.7145664  43.1108290  16.5301894
  81.5690319  42.8269180  15.5820193  82.3426252  29.2488461  22.6612769
  81.4289331  29.4792688  22.8294976  82.7719353  29.3326905  23.5126802
  79.0739884  47.4738046  19.2640834  79.2562279  46.6559702  19.7268586
  79.8972870  47.6905738  18.8265724  79.4082050  46.4006231  16.5255882
  79.9369816  45.8898686  15.9126044  79.6710269  46.0848761  17.3901415
  72.7637797  47.4521348  19.2853658  72.0948173  47.9367475  18.8017698
  72.6250667  47.6990568  20.1997037  64.5016797  36.9875701  22.9895659
  64.5400897  36.4539291  23.7832777  63.9957090  36.4610906  22.3706636
  71.8807559  31.8340241  26.4858201  71.9448886  32.6955072  26.0735599
  71.8174680  31.2214243  25.7530560  68.1325375  35.7139803  16.0649590
  68.4278816  34.8050481  16.0116644  67.2313410  35.6927542  15.7430593
  71.6619622  33.7895799  22.0477139  70.9406207  34.4031767  21.9084612
  72.4512877  34.3253564  21.9693785  69.8613216  33.3953900  16.1888916
  69.5325922  32.5151279  16.0064021  70.2152587  33.3401569  17.0765305
  79.1092795  45.0308803  20.6983901  78.9617757  44.1025511  20.8791471
  79.9346289  45.0528894  20.2140976  72.9755039  33.6826870  16.5564393
  73.3151112  34.2112791  15.8343002  73.4227160  34.0207276  17.3322960
  82.7126917  45.8537362  21.7848774  83.6373464  45.6480223  21.6473225
  82.5442220  45.6053763  22.6938115  76.3214952  29.1513233  24.4594784
  77.1441021  28.6773712  24.3373675  76.5653015  29.9303717  24.9593471
  74.9623186  32.1801492  14.7557686  75.6831549  32.5582745  14.2521403
  74.3388491  32.8990369  14.8592664  79.1054309  32.8846641  15.6916018
  79.3217924  33.7671279  15.3904846  78.6248376  32.4932854  14.9621660
  73.8453531  35.8432354  22.2686763  73.6998111  36.1572657  23.1611044
  73.3678734  36.4617254  21.7157662  75.7049914  32.8334902  22.3167652
  75.6911482  31.9375995  21.9799950  76.4222342  32.8405566  22.9505938
  82.5022233  46.3723029  17.1410865  82.6759111  45.8069452  16.3884718
  82.9951124  47.1723924  16.9590355  75.1086810  31.7149282  17.5855223
  75.2302721  30.7865928  17.7846110  74.8188852  31.7287968  16.6733538
  77.9778000  29.4004193  20.7221942  77.9999697  29.4643526  19.7673922
  78.3946059  28.5608701  20.9162449  88.3561624  39.1359452  18.7601165
  88.7992770  38.3866777  18.3620288  87.4788135  39.1269589  18.3774897
  83.4897406  45.6889794  14.2407764  84.1848310  46.3096486  14.4595078
  83.8320556  44.8385145  14.5160141  85.3888829  43.1389499  15.7695094
  85.9140153  43.4776772  15.0444414  85.3011181  42.2036515  15.5858229
  77.0729489  49.2061482  20.1290347  76.6334480  48.7137861  20.8223204
  77.8237606  48.6634450  19.8882423  69.5521828  45.3973023  20.1314976
  70.3779848  45.0976795  19.7513619  69.2015880  44.6280646  20.5804764
  74.5203362  44.7499492  22.2012649  73.8983371  44.0870197  21.9014877
  75.1908228  44.7760623  21.5186297  67.7530433  43.3159350  21.0903909
  66.9162342  42.8881524  20.9087910  67.7254079  43.5091793  22.0274700
  74.0816868  43.3003415  15.6771110  74.2304989  43.9838879  15.0237782
  74.8883312  43.2808505  16.1920565  87.8994489  40.6064691  21.1523613
  88.7341380  41.0454495  21.3161173  88.0353618  40.1303344  20.3331858
  71.8369501  39.3268593  16.6832179  71.5915543  38.4230923  16.8812389
  72.0065416  39.3285743  15.7411657  79.5266211  30.1992269  26.0656934
  80.0448155  30.9353296  25.7403423  79.1721344  30.5056262  26.9003693
  71.1065149  35.0596950  14.1818340  70.4134394  35.1341305  13.5258376
  70.8616901  34.2957294  14.7039857  79.7778806  26.6192551  21.5857831
  80.0580559  25.9515741  22.2118257  80.5629412  26.8121647  21.0732495
  77.5812274  45.7951545  13.1482857  77.0086241  46.4141733  12.6953329
  78.1545068  46.3450907  13.6822779  80.8009534  46.0788696  14.2791439
  81.7340207  46.0134257  14.4824315  80.7132747  46.9144962  13.8205972
  83.4297550  45.3954566  11.2395387  83.3511182  45.0614429  12.1331145
  84.2507217  45.8876334  11.2386859  77.9659073  37.1312358  10.4898910
  78.9118177  37.0018566  10.5587328  77.5873317  36.3927020  10.9668338
  83.9380957  28.7968364  20.4525801  83.7405778  28.4883452  21.3369133
  84.5480663  29.5230003  20.5823731  91.9452292  39.3232312  23.5877742
  92.6755680  39.0617600  24.1485446  91.3359237  38.5861034  23.6279810
  90.0267589  37.4640175  24.1852194  89.3000752  37.3296140  23.5768685
  89.6114876  37.7717003  24.9908912  76.1501990  35.0562335  10.4253795
  75.2433445  34.7595447  10.5016508  76.4277971  34.7592153   9.5588081
  67.0679930  36.3768698  20.8752841  66.7482714  35.5234006  20.5827215
  66.5213358  36.5917276  21.6310809  77.7664055  29.5999224  16.5798036
  76.9564784  29.2546309  16.9553282  78.4548472  29.2906768  17.1685648
  79.6954604  28.6777271  18.2022333  80.2485642  29.0972724  18.8612356
  79.9324690  27.7513019  18.2445289  74.9200774  31.9149270  10.5665774
  75.7819938  32.2404168  10.8261591  75.1051118  31.1280766  10.0538840
  66.9368190  39.9971609  22.8445963  66.2431661  39.5825562  22.3315917
  67.6841181  40.0392146  22.2479382  83.0733411  30.7877796  17.7100997
  82.4932080  31.4462600  17.3279049  82.8069343  29.9655141  17.2988415
  81.5236977  30.1882854  19.9122317  82.0236756  30.2999388  19.1036636
  82.1672585  29.8843907  20.5523126  68.8504933  39.9289863  20.7211978
  68.8275621  40.0277550  19.7693861  69.1605569  40.7755014  21.0429144
  81.8558289  32.9477887  16.7657345  80.9684144  33.2327537  16.5477540
  82.2712278  32.7871650  15.9184622  85.2072825  32.9724408  20.4811685
  85.9833215  33.4620860  20.7536301  84.4820959  33.3982462  20.9383554
  87.6445384  33.6852027  21.5385625  88.2389874  33.4447763  20.8278933
  87.7171967  32.9659157  22.1659161  69.8642539  47.5285638  21.8528790
  69.7297007  46.7686039  21.2866788  69.4474602  48.2526538  21.3857579
  81.0001502  42.7122561  10.8605365  81.7037352  42.9172564  11.4763021
  80.2764151  43.2799323  11.1254449  81.8299313  38.4632423  16.9807635
  81.7734514  38.9200974  16.1415268  82.3827655  37.7023107  16.8030478
  85.6404118  34.2522154  17.8057755  85.3841053  33.8518790  18.6365963
  85.0156986  34.9665948  17.6807894  89.9516456  36.9918228  20.3129046
  89.3916014  37.0611417  21.0860608  89.3459960  36.8159212  19.5928543
  73.0211665  48.4254955  22.0647233  72.9044049  49.3700387  21.9625923
  72.2004111  48.1228516  22.4533032  82.9088200  43.1505090  12.9103825
  83.7433804  42.7186289  12.7281300  82.7472543  42.9787104  13.8380720
  82.5634092  39.6537204  14.2760165  82.5082896  39.4881475  13.3348609
  81.9380147  40.3613237  14.4322354  75.8730217  29.1545313  13.8545483
  75.8608887  30.0987153  14.0113754  76.7653639  28.9715458  13.5604944
  75.8019781  47.8314203  21.9413240  74.8515412  47.8316065  21.8277612
  76.1052267  47.0846938  21.4249274  79.6882337  25.7488089  18.1091420
  78.9214733  25.1946576  18.2548102  80.0993042  25.8209958  18.9705571
  84.2048997  55.4737646  18.9317418  83.6413862  55.3827583  18.1633705
  84.0901392  54.6537551  19.4119910  81.7513429  56.9688838  21.7701638
  82.5434721  56.6279662  21.3547937  81.9910079  57.0783813  22.6903792
  89.7848555  59.1408614  14.2431883  89.1336535  59.7262694  13.8565896
  90.5792918  59.6714809  14.3026920  83.7104183  56.2297751  14.6419017
  84.4835059  55.6826738  14.5031893  84.0629581  57.0942000  14.8533478
  86.0470460  52.3890417  12.2737467  86.2995981  51.8671938  11.5120930
  85.1095020  52.2256562  12.3764151  91.0913743  51.3926195  20.0812210
  91.8776832  50.9745619  19.7302627  91.3552448  52.2972288  20.2493859
  91.2623821  56.8299046  14.7800867  90.6269654  56.9033672  15.4921772
  90.9321227  57.4192645  14.1019946  96.4922170  51.3301429  20.9845189
  97.2247342  50.7600645  21.2183018  95.7361526  50.9423029  21.4251694
  85.7666749  54.2918523  14.4761842  85.6503007  53.6163426  15.1442926
  85.8769009  53.8050897  13.6593995  88.1098290  53.7528670  18.1808531
  87.7456497  53.2259291  18.8921453  88.9665406  53.3627139  18.0075017
  94.0147591  45.0423003  25.4439797  93.6830916  45.9118414  25.2201012
  93.4193204  44.7259287  26.1233828  87.7503777  48.7818570  13.1769880
  87.9178179  49.6498806  13.5440351  87.5600946  48.9445852  12.2531169
  83.9591592  53.6949346  20.8772414  83.0342088  53.5625560  21.0850106
  84.2076005  54.4743565  21.3742357  93.9076254  49.7618089  22.5233147
  92.9993131  49.6933497  22.2291908  93.8563850  50.2390034  23.3514973
  87.7292998  51.2376227  14.1616546  87.6092623  51.6833278  15.0002027
  87.0345586  51.5861545  13.6030085  81.3200403  53.3382619  21.7116203
  81.4492784  53.5917098  22.6255615  80.6397854  53.9310327  21.3920859
  85.4899890  64.0079869  17.8106678  85.4123920  64.9587694  17.8895158
  84.8861534  63.6625742  18.4681604  95.7737900  47.9634527  24.3011021
  95.1312281  48.2567060  23.6550816  95.2692829  47.8487448  25.1064218
  93.4278064  51.7097700  14.9896880  94.3395920  51.9425087  14.8144578
  92.9187711  52.2934745  14.4271959  95.9136878  57.6277957  19.7354826
  95.2287916  58.0076858  19.1851859  95.9980728  58.2373283  20.4686773
  91.2149347  48.7299303  27.6572904  90.9710279  49.4841364  27.1207179
  91.4909278  49.1084651  28.4920151  90.7714039  47.8855736  23.2386741
  89.9098518  48.1836990  23.5303479  90.7976474  48.1026135  22.3067774
  87.5875608  56.4297927  19.6460547  88.0513954  56.7085630  18.8565170
  87.3232406  55.5281372  19.4633638  86.5244494  52.5521079  16.4550112
  87.2268538  53.0042123  16.9224039  86.1925123  51.9104898  17.0830005
  80.2669828  50.8104632  21.7567246  79.4768882  51.0662161  21.2807356
  80.7581076  51.6252970  21.8619286  82.2184574  51.1749211  18.7150722
  81.4215737  51.2867906  19.2334218  81.9910166  51.5135864  17.8491613
 102.3739631  54.4948620  20.8557498 101.6203339  53.9256018  20.7001502
 102.5087172  54.4611284  21.8028133  87.7638259  59.3662022  16.5312217
  87.6283934  60.2113558  16.9597065  88.3048071  59.5681300  15.7678151
  81.2167656  56.8837460  17.1040142  81.7292177  57.6780710  17.2545707
  81.8690369  56.1863751  17.0373744  83.0262541  60.0003216  19.1862896
  83.2029169  60.9221181  18.9983880  83.8219375  59.6861636  19.6157275
  91.1130723  42.8892584  25.0611111  90.7694992  43.7794226  24.9850221
  91.4809685  42.6994242  24.1980696  79.1816573  55.2126114  17.8799713
  80.0191795  55.6223123  17.6633421  79.3594841  54.2725557  17.8499907
  91.0781005  52.8801195  13.5683546  90.5627629  53.6505800  13.8071933
  90.8058314  52.2066331  14.1916607  88.6628116  47.7250896  18.6268784
  87.8069713  47.3357746  18.4474423  89.0755068  47.8042857  17.7668570
  90.1927263  45.2597239  23.0260344  89.6892059  45.2227374  22.2128149
  90.4857870  46.1689982  23.0857001  86.4370149  45.3435969  22.0326526
  87.3023146  45.1478777  21.6732415  86.5047658  45.1146321  22.9595883
  96.0515279  55.6333550  15.5036719  95.2744722  55.2944709  15.0591882
  96.7306760  55.6386173  14.8291685  90.8667308  50.7528287  15.3943327
  90.5617444  51.0674436  16.2453470  91.8197751  50.8309707  15.4370660
  89.3113740  56.9118510  17.0436281  88.7835102  56.1771270  16.7309519
  88.8101243  57.6893187  16.7976249  94.2906586  55.1067531  22.1603327
  93.6330261  55.7966792  22.2483456  95.0946986  55.4963963  22.5037314
  84.0432468  47.5738177  19.4042893  84.6176220  47.3513358  18.6716086
  84.6303450  47.6426871  20.1571494  93.1012045  53.4611904  20.2107269
  93.6143927  54.0941895  20.7128979  93.7513269  52.8613099  19.8450629
  84.3702055  49.6042638  13.4238778  83.5339367  49.9417324  13.7448053
  84.2306825  49.4691618  12.4865915  86.3455136  44.4479426  18.1317962
  85.6919548  44.1328443  17.5074577  86.3035610  43.8255166  18.8577785
  87.4566340  54.7298721  10.0471254  86.5493402  54.4987974  10.2462403
  87.9537372  53.9336340  10.2345236  90.3634419  63.4396228  12.9667940
  89.6896118  63.7427925  13.5752898  90.7500241  64.2425308  12.6173397
  90.3627924  52.3352775  17.5868290  91.1099743  52.8474172  17.2775412
  90.6319513  52.0136828  18.4472684  88.6354574  54.8311316  14.5695244
  87.7265793  54.5470348  14.6667714  88.6649658  55.2510394  13.7098551
  93.8673841  58.4417905  18.3386412  93.4136168  57.6008815  18.3951602
  93.2367808  59.0779303  18.6761192  92.8106761  49.3709891  19.5687079
  92.0729518  48.8587277  19.8997322  93.0633534  48.9310273  18.7570356
  92.3106781  60.2794402  19.2736230  92.6029755  60.8399459  18.5548596
  92.8205401  60.5722963  20.0289389  92.9118388  42.1486143  20.1628849
  93.2177265  41.2883507  19.8754764  93.6370993  42.7403763  19.9627842
  79.2042744  52.5516830  18.5510446  79.0067144  51.9586190  17.8261513
  78.6489408  52.2469040  19.2686385  88.3330662  56.3720059  11.9083323
  87.8950092  55.6555918  11.4488960  89.0741103  56.5996174  11.3468414
  85.1231828  51.0616996  18.4295418  84.3099693  51.3611166  18.8360611
  85.6190822  50.6672685  19.1469901  87.2740406  61.0574753  20.3629683
  87.2316585  61.2835599  19.4338215  88.1903105  60.8238127  20.5115484
  90.7206040  51.5258820  27.2610312  91.0755427  51.7530294  28.1204778
  91.3678171  51.8577197  26.6387568  96.4503776  54.6477256  17.9659641
  96.3121675  54.8378852  17.0380831  96.0939995  55.4096639  18.4227693
  96.4773156  56.7153783  22.9770913  96.9109663  56.6229072  23.8253967
  97.1904737  56.6911284  22.3390929  85.3906207  57.9337782  20.1591646
  86.1846805  57.4388102  19.9574221  84.6797899  57.4055645  19.7959351
  81.6988970  52.0780864  16.2351399  80.7686558  52.0165319  16.4521361
  81.7946442  51.5556816  15.4388040  81.6174519  48.6035676  18.8229640
  81.8781336  49.5181010  18.7138801  82.4391691  48.1360119  18.9726253
  97.3388706  56.7577484  25.5103798  97.5324596  57.6623294  25.7563073
  97.2389324  56.2984903  26.3442383  88.5625634  63.6075900  15.1815020
  88.7377390  63.1363943  15.9960642  87.8758423  64.2341666  15.4096280
  89.5182698  57.8848407  21.2278321  89.1832530  57.8449176  22.1235971
  89.0186643  57.2193122  20.7548731  92.4541889  55.2304441  11.5015380
  91.8371060  54.5051269  11.4048433  91.9858378  55.9913801  11.1582455
  83.1286720  66.7565263  21.9554880  83.3683318  67.3883787  22.6333898
  82.2855916  66.4053303  22.2420239  84.2440435  49.4489865  10.6236685
  83.3669902  49.3278666  10.2598931  84.7198188  48.6575943  10.3715573
  75.7642575  54.2367025  20.7178192  76.4513615  53.9228755  20.1299207
  75.6090704  55.1408390  20.4445443  87.4304361  61.8016156  17.8699205
  86.6471883  62.3437836  17.9637430  88.1297106  62.3190135  18.2693446
  90.7401011  47.6110785  20.5133411  91.2369711  46.8580747  20.1934481
  89.9687993  47.6475102  19.9476620  98.5930769  53.3151151  22.1551702
  98.5820645  54.1975866  21.7845635  97.7248148  52.9622701  21.9606239
  91.8230792  56.3682472  18.0871834  90.8887071  56.4883935  17.9176538
  92.0007461  55.4654939  17.8231844  95.2103343  52.2099791  18.6221868
  95.6763796  53.0427783  18.5482171  95.6610844  51.7444773  19.3267127
  93.2779575  58.5543613  15.6208020  93.5539418  58.4400207  16.5301894
  92.4084073  58.1561098  15.5820193  93.1820006  44.5780378  22.6612769
  92.2683086  44.8084605  22.8294976  93.6113108  44.6618823  23.5126802
  92.9526465  52.7670270  25.1612663  92.2997915  53.0146178  24.5065116
  93.3306845  51.9534409  24.8275141  89.9133639  62.8029964  19.2640834
  90.0956033  61.9851620  19.7268586  90.7366625  63.0197656  18.8265724
  90.2475804  61.7298149  16.5255882  90.7763570  61.2190603  15.9126044
  90.5104024  61.4140679  17.3901415  83.6031552  62.7813265  19.2853658
  82.9341927  63.2659393  18.8017698  83.4644422  63.0282486  20.1997037
  75.3410551  52.3167618  22.9895659  75.3794651  51.7831209  23.7832777
  74.8350844  51.7902824  22.3706636  78.9719129  51.0431720  16.0649590
  79.2672570  50.1342399  16.0116644  78.0707165  51.0219460  15.7430593
  90.8805208  62.7638984  22.8699999  90.7556347  61.9628724  22.3610944
  91.5384299  63.2585178  22.3813969  82.5013376  49.1187717  22.0477139
  81.7799962  49.7323685  21.9084612  83.2906632  49.6545482  21.9693785
  92.9440116  60.5648005  24.4979549  91.9970452  60.4453356  24.4257876
  93.2922889  59.6770503  24.5805810  80.7006971  48.7245818  16.1888916
  80.3719677  47.8443197  16.0064021  81.0546341  48.6693487  17.0765305
  89.9486550  60.3600721  20.6983901  89.8011512  59.4317428  20.8791471
  90.7740043  60.3820811  20.2140976  83.8148794  49.0118788  16.5564393
  84.1544866  49.5404709  15.8343002  84.2620914  49.3499194  17.3322960
  93.5520671  61.1829280  21.7848774  94.4767219  60.9772141  21.6473225
  93.3835975  60.9345681  22.6938115  85.8016941  47.5093409  14.7557686
  86.5225303  47.8874662  14.2521403  85.1782245  48.2282286  14.8592664
  89.9448064  48.2138558  15.6916018  90.1611678  49.0963196  15.3904846
  89.4642131  47.8224772  14.9621660  84.6847285  51.1724272  22.2686763
  84.5391866  51.4864575  23.1611044  84.2072489  51.7909172  21.7157662
  86.5443668  48.1626820  22.3167652  86.5305237  47.2667913  21.9799950
  87.2616096  48.1697483  22.9505938  88.3969799  48.5964160  24.3620780
  88.1387577  49.5181230  24.3605110  87.8654839  48.1994594  25.0521244
  93.3415988  61.7014947  17.1410865  93.5152865  61.1361369  16.3884718
  93.8344879  62.5015842  16.9590355  85.9480564  47.0441200  17.5855223
  86.0696475  46.1157846  17.7846110  85.6582606  47.0579886  16.6733538
  88.8171754  44.7296110  20.7221942  88.8393451  44.7935443  19.7673922
  89.2339813  43.8900619  20.9162449  99.1955379  54.4651370  18.7601165
  99.6386525  53.7158695  18.3620288  98.3181889  54.4561506  18.3774897
  94.3291160  61.0181711  14.2407764  95.0242065  61.6388404  14.4595078
  94.6714310  60.1677063  14.5160141  96.2282583  58.4681417  15.7695094
  96.7533907  58.8068690  15.0444414  96.1404936  57.5328432  15.5858229
  87.9123244  64.5353400  20.1290347  87.4728234  64.0429779  20.8223204
  88.6631361  63.9926368  19.8882423  80.3915583  60.7264941  20.1314976
  81.2173603  60.4268713  19.7513619  80.0409635  59.9572563  20.5804764
  78.5924188  58.6451267  21.0903909  77.7556096  58.2173442  20.9087910
  78.5647833  58.8383711  22.0274700  96.0374364  55.9506787  28.3879021
  96.0872369  55.7856794  29.3294544  95.9288288  55.0834046  27.9976902
  84.9210623  58.6295333  15.6771110  85.0698743  59.3130797  15.0237782
  85.7277066  58.6100423  16.1920565  98.7388243  55.9356608  21.1523613
  99.5735135  56.3746412  21.3161173  98.8747372  55.4595261  20.3331858
  95.7879749  53.4936343  27.1001100  96.2633871  53.6863989  26.2919952
  94.8645315  53.5495529  26.8544484  82.6763256  54.6560510  16.6832179
  82.4309298  53.7522840  16.8812389  82.8459171  54.6577661  15.7411657
  90.3659966  45.5284187  26.0656934  90.8841910  46.2645214  25.7403423
  90.0115099  45.8348180  26.9003693  81.9458903  50.3888868  14.1818340
  81.2528148  50.4633223  13.5258376  81.7010655  49.6249211  14.7039857
  90.6172560  41.9484469  21.5857831  90.8974314  41.2807658  22.2118257
  91.4023167  42.1413565  21.0732495  88.4206029  61.1243463  13.1482857
  87.8479996  61.7433650  12.6953329  88.9938822  61.6742825  13.6822779
  94.4881418  50.3702103  25.3329406  95.4398841  50.4700201  25.3541630
  94.3184869  49.5780372  25.8427490  92.5095798  47.4557686  25.5188807
  91.9145730  47.7362699  24.8235295  92.2245495  47.9451587  26.2905548
  91.6403288  61.4080613  14.2791439  92.5733961  61.3426175  14.4824315
  91.5526501  62.2436880  13.8205972  94.2691305  60.7246484  11.2395387
  94.1904936  60.3906347  12.1331145  95.0900972  61.2168251  11.2386859
  96.9669496  53.5908223  24.4471706  96.9345816  52.6524224  24.6331389
  97.5770120  53.6692260  23.7137530  88.8052827  52.4604276  10.4898910
  89.7511932  52.3310484  10.5587328  88.4267072  51.7218938  10.9668338
  97.1163985  50.3819266  24.4929989  96.6003033  49.5977723  24.3059918
  98.0003933  50.0537983  24.6576508  94.7774712  44.1260282  20.4525801
  94.5799533  43.8175370  21.3369133  95.3874417  44.8521921  20.5823731
 102.7846046  54.6524230  23.5877742 103.5149434  54.3909518  24.1485446
 102.1752991  53.9152952  23.6279810 100.8661343  52.7932092  24.1852194
 100.1394507  52.6588057  23.5768685 100.4508630  53.1008921  24.9908912
  86.9895744  50.3854252  10.4253795  86.0827200  50.0887365  10.5016508
  87.2671725  50.0884070   9.5588081  77.9073685  51.7060616  20.8752841
  77.5876469  50.8525924  20.5827215  77.3607113  51.9209194  21.6310809
  88.6057810  44.9291142  16.5798036  87.7958538  44.5838227  16.9553282
  89.2942227  44.6198686  17.1685648  90.5348358  44.0069189  18.2022333
  91.0879397  44.4264642  18.8612356  90.7718445  43.0804937  18.2445289
  85.7594529  47.2441187  10.5665774  86.6213693  47.5696086  10.8261591
  85.9444873  46.4572683  10.0538840  77.7761945  55.3263527  22.8445963
  77.0825416  54.9117480  22.3315917  78.5234936  55.3684064  22.2479382
  93.9127165  46.1169714  17.7100997  93.3325834  46.7754518  17.3279049
  93.6463098  45.2947058  17.2988415  92.3630732  45.5174772  19.9122317
  92.8630510  45.6291306  19.1036636  93.0066340  45.2135824  20.5523126
  79.6898687  55.2581781  20.7211978  79.6669375  55.3569468  19.7693861
  79.9999324  56.1046932  21.0429144  92.6952043  48.2769804  16.7657345
  91.8077898  48.5619455  16.5477540  93.1106032  48.1163568  15.9184622
  96.0466579  48.3016325  20.4811685  96.8226970  48.7912778  20.7536301
  95.3214714  48.7274379  20.9383554  98.4839138  49.0143944  21.5385625
  99.0783629  48.7739680  20.8278933  98.5565722  48.2951075  22.1659161
  80.7036294  62.8577555  21.8528790  80.5690762  62.0977956  21.2866788
  80.2868356  63.5818455  21.3857579  91.8395257  58.0414479  10.8605365
  92.5431107  58.2464481  11.4763021  91.1157906  58.6091241  11.1254449
  92.6693067  53.7924340  16.9807635  92.6128268  54.2492892  16.1415268
  93.2221409  53.0315025  16.8030478  96.4797873  49.5814072  17.8057755
  96.2234807  49.1810708  18.6365963  95.8550741  50.2957866  17.6807894
 100.7910211  52.3210145  20.3129046 100.2309769  52.3903335  21.0860608
 100.1853714  52.1451130  19.5928543  83.8605420  63.7546872  22.0647233
  83.7437804  64.6992305  21.9625923  83.0397866  63.4520434  22.4533032
  93.7481954  58.4797008  12.9103825  94.5827558  58.0478207  12.7281300
  93.5866297  58.3079022  13.8380720  93.4027846  54.9829121  14.2760165
  93.3476650  54.8173393  13.3348609  92.7773902  55.6905154  14.4322354
  86.7123972  44.4837230  13.8545483  86.7002642  45.4279070  14.0113754
  87.6047394  44.3007376  13.5604944  86.6413536  63.1606121  21.9413240
  85.6909167  63.1607982  21.8277612  86.9446022  62.4138855  21.4249274
  90.5276091  41.0780007  18.1091420  89.7608487  40.5238494  18.2548102
  90.9386796  41.1501876  18.9705571 102.3766229  68.9966659  23.0059002
 103.0144639  68.8773407  22.3022342 102.2587072  69.9447503  23.0646954
  99.1855936  68.9494087  22.9420527  98.8474447  68.8335152  22.0541062
 100.0545704  68.5485252  22.9221533  95.0442751  70.8029564  18.9317418
  94.4807616  70.7119501  18.1633705  94.9295146  69.9829468  19.4119910
  99.6675719  70.1028939  28.9006732  99.6564359  69.7081737  28.0287236
  99.8296358  69.3695012  29.4940504  92.5907183  72.2980755  21.7701638
  93.3828475  71.9571580  21.3547937  92.8303833  72.4075730  22.6903792
 100.6242310  74.4700531  14.2431883  99.9730290  75.0554612  13.8565896
 101.4186673  75.0006726  14.3026920  94.5497937  71.5589669  14.6419017
  95.3228813  71.0118656  14.5031893  94.9023336  72.4233918  14.8533478
  96.3882980  72.8866051  27.8485916  96.0972846  73.7911682  27.7332583
  97.0239964  72.9282578  28.5629986  97.3139187  70.2642899  24.4387276
  97.9102759  70.0398922  23.7244239  97.3714158  69.5227645  25.0412724
  96.8864215  67.7182335  12.2737467  97.1389736  67.1963856  11.5120930
  95.9488774  67.5548480  12.3764151 101.9307498  66.7218113  20.0812210
 102.7170587  66.3037536  19.7302627 102.1946202  67.6264205  20.2493859
 102.1017575  72.1590963  14.7800867 101.4663408  72.2325590  15.4921772
 101.7714982  72.7484562  14.1019946 107.3315925  66.6593346  20.9845189
 108.0641097  66.0892563  21.2183018 106.5755281  66.2714947  21.4251694
  96.6060504  69.6210441  14.4761842  96.4896762  68.9455344  15.1442926
  96.7162764  69.1342815  13.6593995  98.9492045  69.0820588  18.1808531
  98.5850252  68.5551209  18.8921453  99.8059161  68.6919057  18.0075017
 104.8541345  60.3714920  25.4439797 104.5224670  61.2410331  25.2201012
 104.2586959  60.0551204  26.1233828  98.5897532  64.1110487  13.1769880
  98.7571934  64.9790724  13.5440351  98.3994701  64.2737769  12.2531169
 101.3472865  72.5727466  24.8435710 101.0473588  73.4752505  24.7351517
 101.0023924  72.3059650  25.6956863  94.7985346  69.0241263  20.8772414
  93.8735843  68.8917477  21.0850106  95.0469759  69.8035482  21.3742357
 104.7470009  65.0910007  22.5233147 103.8386886  65.0225415  22.2291908
 104.6957604  65.5681952  23.3514973  98.5686752  66.5668145  14.1616546
  98.4486378  67.0125196  15.0002027  97.8739341  66.9153463  13.6030085
  92.1594157  68.6674537  21.7116203  92.2886538  68.9209016  22.6255615
  91.4791609  69.2602245  21.3920859  96.3293645  79.3371787  17.8106678
  96.2517674  80.2879612  17.8895158  95.7255288  78.9917659  18.4681604
 106.6131655  63.2926445  24.3011021 105.9706035  63.5858978  23.6550816
 106.1086583  63.1779365  25.1064218 104.2671819  67.0389618  14.9896880
 105.1789675  67.2717005  14.8144578 103.7581466  67.6226662  14.4271959
  97.0757247  69.3185106  30.0286012  97.8171931  69.8570149  29.7520835
  96.3694232  69.9451394  30.1857563 102.5512586  71.4614246  28.6258173
 102.9595942  71.0196657  27.8812805 101.8289848  70.8866873  28.8792366
  98.9043656  66.3986853  25.9991730  99.7504852  66.8226266  26.1426379
  98.8442294  65.7420477  26.6930293 102.8741401  72.0215437  22.3810462
 102.2450263  72.1861151  21.6786530 102.4867063  72.4357046  23.1521426
 106.7530633  72.9569874  19.7354826 106.0681671  73.3368776  19.1851859
 106.8374482  73.5665201  20.4686773 102.0543102  64.0591221  27.6572904
 101.8104034  64.8133282  27.1207179 102.3303032  64.4376569  28.4920151
 104.0081564  70.6029833  26.3350169 104.2198460  71.2461593  25.6584550
 103.9611313  69.7692150  25.8672099 101.6107793  63.2147654  23.2386741
 100.7492272  63.5128908  23.5303479 101.6370228  63.4318053  22.3067774
  98.4269363  71.7589845  19.6460547  98.8907708  72.0377548  18.8565170
  98.1626161  70.8573289  19.4633638  95.3193444  71.3061326  22.5840310
  95.8894801  71.7348595  21.9457795  95.9101556  71.0243911  23.2824496
  97.3638249  67.8812997  16.4550112  98.0662292  68.3334041  16.9224039
  97.0318877  67.2396816  17.0830005  91.1063583  66.1396550  21.7567246
  90.3162637  66.3954078  21.2807356  91.5974830  66.9544888  21.8619286
 105.1227392  73.4801789  24.5072527 105.9444836  73.0781976  24.2255208
 105.1189795  73.3770023  25.4588642  93.0578328  66.5041129  18.7150722
  92.2609491  66.6159823  19.2334218  92.8303920  66.8427781  17.8491613
  98.8883996  73.0285832  26.6633237  98.9528428  73.4906239  27.4991409
  98.1794920  72.3983197  26.7915547  89.3901286  66.3927040  24.1882237
  89.6409324  67.2774050  24.4539812  89.9260834  66.2131642  23.4157328
 113.2133385  69.8240537  20.8557498 112.4597094  69.2547935  20.7001502
 113.3480927  69.7903202  21.8028133  98.6032013  74.6953940  16.5312217
  98.4677688  75.5405475  16.9597065  99.1441826  74.8973217  15.7678151
  92.0561411  72.2129378  17.1040142  92.5685931  73.0072628  17.2545707
  92.7084124  71.5155668  17.0373744  93.8656296  75.3295134  19.1862896
  94.0422924  76.2513099  18.9983880  94.6613129  75.0153553  19.6157275
 100.2300490  75.3177506  30.6612559  99.7864344  74.5313885  30.3433464
 100.8917703  75.5056657  29.9956450  94.9887611  76.8473308  25.1873238
  95.5395036  76.7190371  24.4150232  94.1499087  77.1468197  24.8368131
 102.3281728  75.5980306  28.6893961 102.3100203  76.4189187  28.1974230
 103.2501648  75.4734381  28.9144102  98.7854782  73.1124436  29.5317469
  99.3183119  72.3512724  29.3016777  98.2568863  72.8198087  30.2741624
 101.9524477  58.2184502  25.0611111 101.6088746  59.1086143  24.9850221
 102.3203440  58.0286159  24.1980696  90.0210328  70.5418032  17.8799713
  90.8585550  70.9515040  17.6633421  90.1988595  69.6017474  17.8499907
 101.9174760  68.2093113  13.5683546 101.4021383  68.9797717  13.8071933
 101.6452068  67.5358249  14.1916607  99.5021871  63.0542813  18.6268784
  98.6463467  62.6649664  18.4474423  99.9148823  63.1334774  17.7668570
 101.0321017  60.5889157  23.0260344 100.5285813  60.5519292  22.2128149
 101.3251624  61.4981899  23.0857001  97.2763903  60.6727886  22.0326526
  98.1416900  60.4770695  21.6732415  97.3441412  60.4438238  22.9595883
 106.8909034  70.9625467  15.5036719 106.1138477  70.6236627  15.0591882
 107.5700515  70.9678090  14.8291685 101.7061063  66.0820205  15.3943327
 101.4011198  66.3966354  16.2453470 102.6591505  66.1601625  15.4370660
 100.1507495  72.2410428  17.0436281  99.6228856  71.5063188  16.7309519
  99.6494997  73.0185104  16.7976249 105.1300341  70.4359449  22.1603327
 104.4724015  71.1258710  22.2483456 105.9340740  70.8255881  22.5037314
  94.8826222  62.9030094  19.4042893  95.4569974  62.6805276  18.6716086
  95.4697205  62.9718789  20.1571494 103.9405800  68.7903821  20.2107269
 104.4537681  69.4233813  20.7128979 104.5907023  68.1905017  19.8450629
  95.2095809  64.9334555  13.4238778  94.3733122  65.2709242  13.7448053
  95.0700579  64.7983535  12.4865915  97.1848890  59.7771343  18.1317962
  96.5313302  59.4620360  17.5074577  97.1429364  59.1547084  18.8577785
  98.2960095  70.0590638  10.0471254  97.3887157  69.8279892  10.2462403
  98.7931127  69.2628258  10.2345236 100.4186630  66.2653277  22.4565610
  99.5009192  66.4868224  22.2987298 100.8346774  66.3399587  21.5977317
 101.2021678  67.6644692  17.5868290 101.9493497  68.1766090  17.2775412
 101.4713268  67.3428745  18.4472684  99.4748328  70.1603233  14.5695244
  98.5659548  69.8762266  14.6667714  99.5043412  70.5802312  13.7098551
 104.7067596  73.7709823  18.3386412 104.2529923  72.9300733  18.3951602
 104.0761563  74.4071221  18.6761192 103.6500515  64.7001809  19.5687079
 102.9123272  64.1879195  19.8997322 103.9027289  64.2602190  18.7570356
 103.1500535  75.6086319  19.2736230 103.4423509  76.1691377  18.5548596
 103.6599156  75.9014880  20.0289389 103.7512143  57.4778061  20.1628849
 104.0571019  56.6175424  19.8754764 104.4764748  58.0695681  19.9627842
  90.0436499  67.8808747  18.5510446  89.8460899  67.2878108  17.8261513
  89.4883163  67.5760958  19.2686385  98.0233222  67.7731854  20.6705040
  98.0781832  66.8205690  20.5947516  97.2124424  67.9291293  21.1546338
  99.1724416  71.7011977  11.9083323  98.7343846  70.9847836  11.4488960
  99.9134857  71.9288092  11.3468414  95.9625582  66.3908914  18.4295418
  95.1493448  66.6903084  18.8360611  96.4584577  65.9964602  19.1469901
  98.1134160  76.3866670  20.3629683  98.0710339  76.6127517  19.4338215
  99.0296859  76.1530045  20.5115484 101.5599794  66.8550738  27.2610312
 101.9149182  67.0822211  28.1204778 102.2071925  67.1869115  26.6387568
 107.2897531  69.9769174  17.9659641 107.1515430  70.1670770  17.0380831
 106.9333750  70.7388557  18.4227693 107.3166911  72.0445701  22.9770913
 107.7503417  71.9520990  23.8253967 108.0298491  72.0203201  22.3390929
  96.2299961  73.2629700  20.1591646  97.0240560  72.7680020  19.9574221
  95.5191653  72.7347563  19.7959351 101.0494805  75.6447795  24.5104014
 101.1031828  76.2138731  25.2781729 100.1809587  75.8149680  24.1458051
  92.5382724  67.4072781  16.2351399  91.6080313  67.3457237  16.4521361
  92.6340196  66.8848734  15.4388040  92.4568274  63.9327594  18.8229640
  92.7175091  64.8472927  18.7138801  93.2785446  63.4652037  18.9726253
 108.1782460  72.0869402  25.5103798 108.3718350  72.9915212  25.7563073
 108.0783078  71.6276821  26.3442383 103.2397569  72.2376144  31.0844679
 103.0883075  72.0086696  30.1674763 103.2302248  73.1946746  31.0976024
 100.0082905  69.8108057  26.0690945 100.9374965  69.9619217  25.8959913
  99.5873935  69.8992078  25.2139592  98.8071237  73.8358721  23.8389483
  98.6682323  73.4677506  24.7115421  98.0185833  74.3506361  23.6673441
  99.4019389  78.9367818  15.1815020  99.5771145  78.4655861  15.9960642
  98.7152177  79.5633584  15.4096280 100.3576452  73.2140324  21.2278321
 100.0226285  73.1741094  22.1235971  99.8580398  72.5485040  20.7548731
 103.2935644  70.5596359  11.5015380 102.6764814  69.8343187  11.4048433
 102.8252132  71.3205719  11.1582455  96.9602997  68.3327914  26.2414582
  97.6702615  67.6921106  26.2001200  96.9172305  68.5840808  27.1640762
 104.9489775  75.2695267  29.1621161 104.8902322  74.5854487  28.4951744
 105.3509294  76.0114257  28.7101787  93.9680474  82.0857181  21.9554880
  94.2077072  82.7175705  22.6333898  93.1249671  81.7345221  22.2420239
  95.0834190  64.7781783  10.6236685  94.2063656  64.6570584  10.2598931
  95.5591943  63.9867861  10.3715573 104.9507183  73.2334851  27.3935140
 104.0633961  72.8960773  27.5161539 105.5205734  72.5017882  27.6303906
  86.6036330  69.5658943  20.7178192  87.2907370  69.2520673  20.1299207
  86.4484459  70.4700307  20.4445443  98.4808336  77.8936303  24.3596384
  98.4078508  78.6991275  24.8715688  98.0385729  78.0928269  23.5344405
  98.2698116  77.1308073  17.8699205  97.4865638  77.6729753  17.9637430
  98.9690861  77.6482053  18.2693446 101.5794766  62.9402703  20.5133411
 102.0763465  62.1872665  20.1934481 100.8081747  62.9767019  19.9476620
 109.4324523  68.6443068  22.1551702 109.4214400  69.5267784  21.7845635
 108.5641903  68.2914619  21.9606239 100.9407020  77.7923137  26.5154542
 101.6534992  78.4270602  26.4430444 100.4497048  77.8887003  25.6994544
 102.6624547  71.6974390  18.0871834 101.7280825  71.8175852  17.9176538
 102.8401215  70.7946857  17.8231844  98.1629735  65.0820086  20.2405095
  97.7927522  64.5291126  20.9286001  98.6588827  64.4778219  19.6880095
 106.0497098  67.5391709  18.6221868 106.5157550  68.3719701  18.5482171
 106.5004598  67.0736691  19.3267127  95.9918933  75.5417581  27.3360113
  96.6928393  76.1754064  27.4889507  95.5214048  75.8832312  26.5755752
 104.1173329  73.8835530  15.6208020 104.3933173  73.7692125  16.5301894
 103.2477828  73.4853015  15.5820193 104.0213761  59.9072296  22.6612769
 103.1076840  60.1376523  22.8294976 104.4506862  59.9910740  23.5126802
 103.7920219  68.0962188  25.1612663 103.1391669  68.3438096  24.5065116
 104.1700599  67.2826326  24.8275141 100.7527393  78.1321881  19.2640834
 100.9349788  77.3143537  19.7268586 101.5760379  78.3489574  18.8265724
 101.0869559  77.0590066  16.5255882 101.6157325  76.5482521  15.9126044
 101.3497778  76.7432597  17.3901415  99.8407792  68.8381999  31.6478701
  99.1648429  68.7376129  32.3181076 100.6635426  68.6821213  32.1114698
  91.5886651  75.0753936  24.2691216  92.1740088  74.3297624  24.4019120
  91.3911490  75.3857892  25.1527880  94.4425306  78.1105183  19.2853658
  93.7735682  78.5951311  18.8017698  94.3038176  78.3574404  20.1997037
  86.1804306  67.6459536  22.9895659  86.2188405  67.1123127  23.7832777
  85.6744599  67.1194741  22.3706636  98.5830575  80.1448927  25.8836317
  99.1348883  80.3080548  26.6485402  98.9236769  80.7353364  25.2116341
 103.4341449  74.9710184  31.7384971 103.9781353  75.5840142  31.2439926
 102.8528294  75.5289763  32.2551984  89.8112884  66.3723638  16.0649590
  90.1066325  65.4634316  16.0116644  88.9100919  66.3511378  15.7430593
 101.7198962  78.0930902  22.8699999 101.5950102  77.2920642  22.3610944
 102.3778053  78.5877096  22.3813969  93.3407131  64.4479635  22.0477139
  92.6193716  65.0615602  21.9084612  94.1300386  64.9837399  21.9693785
 103.7833871  75.8939922  24.4979549 102.8364206  75.7745273  24.4257876
 104.1316644  75.0062420  24.5805810  91.5400725  64.0537736  16.1888916
  91.2113431  63.1735115  16.0064021  91.8940096  63.9985404  17.0765305
 100.7880304  75.6892638  20.6983901 100.6405266  74.7609346  20.8791471
 101.6133798  75.7112729  20.2140976  94.6542548  64.3410706  16.5564393
  94.9938621  64.8696627  15.8343002  95.1014669  64.6791112  17.3322960
 104.3914426  76.5121197  21.7848774 105.3160973  76.3064059  21.6473225
 104.2229729  76.2637598  22.6938115  98.0002461  59.8097069  24.4594784
  98.8228530  59.3357547  24.3373675  98.2440524  60.5887552  24.9593471
  96.6410695  62.8385327  14.7557686  97.3619058  63.2166580  14.2521403
  96.0176000  63.5574204  14.8592664 100.7841818  63.5430476  15.6916018
 101.0005433  64.4255114  15.3904846 100.3035885  63.1516690  14.9621660
  95.5241040  66.5016189  22.2686763  95.3785620  66.8156492  23.1611044
  95.0466243  67.1201090  21.7157662  97.3837423  63.4918737  22.3167652
  97.3698991  62.5959831  21.9799950  98.1009851  63.4989401  22.9505938
  99.2363553  63.9256078  24.3620780  98.9781331  64.8473148  24.3605110
  98.7048594  63.5286512  25.0521244 104.1809742  77.0306865  17.1410865
 104.3546620  76.4653287  16.3884718 104.6738633  77.8307760  16.9590355
  89.9986702  69.0421534  25.2074424  89.4540170  69.8181342  25.3394698
  90.8766052  69.3892338  25.0493545  96.7874319  62.3733118  17.5855223
  96.9090230  61.4449764  17.7846110  96.4976361  62.3871804  16.6733538
  99.6565509  60.0588028  20.7221942  99.6787206  60.1227361  19.7673922
 100.0733568  59.2192537  20.9162449 110.0349133  69.7943288  18.7601165
 110.4780279  69.0450613  18.3620288 109.1575644  69.7853424  18.3774897
 105.1684915  76.3473629  14.2407764 105.8635819  76.9680322  14.4595078
 105.5108065  75.4968980  14.5160141 107.0676338  73.7973335  15.7695094
 107.5927662  74.1360607  15.0444414 106.9798690  72.8620350  15.5858229
  98.7296386  77.7107408  27.8984971  99.0383513  77.4656555  28.7707671
  99.5271868  77.9154047  27.4103841  98.7516998  79.8645318  20.1290347
  98.3121989  79.3721697  20.8223204  99.5025115  79.3218286  19.8882423
  91.2309337  76.0556859  20.1314976  92.0567357  75.7560631  19.7513619
  90.8803389  75.2864481  20.5804764  96.1990871  75.4083327  22.2012649
  95.5770880  74.7454032  21.9014877  96.8695737  75.4344459  21.5186297
  89.4317942  73.9743185  21.0903909  88.5949851  73.5465360  20.9087910
  89.4041588  74.1675629  22.0274700 106.7570244  74.4306238  31.0746292
 105.9665787  74.4130377  30.5350792 106.5203598  74.9694532  31.8295329
 106.8768119  71.2798705  28.3879021 106.9266124  71.1148712  29.3294544
 106.7682042  70.4125964  27.9976902  95.7604377  73.9587250  15.6771110
  95.9092498  74.6422715  15.0237782  96.5670821  73.9392340  16.1920565
 104.1671881  67.2629633  29.7038328 105.0681744  67.1236097  29.4122325
 104.2419856  67.4284087  30.6436505 108.3786316  73.6995646  28.6321042
 108.0871124  74.0625627  29.4684503 107.7658447  72.9862654  28.4534374
 109.5781998  71.2648526  21.1523613 110.4128889  71.7038330  21.3161173
 109.7141127  70.7887179  20.3331858 106.6273504  68.8228261  27.1001100
 107.1027625  69.0155907  26.2919952 105.7039069  68.8787447  26.8544484
  93.5157010  69.9852428  16.6832179  93.2703052  69.0814758  16.8812389
  93.6852925  69.9869578  15.7411657 101.2053720  60.8576104  26.0656934
 101.7235664  61.5937131  25.7403423 100.8508853  61.1640098  26.9003693
  92.7852658  65.7180785  14.1818340  92.0921903  65.7925140  13.5258376
  92.5404410  64.9541129  14.7039857 101.4566314  57.2776387  21.5857831
 101.7368068  56.6099576  22.2118257 102.2416921  57.4705482  21.0732495
  99.2599783  76.4535381  13.1482857  98.6873750  77.0725568  12.6953329
  99.8332577  77.0034742  13.6822779 105.3275173  65.6994021  25.3329406
 106.2792596  65.7992118  25.3541630 105.1578623  64.9072289  25.8427490
 103.3489552  62.7849604  25.5188807 102.7539484  63.0654617  24.8235295
 103.0639249  63.2743505  26.2905548 102.4797043  76.7372531  14.2791439
 103.4127716  76.6718093  14.4824315 102.3920256  77.5728798  13.8205972
 107.8063251  68.9200141  24.4471706 107.7739571  67.9816141  24.6331389
 108.4163874  68.9984177  23.7137530  99.6446581  67.7896193  10.4898910
 100.5905686  67.6602402  10.5587328  99.2660826  67.0510855  10.9668338
 107.9557739  65.7111184  24.4929989 107.4396788  64.9269641  24.3059918
 108.8397688  65.3829901  24.6576508 105.6168466  59.4552200  20.4525801
 105.4193287  59.1467288  21.3369133 106.2268172  60.1813838  20.5823731
 113.6239800  69.9816147  23.5877742 114.3543189  69.7201435  24.1485446
 113.0146746  69.2444869  23.6279810 111.7055098  68.1224010  24.1852194
 110.9788261  67.9879975  23.5768685 111.2902384  68.4300839  24.9908912
  99.5285274  71.8413940  31.9499567 100.4488283  72.0192539  32.1439613
  99.4934857  70.8969985  31.7979266  97.8289499  65.7146170  10.4253795
  96.9220954  65.4179283  10.5016508  98.1065480  65.4175988   9.5588081
  88.7467439  67.0352533  20.8752841  88.4270223  66.1817841  20.5827215
  88.2000867  67.2501111  21.6310809  92.5247347  69.7514974  24.5922348
  92.7433356  70.6832082  24.6110382  92.9373120  69.3922949  25.3777152
  99.4451564  60.2583060  16.5798036  98.6352293  59.9130145  16.9553282
 100.1335981  59.9490603  17.1685648 101.3742113  59.3361106  18.2022333
 101.9273151  59.7556560  18.8612356 101.6112199  58.4096855  18.2445289
  96.5988283  62.5733105  10.5665774  97.4607447  62.8988003  10.8261591
  96.7838627  61.7864601  10.0538840  88.6155699  70.6555445  22.8445963
  87.9219170  70.2409398  22.3315917  89.3628690  70.6975981  22.2479382
 104.7520920  61.4461632  17.7100997 104.1719589  62.1046436  17.3279049
 104.4856852  60.6238976  17.2988415 103.2024486  60.8466689  19.9122317
 103.7024264  60.9583224  19.1036636 103.8460094  60.5427742  20.5523126
  90.5292442  70.5873699  20.7211978  90.5063130  70.6861386  19.7693861
  90.8393078  71.4338849  21.0429144  93.1879819  72.6449854  24.8358592
  94.1423073  72.6133796  24.7688524  92.9892343  72.1840477  25.6508818
  93.7779202  71.2150970  27.4029390  94.5972091  71.7095048  27.4264227
  94.0516009  70.2982938  27.3746957 103.5345798  63.6061722  16.7657345
 102.6471653  63.8911373  16.5477540 103.9499787  63.4455485  15.9184622
 106.8860334  63.6308243  20.4811685 107.6620724  64.1204695  20.7536301
 106.1608468  64.0566297  20.9383554 109.3232893  64.3435862  21.5385625
 109.9177383  64.1031598  20.8278933 109.3959476  63.6242993  22.1659161
  91.5430048  78.1869473  21.8528790  91.4084516  77.4269874  21.2866788
  91.1262110  78.9110373  21.3857579 102.6789011  73.3706397  10.8605365
 103.3824861  73.5756399  11.4763021 101.9551660  73.9383158  11.1254449
 103.5086822  69.1216258  16.9807635 103.4522023  69.5784809  16.1415268
 104.0615164  68.3606942  16.8030478 107.3191627  64.9105990  17.8057755
 107.0628562  64.5102625  18.6365963 106.6944495  65.6249784  17.6807894
 111.6303965  67.6502063  20.3129046 111.0703523  67.7195252  21.0860608
 111.0247469  67.4743048  19.5928543  94.6999174  79.0838790  22.0647233
  94.5831558  80.0284223  21.9625923  93.8791620  78.7812352  22.4533032
 104.5875709  73.8088926  12.9103825 105.4221313  73.3770124  12.7281300
 104.4260052  73.6370939  13.8380720 104.2421601  70.3121039  14.2760165
 104.1870405  70.1465311  13.3348609 103.6167656  71.0197072  14.4322354
 101.5567508  72.6169951  33.6013727 102.4258668  72.7910603  33.2400362
 101.0774259  73.4364368  33.4789457  97.5517726  59.8129148  13.8545483
  97.5396396  60.7570988  14.0113754  98.4441148  59.6299294  13.5604944
  95.7253688  79.7367052  25.2803161  96.6280935  79.7690662  25.5969656
  95.4991058  78.8067503  25.2949497  97.4807290  78.4898039  21.9413240
  96.5302921  78.4899900  21.8277612  97.7839776  77.7430773  21.4249274
 101.3669846  56.4071925  18.1091420 100.6002242  55.8530411  18.2548102
 101.7780551  56.4793794  18.9705571 113.2159984  84.3258577  23.0059002
 113.8538394  84.2065324  22.3022342 113.0980827  85.2739421  23.0646954
 110.0249690  84.2786005  22.9420527 109.6868202  84.1627070  22.0541062
 110.8939458  83.8777170  22.9221533 110.5069473  85.4320857  28.9006732
 110.4958114  85.0373655  28.0287236 110.6690112  84.6986929  29.4940504
 103.4300938  87.6272673  21.7701638 104.2222230  87.2863498  21.3547937
 103.6697588  87.7367648  22.6903792 107.2276734  88.2157969  27.8485916
 106.9366600  89.1203599  27.7332583 107.8633719  88.2574496  28.5629986
 108.1532941  85.5934817  24.4387276 108.7496513  85.3690839  23.7244239
 108.2107913  84.8519563  25.0412724 112.7701252  82.0510031  20.0812210
 113.5564341  81.6329454  19.7302627 113.0339957  82.9556123  20.2493859
 115.6935100  75.7006838  25.4439797 115.3618424  76.5702249  25.2201012
 115.0980713  75.3843122  26.1233828 112.1866619  87.9019384  24.8435710
 111.8867342  88.8044423  24.7351517 111.8417679  87.6351567  25.6956863
 105.6379101  84.3533181  20.8772414 104.7129597  84.2209395  21.0850106
 105.8863514  85.1327400  21.3742357 115.5863763  80.4201924  22.5233147
 114.6780640  80.3517333  22.2291908 115.5351359  80.8973869  23.3514973
 102.9987912  83.9966454  21.7116203 103.1280293  84.2500933  22.6255615
 102.3185363  84.5894162  21.3920859 109.6604629  81.8391570  30.4668045
 108.8837963  82.3985490  30.4570909 110.2995192  82.3248353  30.9882915
 117.4525409  78.6218363  24.3011021 116.8099790  78.9150896  23.6550816
 116.9480338  78.5071283  25.1064218 107.9151001  84.6477023  30.0286012
 108.6565685  85.1862067  29.7520835 107.2087987  85.2743312  30.1857563
 113.3906341  86.7906164  28.6258173 113.7989697  86.3488574  27.8812805
 112.6683602  86.2158791  28.8792366 109.7437411  81.7278770  25.9991730
 110.5898606  82.1518184  26.1426379 109.6836048  81.0712395  26.6930293
 112.8936856  79.3883139  27.6572904 112.6497788  80.1425199  27.1207179
 113.1696787  79.7668486  28.4920151 114.8475319  85.9321751  26.3350169
 115.0592214  86.5753511  25.6584550 114.8005067  85.0984068  25.8672099
 112.4501548  78.5439572  23.2386741 111.5886027  78.8420825  23.5303479
 112.4763983  78.7609971  22.3067774 106.1587198  86.6353244  22.5840310
 106.7288555  87.0640512  21.9457795 106.7495310  86.3535829  23.2824496
 106.6512365  81.8016671  30.8301322 106.0211025  82.4832952  31.0636718
 106.5448453  81.6899753  29.8854460 101.9457337  81.4688467  21.7567246
 101.1556391  81.7245996  21.2807356 102.4368585  82.2836805  21.8619286
 103.8972083  81.8333047  18.7150722 103.1003246  81.9451741  19.2334218
 103.6697675  82.1719699  17.8491613 109.7277750  88.3577750  26.6633237
 109.7922183  88.8198157  27.4991409 109.0188674  87.7275115  26.7915547
 100.2295040  81.7218958  24.1882237 100.4803079  82.6065968  24.4539812
 100.7654589  81.5423559  23.4157328 105.9293108  76.1037437  33.1926573
 105.5360053  75.5503636  33.8674217 106.7459248  76.4148016  33.5833090
 108.8461069  77.5195316  30.7846829 109.5870782  78.1202469  30.7051292
 109.0778991  76.7772954  30.2264872 103.9902407  82.7051684  29.0625059
 103.8755922  81.8036941  29.3632158 103.1346924  82.9515380  28.7109875
 111.0694244  90.6469424  30.6612559 110.6258099  89.8605802  30.3433464
 111.7311458  90.8348574  29.9956450 105.8281366  92.1765225  25.1873238
 106.3788791  92.0482289  24.4150232 104.9892841  92.4760114  24.8368131
 113.1675482  90.9272224  28.6893961 113.1493958  91.7481105  28.1974230
 114.0895402  90.8026299  28.9144102 109.6248537  88.4416353  29.5317469
 110.1576873  87.6804641  29.3016777 109.0962618  88.1490005  30.2741624
 112.7918232  73.5476419  25.0611111 112.4482501  74.4378061  24.9850221
 113.1597194  73.3578077  24.1980696 100.8604082  85.8709950  17.8799713
 101.6979304  86.2806958  17.6633421 101.0382350  84.9309392  17.8499907
 110.3415625  78.3834731  18.6268784 109.4857222  77.9941582  18.4474423
 110.7542577  78.4626692  17.7668570 111.8714772  75.9181074  23.0260344
 111.3679567  75.8811210  22.2128149 112.1645379  76.8273817  23.0857001
 108.1157658  76.0019804  22.0326526 108.9810655  75.8062613  21.6732415
 108.1835167  75.7730156  22.9595883 105.7219977  78.2322012  19.4042893
 106.2963729  78.0097194  18.6716086 106.3090959  78.3010707  20.1571494
 108.0242645  75.1063261  18.1317962 107.3707057  74.7912278  17.5074577
 107.9823119  74.4839001  18.8577785 111.2580385  81.5945194  22.4565610
 110.3402946  81.8160141  22.2987298 111.6740529  81.6691505  21.5977317
 114.5905897  72.8069978  20.1628849 114.8964774  71.9467342  19.8754764
 115.3158502  73.3987599  19.9627842 100.8830253  83.2100665  18.5510446
 100.6854653  82.6170026  17.8261513 100.3276917  82.9052875  19.2686385
 108.8626977  83.1023771  20.6705040 108.9175587  82.1497608  20.5947516
 108.0518179  83.2583211  21.1546338 106.8019337  81.7200831  18.4295418
 105.9887202  82.0195002  18.8360611 107.2978331  81.3256520  19.1469901
 112.3993549  82.1842656  27.2610312 112.7542936  82.4114129  28.1204778
 113.0465680  82.5161033  26.6387568 106.2933412  79.2919187  24.0456653
 106.9332791  79.1507946  23.3479617 105.4610942  79.0053700  23.6695255
 111.8888560  90.9739713  24.5104014 111.9425582  91.5430649  25.2781729
 111.0203341  91.1441598  24.1458051 103.2962028  79.2619512  18.8229640
 103.5568845  80.1764845  18.7138801 104.1179200  78.7943954  18.9726253
 104.7686953  80.6757269  25.9928465 105.4410007  80.4674631  25.3441114
 103.9416740  80.4779355  25.5533697 110.6712525  77.3019210  28.0094126
 110.0240440  78.0009160  27.9158602 111.4413541  77.7355354  28.3770374
 114.0791323  87.5668062  31.0844679 113.9276830  87.3378614  30.1674763
 114.0696003  88.5238663  31.0976024 110.8476660  85.1399975  26.0690945
 111.7768720  85.2911134  25.8959913 110.4267690  85.2283996  25.2139592
 109.6464991  89.1650639  23.8389483 109.5076077  88.7969424  24.7115421
 108.8579588  89.6798279  23.6673441 105.1714451  83.9499872  26.7530902
 105.0334249  83.2180111  27.3542441 106.0819374  83.8608772  26.4715090
 107.7996751  83.6619831  26.2414582 108.5096370  83.0213023  26.2001200
 107.7566059  83.9132726  27.1640762 115.7883530  90.5987185  29.1621161
 115.7296076  89.9146405  28.4951744 116.1903048  91.3406175  28.7101787
 106.5125685  80.6485049  28.0610221 105.9763042  80.1975788  28.7131817
 105.9242394  80.7830958  27.3180685 115.7900937  88.5626769  27.3935140
 114.9027716  88.2252690  27.5161539 116.3599488  87.8309800  27.6303906
  97.4430084  84.8950860  20.7178192  98.1301124  84.5812590  20.1299207
  97.2878213  85.7992225  20.4445443 102.2464806  79.7841057  25.1463216
 102.1622995  79.1766726  24.4113625 101.4247513  80.2750075  25.1472712
 112.4188520  78.2694620  20.5133411 112.9157220  77.5164583  20.1934481
 111.6475502  78.3058937  19.9476620 111.7800774  93.1215055  26.5154542
 112.4928746  93.7562520  26.4430444 111.2890803  93.2178921  25.6994544
 109.0023489  80.4112003  20.2405095 108.6321277  79.8583044  20.9286001
 109.4982582  79.8070137  19.6880095 106.8312688  90.8709498  27.3360113
 107.5322147  91.5045981  27.4889507 106.3607803  91.2124230  26.5755752
 114.8607515  75.2364214  22.6612769 113.9470595  75.4668441  22.8294976
 115.2900617  75.3202658  23.5126802 114.6313974  83.4254106  25.1612663
 113.9785424  83.6730013  24.5065116 115.0094354  82.6118244  24.8275141
 110.6801547  84.1673917  31.6478701 110.0042184  84.0668046  32.3181076
 111.5029181  84.0113131  32.1114698 102.4280406  90.4045853  24.2691216
 103.0133843  89.6589541  24.4019120 102.2305244  90.7149810  25.1527880
  97.0198060  82.9751454  22.9895659  97.0582160  82.4415044  23.7832777
  96.5138353  82.4486659  22.3706636 104.3988823  77.8215994  26.4858201
 104.4630149  78.6830825  26.0735599 104.3355943  77.2089996  25.7530560
 103.8741095  79.8939127  30.1331236 104.5013134  79.5116204  30.7468760
 103.0169014  79.6753329  30.4986928 114.2735204  90.3002102  31.7384971
 114.8175108  90.9132060  31.2439926 113.6922049  90.8581680  32.2551984
 100.6506638  81.7015556  16.0649590 100.9460079  80.7926234  16.0116644
  99.7494674  81.6803295  15.7430593 104.1800885  79.7771552  22.0477139
 103.4587471  80.3907520  21.9084612 104.9694141  80.3129317  21.9693785
 106.9827199  77.1125979  28.3217791 107.5061600  77.3588275  29.0844100
 106.7639532  77.9446014  27.9020928 102.3794480  79.3829653  16.1888916
 102.0507186  78.5027032  16.0064021 102.7333850  79.3277322  17.0765305
 105.4936303  79.6702623  16.5564393 105.8332375  80.1988544  15.8343002
 105.9408423  80.0083029  17.3322960 108.1879744  78.0539674  26.0067461
 107.8476564  77.2547487  26.4088141 107.4818750  78.3541385  25.4344294
 108.8396215  75.1388986  24.4594784 109.6622285  74.6649465  24.3373675
 109.0834279  75.9179470  24.9593471 106.3634794  81.8308107  22.2686763
 106.2179375  82.1448410  23.1611044 105.8859998  82.4493007  21.7157662
 108.2231177  78.8210655  22.3167652 108.2092746  77.9251748  21.9799950
 108.9403605  78.8281319  22.9505938 110.0757308  79.2547995  24.3620780
 109.8175086  80.1765066  24.3605110 109.5442348  78.8578430  25.0521244
 100.8380456  84.3713451  25.2074424 100.2933924  85.1473259  25.3394698
 101.7159806  84.7184256  25.0493545 107.6268073  77.7025035  17.5855223
 107.7483984  76.7741681  17.7846110 107.3370115  77.7163721  16.6733538
 110.4959263  75.3879946  20.7221942 110.5180960  75.4519279  19.7673922
 110.9127322  74.5484454  20.9162449 101.6246478  83.4983348  28.1004581
 100.8828214  83.6465983  28.6869211 101.3039223  83.7591613  27.2371330
 109.5690141  93.0399326  27.8984971 109.8777267  92.7948473  28.7707671
 110.3665623  93.2445964  27.4103841 100.2711697  89.3035103  21.0903909
  99.4343605  88.8757277  20.9087910 100.2435342  89.4967546  22.0274700
 107.1109153  79.2157033  31.7945155 107.1597308  80.0919155  31.4122925
 107.6531667  78.6734426  31.2216798 117.5963998  89.7598156  31.0746292
 116.8059542  89.7422295  30.5350792 117.3597353  90.2986450  31.8295329
 117.7161873  86.6090622  28.3879021 117.7659878  86.4440630  29.3294544
 117.6075797  85.7417881  27.9976902 115.0065636  82.5921550  29.7038328
 115.9075498  82.4528015  29.4122325 115.0813610  82.7576005  30.6436505
 109.3408441  79.9688405  28.5491514 108.4711750  80.2621971  28.2774102
 109.5767921  80.5528850  29.2698777 119.2180070  89.0287564  28.6321042
 118.9264878  89.3917544  29.4684503 118.6052201  88.3154572  28.4534374
 117.4667258  84.1520178  27.1001100 117.9421380  84.3447825  26.2919952
 116.5432824  84.2079364  26.8544484 112.0447475  76.1868022  26.0656934
 112.5629419  76.9229049  25.7403423 111.6902608  76.4932015  26.9003693
 112.2960069  72.6068305  21.5857831 112.5761823  71.9391494  22.2118257
 113.0810676  72.7997400  21.0732495 116.1668927  81.0285938  25.3329406
 117.1186350  81.1284036  25.3541630 115.9972378  80.2364207  25.8427490
 114.1883307  78.1141522  25.5188807 113.5933239  78.3946534  24.8235295
 113.9033004  78.6035423  26.2905548 118.6457005  84.2492058  24.4471706
 118.6133325  83.3108059  24.6331389 119.2557629  84.3276095  23.7137530
 118.7951494  81.0403102  24.4929989 118.2790542  80.2561558  24.3059918
 119.6791442  80.7121818  24.6576508 116.4562221  74.7844117  20.4525801
 116.2587042  74.4759205  21.3369133 117.0661926  75.5105756  20.5823731
 110.3679029  87.1705857  31.9499567 111.2882038  87.3484456  32.1439613
 110.3328612  86.2261903  31.7979266  99.5861194  82.3644451  20.8752841
  99.2663978  81.5109759  20.5827215  99.0394622  82.5793029  21.6310809
 103.3641101  85.0806892  24.5922348 103.5827111  86.0124000  24.6110382
 103.7766875  84.7214866  25.3777152 110.2845319  75.5874977  16.5798036
 109.4746047  75.2422062  16.9553282 110.9729736  75.2782521  17.1685648
 112.2135867  74.6653024  18.2022333 112.7666906  75.0848477  18.8612356
 112.4505954  73.7388772  18.2445289 108.2368966  80.6540098  33.9825097
 108.1365693  81.6034455  33.9137188 108.0190508  80.3258337  33.1101167
  99.4549454  85.9847362  22.8445963  98.7612925  85.5701315  22.3315917
 100.2022445  86.0267899  22.2479382 114.0418241  76.1758607  19.9122317
 114.5418019  76.2875141  19.1036636 114.6853849  75.8719660  20.5523126
 108.1000236  84.0837237  32.7990158 107.6167318  84.8837597  33.0054047
 108.1861175  84.0945181  31.8457602 101.3686196  85.9165616  20.7211978
 101.3456884  86.0153303  19.7693861 101.6786833  86.7630767  21.0429144
 104.0273574  87.9741771  24.8358592 104.9816827  87.9425714  24.7688524
 103.8286098  87.5132395  25.6508818 104.6172956  86.5442887  27.4029390
 105.4365845  87.0386966  27.4264227 104.8909764  85.6274855  27.3746957
 117.7254088  78.9600161  20.4811685 118.5014479  79.4496613  20.7536301
 117.0002223  79.3858215  20.9383554  99.8707870  80.8781021  28.1021587
 100.5166734  80.3679975  28.5908812  99.6625021  81.6149703  28.6765012
 112.3961263  87.9461869  33.6013727 113.2652422  88.1202521  33.2400362
 111.9168014  88.7656285  33.4789457 106.5647443  95.0658970  25.2803161
 107.4674689  95.0982580  25.5969656 106.3384813  94.1359421  25.2949497
 112.2063600  71.7363842  18.1091420 111.4395996  71.1822329  18.2548102
 112.6174305  71.8085711  18.9705571 104.2105361  78.0248638  32.1996601
 105.0736823  77.6685443  32.4099926 103.6370772  77.6862533  32.8872005
 116.7686862  91.4329355  33.1926573 116.3753808  90.8795553  33.8674217
 117.5853002  91.7439933  33.5833090 119.6854823  92.8487234  30.7846829
 120.4264536  93.4494387  30.7051292 119.9172746  92.1064872  30.2264872
 114.7134850  95.2231044  30.1331236 115.3406889  94.8408122  30.7468760
 113.8562769  95.0045246  30.4986928 117.9502907  94.5448950  31.7945155
 117.9991063  95.4211073  31.4122925 118.4925421  94.0026343  31.2216798
 119.0762721  95.9832015  33.9825097 118.9759448  96.9326372  33.9137188
 118.8584263  95.6550254  33.1101167 110.7101625  96.2072939  28.1021587
 111.3560488  95.6971893  28.5908812 110.5018776  96.9441620  28.6765012
 115.0499116  93.3540556  32.1996601 115.9130577  92.9977361  32.4099926
 114.4764526  93.0154451  32.8872005  67.7119228   6.3363876  17.3857866
  67.2683082   5.5500254  17.0678771  68.3736441   6.5243026  16.7201757
  69.8100466   6.6166676  15.4139267  69.7918941   7.4375557  14.9219537
  70.7320386   6.4920751  15.6389409  70.7216307   3.2562514  17.8089986
  70.5701813   3.0273066  16.8920069  70.7120986   4.2133115  17.8221331
  72.4308513   6.2881636  15.8866467  72.3721059   5.6040857  15.2197050
  72.8328032   7.0300626  15.4347093  70.9160187   5.9896554  18.4630278
  71.4600091   6.6026512  17.9685232  70.3347032   6.5476132  18.9797291
  74.2388982   5.4492608  17.7991599  73.4484525   5.4316747  17.2596098
  74.0022336   5.9880901  18.5540635  75.8605053   4.7182016  15.3566349
  75.5689862   5.0811996  16.1929810  75.2477185   4.0049024  15.1779681
  69.0386246   3.6356321  20.3259034  69.9077405   3.8096973  19.9645669
  68.5592997   4.4550737  20.2034763  80.6978722  15.3444946   9.7304309
  81.3357131  15.2251694   9.0267649  80.5799564  16.2925790   9.7892261
  77.5068428  15.2972375   9.6665833  77.1686939  15.1813439   8.7786368
  78.3758196  14.8963540   9.6466840  77.9888211  16.4507226  15.6252039
  77.9776852  16.0560025  14.7532543  78.1508850  15.7173299  16.2185810
  70.9119675  18.6459043   8.4946945  71.7040967  18.3049867   8.0793244
  71.1516326  18.7554018   9.4149098  74.7095472  19.2344338  14.5731223
  74.4185338  20.1389969  14.4577889  75.3452456  19.2760866  15.2875292
  75.6351679  16.6121187  11.1632583  76.2315251  16.3877209  10.4489546
  75.6926650  15.8705932  11.7658030  83.1753837   6.7193208  12.1685104
  82.8437162   7.5888619  11.9446319  82.5799451   6.4029492  12.8479134
  79.6685357  18.9205754  11.5681017  79.3686080  19.8230792  11.4596824
  79.3236417  18.6537937  12.4202170  83.0682501  11.4388294   9.2478454
  82.1599378  11.3703702   8.9537215  83.0170097  11.9160239  10.0760279
  74.6506137  25.6850074   4.5351984  74.5730167  26.6357899   4.6140465
  74.0467780  25.3395946   5.1926911  77.1423367  12.8577939  17.1913351
  76.3656701  13.4171860  17.1816216  77.7813930  13.3434722  17.7128221
  84.9344147   9.6404732  11.0256328  84.2918527   9.9337265  10.3796122
  84.4299076   9.5257653  11.8309525  75.3969739  15.6663393  16.7531318
  76.1384423  16.2048437  16.4766142  74.6906724  16.2929682  16.9102870
  80.8725079  17.8092533  15.3503480  81.2808435  17.3674944  14.6058112
  80.1502340  17.2345161  15.6037673  77.2256149  12.7465140  12.7237037
  78.0717344  13.1704554  12.8671686  77.1654786  12.0898764  13.4175600
  81.1953893  18.3693724   9.1055769  80.5662756  18.5339438   8.4031836
  80.8079555  18.7835333   9.8766733  85.0743125  19.3048162   6.4600132
  84.3894163  19.6847063   5.9097166  85.1586974  19.9143488   7.1932080
  80.3755594  10.4069508  14.3818210  80.1316526  11.1611569  13.8452486
  80.6515524  10.7854856  15.2165457  82.3294057  16.9508121  13.0595476
  82.5410952  17.5939881  12.3829857  82.2823805  16.1170437  12.5917406
  76.7481855  18.1068132   6.3705854  77.2120201  18.3855835   5.5810476
  76.4838653  17.2051577   6.1878944  73.6405936  17.6539613   9.3085617
  74.2107293  18.0826882   8.6703101  74.2314048  17.3722198  10.0069803
  74.1331103  12.8203041  17.5546628  73.5029763  13.5019322  17.7882025
  74.0267191  12.7086123  16.6099766  83.4439885  19.8280076  11.2317833
  84.2657328  19.4260263  10.9500515  83.4402288  19.7248310  12.1833949
  77.2096488  19.3764119  13.3878544  77.2740921  19.8384527  14.2236716
  76.5007412  18.7461484  13.5160854  73.4111845   7.1223807  19.9171879
  73.0178791   6.5690005  20.5919523  74.2277986   7.4334385  20.3078397
  72.1868788  21.6773421   5.9108202  72.3635416  22.5991386   5.7229186
  72.9825621  21.3631840   6.3402582  76.3279806   8.5381686  17.5092136
  77.0689520   9.1388839  17.4296598  76.5597729   7.7959324  16.9510178
  71.4721144  13.7238053  15.7870366  71.3574660  12.8223310  16.0877464
  70.6165662  13.9701750  15.4355182  78.5512982  21.6655793  17.3857866
  78.1076836  20.8792172  17.0678771  79.2130196  21.8534944  16.7201757
  73.3100103  23.1951595  11.9118545  73.8607528  23.0668658  11.1395539
  72.4711579  23.4946484  11.5613437  80.6494220  21.9458593  15.4139267
  80.6312696  22.7667474  14.9219537  81.5714140  21.8212669  15.6389409
  77.1067274  19.4602723  16.2562776  77.6395611  18.6991011  16.0262084
  76.5781355  19.1676375  16.9986930  83.4512833  16.7837736   8.8848634
  82.7936507  17.4736997   8.9728763  84.2553232  17.1734168   9.2282620
  82.2618292  15.1382109   6.9352576  82.7750174  15.7712100   7.4374286
  82.9119516  14.5383304   6.5695936  78.7399123  12.6131564   9.1810916
  77.8221684  12.8346511   9.0232604  79.1559266  12.6877875   8.3222624
  83.0280088  20.1188110   5.0631718  82.5742415  19.2779020   5.1196909
  82.3974055  20.7549508   5.4006499  81.4713027  21.9564607   5.9981537
  81.7636002  22.5169664   5.2793902  81.9811648  22.2493168   6.7534696
  76.4346653  22.7344958   7.0874990  76.3922831  22.9605804   6.1583522
  77.3509351  22.5008332   7.2360791  79.8812286  13.2029025  13.9855619
  80.2361674  13.4300498  14.8450085  80.5284418  13.5347402  13.3632874
  85.6379403  18.3923988   9.7016220  86.0715910  18.2999277  10.5499274
  86.3510984  18.3681489   9.0636236  74.5512453  19.6107987   6.8836953
  75.3453052  19.1158307   6.6819527  73.8404146  19.0825850   6.5204658
  79.3707298  21.9926082  11.2349320  79.4244320  22.5617019  12.0027036
  78.5022079  22.1627967  10.8703357  72.2505691  11.6943638  12.7173771
  72.9228745  11.4861001  12.0686420  71.4235478  11.4965724  12.2779004
  86.4994952  18.4347689  12.2349105  86.6930842  19.3393499  12.4808380
  86.3995571  17.9755108  13.0687690  78.1531263   8.3205579  14.7339432
  77.5059178   9.0195529  14.6403909  78.9232279   8.7541723  15.1015680
  81.5610061  18.5854432  17.8089986  81.4095568  18.3564983  16.8920069
  81.5514741  19.5425033  17.8221331  78.3295397  16.1586344  12.7936252
  79.2587458  16.3097504  12.6205219  77.9086428  16.2470365  11.9384899
  77.1283729  20.1837009  10.5634790  76.9894815  19.8155793  11.4360728
  76.3398326  20.6984648  10.3918747  77.7231881  25.2846105   1.9060326
  77.8983637  24.8134148   2.7205949  77.0364669  25.9111871   2.1341587
  78.6788944  19.5618611   7.9523627  78.3438777  19.5219381   8.8481277
  78.1792890  18.8963327   7.4794038  72.6533188  14.9686241  13.4776209
  72.5152986  14.2366480  14.0787748  73.5638112  14.8795142  13.1960396
  75.2815489  14.6806201  12.9659888  75.9915108  14.0399393  12.9246507
  75.2384797  14.9319096  13.8886069  83.2702268  21.6173554  15.8866467
  83.2114814  20.9332774  15.2197050  83.6721786  22.3592544  15.4347093
  73.9944423  11.6671419  14.7855528  73.4581780  11.2162157  15.4377124
  73.4061131  11.8017328  14.0425992  72.2892967  28.4335468   8.6800186
  72.5289565  29.0653992   9.3579205  71.4462163  28.0823508   8.9665546
  83.2719675  19.5813138  14.1180447  82.3846454  19.2439060  14.2406846
  83.8418226  18.8496169  14.3549212  76.8020828  24.2414590  11.0841690
  76.7291000  25.0469562  11.5960995  76.3598222  24.4406556  10.2589712
  76.5910608  23.4786360   4.5944512  75.8078130  24.0208041   4.6882736
  77.2903353  23.9960340   4.9938753  79.2619512  24.1401424  13.2399849
  79.9747484  24.7748889  13.1675750  78.7709541  24.2365290  12.4239851
  80.9837039  18.0452677   4.8117141  80.0493318  18.1654140   4.6421845
  81.1613707  17.1425144   4.5477150  74.3131425  21.8895868  14.0605420
  75.0140885  22.5232351  14.2134814  73.8426540  22.2310599  13.3001059
  82.1132711  14.4440475  11.8857970  81.4604162  14.6916383  11.2310423
  82.4913091  13.6304614  11.5520447  79.0739885  24.4800169   5.9886140
  79.2562280  23.6621824   6.4513893  79.8972871  24.6967861   5.5511030
  79.4082051  23.4068354   3.2501189  79.9369817  22.8960808   2.6371351
  79.6710270  23.0910884   4.1146722  78.1620284  15.1860286  18.3724007
  77.4860921  15.0854416  19.0426382  78.9847918  15.0299500  18.8360004
  69.9099144  21.4232223  10.9936522  70.4952580  20.6775911  11.1264427
  69.7123982  21.7336180  11.8773186  72.7637799  24.4583470   6.0098965
  72.0948174  24.9429598   5.5263005  72.6250668  24.7052691   6.9242343
  76.9043067  26.4927214  12.6081623  77.4561375  26.6558835  13.3730708
  77.2449261  27.0831652  11.9361648  71.3559833  10.9125496  16.8576542
  71.9831872  10.5302574  17.4714066  70.4987752  10.6939698  17.2232235
  81.7553942  21.3188471  18.4630278  82.2993846  21.9318430  17.9685232
  81.1740786  21.8768050  18.9797291  80.0411455  24.4409189   9.5945305
  79.9162594  23.6398929   9.0856251  80.6990546  24.9355383   9.1059275
  82.1046363  22.2418209  11.2224855  81.1576699  22.1223561  11.1503182
  82.4529136  21.3540708  11.3051117  74.4645936   8.1312348  15.0463097
  74.9880338   8.3774645  15.8089407  74.2458270   8.9632383  14.6266235
  79.1092796  22.0370926   7.4229208  78.9617759  21.1087633   7.6036778
  79.9346290  22.0591016   6.9386283  82.7126918  22.8599484   8.5094080
  83.6373466  22.6542346   8.3718532  82.5442222  22.6115886   9.4183422
  75.6698481   9.0726044  12.7312768  75.3295302   8.2733857  13.1333448
  74.9637488   9.3727754  12.1589601  77.5576046  10.2734365  11.0866087
  77.2993823  11.1951435  11.0850417  77.0261086   9.8764799  11.7766551
  82.5022234  23.3785152   3.8656172  82.6759112  22.8131574   3.1130024
  82.9951126  24.1786047   3.6835662  68.3199194  15.3899821  11.9319731
  67.7752662  16.1659629  12.0640005  69.1978544  15.7370625  11.7738852
  69.1065216  14.5169717  14.8249888  68.3646952  14.6652353  15.4114518
  68.7857960  14.7777983  13.9616637  77.0508879  24.0585695  14.6230278
  77.3596005  23.8134842  15.4952977  77.8484361  24.2632334  14.1349148
  77.0729491  26.2123605   6.8535654  76.6334481  25.7199984   7.5468511
  77.8237608  25.6696573   6.6127729  69.5521830  22.4035146   6.8560282
  70.3779850  22.1038918   6.4758926  69.2015882  21.6342768   7.3050071
  74.5203363  21.7561614   8.9257956  73.8983372  21.0932319   8.6260184
  75.1908230  21.7822746   8.2431604  74.5927890  10.2343402  18.5190462
  74.6416046  11.1105525  18.1368231  75.1350405   9.6920795  17.9462105
  85.0782736  20.7784525  17.7991599  84.2878280  20.7608664  17.2596098
  84.8416091  21.3172819  18.5540635  85.1980611  17.6276992  15.1124327
  85.2478616  17.4626999  16.0539850  85.0894534  16.7604251  14.7222208
  82.4884373  13.6107920  16.4283634  83.3894236  13.4714385  16.1367632
  82.5632348  13.7762375  17.3681812  76.8227179  10.9874775  15.2736820
  75.9530488  11.2808341  15.0019409  77.0586659  11.5715220  15.9944084
  86.6998808  20.0473933  15.3566349  86.4083616  20.4103914  16.1929810
  86.0870939  19.3340942  15.1779681  84.9485996  15.1706548  13.8246407
  85.4240118  15.3634194  13.0165258  84.0251562  15.2265734  13.5789791
  79.5266213   7.2054392  12.7902241  80.0448156   7.9415418  12.4648729
  79.1721345   7.5118385  13.6249000  83.6487665  12.0472308  12.0574713
  84.6005088  12.1470406  12.0786937  83.4791116  11.2550577  12.5672797
  81.6702045   9.1327891  12.2434113  81.0751977   9.4132904  11.5480602
  81.3851741   9.6221792  13.0150855  86.1275743  15.2678428  11.1717012
  86.0952063  14.3294428  11.3576696  86.7376367  15.3462464  10.4382837
  77.8497766  18.1892227  18.6744873  78.7700776  18.3670826  18.8684920
  77.8147349  17.2448272  18.5224573  70.8459839  16.0993262  11.3167654
  71.0645849  17.0310369  11.3355688  71.2585613  15.7401236  12.1022458
  75.7187704  11.6726467  20.7070403  75.6184431  12.6220824  20.6382494
  75.5009246  11.3444706  19.8346473  75.5818974  15.1023606  19.5235465
  75.0986056  15.9023966  19.7299354  75.6679913  15.1131551  18.5702909
  71.5092312  18.9928141  11.5603899  72.4635565  18.9612083  11.4933830
  71.3104835  18.5318765  12.3754125  72.0991694  17.5629257  14.1274696
  72.9184583  18.0573336  14.1509534  72.3728502  16.6461225  14.0992264
  69.8642541  24.5347760   8.5774097  69.7297008  23.7748161   8.0112095
  69.4474603  25.2588660   8.1102886  73.0211666  25.4317077   8.7892539
  72.9044051  26.3762510   8.6871230  72.2004113  25.1290639   9.1778338
  67.3526608  11.8967391  14.8266893  67.9985472  11.3866345  15.3154119
  67.1443759  12.6336072  15.4010319  79.8780000  18.9648238  20.3259034
  80.7471160  19.1388891  19.9645669  79.3986752  19.7842655  20.2034763
  74.0466181  26.0845339  12.0048468  74.9493427  26.1168949  12.3214963
  73.8203551  25.1545790  12.0194803  75.8019783  24.8376326   8.6658546
  74.8515414  24.8378187   8.5522919  76.1052269  24.0909060   8.1494581
  71.6924099   9.0435008  18.9241908  72.5555561   8.6871813  19.1345232
  71.1189510   8.7048903  19.6117312  91.5372476  30.6736864   9.7304309
  92.1750886  30.5543612   9.0267649  91.4193319  31.6217708   9.7892261
  88.3462182  30.6264292   9.6665833  88.0080694  30.5105357   8.7786368
  89.2151950  30.2255457   9.6466840  84.2048998  32.4799769   5.6562724
  83.6413863  32.3889706   4.8879012  84.0901393  31.6599673   6.1365217
  88.8281965  31.7799144  15.6252039  88.8170606  31.3851942  14.7532543
  88.9902605  31.0465217  16.2185810  81.7513430  33.9750960   8.4946945
  82.5434722  33.6341785   8.0793244  81.9910080  34.0845935   9.4149098
  89.7848557  36.1470736   0.9677189  89.1336536  36.7324817   0.5811203
  90.5792920  36.6776931   1.0272227  83.7104184  33.2359874   1.3664324
  84.4835060  32.6888861   1.2277199  84.0629583  34.1004123   1.5778785
  85.5489226  34.5636256  14.5731223  85.2579092  35.4681887  14.4577889
  86.1846211  34.6052783  15.2875292  86.4745433  31.9413104  11.1632583
  87.0709006  31.7169127  10.4489546  86.5320405  31.1997850  11.7658030
  91.0913744  28.3988318   6.8057517  91.8776834  27.9807741   6.4547934
  91.3552449  29.3034410   6.9739165  85.7666750  31.2980646   1.2007148
  85.6503009  30.6225549   1.8688233  85.8769010  30.8113020   0.3839302
  88.1098291  30.7590793   4.9053838  87.7456499  30.2321414   5.6166759
  88.9665407  30.3689262   4.7320323  94.0147592  22.0485125  12.1685104
  93.6830917  22.9180536  11.9446319  93.4193205  21.7321409  12.8479134
  90.5079112  34.2497671  11.5681017  90.2079835  35.1522710  11.4596824
  90.1630171  33.9829855  12.4202170  83.9591593  30.7011468   7.6017721
  83.0342089  30.5687682   7.8095413  84.2076006  31.4805687   8.0987663
  93.9076255  26.7680211   9.2478454  92.9993133  26.6995620   8.9537215
  93.8563851  27.2452156  10.0760279  81.3200404  30.3444742   8.4361510
  81.4492785  30.5979221   9.3500922  80.6397855  30.9372450   8.1166165
  85.4899891  41.0141992   4.5351984  85.4123921  41.9649817   4.6140465
  84.8861535  40.6687864   5.1926911  87.9817121  28.1869857  17.1913351
  87.2050455  28.7463777  17.1816216  88.6207684  28.6726640  17.7128221
  95.7737902  24.9696650  11.0256328  95.1312282  25.2629183  10.3796122
  95.2692830  24.8549570  11.8309525  86.2363493  30.9955310  16.7531318
  86.9778178  31.5340354  16.4766142  85.5300479  31.6221599  16.9102870
  91.7118833  33.1384451  15.3503480  92.1202189  32.6966861  14.6058112
  90.9896095  32.5637078  15.6037673  88.0649903  28.0757058  12.7237037
  88.9111098  28.4996471  12.8671686  88.0048541  27.4190682  13.4175600
  92.0347648  33.6985642   9.1055769  91.4056510  33.8631356   8.4031836
  91.6473310  34.1127251   9.8766733  95.9136880  34.6340079   6.4600132
  95.2287918  35.0138981   5.9097166  95.9980729  35.2435406   7.1932080
  91.2149348  25.7361426  14.3818210  90.9710280  26.4903487  13.8452486
  91.4909279  26.1146774  15.2165457  93.1687811  32.2800038  13.0595476
  93.3804706  32.9231798  12.3829857  93.1217559  31.4462355  12.5917406
  90.7714040  24.8917859   9.9632048  89.9098519  25.1899113  10.2548786
  90.7976475  25.1088258   9.0313081  87.5875610  33.4360050   6.3705854
  88.0513955  33.7147753   5.5810476  87.3232408  32.5343494   6.1878944
  84.4799691  32.9831531   9.3085617  85.0501048  33.4118800   8.6703101
  85.0707802  32.7014116  10.0069803  86.5244496  29.5583202   3.1795419
  87.2268539  30.0104246   3.6469345  86.1925124  28.9167021   3.8075312
  84.9724857  28.1494959  17.5546628  84.3423518  28.8311239  17.7882025
  84.8660945  28.0378040  16.6099766  80.2669830  27.8166755   8.4812552
  79.4768884  28.0724283   8.0052663  80.7581077  28.6315093   8.5864593
  94.2833639  35.1571994  11.2317833  95.1051083  34.7552181  10.9500515
  94.2796042  35.0540228  12.1833949  82.2184575  28.1811334   5.4396029
  81.4215738  28.2930028   5.9579525  81.9910167  28.5197986   4.5736920
  88.0490243  34.7056037  13.3878544  88.1134675  35.1676444  14.2236716
  87.3401166  34.0753402  13.5160854  78.5507533  28.0697245  10.9127543
  78.8015571  28.9544255  11.1785119  79.0867081  27.8901847  10.1402635
  87.7638260  36.3724145   3.2557524  87.6283935  37.2175680   3.6842372
  88.3048073  36.5743422   2.4923458  84.2505600  22.4515724  19.9171879
  83.8572545  21.8981923  20.5919523  85.0671740  22.7626303  20.3078397
  81.2167658  33.8899583   3.8285449  81.7292178  34.6842833   3.9791014
  81.8690370  33.1925873   3.7619051  83.0262542  37.0065339   5.9108202
  83.2029171  37.9283304   5.7229186  83.8219376  36.6923758   6.3402582
  87.1673561  23.8673604  17.5092136  87.9083274  24.4680757  17.4296598
  87.3991484  23.1251241  16.9510178  82.3114899  29.0529971  15.7870366
  82.1968414  28.1515228  16.0877464  81.4559417  29.2993668  15.4355182
  89.3906737  36.9947711  17.3857866  88.9470591  36.2084090  17.0678771
  90.0523950  37.1826862  16.7201757  84.1493858  38.5243513  11.9118545
  84.7001283  38.3960576  11.1395539  83.3105334  38.8238402  11.5613437
  91.4887975  37.2750511  15.4139267  91.4706450  38.0959392  14.9219537
  92.4107895  37.1504586  15.6389409  87.9461029  34.7894641  16.2562776
  88.4789366  34.0282929  16.0262084  87.4175110  34.4968292  16.9986930
  91.1130724  19.8954706  11.7856418  90.7694993  20.7856348  11.7095528
  91.4809686  19.7056364  10.9226003  79.1816574  32.2188237   4.6045020
  80.0191796  32.6285245   4.3878727  79.3594842  31.2787679   4.5745214
  90.1927264  22.2659362   9.7505651  89.6892060  22.2289497   8.9373456
  90.4857871  23.1752104   9.8102307  86.4370150  22.3498091   8.7571832
  87.3023147  22.1540900   8.3977722  86.5047659  22.1208443   9.6841189
  89.3113742  33.9180633   3.7681588  88.7835103  33.1833393   3.4554825
  88.8101244  34.6955309   3.5221556  94.2906588  32.1129654   8.8848634
  93.6330262  32.8028915   8.9728763  95.0946987  32.5026085   9.2282620
  84.0432469  24.5800299   6.1288199  84.6176221  24.3575481   5.3961392
  84.6303452  24.6488994   6.8816801  93.1012046  30.4674026   6.9352576
  93.6143928  31.1004018   7.4374286  93.7513270  29.8675222   6.5695936
  90.3634421  40.4458350  -0.3086753  89.6896119  40.7490047   0.2998205
  90.7500243  41.2487431  -0.6581296  89.5792877  27.9423482   9.1810916
  88.6615439  28.1638429   9.0232604  89.9953021  28.0169792   8.3222624
  93.8673843  35.4480028   5.0631718  93.4136170  34.6070938   5.1196909
  93.2367809  36.0841426   5.4006499  92.3106782  37.2856524   5.9981537
  92.6029756  37.8461581   5.2793902  92.8205402  37.5785085   6.7534696
  79.2042746  29.5578952   5.2755753  79.0067145  28.9648313   4.5506820
  78.6489410  29.2531162   5.9931692  87.1839469  29.4502059   7.3950346
  87.2388079  28.4975895   7.3192823  86.3730671  29.6061498   7.8791645
  85.1231829  28.0679118   5.1540725  84.3099695  28.3673289   5.5605917
  85.6190823  27.6734807   5.8715207  87.2740407  38.0636875   7.0874990
  87.2316586  38.2897722   6.1583522  88.1903106  37.8300250   7.2360791
  90.7206041  28.5320943  13.9855619  91.0755429  28.7592416  14.8450085
  91.3678172  28.8639320  13.3632874  84.6145904  25.6397474  10.7701960
  85.2545283  25.4986233  10.0724923  83.7823434  25.3531987  10.3940562
  96.4773157  33.7215906   9.7016220  96.9109664  33.6291195  10.5499274
  97.1904738  33.6973406   9.0636236  85.3906208  34.9399904   6.8836953
  86.1846806  34.4450225   6.6819527  84.6797900  34.4117768   6.5204658
  90.2101052  37.3218000  11.2349320  90.2638075  37.8908936  12.0027036
  89.3415834  37.4919885  10.8703357  81.6988971  29.0842986   2.9596705
  80.7686559  29.0227442   3.1766667  81.7946443  28.5618939   2.1633346
  81.6174520  25.6097799   5.5474947  81.8781338  26.5243132   5.4384107
  82.4391693  25.1422242   5.6971560  83.0899446  27.0235556  12.7173771
  83.7622499  26.8152918  12.0686420  82.2629232  26.8257642  12.2779004
  97.3388707  33.7639607  12.2349105  97.5324597  34.6685417  12.4808380
  97.2389325  33.3047026  13.0687690  88.9925018  23.6497497  14.7339432
  88.3452933  24.3487447  14.6403909  89.7626033  24.0833641  15.1015680
  92.4003816  33.9146349  17.8089986  92.2489322  33.6856901  16.8920069
  92.3908495  34.8716951  17.8221331  89.1689152  31.4878262  12.7936252
  90.0981212  31.6389422  12.6205219  88.7480182  31.5762283  11.9384899
  87.9677484  35.5128926  10.5634790  87.8288569  35.1447711  11.4360728
  87.1792080  36.0276566  10.3918747  88.5625636  40.6138023   1.9060326
  88.7377391  40.1426066   2.7205949  87.8758424  41.2403789   2.1341587
  89.5182699  34.8910529   7.9523627  89.1832532  34.8511299   8.8481277
  89.0186645  34.2255245   7.4794038  83.4926943  30.2978159  13.4776209
  83.3546741  29.5658398  14.0787748  84.4031866  30.2087059  13.1960396
  86.1209244  30.0098118  12.9659888  86.8308862  29.3691311  12.9246507
  86.0778552  30.2611013  13.8886069  94.1096022  36.9465472  15.8866467
  94.0508568  36.2624692  15.2197050  94.5115541  37.6884462  15.4347093
  84.8338178  26.9963336  14.7855528  84.2975535  26.5454075  15.4377124
  84.2454886  27.1309245  14.0425992  83.1286721  43.7627386   8.6800186
  83.3683319  44.3945910   9.3579205  82.2855918  43.4115426   8.9665546
  94.1113430  34.9105056  14.1180447  93.2240208  34.5730978  14.2406846
  94.6811981  34.1788087  14.3549212  75.7642577  31.2429147   7.4423498
  76.4513616  30.9290878   6.8544514  75.6090705  32.1470512   7.1690750
  80.5677299  26.1319344  11.8708522  80.4835487  25.5245014  11.1358932
  79.7460005  26.6228362  11.8718019  87.6414583  39.5706508  11.0841690
  87.5684754  40.3761480  11.5960995  87.1991976  39.7698474  10.2589712
  87.4304363  38.8078278   4.5944512  86.6471884  39.3499958   4.6882736
  88.1297108  39.3252258   4.9938753  90.1013266  39.4693342  13.2399849
  90.8141239  40.1040807  13.1675750  89.6103295  39.5657208  12.4239851
  91.8230793  33.3744595   4.8117141  90.8887072  33.4946057   4.6421845
  92.0007462  32.4717062   4.5477150  87.3235981  26.7590291   6.9650402
  86.9533769  26.2061331   7.6531307  87.8195074  26.1548424   6.4125402
  85.1525180  37.2187786  14.0605420  85.8534639  37.8524269  14.2134814
  84.6820295  37.5602517  13.3001059  92.9526466  29.7732393  11.8857970
  92.2997916  30.0208300  11.2310423  93.3306846  28.9596531  11.5520447
  89.9133640  39.8092086   5.9886140  90.0956034  38.9913742   6.4513893
  90.7366626  40.0259778   5.5511030  90.2475805  38.7360271   3.2501189
  90.7763572  38.2252726   2.6371351  90.5104025  38.4202802   4.1146722
  89.0014039  30.5152204  18.3724007  88.3254676  30.4146333  19.0426382
  89.8241673  30.3591418  18.8360004  80.7492898  36.7524141  10.9936522
  81.3346335  36.0067829  11.1264427  80.5517736  37.0628097  11.8773186
  83.6031553  39.7875388   6.0098965  82.9341928  40.2721516   5.5263005
  83.4644423  40.0344608   6.9242343  75.3410553  29.3229741   9.7140966
  75.3794652  28.7893332  10.5078084  74.8350846  28.7964946   9.0951943
  87.7436822  41.8219132  12.6081623  88.2955130  41.9850753  13.3730708
  88.0843015  42.4123569  11.9361648  82.7201315  24.1694281  13.2103508
  82.7842642  25.0309112  12.7980906  82.6568435  23.5568283  12.4775866
  82.1953588  26.2417414  16.8576542  82.8225626  25.8594491  17.4714066
  81.3381506  26.0231616  17.2232235  92.5947696  36.6480389  18.4630278
  93.1387600  37.2610347  17.9685232  92.0134541  37.2059967  18.9797291
  78.9719130  28.0493843   2.7894897  79.2672571  27.1404521   2.7361951
  78.0707166  28.0281582   2.4675899  90.8805209  39.7701107   9.5945305
  90.7556349  38.9690847   9.0856251  91.5384300  40.2647300   9.1059275
  82.5013377  26.1249840   8.7722446  81.7799963  26.7385807   8.6329919
  83.2906633  26.6607604   8.6939092  92.9440117  37.5710127  11.2224855
  91.9970453  37.4515478  11.1503182  93.2922891  36.6832625  11.3051117
  85.3039691  23.4604266  15.0463097  85.8274093  23.7066563  15.8089407
  85.0852024  24.2924301  14.6266235  80.7006972  25.7307941   2.9134222
  80.3719678  24.8505320   2.7309328  81.0546343  25.6755609   3.8010611
  89.9486551  37.3662843   7.4229208  89.8011513  36.4379551   7.6036778
  90.7740044  37.3882934   6.9386283  83.8148795  26.0180910   3.2809700
  84.1544868  26.5466832   2.5588308  84.2620916  26.3561317   4.0568266
  93.5520673  38.1891402   8.5094080  94.4767220  37.9834263   8.3718532
  93.3835976  37.9407803   9.4183422  86.5092236  24.4017961  12.7312768
  86.1689056  23.6025774  13.1333448  85.8031242  24.7019672  12.1589601
  87.1608708  21.4867274  11.1840091  87.9834777  21.0127752  11.0618981
  87.4046771  22.2657757  11.6838777  84.6847286  28.1786394   8.9932070
  84.5391867  28.4926697   9.8856351  84.2072490  28.7971295   8.4402968
  86.5443669  25.1688942   9.0412959  86.5305238  24.2730036   8.7045257
  87.2616097  25.1759606   9.6751245  88.3969800  25.6026282  11.0866087
  88.1387578  26.5243353  11.0850417  87.8654840  25.2056717  11.7766551
  93.3415989  38.7077070   3.8656172  93.5152866  38.1423492   3.1130024
  93.8344880  39.5077964   3.6835662  79.1592949  30.7191739  11.9319731
  78.6146417  31.4951547  12.0640005  80.0372298  31.0662543  11.7738852
  85.9480565  24.0503323   4.3100529  86.0696476  23.1219969   4.5091417
  85.6582608  24.0642008   3.3978845  79.9458970  29.8461635  14.8249888
  79.2040707  29.9944270  15.4114518  79.6251715  30.1069901  13.9616637
  87.8902633  39.3877613  14.6230278  88.1989760  39.1426760  15.4952977
  88.6878115  39.5924252  14.1349148  87.9123245  41.5415523   6.8535654
  87.4728235  41.0491901   7.5468511  88.6631362  40.9988490   6.6127729
  80.3915584  37.7327064   6.8560282  81.2173604  37.4330835   6.4758926
  80.0409636  36.9634686   7.3050071  85.3597117  37.0853532   8.9257956
  84.7377127  36.4224237   8.6260184  86.0301984  37.1114664   8.2431604
  78.5924189  35.6513390   7.8149216  77.7556098  35.2235564   7.6333217
  78.5647835  35.8445833   8.7520007  85.4321645  25.5635320  18.5190462
  85.4809800  26.4397443  18.1368231  85.9744159  25.0212713  17.9462105
  95.9176491  36.1076443  17.7991599  95.1272034  36.0900582  17.2596098
  95.6809845  36.6464737  18.5540635  96.0374366  32.9568910  15.1124327
  96.0872370  32.7918917  16.0539850  95.9288289  32.0896169  14.7222208
  84.9210624  35.6357455   2.4016416  85.0698745  36.3192920   1.7483089
  85.7277068  35.6162545   2.9165872  93.3278128  28.9399838  16.4283634
  94.2287991  28.8006302  16.1367632  93.4026102  29.1054292  17.3681812
  87.6620933  26.3166692  15.2736820  86.7924243  26.6100258  15.0019409
  87.8980414  26.9007137  15.9944084  97.5392562  35.3765851  15.3566349
  97.2477371  35.7395832  16.1929810  96.9264694  34.6632859  15.1779681
  95.7879751  30.4998466  13.8246407  96.2633872  30.6926112  13.0165258
  94.8645316  30.5557651  13.5789791  82.6763257  31.6622633   3.4077485
  82.4309299  30.7584963   3.6057695  82.8459172  31.6639783   2.4656963
  90.3659967  22.5346309  12.7902241  90.8841911  23.2707336  12.4648729
  90.0115100  22.8410303  13.6249000  81.9458905  27.3950990   0.9063647
  81.2528150  27.4695345   0.2503683  81.7010657  26.6311334   1.4285164
  88.4206030  38.1305586  -0.1271836  87.8479997  38.7495773  -0.5801364
  88.9938823  38.6804947   0.4068086  94.4881420  27.3764226  12.0574713
  95.4398843  27.4762323  12.0786937  94.3184870  26.5842494  12.5672797
  92.5095799  24.4619809  12.2434113  91.9145731  24.7424822  11.5480602
  92.2245496  24.9513710  13.0150855  91.6403290  38.4142736   1.0036746
  92.5733963  38.3488297   1.2069622  91.5526502  39.2499003   0.5451279
  96.9669497  30.5970345  11.1717012  96.9345818  29.6586346  11.3576696
  97.5770121  30.6754382  10.4382837  88.6891521  33.5184145  18.6744873
  89.6094530  33.6962744  18.8684920  88.6541104  32.5740190  18.5224573
  77.9073686  28.7122738   7.5998148  77.5876470  27.8588046   7.3072522
  77.3607114  28.9271316   8.3556115  81.6853593  31.4285179  11.3167654
  81.9039603  32.3602287  11.3355688  82.0979367  31.0693154  12.1022458
  86.5581459  27.0018385  20.7070403  86.4578186  27.9512742  20.6382494
  86.3403001  26.6736624  19.8346473  77.7761946  32.3325650   9.5691269
  77.0825417  31.9179602   9.0561224  78.5234937  32.3746186   8.9724688
  86.4212729  30.4315524  19.5235465  85.9379810  31.2315884  19.7299354
  86.5073668  30.4423469  18.5702909  79.6898688  32.2643903   7.4457284
  79.6669376  32.3631591   6.4939167  79.9999325  33.1109054   7.7674450
  82.3486066  34.3220058  11.5603899  83.3029320  34.2904001  11.4933830
  82.1498590  33.8610682  12.3754125  82.9385448  32.8921175  14.1274696
  83.7578337  33.3865253  14.1509534  83.2122256  31.9753143  14.0992264
  80.7036295  39.8639678   8.5774097  80.5690763  39.1040079   8.0112095
  80.2868357  40.5880578   8.1102886  83.8605421  40.7608995   8.7892539
  83.7437805  41.7054427   8.6871230  83.0397867  40.4582557   9.1778338
  78.1920363  27.2259308  14.8266893  78.8379226  26.7158262  15.3154119
  77.9837514  27.9627990  15.4010319  90.7173755  34.2940156  20.3259034
  91.5864914  34.4680808  19.9645669  90.2380506  35.1134573  20.2034763
  84.8859935  41.4137257  12.0048468  85.7887182  41.4460867  12.3214963
  84.6597305  40.4837708  12.0194803  86.6413537  40.1668243   8.6658546
  85.6909168  40.1670105   8.5522919  86.9446023  39.4200978   8.1494581
  82.5317854  24.3726925  18.9241908  83.3949315  24.0163730  19.1345232
  81.9583264  24.0340820  19.6117312 102.3766231  46.0028782   9.7304309
 103.0144640  45.8835529   9.0267649 102.2587073  46.9509626   9.7892261
  99.1855937  45.9556210   9.6665833  98.8474448  45.8397275   8.7786368
 100.0545705  45.5547375   9.6466840  95.0442752  47.8091686   5.6562724
  94.4807618  47.7181623   4.8879012  94.9295148  46.9891591   6.1365217
  99.6675720  47.1091062  15.6252039  99.6564361  46.7143860  14.7532543
  99.8296359  46.3757134  16.2185810  92.5907184  49.3042878   8.4946945
  93.3828476  48.9633703   8.0793244  92.8303835  49.4137853   9.4149098
 100.6242311  51.4762654   0.9677189  99.9730291  52.0616734   0.5811203
 101.4186674  52.0068849   1.0272227  94.5497938  48.5651791   1.3664324
  95.3228814  48.0180778   1.2277199  94.9023337  49.4296041   1.5778785
  96.3882981  49.8928173  14.5731223  96.0972847  50.7973804  14.4577889
  97.0239965  49.9344701  15.2875292  97.3139188  47.2705022  11.1632583
  97.9102760  47.0461044  10.4489546  97.3714159  46.5289767  11.7658030
 101.9307499  43.7280236   6.8057517 102.7170588  43.3099659   6.4547934
 102.1946203  44.6326328   6.9739165  96.6060505  46.6272563   1.2007148
  96.4896763  45.9517467   1.8688233  96.7162765  46.1404937   0.3839302
  98.9492046  46.0882710   4.9053838  98.5850253  45.5613331   5.6166759
  99.8059162  45.6981179   4.7320323 104.8541346  37.3777043  12.1685104
 104.5224671  38.2472454  11.9446319 104.2586960  37.0613327  12.8479134
 101.3472866  49.5789589  11.5681017 101.0473589  50.4814628  11.4596824
 101.0023926  49.3121772  12.4202170  94.7985347  46.0303386   7.6017721
  93.8735844  45.8979600   7.8095413  95.0469761  46.8097605   8.0987663
 104.7470010  42.0972129   9.2478454 103.8386887  42.0287538   8.9537215
 104.6957606  42.5744074  10.0760279  92.1594159  45.6736659   8.4361510
  92.2886540  45.9271138   9.3500922  91.4791610  46.2664367   8.1166165
  96.3293646  56.3433909   4.5351984  96.2517675  57.2941734   4.6140465
  95.7255289  55.9979782   5.1926911  98.8210876  43.5161775  17.1913351
  98.0444210  44.0755695  17.1816216  99.4601439  44.0018558  17.7128221
 106.6131656  40.2988568  11.0256328 105.9706036  40.5921101  10.3796122
 106.1086585  40.1841488  11.8309525  97.0757248  46.3247228  16.7531318
  97.8171932  46.8632272  16.4766142  96.3694233  46.9513517  16.9102870
 102.5512588  48.4676369  15.3503480 102.9595944  48.0258779  14.6058112
 101.8289849  47.8928996  15.6037673  98.9043658  43.4048975  12.7237037
  99.7504853  43.8288389  12.8671686  98.8442295  42.7482600  13.4175600
 102.8741402  49.0277559   9.1055769 102.2450265  49.1923273   8.4031836
 102.4867064  49.4419169   9.8766733 106.7530634  49.9631997   6.4600132
 106.0681672  50.3430898   5.9097166 106.8374483  50.5727324   7.1932080
 102.0543103  41.0653344  14.3818210 101.8104035  41.8195404  13.8452486
 102.3303033  41.4438691  15.2165457 104.0081566  47.6091956  13.0595476
 104.2198461  48.2523716  12.3829857 103.9611314  46.7754273  12.5917406
 101.6107795  40.2209777   9.9632048 100.7492274  40.5191030  10.2548786
 101.6370229  40.4380176   9.0313081  98.4269364  48.7651967   6.3705854
  98.8907710  49.0439670   5.5810476  98.1626162  47.8635412   6.1878944
  95.3193445  48.3123449   9.3085617  95.8894802  48.7410717   8.6703101
  95.9101557  48.0306034  10.0069803  97.3638250  44.8875120   3.1795419
  98.0662293  45.3396163   3.6469345  97.0318879  44.2458939   3.8075312
  95.8118612  43.4786876  17.5546628  95.1817272  44.1603157  17.7882025
  95.7054700  43.3669958  16.6099766  91.1063584  43.1458672   8.4812552
  90.3162638  43.4016201   8.0052663  91.5974831  43.9607010   8.5864593
 105.1227394  50.4863912  11.2317833 105.9444837  50.0844099  10.9500515
 105.1189796  50.3832146  12.1833949  93.0578329  43.5103252   5.4396029
  92.2609493  43.6221946   5.9579525  92.8303922  43.8489904   4.5736920
  98.8883997  50.0347955  13.3878544  98.9528430  50.4968362  14.2236716
  98.1794921  49.4045320  13.5160854  89.3901287  43.3989163  10.9127543
  89.6409325  44.2836173  11.1785119  89.9260835  43.2193764  10.1402635
  98.6032015  51.7016062   3.2557524  98.4677690  52.5467598   3.6842372
  99.1441827  51.9035340   2.4923458  95.0899354  37.7807642  19.9171879
  94.6966300  37.2273841  20.5919523  95.9065495  38.0918221  20.3078397
  92.0561412  49.2191500   3.8285449  92.5685933  50.0134751   3.9791014
  92.7084125  48.5217791   3.7619051  93.8656297  52.3357257   5.9108202
  94.0422925  53.2575221   5.7229186  94.6613130  52.0215676   6.3402582
  98.0067315  39.1965521  17.5092136  98.7477029  39.7972674  17.4296598
  98.2385238  38.4543159  16.9510178  93.1508653  44.3821888  15.7870366
  93.0362168  43.4807146  16.0877464  92.2953171  44.6285585  15.4355182
 100.2300491  52.3239629  17.3857866  99.7864345  51.5376007  17.0678771
 100.8917705  52.5118779  16.7201757  94.9887612  53.8535430  11.9118545
  95.5395037  53.7252494  11.1395539  94.1499088  54.1530319  11.5613437
 102.3281729  52.6042429  15.4139267 102.3100205  53.4251310  14.9219537
 103.2501649  52.4796504  15.6389409  98.7854783  50.1186558  16.2562776
  99.3183120  49.3574846  16.0262084  98.2568864  49.8260210  16.9986930
 101.9524478  35.2246624  11.7856418 101.6088748  36.1148266  11.7095528
 102.3203441  35.0348282  10.9226003  90.0210329  47.5480155   4.6045020
  90.8585551  47.9577163   4.3878727  90.1988597  46.6079597   4.5745214
 101.0321019  37.5951279   9.7505651 100.5285814  37.5581414   8.9373456
 101.3251626  38.5044022   9.8102307  97.2763905  37.6790009   8.7571832
  98.1416901  37.4832818   8.3977722  97.3441413  37.4500361   9.6841189
 100.1507496  49.2472551   3.7681588  99.6228858  48.5125310   3.4554825
  99.6494999  50.0247227   3.5221556 105.1300342  47.4421571   8.8848634
 104.4724016  48.1320833   8.9728763 105.9340741  47.8318003   9.2282620
  94.8826224  39.9092217   6.1288199  95.4569976  39.6867398   5.3961392
  95.4697206  39.9780911   6.8816801 103.9405801  45.7965944   6.9352576
 104.4537683  46.4295936   7.4374286 104.5907025  45.1967139   6.5695936
 100.4186632  43.2715399   9.1810916  99.5009193  43.4930346   9.0232604
 100.8346775  43.3461710   8.3222624 104.7067597  50.7771945   5.0631718
 104.2529924  49.9362855   5.1196909 104.0761564  51.4133344   5.4006499
 103.1500536  52.6148442   5.9981537 103.4423511  53.1753499   5.2793902
 103.6599157  52.9077003   6.7534696  90.0436500  44.8870870   5.2755753
  89.8460900  44.2940231   4.5506820  89.4883164  44.5823080   5.9931692
  98.0233224  44.7793976   7.3950346  98.0781833  43.8267813   7.3192823
  97.2124426  44.9353416   7.8791645  95.9625584  43.3971036   5.1540725
  95.1493449  43.6965207   5.5605917  96.4584578  43.0026725   5.8715207
  98.1134161  53.3928793   7.0874990  98.0710340  53.6189639   6.1583522
  99.0296860  53.1592168   7.2360791 101.5599795  43.8612861  13.9855619
 101.9149183  44.0884334  14.8450085 102.2071927  44.1931237  13.3632874
  95.4539658  40.9689392  10.7701960  96.0939038  40.8278151  10.0724923
  94.6217189  40.6823905  10.3940562 107.3166912  49.0507824   9.7016220
 107.7503419  48.9583113  10.5499274 108.0298493  49.0265324   9.0636236
  96.2299962  50.2691822   6.8836953  97.0240561  49.7742142   6.6819527
  95.5191655  49.7409685   6.5204658 101.0494807  52.6509918  11.2349320
 101.1031829  53.2200854  12.0027036 100.1809588  52.8211803  10.8703357
  92.5382726  44.4134904   2.9596705  91.6080314  44.3519359   3.1766667
  92.6340198  43.8910857   2.1633346  92.4568275  40.9389717   5.5474947
  92.7175092  41.8535050   5.4384107  93.2785447  40.4714159   5.6971560
  93.9293200  42.3527474  12.7173771  94.6016254  42.1444836  12.0686420
  93.1022987  42.1549560  12.2779004 108.1782461  49.0931524  12.2349105
 108.3718351  49.9977335  12.4808380 108.0783080  48.6338943  13.0687690
  99.8318772  38.9789415  14.7339432  99.1846687  39.6779364  14.6403909
 100.6019788  39.4125559  15.1015680 103.2397570  49.2438267  17.8089986
 103.0883076  49.0148819  16.8920069 103.2302250  50.2008868  17.8221331
 100.0082906  46.8170180  12.7936252 100.9374966  46.9681339  12.6205219
  99.5873936  46.9054200  11.9384899  98.8071238  50.8420844  10.5634790
  98.6682324  50.4739628  11.4360728  98.0185834  51.3568484  10.3918747
  99.4019390  55.9429941   1.9060326  99.5771146  55.4717984   2.7205949
  98.7152178  56.5695707   2.1341587 100.3576453  50.2202447   7.9523627
 100.0226286  50.1803217   8.8481277  99.8580399  49.5547163   7.4794038
  94.3320697  45.6270077  13.4776209  94.1940495  44.8950316  14.0787748
  95.2425621  45.5378977  13.1960396  96.9602998  45.3390036  12.9659888
  97.6702617  44.6983228  12.9246507  96.9172306  45.5902931  13.8886069
 104.9489777  52.2757389  15.8866467 104.8902323  51.5916610  15.2197050
 105.3509295  53.0176379  15.4347093  95.6731932  42.3255254  14.7855528
  95.1369289  41.8745992  15.4377124  95.0848640  42.4601163  14.0425992
  93.9680476  59.0919303   8.6800186  94.2077074  59.7237827   9.3579205
  93.1249672  58.7407343   8.9665546 104.9507184  50.2396973  14.1180447
 104.0633963  49.9022895  14.2406846 105.5205735  49.5080005  14.3549212
  86.6036331  46.5721065   7.4423498  87.2907371  46.2582795   6.8544514
  86.4484460  47.4762430   7.1690750  91.4071053  41.4611262  11.8708522
  91.3229242  40.8536931  11.1358932  90.5853760  41.9520280  11.8718019
  98.4808337  54.8998426  11.0841690  98.4078509  55.7053397  11.5960995
  98.0385730  55.0990392  10.2589712  98.2698117  54.1370196   4.5944512
  97.4865639  54.6791876   4.6882736  98.9690862  54.6544175   4.9938753
 100.9407021  54.7985260  13.2399849 101.6534993  55.4332725  13.1675750
 100.4497050  54.8949126  12.4239851 102.6624548  48.7036512   4.8117141
 101.7280827  48.8237975   4.6421845 102.8401216  47.8008979   4.5477150
  98.1629736  42.0882208   6.9650402  97.7927523  41.5353249   7.6531307
  98.6588828  41.4840342   6.4125402  95.9918934  52.5479703  14.0605420
  96.6928394  53.1816186  14.2134814  95.5214049  52.8894435  13.3001059
 103.7920220  45.1024311  11.8857970 103.1391671  45.3500218  11.2310423
 104.1700600  44.2888449  11.5520447 100.7527394  55.1384004   5.9886140
 100.9349789  54.3205660   6.4513893 101.5760380  55.3551696   5.5511030
 101.0869560  54.0652189   3.2501189 101.6157326  53.5544644   2.6371351
 101.3497779  53.7494719   4.1146722  99.8407793  45.8444122  18.3724007
  99.1648430  45.7438251  19.0426382 100.6635427  45.6883336  18.8360004
  91.5886652  52.0816058  10.9936522  92.1740089  51.3359746  11.1264427
  91.3911491  52.3920015  11.8773186  94.4425308  55.1167306   6.0098965
  93.7735683  55.6013433   5.5263005  94.3038177  55.3636526   6.9242343
  86.1804307  44.6521659   9.7140966  86.2188407  44.1185249  10.5078084
  85.6744600  44.1256864   9.0951943  98.5830576  57.1511049  12.6081623
  99.1348884  57.3142671  13.3730708  98.9236770  57.7415487  11.9361648
  93.5595070  39.4986199  13.2103508  93.6236396  40.3601030  12.7980906
  93.4962190  38.8860201  12.4775866  93.0347342  41.5709332  16.8576542
  93.6619381  41.1886409  17.4714066  92.1775261  41.3523534  17.2232235
 103.4341451  51.9772307  18.4630278 103.9781355  52.5902265  17.9685232
 102.8528295  52.5351885  18.9797291  89.8112885  43.3785761   2.7894897
  90.1066326  42.4696439   2.7361951  88.9100921  43.3573500   2.4675899
 101.7198964  55.0993025   9.5945305 101.5950103  54.2982765   9.0856251
 102.3778055  55.5939218   9.1059275  93.3407132  41.4541757   8.7722446
  92.6193718  42.0677725   8.6329919  94.1300388  41.9899522   8.6939092
 103.7833872  52.9002045  11.2224855 102.8364207  52.7807396  11.1503182
 104.1316645  52.0124543  11.3051117  96.1433445  38.7896184  15.0463097
  96.6667847  39.0358480  15.8089407  95.9245779  39.6216219  14.6266235
  91.5400726  41.0599858   2.9134222  91.2113433  40.1797237   2.7309328
  91.8940097  41.0047527   3.8010611 100.7880305  52.6954761   7.4229208
 100.6405268  51.7671468   7.6036778 101.6133799  52.7174852   6.9386283
  94.6542550  41.3472828   3.2809700  94.9938622  41.8758749   2.5588308
  95.1014670  41.6853234   4.0568266 104.3914427  53.5183320   8.5094080
 105.3160975  53.3126181   8.3718532 104.2229730  53.2699721   9.4183422
  97.3485990  39.7309879  12.7312768  97.0082811  38.9317692  13.1333448
  96.6424997  40.0311590  12.1589601  98.0002462  36.8159191  11.1840091
  98.8228532  36.3419669  11.0618981  98.2440526  37.5949675  11.6838777
  95.5241041  43.5078312   8.9932070  95.3785622  43.8218615   9.8856351
  95.0466245  44.1263212   8.4402968  97.3837424  40.4980860   9.0412959
  97.3698993  39.6021953   8.7045257  98.1009852  40.5051524   9.6751245
  99.2363555  40.9318200  11.0866087  98.9781332  41.8535271  11.0850417
  98.7048595  40.5348635  11.7766551 104.1809743  54.0368987   3.8656172
 104.3546621  53.4715410   3.1130024 104.6738635  54.8369882   3.6835662
  89.9986703  46.0483656  11.9319731  89.4540171  46.8243464  12.0640005
  90.8766053  46.3954461  11.7738852  96.7874320  39.3795240   4.3100529
  96.9090231  38.4511886   4.5091417  96.4976362  39.3933926   3.3978845
  90.7852725  45.1753553  14.8249888  90.0434461  45.3236188  15.4114518
  90.4645469  45.4361818  13.9616637  98.7296388  54.7169531  14.6230278
  99.0383514  54.4718678  15.4952977  99.5271870  54.9216169  14.1349148
  98.7517000  56.8707440   6.8535654  98.3121990  56.3783819   7.5468511
  99.5025117  56.3280408   6.6127729  91.2309339  53.0618981   6.8560282
  92.0567359  52.7622753   6.4758926  90.8803391  52.2926604   7.3050071
  96.1990872  52.4145450   8.9257956  95.5770881  51.7516155   8.6260184
  96.8695739  52.4406581   8.2431604  89.4317944  50.9805308   7.8149216
  88.5949852  50.5527482   7.6333217  89.4041589  51.1737751   8.7520007
  96.2715399  40.8927238  18.5190462  96.3203555  41.7689360  18.1368231
  96.8137914  40.3504631  17.9462105 106.7570245  51.4368361  17.7991599
 105.9665789  51.4192500  17.2596098 106.5203600  51.9756654  18.5540635
 106.8768120  48.2860827  15.1124327 106.9266125  48.1210835  16.0539850
 106.7682043  47.4188086  14.7222208  95.7604379  50.9649373   2.4016416
  95.9092499  51.6484837   1.7483089  96.5670822  50.9454463   2.9165872
 104.1671882  44.2691755  16.4283634 105.0681745  44.1298220  16.1367632
 104.2419857  44.4346210  17.3681812  98.5014688  41.6458610  15.2736820
  97.6317997  41.9392176  15.0019409  98.7374168  42.2299055  15.9944084
 108.3786317  50.7057769  15.3566349 108.0871125  51.0687749  16.1929810
 107.7658448  49.9924777  15.1779681 106.6273505  45.8290383  13.8246407
 107.1027627  46.0218030  13.0165258 105.7039070  45.8849569  13.5789791
  93.5157012  46.9914551   3.4077485  93.2703054  46.0876881   3.6057695
  93.6852926  46.9931701   2.4656963 101.2053722  37.8638227  12.7902241
 101.7235665  38.5999254  12.4648729 100.8508854  38.1702220  13.6249000
  92.7852659  42.7242908   0.9063647  92.0921904  42.7987263   0.2503683
  92.5404411  41.9603252   1.4285164  99.2599784  53.4597503  -0.1271836
  98.6873751  54.0787690  -0.5801364  99.8332578  54.0096865   0.4068086
 105.3275174  42.7056143  12.0574713 106.2792597  42.8054241  12.0786937
 105.1578625  41.9134412  12.5672797 103.3489554  39.7911727  12.2434113
 102.7539486  40.0716739  11.5480602 103.0639250  40.2805628  13.0150855
 102.4797044  53.7434653   1.0036746 103.4127717  53.6780215   1.2069622
 102.3920257  54.5790920   0.5451279 107.8063252  45.9262263  11.1717012
 107.7739572  44.9878264  11.3576696 108.4163876  46.0046300  10.4382837
  99.5285275  48.8476062  18.6744873 100.4488285  49.0254661  18.8684920
  99.4934858  47.9032108  18.5224573  88.7467440  44.0414656   7.5998148
  88.4270225  43.1879964   7.3072522  88.2000868  44.2563234   8.3556115
  92.5247348  46.7577097  11.3167654  92.7433358  47.6894205  11.3355688
  92.9373122  46.3985071  12.1022458  97.3975213  42.3310303  20.7070403
  97.2971940  43.2804660  20.6382494  97.1796755  42.0028542  19.8346473
  88.6155700  47.6617567   9.5691269  87.9219172  47.2471520   9.0561224
  89.3628691  47.7038104   8.9724688  97.2606483  45.7607441  19.5235465
  96.7773565  46.5607802  19.7299354  97.3467422  45.7715386  18.5702909
  90.5292443  47.5935821   7.4457284  90.5063131  47.6923508   6.4939167
  90.8393079  48.4400972   7.7674450  93.1879821  49.6511976  11.5603899
  94.1423074  49.6195919  11.4933830  92.9892344  49.1902600  12.3754125
  93.7779203  48.2213092  14.1274696  94.5972092  48.7157171  14.1509534
  94.0516011  47.3045060  14.0992264  91.5430049  55.1931596   8.5774097
  91.4084517  54.4331997   8.0112095  91.1262112  55.9172496   8.1102886
  94.6999175  56.0900913   8.7892539  94.5831560  57.0346345   8.6871230
  93.8791622  55.7874474   9.1778338  89.0314117  42.5551226  14.8266893
  89.6772981  42.0450180  15.3154119  88.8231268  43.2919908  15.4010319
 101.5567509  49.6232074  20.3259034 102.4258669  49.7972726  19.9645669
 101.0774261  50.4426490  20.2034763  95.7253689  56.7429175  12.0048468
  96.6280936  56.7752785  12.3214963  95.4991060  55.8129626  12.0194803
  97.4807292  55.4960161   8.6658546  96.5302923  55.4962023   8.5522919
  97.7839778  54.7492896   8.1494581  93.3711608  39.7018843  18.9241908
  94.2343070  39.3455648  19.1345232  92.7977019  39.3632738  19.6117312
 113.2159985  61.3320700   9.7304309 113.8538395  61.2127447   9.0267649
 113.0980828  62.2801543   9.7892261 110.0249691  61.2848128   9.6665833
 109.6868203  61.1689192   8.7786368 110.8939459  60.8839293   9.6466840
 110.5069474  62.4382979  15.6252039 110.4958115  62.0435778  14.7532543
 110.6690114  61.7049052  16.2185810 103.4300939  64.6334796   8.4946945
 104.2222231  64.2925620   8.0793244 103.6697589  64.7429771   9.4149098
 107.2276735  65.2220091  14.5731223 106.9366601  66.1265722  14.4577889
 107.8633720  65.2636619  15.2875292 108.1532942  62.5996940  11.1632583
 108.7496515  62.3752962  10.4489546 108.2107914  61.8581685  11.7658030
 112.7701253  59.0572153   6.8057517 113.5564343  58.6391577   6.4547934
 113.0339958  59.9618246   6.9739165 115.6935101  52.7068961  12.1685104
 115.3618426  53.5764372  11.9446319 115.0980714  52.3905245  12.8479134
 112.1866620  64.9081507  11.5681017 111.8867344  65.8106545  11.4596824
 111.8417680  64.6413690  12.4202170 105.6379102  61.3595304   7.6017721
 104.7129598  61.2271518   7.8095413 105.8863515  62.1389523   8.0987663
 115.5863764  57.4264047   9.2478454 114.6780642  57.3579455   8.9537215
 115.5351360  57.9035992  10.0760279 102.9987913  61.0028577   8.4361510
 103.1280294  61.2563056   9.3500922 102.3185364  61.5956285   8.1166165
 109.6604630  58.8453692  17.1913351 108.8837964  59.4047613  17.1816216
 110.2995193  59.3310475  17.7128221 117.4525411  55.6280485  11.0256328
 116.8099791  55.9213018  10.3796122 116.9480339  55.5133406  11.8309525
 107.9151002  61.6539146  16.7531318 108.6565687  62.1924190  16.4766142
 107.2087988  62.2805435  16.9102870 113.3906342  63.7968286  15.3503480
 113.7989698  63.3550697  14.6058112 112.6683604  63.2220914  15.6037673
 109.7437412  58.7340893  12.7237037 110.5898607  59.1580307  12.8671686
 109.6836050  58.0774517  13.4175600 112.8936857  56.3945261  14.3818210
 112.6497789  57.1487322  13.8452486 113.1696788  56.7730609  15.2165457
 114.8475320  62.9383874  13.0595476 115.0592215  63.5815634  12.3829857
 114.8005068  62.1046190  12.5917406 112.4501549  55.5501694   9.9632048
 111.5886028  55.8482948  10.2548786 112.4763984  55.7672093   9.0313081
 106.1587200  63.6415367   9.3085617 106.7288557  64.0702635   8.6703101
 106.7495311  63.3597951  10.0069803 106.6512366  58.8078794  17.5546628
 106.0211027  59.4895075  17.7882025 106.5448454  58.6961876  16.6099766
 101.9457339  58.4750590   8.4812552 101.1556393  58.7308119   8.0052663
 102.4368586  59.2898928   8.5864593 103.8972084  58.8395169   5.4396029
 103.1003247  58.9513864   5.9579525 103.6697676  59.1781821   4.5736920
 109.7277752  65.3639872  13.3878544 109.7922184  65.8260280  14.2236716
 109.0188675  64.7337237  13.5160854 100.2295042  58.7281080  10.9127543
 100.4803080  59.6128090  11.1785119 100.7654590  58.5485682  10.1402635
 105.9293109  53.1099560  19.9171879 105.5360054  52.5565758  20.5919523
 106.7459249  53.4210138  20.3078397 108.8461070  54.5257439  17.5092136
 109.5870783  55.1264592  17.4296598 109.0778993  53.7835077  16.9510178
 103.9902408  59.7113806  15.7870366 103.8755923  58.8099063  16.0877464
 103.1346926  59.9577503  15.4355182 111.0694246  67.6531546  17.3857866
 110.6258100  66.8667925  17.0678771 111.7311459  67.8410697  16.7201757
 105.8281367  69.1827348  11.9118545 106.3788792  69.0544411  11.1395539
 104.9892843  69.4822237  11.5613437 113.1675484  67.9334346  15.4139267
 113.1493959  68.7543227  14.9219537 114.0895404  67.8088422  15.6389409
 109.6248538  65.4478476  16.2562776 110.1576875  64.6866764  16.0262084
 109.0962619  65.1552128  16.9986930 112.7918233  50.5538542  11.7856418
 112.4482502  51.4440184  11.7095528 113.1597195  50.3640199  10.9226003
 100.8604083  62.8772072   4.6045020 101.6979305  63.2869081   4.3878727
 101.0382351  61.9371514   4.5745214 111.8714773  52.9243197   9.7505651
 111.3679569  52.8873332   8.9373456 112.1645380  53.8335940   9.8102307
 108.1157659  53.0081927   8.7571832 108.9810656  52.8124735   8.3977722
 108.1835168  52.7792278   9.6841189 105.7219978  55.2384135   6.1288199
 106.2963730  55.0159316   5.3961392 106.3090961  55.3072829   6.8816801
 111.2580386  58.6007317   9.1810916 110.3402948  58.8222264   9.0232604
 111.6740530  58.6753628   8.3222624 100.8830255  60.2162788   5.2755753
 100.6854654  59.6232148   4.5506820 100.3276919  59.9114998   5.9931692
 108.8626978  60.1085894   7.3950346 108.9175588  59.1559730   7.3192823
 108.0518180  60.2645333   7.8791645 106.8019338  58.7262954   5.1540725
 105.9887204  59.0257124   5.5605917 107.2978332  58.3318643   5.8715207
 112.3993550  59.1904778  13.9855619 112.7542938  59.4176251  14.8450085
 113.0465681  59.5223155  13.3632874 106.2933413  56.2981309  10.7701960
 106.9332792  56.1570068  10.0724923 105.4610943  56.0115823  10.3940562
 111.8888561  67.9801835  11.2349320 111.9425584  68.5492772  12.0027036
 111.0203343  68.1503720  10.8703357 103.2962029  56.2681634   5.5474947
 103.5568847  57.1826968   5.4384107 104.1179202  55.8006077   5.6971560
 104.7686955  57.6819392  12.7173771 105.4410008  57.4736754  12.0686420
 103.9416741  57.4841478  12.2779004 110.6712527  54.3081332  14.7339432
 110.0240442  55.0071282  14.6403909 111.4413542  54.7417476  15.1015680
 114.0791325  64.5730185  17.8089986 113.9276831  64.3440736  16.8920069
 114.0696004  65.5300786  17.8221331 110.8476661  62.1462097  12.7936252
 111.7768721  62.2973257  12.6205219 110.4267691  62.2346118  11.9384899
 109.6464993  66.1712762  10.5634790 109.5076078  65.8031546  11.4360728
 108.8579589  66.6860401  10.3918747 105.1714452  60.9561994  13.4776209
 105.0334250  60.2242233  14.0787748 106.0819375  60.8670895  13.1960396
 107.7996753  60.6681954  12.9659888 108.5096371  60.0275146  12.9246507
 107.7566061  60.9194849  13.8886069 115.7883531  67.6049307  15.8866467
 115.7296077  66.9208527  15.2197050 116.1903050  68.3468297  15.4347093
 106.5125687  57.6547172  14.7855528 105.9763044  57.2037910  15.4377124
 105.9242395  57.7893081  14.0425992 115.7900938  65.5688891  14.1180447
 114.9027717  65.2314813  14.2406846 116.3599490  64.8371922  14.3549212
  97.4430086  61.9012983   7.4423498  98.1301125  61.5874713   6.8544514
  97.2878214  62.8054347   7.1690750 102.2464808  56.7903179  11.8708522
 102.1622996  56.1828849  11.1358932 101.4247514  57.2812198  11.8718019
 111.7800775  70.1277177  13.2399849 112.4928748  70.7624642  13.1675750
 111.2890804  70.2241043  12.4239851 109.0023490  57.4174126   6.9650402
 108.6321278  56.8645166   7.6531307 109.4982583  56.8132259   6.4125402
 106.8312689  67.8771621  14.0605420 107.5322148  68.5108104  14.2134814
 106.3607804  68.2186352  13.3001059 114.6313975  60.4316228  11.8857970
 113.9785425  60.6792136  11.2310423 115.0094355  59.6180367  11.5520447
 110.6801548  61.1736039  18.3724007 110.0042185  61.0730169  19.0426382
 111.5029182  61.0175253  18.8360004 102.4280407  67.4107976  10.9936522
 103.0133844  66.6651664  11.1264427 102.2305245  67.7211933  11.8773186
  97.0198062  59.9813576   9.7140966  97.0582161  59.4477167  10.5078084
  96.5138355  59.4548782   9.0951943 104.3988824  54.8278117  13.2103508
 104.4630151  55.6892948  12.7980906 104.3355944  54.2152118  12.4775866
 103.8741097  56.9001249  16.8576542 104.5013135  56.5178327  17.4714066
 103.0169015  56.6815451  17.2232235 114.2735205  67.3064224  18.4630278
 114.8175109  67.9194183  17.9685232 113.6922050  67.8643803  18.9797291
 100.6506639  58.7077678   2.7894897 100.9460080  57.7988357   2.7361951
  99.7494675  58.6865418   2.4675899 104.1800886  56.7833675   8.7722446
 103.4587472  57.3969643   8.6329919 104.9694142  57.3191440   8.6939092
 106.9827200  54.1188101  15.0463097 107.5061602  54.3650398  15.8089407
 106.7639533  54.9508136  14.6266235 102.3794481  56.3891776   2.9134222
 102.0507187  55.5089155   2.7309328 102.7333852  56.3339445   3.8010611
 105.4936304  56.6764746   3.2809700 105.8332377  57.2050667   2.5588308
 105.9408425  57.0145152   4.0568266 108.1879745  55.0601797  12.7312768
 107.8476565  54.2609610  13.1333448 107.4818751  55.3603507  12.1589601
 108.8396217  52.1451109  11.1840091 109.6622286  51.6711587  11.0618981
 109.0834280  52.9241593  11.6838777 106.3634795  58.8370230   8.9932070
 106.2179376  59.1510533   9.8856351 105.8859999  59.4555130   8.4402968
 108.2231178  55.8272778   9.0412959 108.2092747  54.9313871   8.7045257
 108.9403606  55.8343441   9.6751245 110.0757309  56.2610118  11.0866087
 109.8175087  57.1827188  11.0850417 109.5442349  55.8640552  11.7766551
 100.8380458  61.3775574  11.9319731 100.2933926  62.1535382  12.0640005
 101.7159807  61.7246378  11.7738852 107.6268074  54.7087158   4.3100529
 107.7483985  53.7803804   4.5091417 107.3370117  54.7225844   3.3978845
 101.6246479  60.5045470  14.8249888 100.8828216  60.6528106  15.4114518
 101.3039224  60.7653736  13.9616637 109.5690142  70.0461448  14.6230278
 109.8777269  69.8010595  15.4952977 110.3665624  70.2508087  14.1349148
 100.2711698  66.3097225   7.8149216  99.4343607  65.8819400   7.6333217
 100.2435344  66.5029669   8.7520007 107.1109154  56.2219155  18.5190462
 107.1597309  57.0981278  18.1368231 107.6531668  55.6796548  17.9462105
 117.5963999  66.7660278  17.7991599 116.8059543  66.7484417  17.2596098
 117.3597354  67.3048572  18.5540635 117.7161875  63.6152745  15.1124327
 117.7659879  63.4502752  16.0539850 117.6075798  62.7480004  14.7222208
 115.0065637  59.5983673  16.4283634 115.9075500  59.4590138  16.1367632
 115.0813611  59.7638128  17.3681812 109.3408442  56.9750528  15.2736820
 108.4711752  57.2684094  15.0019409 109.5767923  57.5590973  15.9944084
 119.2180071  66.0349686  15.3566349 118.9264880  66.3979667  16.1929810
 118.6052203  65.3216695  15.1779681 117.4667260  61.1582301  13.8246407
 117.9421381  61.3509947  13.0165258 116.5432825  61.2141487  13.5789791
 112.0447476  53.1930145  12.7902241 112.5629420  53.9291171  12.4648729
 111.6902609  53.4994138  13.6249000 116.1668929  58.0348061  12.0574713
 117.1186351  58.1346159  12.0786937 115.9972379  57.2426330  12.5672797
 114.1883308  55.1203644  12.2434113 113.5933240  55.4008657  11.5480602
 113.9033005  55.6097545  13.0150855 118.6457006  61.2554181  11.1717012
 118.6133326  60.3170182  11.3576696 119.2557630  61.3338217  10.4382837
 110.3679030  64.1767980  18.6744873 111.2882039  64.3546579  18.8684920
 110.3328613  63.2324025  18.5224573  99.5861195  59.3706574   7.5998148
  99.2663979  58.5171882   7.3072522  99.0394623  59.5855152   8.3556115
 103.3641102  62.0869015  11.3167654 103.5827112  63.0186122  11.3355688
 103.7766876  61.7276989  12.1022458 108.2368968  57.6602220  20.7070403
 108.1365695  58.6096577  20.6382494 108.0190510  57.3320459  19.8346473
  99.4549455  62.9909485   9.5691269  98.7612926  62.5763438   9.0561224
 100.2022446  63.0330022   8.9724688 108.1000238  61.0899359  19.5235465
 107.6167319  61.8899719  19.7299354 108.1861177  61.1007304  18.5702909
 101.3686197  62.9227739   7.4457284 101.3456885  63.0215426   6.4939167
 101.6786834  63.7692890   7.7674450 104.0273575  64.9803894  11.5603899
 104.9816829  64.9487836  11.4933830 103.8286099  64.5194518  12.3754125
 104.6172957  63.5505010  14.1274696 105.4365846  64.0449089  14.1509534
 104.8909765  62.6336978  14.0992264  99.8707872  57.8843144  14.8266893
 100.5166735  57.3742098  15.3154119  99.6625023  58.6211825  15.4010319
 112.3961264  64.9523991  20.3259034 113.2652423  65.1264644  19.9645669
 111.9168015  65.7718408  20.2034763 106.5647444  72.0721092  12.0048468
 107.4674691  72.1044703  12.3214963 106.3384814  71.1421543  12.0194803
 104.2105363  55.0310761  18.9241908 105.0736824  54.6747566  19.1345232
 103.6370773  54.6924656  19.6117312 116.7686863  68.4391477  19.9171879
 116.3753809  67.8857676  20.5919523 117.5853004  68.7502056  20.3078397
 119.6854824  69.8549357  17.5092136 120.4264538  70.4556510  17.4296598
 119.9172747  69.1126994  16.9510178 114.7134851  72.2293167  16.8576542
 115.3406890  71.8470244  17.4714066 113.8562770  72.0107369  17.2232235
 117.9502908  71.5511073  18.5190462 117.9991064  72.4273196  18.1368231
 118.4925423  71.0088466  17.9462105 119.0762722  72.9894138  20.7070403
 118.9759449  73.9388495  20.6382494 118.8584264  72.6612377  19.8346473
 110.7101626  73.2135061  14.8266893 111.3560490  72.7034015  15.3154119
 110.5018777  73.9503743  15.4010319 115.0499117  70.3602679  18.9241908
 115.9130579  70.0039483  19.1345232 114.4764528  70.0216573  19.6117312
   4.8195834  77.4886501  87.2330962   4.0659543  76.9193899  87.0774966
   4.9543375  77.4549165  88.1801596   1.6411582  77.4589251  85.1374629
   2.0842728  76.7096576  84.7393752   0.7638092  77.4499387  84.7548361
   1.1844447  78.9294489  87.5297076   2.0191338  79.3684293  87.6934637
   1.3203576  78.4533142  86.7105322   5.2302249  77.6462111  89.9651206
   5.9605638  77.3847399  90.5258909   4.6209195  76.9090833  90.0053274
   3.3117546  75.7869973  90.5625657   2.5850710  75.6525938  89.9542149
   2.8964833  76.0946802  91.3682375   0.9295341  72.0081825  87.9159089
   1.5239832  71.7677561  87.2052397   1.0021925  71.2888956  88.5432625
   3.2366414  75.3148026  86.6902510   2.6765972  75.3841216  87.4634072
   2.6309917  75.1389011  85.9702006   4.8222433  91.9904540  89.3832466
   5.4600843  91.8711288  88.6795806   4.7043275  92.9385384  89.4420418
   1.6312139  91.9431968  89.3193991   1.2930650  91.8273033  88.4314525
   2.5001907  91.5423133  89.2994997   3.0698513  97.4638412  80.6205346
   2.4186493  98.0492493  80.2339360   3.8642876  97.9944607  80.6800384
   4.3763701  89.7155994  86.4585674   5.1626790  89.2975417  86.1076091
   4.6402405  90.6202086  86.6267322   4.5473778  95.1528844  81.1574331
   3.9119611  95.2263471  81.8695235   4.2171185  95.7422443  80.4793410
   9.7772128  89.6531227  87.3618652  10.5097300  89.0830444  87.5956482
   9.0211484  89.2652828  87.8025158   1.3948248  92.0758469  84.5581995
   1.0306455  91.5489090  85.2694916   2.2515364  91.6856938  84.3848480
   7.2997549  83.3652801  91.8213261   6.9680873  84.2348212  91.5974476
   6.7043162  83.0489085  92.5007291   1.0353735  87.1048368  79.5543343
   1.2028137  87.9728605  79.9213814   0.8450904  87.2675650  78.6304633
   3.7929068  95.5665347  91.2209174   3.4929791  96.4690386  91.1124981
   3.4480128  95.2997531  92.0730327   7.1926212  88.0847888  88.9006611
   6.2843089  88.0163296  88.6065372   7.1413808  88.5619832  89.7288437
   9.0587858  86.2864326  90.6784485   8.4162238  86.5796859  90.0324280
   8.5542787  86.1717246  91.4837682   6.7128022  90.0327499  81.3670344
   7.6245878  90.2654886  81.1918042   6.2037669  90.6164543  80.8045423
   4.9968790  94.4552127  95.0031637   5.4052146  94.0134537  94.2586269
   4.2746051  93.8804754  95.2565830   1.3499860  89.3924734  92.3765194
   2.1961055  89.8164147  92.5199843   1.2898497  88.7358358  93.0703757
   5.3197604  95.0153318  88.7583926   4.6906467  95.1799032  88.0559994
   4.9323266  95.4294927  89.5294890   9.1986836  95.9507755  86.1128289
   8.5137874  96.3306657  85.5625323   9.2830685  96.5603082  86.8460237
   4.4999305  87.0529102  94.0346367   4.2560237  87.8071163  93.4980643
   4.7759235  87.4314450  94.8693614   6.4537768  93.5967714  92.7123633
   6.6654663  94.2399474  92.0358014   6.4067516  92.7630031  92.2445563
   4.0563997  86.2085535  89.6160205   3.1948476  86.5066789  89.9076943
   4.0826431  86.4255934  88.6841238   0.8725566  94.7527726  86.0234011
   1.3363912  95.0315429  85.2338633   0.6082364  93.8511170  85.8407101
   7.5683596  96.4739670  90.8845990   8.3901039  96.0719857  90.6028672
   7.5645999  96.3707904  91.8362106  15.6589589  92.8178418  87.2330962
  14.9053297  92.2485816  87.0774966  15.7937130  92.7841083  88.1801596
   1.0488217  97.6891821  82.9085681   0.9133892  98.5343356  83.3370529
   1.5898029  97.8911098  82.1451615   4.3980680  81.2122383  91.4384575
   4.0544950  82.1024024  91.3623685   4.7659643  81.0224040  90.5754160
   4.3630963  91.2030994  79.9457010   3.8477586  91.9735598  80.1845397
   4.0908271  90.5296130  80.5690071   1.9478074  86.0480694  85.0042248
   1.0919670  85.6587545  84.8247887   2.3605026  86.1272655  84.1442034
   3.4777221  83.5827038  89.4033808   2.9742016  83.5457173  88.5901613
   3.7707828  84.4919780  89.4630465   9.3365237  93.9563348  81.8810183
   8.5594680  93.6174508  81.4365345  10.0156718  93.9615971  81.2065148
   4.1517266  89.0758086  81.7716791   3.8467402  89.3904235  82.6226934
   5.1047708  89.1539506  81.8144124   2.5963698  95.2348309  83.4209745
   2.0685060  94.5001069  83.1082982   2.0951201  96.0122985  83.1749713
   7.5756544  93.4297330  88.5376791   6.9180219  94.1196591  88.6256920
   8.3796943  93.8193761  88.8810778   6.3862003  91.7841702  86.5880733
   6.8993885  92.4171694  87.0902443   7.0363227  91.1842898  86.2224093
   3.6484377 101.7626027  79.3441404   2.9746076 102.0657723  79.9526362
   4.0350199 102.5655107  78.9946861   2.8642834  89.2591158  88.8339073
   1.9465395  89.4806105  88.6760762   3.2802977  89.3337468  87.9750781
   3.6477882  90.6582573  83.9641754   4.3949700  91.1703971  83.6548876
   3.9169471  90.3366626  84.8246147   1.9204532  93.1541114  80.9468708
   1.0115751  92.8700147  81.0441178   1.9499615  93.5740193  80.0872015
   7.1523799  96.7647704  84.7159876   6.6986126  95.9238614  84.7725066
   6.5217766  97.4009102  85.0534656   6.0956719  87.6939690  85.9460543
   5.3579475  87.1817076  86.2770786   6.3483492  87.2540071  85.1343820
   5.5956738  98.6024200  85.6509694   5.8879713  99.1629257  84.9322059
   6.1055359  98.8952761  86.4062853   6.1968346  80.4715942  86.5402312
   6.5027223  79.6113305  86.2528227   6.9220951  81.0633562  86.3401306
   1.6180619  94.6949858  78.2856787   1.1800049  93.9785717  77.8262424
   2.3591060  94.9225973  77.7241878   0.5590364  99.3804551  86.7403147
   0.5166542  99.6065398  85.8111679   1.4753062  99.1467926  86.8888948
   4.0055997  89.8488619  93.6383776   4.3605385  90.0760092  94.4978242
   4.6528129  90.1806996  93.0161031   9.7353734  92.9707055  84.3433105
   9.5971633  93.1608651  83.4154294   9.3789953  93.7326438  84.8001156
   9.7623114  95.0383582  89.3544377  10.1959621  94.9458871  90.2027431
  10.4754695  95.0141082  88.7164393   3.4951009  98.6385676  90.8877477
   3.5488031  99.2076612  91.6555193   2.6265790  98.8087561  90.5231514
  10.6238663  95.0807283  91.8877262  10.8174554  95.9853093  92.1336537
  10.5239282  94.6214702  92.7215847   2.2774974  84.9665173  94.3867589
   1.6302889  85.6655123  94.2932066   3.0475990  85.4001317  94.7543838
   2.4539109  92.8045938  92.4464409   3.3831169  92.9557098  92.2733376
   2.0330139  92.8929959  91.5913056   1.8475592 101.9305699  81.5588483
   2.0227348 101.4593742  82.3734106   1.1608380 102.5571465  81.7869744
   2.8032655  96.2078205  87.6051785   2.4682488  96.1678975  88.5009434
   2.3036601  95.5422921  87.1322195   5.7391847  93.5534239  77.8788844
   5.1221018  92.8281068  77.7821897   5.2708336  94.3143600  77.5355918
   7.3945979  98.2633148  95.5394625   7.3358525  97.5792368  94.8725208
   7.7965497  99.0052138  95.0875251   7.3963386  96.2272732  93.7708604
   6.5090165  95.8898654  93.8935003   7.9661937  95.4955763  94.0077370
   4.0250969  85.9340584  86.8906874   4.5219669  85.1810546  86.5707945
   3.2537951  85.9704900  86.3250084  11.8780727  91.6380949  88.5325166
  11.8670603  92.5205665  88.1619099  11.0098106  91.2852500  88.3379703
   5.1080750  94.6912271  84.4645298   4.1737029  94.8113733  84.2950002
   5.2857418  93.7884738  84.2005308   8.4953301  90.5329590  84.9995332
   8.9613753  91.3657582  84.9255635   8.9460802  90.0674572  85.7040590
   6.5629532  96.8773411  81.9981484   6.8389376  96.7630006  82.9075358
   5.6934031  96.4790896  81.9593657   6.4669964  82.9010177  89.0386233
   5.5533044  83.1314404  89.2068440   6.8963065  82.9848621  89.8900266
   6.2376422  91.0900069  91.5386127   5.5847873  91.3375977  90.8838580
   6.6156802  90.2764207  91.2048605   3.1983596 101.1259762  85.6414298
   3.3805991 100.3081418  86.1042050   4.0216582 101.3427455  85.2039188
   3.5325762 100.0527947  82.9029346   4.0613528  99.5420402  82.2899508
   3.7953981  99.7370478  83.7674879   4.1655166 101.0868783  89.2473462
   4.0406305 100.2858523  88.7384408   4.8234257 101.5814976  88.7587432
   6.2290074  98.8877803  90.8753013   5.2820410  98.7683154  90.8031339
   6.5772847  98.0000301  90.9579274   3.2336507  98.6830519  87.0757365
   3.0861470  97.7547227  87.2564935   4.0590001  98.7050610  86.5914440
   6.8370629  99.5059078  88.1622238   7.7617177  99.3001939  88.0246689
   6.6685933  99.2575479  89.0711579   3.2298022  86.5368357  82.0689482
   3.4461636  87.4192995  81.7678310   2.7492089  86.1454570  81.3395124
   1.6819757  86.9193958  90.7394244   1.4237534  87.8411029  90.7378574
   1.1504797  86.5224393  91.4294708   6.6265945 100.0244746  83.5184329
   6.8002823  99.4591168  82.7658181   7.1194837 100.8245640  83.3363819
   2.1021712  83.0525909  87.0995406   2.1243409  83.1165242  86.1447386
   2.5189771  82.2130418  87.2935912  12.4805337  92.7881169  85.1374629
  12.9236483  92.0388494  84.7393752  11.6031847  92.7791305  84.7548361
   7.6141118  99.3411510  80.6181227   8.3092022  99.9618203  80.8368542
   7.9564268  98.4906861  80.8933605   9.5132541  96.7911216  82.1468558
  10.0383865  97.1298488  81.4217878   9.4254894  95.8558231  81.9631693
   1.1973202 102.8583199  86.5063811   0.7578192 102.3659578  87.1996668
   1.9481319 102.3156166  86.2655886   9.3224322  94.2736586  94.7652485
   9.3722327  94.1086593  95.7068007   9.2138245  93.4063845  94.3750365
   6.6128084  90.2567514  96.0811791   7.5137947  90.1173978  95.7895789
   6.6876059  90.4221968  97.0209969  10.8242519  96.6933527  95.0094506
  10.5327327  97.0563508  95.8457967  10.2114650  95.9800535  94.8307838
  12.0238201  94.2586407  87.5297076  12.8585093  94.6976211  87.6934637
  12.1597330  93.7825060  86.7105322   9.0729707  91.8166142  93.4774564
   9.5483829  92.0093788  92.6693415   8.1495273  91.8725328  93.2317948
   3.6509924  83.8513985  92.4430398   4.1691868  84.5875012  92.1176887
   3.2965056  84.1577979  93.2777157   3.9022518  80.2714268  87.9631295
   4.1824272  79.6037457  88.5891721   4.6873125  80.4643363  87.4505958
   1.7055986  99.4473262  79.5256321   1.1329953 100.0663449  79.0726793
   2.2788780  99.9972623  80.0596243   7.7731376  88.6931902  91.7102870
   8.7248799  88.7929999  91.7315094   7.6034827  87.9010170  92.2200954
   5.7945756  85.7787485  91.8962271   5.1995688  86.0592498  91.2008759
   5.5095452  86.2681386  92.6679012   4.9253246  99.7310412  80.6564903
   5.8583919  99.6655973  80.8597779   4.8376459 100.5666679  80.1979436
   7.5541263  99.0476282  77.6168851   7.4754894  98.7136146  78.5104609
   8.3750930  99.5398050  77.6160323  10.2519454  91.9138021  90.8245169
  10.2195774  90.9754022  91.0104853  10.8620078  91.9922058  90.0910994
   2.0902785  90.7834074  76.8672373   3.0361890  90.6540283  76.9360791
   1.7117030  90.0448736  77.3441802  10.4013942  88.7049065  90.8703453
   9.8852991  87.9207522  90.6833381  11.2853891  88.3767782  91.0349972
   8.0624669  82.4490080  86.8299265   7.8649490  82.1405169  87.7142597
   8.6724375  83.1751719  86.9597195  16.0696004  92.9754028  89.9651206
  16.7999392  92.7139316  90.5258909  15.4602949  92.2382750  90.0053274
  14.1511301  91.1161891  90.5625657  13.4244464  90.9817856  89.9542149
  13.7358588  91.4238720  91.3682375   1.8907768  83.2520941  82.9571500
   1.0808496  82.9068026  83.3326746   2.5792185  82.9428484  83.5459111
   3.8198316  82.3298987  84.5795797   4.3729355  82.7494441  85.2385820
   4.0568402  81.4034735  84.6218753   7.1977123  84.4399513  84.0874461
   6.6175792  85.0984317  83.7052513   6.9313056  83.6176857  83.6761878
   5.6480689  83.8404570  86.2895781   6.1480468  83.9521105  85.4810100
   6.2916297  83.5365623  86.9296590   5.9802001  86.5999603  83.1430809
   5.0927856  86.8849254  82.9251004   6.3955990  86.4393366  82.2958086
   9.3316537  86.6246124  86.8585148  10.1076927  87.1142576  87.1309765
   8.6064671  87.0504178  87.3157018  11.7689096  87.3373743  87.9159089
  12.3633587  87.0969479  87.2052397  11.8415680  86.6180874  88.5432625
   5.1245215  96.3644278  77.2378829   5.8281065  96.5694280  77.8536485
   4.4007863  96.9321039  77.5027913   5.9543025  92.1154139  83.3581099
   5.8978226  92.5722690  82.5188732   6.5071367  91.3544823  83.1803942
   9.7647831  87.9043871  84.1831219   9.5084765  87.5040506  85.0139426
   9.1400699  88.6187665  84.0581358  14.0760169  90.6439944  86.6902510
  13.5159727  90.7133133  87.4634072  13.4703672  90.4680929  85.9702006
   7.0331912  96.8026807  79.2877289   7.8677516  96.3708005  79.1054764
   6.8716255  96.6308820  80.2154184   6.6877804  93.3058920  80.6533628
   6.6326608  93.1403192  79.7122072   6.0623859  94.0134953  80.8095818
   3.8126049  79.4009806  84.4864884   3.0458445  78.8468292  84.6321566
   4.2236754  79.4731674  85.3479035  15.6616187 107.3196458  89.3832466
  16.2994597 107.2003205  88.6795806  15.5437030 108.2677302  89.4420418
  12.4705893 107.2723886  89.3193991  12.1324405 107.1564951  88.4314525
  13.3395662 106.8715051  89.2994997  10.1714173 106.0412133  78.6510931
  10.4239693 105.5193655  77.8894394   9.2338732 105.8778279  78.7537614
  15.2157456 105.0447912  86.4585674  16.0020545 104.6267335  86.1076091
  15.4796160 105.9494004  86.6267322  20.6165883 104.9823145  87.3618652
  21.3491055 104.4122362  87.5956482  19.8605238 104.5944745  87.8025158
  12.2342002 107.4050386  84.5581995  11.8700210 106.8781007  85.2694916
  13.0909118 107.0148855  84.3848480  18.1391303  98.6944719  91.8213261
  17.8074628  99.5640130  91.5974476  17.5436916  98.3781003  92.5007291
  11.8747489 102.4340286  79.5543343  12.0421892 103.3020523  79.9213814
  11.6844658 102.5967568  78.6304633  18.0319966 103.4139805  88.9006611
  17.1236844 103.3455214  88.6065372  17.9807562 103.8911750  89.7288437
  11.8536710 104.8897944  80.5390010  11.7336335 105.3354994  81.3775490
  11.1589299 105.2383261  79.9803548  19.8981613 101.6156244  90.6784485
  19.2555993 101.9088777  90.0324280  19.3936541 101.5009164  91.4837682
  17.5521776 105.3619417  81.3670344  18.4639632 105.5946804  81.1918042
  17.0431423 105.9456461  80.8045423  15.8362544 109.7844045  95.0031637
  16.2445900 109.3426455  94.2586269  15.1139806 109.2096672  95.2565830
  12.1893614 104.7216651  92.3765194  13.0354809 105.1456065  92.5199843
  12.1292252 104.0650276  93.0703757  15.3393059 102.3821020  94.0346367
  15.0953991 103.1363080  93.4980643  15.6152990 102.7606367  94.8693614
  17.2931522 108.9259632  92.7123633  17.5048417 109.5691392  92.0358014
  17.2461270 108.0921949  92.2445563  14.8957751 101.5377453  89.6160205
  14.0342230 101.8358706  89.9076943  14.9220186 101.7547852  88.6841238
  10.6488207 106.2042796  82.8323576  11.3512250 106.6563839  83.2997502
  10.3168835 105.5626615  83.4603469   4.3913541 104.4626348  88.1340709
   3.6012595 104.7183877  87.6580820   4.8824788 105.2774686  88.2392750
   6.3428286 104.8270928  85.0924186   5.5459449 104.9389622  85.6107682
   6.1153878 105.1657580  84.2265077  26.4983343 108.1470336  87.2330962
  25.7447052 107.5777734  87.0774966  26.6330884 108.1133001  88.1801596
  11.2917272 100.5133197  97.1620293  12.0326985 101.1140350  97.0824755
  11.5235195  99.7710835  96.6038335  15.2374435  96.5414300  91.4384575
  14.8938704  97.4315942  91.3623685  15.6053397  96.3515958  90.5754160
  15.2024718 106.5322911  79.9457010  14.6871341 107.3027516  80.1845397
  14.9302026 105.8588047  80.5690071  12.7871829 101.3772612  85.0042248
  11.9313425 100.9879462  84.8247887  13.1998780 101.4564573  84.1442034
  14.3170975  98.9118955  89.4033808  13.8135771  98.8749091  88.5901613
  14.6101582  99.8211698  89.4630465  10.5613861  98.9957685  88.4099990
  11.4266858  98.8000494  88.0505879  10.6291370  98.7668037  89.3369346
  20.1758992 109.2855266  81.8810183  19.3988434 108.9466425  81.4365345
  20.8550473 109.2907889  81.2065148  14.9911021 104.4050003  81.7716791
  14.6861156 104.7196153  82.6226934  15.9441463 104.4831423  81.8144124
  18.4150299 108.7589247  88.5376791  17.7573973 109.4488509  88.6256920
  19.2190698 109.1485679  88.8810778   8.1676180 101.2259893  85.7816356
   8.7419932 101.0035075  85.0489549   8.7547163 101.2948588  86.5344958
  17.2255757 107.1133620  86.5880733  17.7387639 107.7463612  87.0902443
  17.8756981 106.5134815  86.2224093   8.4945767 103.2564354  79.8012242
   7.6583080 103.5939041  80.1221516   8.3550537 103.1213334  78.8639379
  10.4698848  98.1001142  84.5091426   9.8163260  97.7850159  83.8848041
  10.4279322  97.4776882  85.2351249  11.5810053 108.3820437  76.4244718
  10.6737114 108.1509690  76.6235867  12.0781085 107.5858056  76.6118699
  13.7036588 104.5883075  88.8339073  12.7859150 104.8098022  88.6760762
  14.1196732 104.6629386  87.9750781  14.4871636 105.9874491  83.9641754
  15.2343455 106.4995888  83.6548876  14.7563226 105.6658544  84.8246147
  12.7598286 108.4833032  80.9468708  11.8509505 108.1992065  81.0441178
  12.7893370 108.9032110  80.0872015  16.9350473 103.0231607  85.9460543
  16.1973230 102.5108994  86.2770786  17.1877247 102.5831989  85.1343820
  17.0362100  95.8007859  86.5402312  17.3420977  94.9405223  86.2528227
  17.7614705  96.3925480  86.3401306  11.3083180 106.0961652  87.0478503
  11.3631790 105.1435489  86.9720980  10.4974382 106.2521092  87.5319802
   9.2475540 104.7138712  84.8068882   8.4343406 105.0132883  85.2134074
   9.7434534 104.3194401  85.5243364  14.8449752 105.1780537  93.6383776
  15.1999140 105.4052010  94.4978242  15.4921883 105.5098913  93.0161031
  20.5747489 108.2998973  84.3433105  20.4365387 108.4900569  83.4154294
  20.2183708 109.0618355  84.8001156   8.7389615 102.2857068  90.4230117
   9.3788994 102.1445827  89.7253080   7.9067145 101.9991581  90.0468719
  20.6016868 110.3675500  89.3544377  21.0353375 110.2750789  90.2027431
  21.3148449 110.3433000  88.7164393   5.8232682 105.7302580  82.6124862
   4.8930270 105.6687035  82.8294824   5.9190154 105.2078533  81.8161504
   5.7418231 102.2557393  85.2003104   6.0025049 103.1702726  85.0912264
   6.5635404 101.7881835  85.3499717  21.4632418 110.4099200  91.8877262
  21.6568308 111.3145011  92.1336537  21.3633036 109.9506619  92.7215847
  13.1168729 100.2957091  94.3867589  12.4696644 100.9947040  94.2932066
  13.8869744 100.7293235  94.7543838  13.2932863 108.1337856  92.4464409
  14.2224923 108.2849015  92.2733376  12.8723893 108.2221877  91.5913056
  16.5785602 108.8826157  77.8788844  15.9614772 108.1572985  77.7821897
  16.1102090 109.6435517  77.5355918   8.3684148 103.1011581  77.0010148
   7.4913614 102.9800382  76.6372395   8.8441901 102.3097660  76.7489037
  14.8644724 101.2632501  86.8906874  15.3613423 100.5102464  86.5707945
  14.0931705 101.2996818  86.3250084  22.7174481 106.9672867  88.5325166
  22.7064357 107.8497582  88.1619099  21.8491860 106.6144418  88.3379703
  11.4479692 103.4049884  86.6178559  11.0777480 102.8520925  87.3059465
  11.9438785 102.8008018  86.0653559  19.3347056 105.8621508  84.9995332
  19.8007508 106.6949499  84.9255635  19.7854556 105.3966489  85.7040590
  17.3063718  98.2302095  89.0386233  16.3926798  98.4606322  89.2068440
  17.7356820  98.3140539  89.8900266  17.0770177 106.4191987  91.5386127
  16.4241627 106.6667894  90.8838580  17.4550557 105.6056125  91.2048605
   6.8445026 100.8153875  92.8631665   6.9086353 101.6768706  92.4509063
   6.7812146 100.2027877  92.1304024   3.0962841 104.6953437  82.4423054
   3.3916282 103.7864115  82.3890108   2.1950877 104.6741176  82.1204056
   6.6257088 102.7709433  88.4250603   5.9043674 103.3845401  88.2858076
   7.4150344 103.3067198  88.3467249   9.4283402 100.1063860  94.6991254
   9.9517804 100.3526156  95.4617564   9.2095735 100.9383895  94.2794392
   4.8250683 102.3767534  82.5662379   4.4963389 101.4964913  82.3837485
   5.1790054 102.3215203  83.4538768   7.9392506 102.6640504  82.9337857
   8.2788579 103.1926425  82.2116465   8.3864627 103.0020910  83.7096423
  10.6335947 101.0477555  92.3840925  10.2932767 100.2485368  92.7861605
   9.9274953 101.3479266  91.8117758  11.2852419  98.1326867  90.8368248
  12.1078488  97.6587346  90.7147138  11.5290482  98.9117351  91.3366934
   9.9260653 101.1615126  81.1331150  10.6469016 101.5396379  80.6294867
   9.3025957 101.8804003  81.2366128  14.0691776 101.8660275  82.0689482
  14.2855391 102.7484913  81.7678310  13.5885843 101.4746488  81.3395124
   8.8090997 104.8245988  88.6460227   8.6635578 105.1386291  89.5384508
   8.3316201 105.4430888  88.0931125  10.6687380 101.8148536  88.6941116
  10.6548949 100.9189629  88.3573414  11.3859808 101.8219200  89.3279402
  12.5213511 102.2485876  90.7394244  12.2631289 103.1702947  90.7378574
  11.9898551 101.8516311  91.4294708  10.0724276 100.6962916  83.9628686
  10.1940188  99.7679562  84.1619574   9.7826319 100.7101602  83.0507002
  12.9415467  98.3817827  87.0995406  12.9637164  98.4457160  86.1447386
  13.3583526  97.5422335  87.2935912  23.3199091 108.1173086  85.1374629
  23.7630237 107.3680411  84.7393752  22.4425601 108.1083223  84.7548361
  20.1618077 109.6028503  94.7652485  20.2116082 109.4378511  95.7068007
  20.0532000 108.7355762  94.3750365  17.4521839 105.5859431  96.0811791
  18.3531702 105.4465896  95.7895789  17.5269813 105.7513886  97.0209969
  11.7864644 102.9626286  94.9264978  10.9167954 103.2559852  94.6547566
  12.0224125 103.5466731  95.6472241  22.8631956 109.5878325  87.5297076
  23.6978847 110.0268129  87.6934637  22.9991085 109.1116978  86.7105322
  19.9123462 107.1458059  93.4774564  20.3877583 107.3385706  92.6693415
  18.9889027 107.2017245  93.2317948  14.4903678  99.1805903  92.4430398
  15.0085622  99.9166930  92.1176887  14.1358811  99.4869896  93.2777157
   6.0702616 104.0410584  80.5591804   5.3771861 104.1154939  79.9031840
   5.8254368 103.2770928  81.0813321  14.7416272  95.6006185  87.9631295
  15.0218026  94.9329375  88.5891721  15.5266879  95.7935281  87.4505958
  18.6125131 104.0223819  91.7102870  19.5642554 104.1221917  91.7315094
  18.4428581 103.2302088  92.2200954  16.6339510 101.1079403  91.8962271
  16.0389442 101.3884415  91.2008759  16.3489207 101.5973304  92.6679012
  21.0913208 107.2429939  90.8245169  21.0589529 106.3045940  91.0104853
  21.7013832 107.3213976  90.0910994  12.9296539 106.1125992  76.8672373
  13.8755644 105.9832200  76.9360791  12.5510784 105.3740654  77.3441802
  21.2407697 104.0340983  90.8703453  20.7246746 103.2499439  90.6833381
  22.1247645 103.7059699  91.0349972  18.9018424  97.7781998  86.8299265
  18.7043245  97.4697086  87.7142597  19.5118129  98.5043637  86.9597195
  26.9089758 108.3045946  89.9651206  27.6393147 108.0431234  90.5258909
  26.2996704 107.5674668  90.0053274  24.9905055 106.4453809  90.5625657
  24.2638219 106.3109774  89.9542149  24.5752342 106.7530637  91.3682375
  11.1139456 104.0375969  76.8027259  10.2070912 103.7409081  76.8789972
  11.3915437 103.7405787  75.9361545  12.7301522  98.5812858  82.9571500
  11.9202250  98.2359943  83.3326746  13.4185939  98.2720402  83.5459111
  14.6592070  97.6590905  84.5795797  15.2123109  98.0786358  85.2385820
  14.8962157  96.7326653  84.6218753   9.8838241 100.8962904  76.9439238
  10.7457405 101.2217802  77.2035055  10.0688585 100.1094400  76.4312304
  18.0370878  99.7691430  84.0874461  17.4569547 100.4276234  83.7052513
  17.7706810  98.9468775  83.6761878  16.4874444  99.1696488  86.2895781
  16.9874222  99.2813022  85.4810100  17.1310052  98.8657541  86.9296590
  16.8195756 101.9291521  83.1430809  15.9321611 102.2141171  82.9251004
  17.2349745 101.7685284  82.2958086  20.1710292 101.9538042  86.8585148
  20.9470682 102.4434494  87.1309765  19.4458426 102.3796096  87.3157018
  22.6082850 102.6665661  87.9159089  23.2027341 102.4261397  87.2052397
  22.6809434 101.9472791  88.5432625  16.7936779 107.4446057  83.3581099
  16.7371981 107.9014608  82.5188732  17.3465122 106.6836741  83.1803942
  20.6041585 103.2335788  84.1831219  20.3478519 102.8332424  85.0139426
  19.9794453 103.9479582  84.0581358  24.9153923 105.9731862  86.6902510
  24.3553481 106.0425051  87.4634072  24.3097426 105.7972846  85.9702006
  17.5271559 108.6350838  80.6533628  17.4720362 108.4695109  79.7122072
  16.9017614 109.3426871  80.8095818  10.8367684  98.1358947  80.2318947
  10.8246354  99.0800787  80.3887218  11.7291106  97.9529092  79.9378408
  14.6519804  94.7301723  84.4864884  13.8852199  94.1760210  84.6321566
  15.0630509  94.8023592  85.3479035  26.0768189 111.8706218  91.4384575
  25.7332459 112.7607860  91.3623685  26.4447152 111.6807876  90.5754160
  27.8755855 111.1299777  86.5402312  28.1814732 110.2697140  86.2528227
  28.6008460 111.7217397  86.3401306  28.1457473 113.5594012  89.0386233
  27.2320553 113.7898239  89.2068440  28.5750574 113.6432457  89.8900266
  25.5810027 110.9298103  87.9631295  25.8611781 110.2621292  88.5891721
  26.3660634 111.1227199  87.4505958  29.7412178 113.1073916  86.8299265
  29.5436999 112.7989004  87.7142597  30.3511884 113.8335555  86.9597195
  25.4985825 112.9882823  84.5795797  26.0516864 113.4078276  85.2385820
  25.7355911 112.0618571  84.6218753  25.4913558 110.0593641  84.4864884
  24.7245954 109.5052128  84.6321566  25.9024263 110.1315510  85.3479035
   4.8195835  54.4948623  73.9576268   4.0659544  53.9256021  73.8020273
   4.9543377  54.4611288  74.9046903   1.6411583  54.4651373  71.8619935
   2.0842729  53.7158699  71.4639059   0.7638094  54.4561510  71.4793667
   1.1844448  55.9356612  74.2542383   2.0191339  56.3746416  74.4179943
   1.3203577  55.4595265  73.4350629   5.2302251  54.6524233  76.6896513
   5.9605639  54.3909521  77.2504216   4.6209196  53.9152955  76.7298581
   3.3117548  52.7932096  77.2870964   2.5850711  52.6588061  76.6787456
   2.8964835  53.1008924  78.0927682   0.9295343  49.0143948  74.6404396
   1.5239833  48.7739684  73.9297704   1.0021926  48.2951079  75.2677932
   3.2366415  52.3210149  73.4147817   2.6765973  52.3903338  74.1879379
   2.6309919  52.1451133  72.6947313   4.8222434  68.9966663  76.1077772
   5.4600844  68.8773410  75.4041113   4.7043277  69.9447507  76.1665725
   1.6312140  68.9494091  76.0439297   1.2930652  68.8335156  75.1559832
   2.5001908  68.5485256  76.0240303   2.1131923  70.1028943  82.0025503
   2.1020564  69.7081741  81.1306006   2.2752563  69.3695015  82.5959274
   3.0698515  74.4700535  67.3450653   2.4186494  75.0554615  66.9584667
   3.8642877  75.0006730  67.4045690   4.3763702  66.7218117  73.1830981
   5.1626792  66.3037540  72.8321398   4.6402407  67.6264209  73.3512629
   4.5473780  72.1590967  67.8819637   3.9119613  72.2325593  68.5940542
   4.2171186  72.7484566  67.2038717   9.7772129  66.6593350  74.0863959
  10.5097301  66.0892567  74.3201788   9.0211485  66.2714950  74.5270465
   1.3948249  69.0820591  71.2827301   1.0306456  68.5551212  71.9940223
   2.2515365  68.6919060  71.1093787   7.2997550  60.3714924  78.5458568
   6.9680875  61.2410335  78.3219783   6.7043163  60.0551208  79.2252598
   1.0353736  64.1110491  66.2788650   1.2028138  64.9790727  66.6459121
   0.8450905  64.2737773  65.3549939   3.7929069  72.5727470  77.9454480
   3.4929792  73.4752509  77.8370288   3.4480129  72.3059653  78.7975633
   7.1926213  65.0910010  75.6251918   6.2843090  65.0225419  75.3310679
   7.1413809  65.5681955  76.4533743   1.2667079  66.5099656  83.5686815
   0.4900413  67.0693576  83.5589680   1.9057642  66.9956439  84.0901685
   9.0587859  63.2926449  77.4029792   8.4162240  63.5858982  76.7569586
   8.5542788  63.1779369  78.2082988   6.7128023  67.0389622  68.0915651
   7.6245879  67.2717008  67.9163348   6.2037670  67.6226666  67.5290729
   4.9968791  71.4614250  81.7276943   5.4052147  71.0196660  80.9831576
   4.2746052  70.8866877  81.9811136   1.3499861  66.3986856  79.1010500
   2.1961056  66.8226270  79.2445149   1.2898499  65.7420481  79.7949063
   5.3197605  72.0215440  75.4829232   4.6906468  72.1861154  74.7805300
   4.9323268  72.4357050  76.2540196   9.1986837  72.9569878  72.8373596
   8.5137876  73.3368779  72.2870629   9.2830687  73.5665205  73.5705544
   4.4999306  64.0591225  80.7591674   4.2560238  64.8133285  80.2225950
   4.7759237  64.4376572  81.5938921   6.4537769  70.6029837  79.4368940
   6.6654664  71.2461597  78.7603321   6.4067517  69.7692154  78.9690870
   4.0563998  63.2147658  76.3405512   3.1948477  63.5128911  76.6322249
   4.0826433  63.4318057  75.4086544   0.8725567  71.7589848  72.7479317
   1.3363913  72.0377551  71.9583940   0.6082365  70.8573293  72.5652408
   7.5683597  73.4801792  77.6091297   8.3901041  73.0781980  77.3273979
   7.5646000  73.3770027  78.5607413   1.3340200  73.0285836  79.7652007
   1.3984633  73.4906243  80.6010179   0.6251124  72.3983201  79.8934317
  15.6589590  69.8240541  73.9576268  14.9053298  69.2547939  73.8020273
  15.7937131  69.7903205  74.9046903   1.0488218  74.6953943  69.6330988
   0.9133893  75.5405479  70.0615836   1.5898031  74.8973221  68.8696922
   2.6756694  75.3177510  83.7631330   2.2320549  74.5313888  83.4452234
   3.3373908  75.5056660  83.0975221   4.7737932  75.5980310  81.7912731
   4.7556408  76.4189191  81.2993000   5.6957853  75.4734385  82.0162872
   1.2310987  73.1124439  82.6336239   1.7639323  72.3512727  82.4035547
   0.7025068  72.8198091  83.3760394   4.3980682  58.2184505  78.1629881
   4.0544951  59.1086147  78.0868992   4.7659644  58.0286163  77.2999466
   4.3630964  68.2093116  66.6702316   3.8477588  68.9797721  66.9090704
   4.0908273  67.5358252  67.2935378   1.9478075  63.0542817  71.7287555
   1.0919672  62.6649667  71.5493193   2.3605027  63.1334778  70.8687340
   3.4777222  60.5889160  76.1279114   2.9742018  60.5519295  75.3146920
   3.7707829  61.4981903  76.1875771   9.3365238  70.9625471  68.6055490
   8.5594681  70.6236630  68.1610652  10.0156719  70.9678094  67.9310455
   4.1517267  66.0820208  68.4962098   3.8467403  66.3966358  69.3472241
   5.1047710  66.1601628  68.5389431   2.5963699  72.2410432  70.1455052
   2.0685061  71.5063191  69.8328289   2.0951202  73.0185108  69.8995020
   7.5756545  70.4359452  75.2622098   6.9180220  71.1258714  75.3502226
   8.3796945  70.8255884  75.6056084   6.3862004  68.7903825  73.3126040
   6.8993886  69.4233817  73.8147749   7.0363228  68.1905020  72.9469400
   3.6484378  78.7688149  66.0686711   2.9746077  79.0719846  66.6771669
   4.0350200  79.5717229  65.7192168   2.8642835  66.2653280  75.5584380
   1.9465396  66.4868227  75.4006068   3.2802979  66.3399591  74.6996087
   3.6477883  67.6644696  70.6887060   4.3949702  68.1766093  70.3794182
   3.9169472  67.3428749  71.5491454   1.9204533  70.1603237  67.6714015
   1.0115752  69.8762270  67.7686484   1.9499617  70.5802315  66.8117321
   7.1523800  73.7709826  71.4405182   6.6986127  72.9300736  71.4970373
   6.5217767  74.4071225  71.7779962   6.0956720  64.7001812  72.6705850
   5.3579477  64.1879199  73.0016092   6.3483493  64.2602194  71.8589127
   5.5956740  75.6086323  72.3755000   5.8879714  76.1691380  71.6567366
   6.1055360  75.9014884  73.1308159   6.1968347  57.4778064  73.2647619
   6.5027224  56.6175428  72.9773534   6.9220952  58.0695685  73.0646613
   1.6180621  71.7011980  65.0102093   1.1800051  70.9847839  64.5507731
   2.3591062  71.9288095  64.4487185   0.5590365  76.3866674  73.4648454
   0.5166544  76.6127520  72.5356986   1.4753064  76.1530049  73.6134255
   4.0055999  66.8550742  80.3629083   4.3605386  67.0822215  81.2223548
   4.6528130  67.1869118  79.7406338   9.7353736  69.9769177  71.0678412
   9.5971634  70.1670773  70.1399601   9.3789954  70.7388560  71.5246463
   9.7623115  72.0445704  76.0789683  10.1959622  71.9520994  76.9272737
  10.4754696  72.0203205  75.4409699   3.4951010  75.6447799  77.6122784
   3.5488032  76.2138735  78.3800500   2.6265791  75.8149684  77.2476821
  10.6238665  72.0869405  78.6122569  10.8174555  72.9915216  78.8581844
  10.5239283  71.6276824  79.4461154   2.2774975  61.9727296  81.1112896
   1.6302890  62.6717245  81.0177372   3.0475991  62.4063440  81.4789144
   5.6853773  72.2376148  84.1863449   5.5339280  72.0086700  83.2693533
   5.6758453  73.1946749  84.1994794   2.4539110  69.8108061  79.1709716
   3.3831170  69.9619220  78.9978683   2.0330140  69.8992081  78.3158362
   1.8475594  78.9367822  68.2833790   2.0227349  78.4655865  69.0979413
   1.1608382  79.5633588  68.5115051   2.8032657  73.2140328  74.3297091
   2.4682489  73.1741098  75.2254741   2.3036602  72.5485044  73.8567501
   5.7391848  70.5596362  64.6034151   5.1221019  69.8343190  64.5067203
   5.2708337  71.3205722  64.2601225   7.3945980  75.2695270  82.2639931
   7.3358526  74.5854491  81.5970514   7.7965498  76.0114260  81.8120557
   7.3963387  73.2334854  80.4953911   6.5090166  72.8960776  80.6180310
   7.9661938  72.5017886  80.7322676   0.9264541  77.8936307  77.4615154
   0.8534712  78.6991278  77.9734459   0.4841934  78.0928273  76.6363175
   4.0250970  62.9402706  73.6152181   4.5219670  62.1872669  73.2953251
   3.2537952  62.9767023  73.0495390  11.8780728  68.6443072  75.2570472
  11.8670604  69.5267787  74.8864406  11.0098107  68.2914623  75.0625010
   3.3863224  77.7923141  79.6173313   4.0991196  78.4270606  79.5449214
   2.8953253  77.8887007  78.8013315   5.1080751  71.6974393  71.1890604
   4.1737030  71.8175856  71.0195309   5.2857420  70.7946860  70.9250614
   8.4953302  67.5391713  71.7240639   8.9613755  68.3719704  71.6500941
   8.9460803  67.0736694  72.4285897   6.5629534  73.8835534  68.7226791
   6.8389377  73.7692129  69.6320665   5.6934032  73.4853019  68.6838964
   6.4669965  59.9072300  75.7631540   5.5533045  60.1376527  75.9313747
   6.8963067  59.9910744  76.6145572   6.2376424  68.0962192  78.2631434
   5.5847874  68.3438099  77.6083887   6.6156804  67.2826330  77.9293911
   3.1983598  78.1321885  72.3659604   3.3805992  77.3143541  72.8287356
   4.0216584  78.3489577  71.9284494   3.5325763  77.0590070  69.6274653
   4.0613530  76.5482525  69.0144815   3.7953983  76.7432600  70.4920186
   2.2863997  68.8382003  84.7497471   1.6104634  68.7376132  85.4199846
   3.1091631  68.6821216  85.2133468   1.0286780  80.1448930  78.9855087
   1.5805088  80.3080552  79.7504172   1.3692973  80.7353368  78.3135112
   5.8797654  74.9710188  84.8403741   6.4237558  75.5840146  84.3458696
   5.2984499  75.5289766  85.3570754   4.1655167  78.0930906  75.9718769
   4.0406306  77.2920646  75.4629715   4.8234258  78.5877099  75.4832739
   6.2290075  75.8939926  77.5998319   5.2820411  75.7745277  77.5276646
   6.5772848  75.0062424  77.6824581   3.2336509  75.6892642  73.8002671
   3.0861471  74.7609349  73.9810241   4.0590002  75.7112733  73.3159747
   6.8370630  76.5121201  74.8867544   7.7617178  76.3064062  74.7491995
   6.6685934  76.2637602  75.7956886   3.2298023  63.5430480  68.7934789
   3.4461637  64.4255118  68.4923617   2.7492090  63.1516693  68.0640431
   1.6819758  63.9256081  77.4639550   1.4237536  64.8473152  77.4623881
   1.1504798  63.5286516  78.1540014   6.6265947  77.0306868  70.2429636
   6.8002824  76.4653291  69.4903488   7.1194838  77.8307763  70.0609126
   2.1021713  60.0588032  73.8240713   2.1243410  60.1227365  72.8692692
   2.5189772  59.2192540  74.0181219  12.4805338  69.7943291  71.8619935
  12.9236484  69.0450616  71.4639059  11.6031848  69.7853427  71.4793667
   7.6141119  76.3473633  67.3426534   8.3092024  76.9680325  67.5613849
   7.9564269  75.4968984  67.6178912   9.5132542  73.7973338  68.8713865
  10.0383866  74.1360611  68.1463185   9.4254895  72.8620353  68.6876999
   1.1752591  77.7107412  81.0003741   1.4839717  77.4656559  81.8726441
   1.9728073  77.9154050  80.5122612   1.1973203  79.8645321  73.2309118
   0.7578193  79.3721700  73.9241975   1.9481320  79.3218289  72.9901193
   9.2026448  74.4306242  84.1765063   8.4121992  74.4130381  83.6369562
   8.9659803  74.9694535  84.9314099   9.3224323  71.2798708  81.4897791
   9.3722328  71.1148716  82.4313314   9.2138247  70.4125967  81.0995672
   6.6128086  67.2629636  82.8057098   7.5137948  67.1236101  82.5141096
   6.6876060  67.4284091  83.7455275  10.8242520  73.6995650  81.7339813
  10.5327328  74.0625630  82.5703274  10.2114651  72.9862658  81.5553145
  12.0238202  71.2648529  74.2542383  12.8585094  71.7038334  74.4179943
  12.1597331  70.7887183  73.4350629   9.0729708  68.8228264  80.2019871
   9.5483830  69.0155911  79.3938722   8.1495274  68.8787450  79.9563254
   3.6509925  60.8576108  79.1675705   4.1691869  61.5937135  78.8422193
   3.2965058  61.1640101  80.0022464   3.9022519  57.2776390  74.6876601
   4.1824273  56.6099579  75.3137028   4.6873126  57.4705486  74.1751265
   1.7055988  76.4535384  66.2501628   1.1329955  77.0725571  65.7972099
   2.2788781  77.0034746  66.7841549   7.7731377  65.6994024  78.4348176
   8.7248800  65.7992122  78.4560400   7.6034828  64.9072293  78.9446261
   5.7945757  62.7849608  78.6207577   5.1995689  63.0654620  77.9254066
   5.5095454  63.2743509  79.3924318   4.9253247  76.7372534  67.3810210
   5.8583921  76.6718096  67.5843085   4.8376460  77.5728801  66.9224742
   7.5541264  76.0538405  64.3414157   7.4754896  75.7198268  65.2349915
   8.3750931  76.5460173  64.3405630  10.2519455  68.9200144  77.5490476
  10.2195775  67.9816145  77.7350160  10.8620079  68.9984181  76.8156301
   2.0902786  67.7896197  63.5917680   3.0361891  67.6602405  63.6606098
   1.7117031  67.0510859  64.0687108  10.4013944  65.7111187  77.5948759
   9.8852992  64.9269644  77.4078688  11.2853892  65.3829904  77.7595279
   8.0624671  59.4552203  73.5544572   7.8649492  59.1467291  74.4387904
   8.6724376  60.1813842  73.6842502  16.0696005  69.9816151  76.6896513
  16.7999394  69.7201439  77.2504216  15.4602951  69.2444873  76.7298581
  14.1511302  68.1224013  77.2870964  13.4244466  67.9879978  76.6787456
  13.7358589  68.4300842  78.0927682   1.9741479  71.8413943  85.0518337
   2.8944488  72.0192542  85.2458383   1.9391062  70.8969989  84.8998036
   1.8907769  60.2583063  69.6816807   1.0808497  59.9130148  70.0572053
   2.5792186  59.9490607  70.2704418   3.8198317  59.3361110  71.3041103
   4.3729356  59.7556563  71.9631126   4.0568404  58.4096858  71.3464059
   7.1977124  61.4461635  70.8119767   6.6175793  62.1046439  70.4297820
   6.9313057  60.6238980  70.4007185   5.6480691  60.8466693  73.0141088
   6.1480469  60.9583227  72.2055407   6.2916299  60.5427746  73.6541896
   5.9802002  63.6061725  69.8676116   5.0927857  63.8911376  69.6496310
   6.3955991  63.4455489  69.0203393   9.3316538  63.6308246  73.5830455
  10.1076929  64.1204699  73.8555072   8.6064673  64.0566301  74.0402324
  11.7689097  64.3435866  74.6404396  12.3633588  64.1031602  73.9297704
  11.8415681  63.6242996  75.2677932   5.1245216  73.3706400  63.9624136
   5.8281066  73.5756403  64.5781791   4.4007865  73.9383162  64.2273219
   5.9543026  69.1216261  70.0826406   5.8978227  69.5784813  69.2434038
   6.5071369  68.3606946  69.9049249   9.7647832  64.9105993  70.9076525
   9.5084766  64.5102629  71.7384733   9.1400700  65.6249787  70.7826664
  14.0760170  67.6502067  73.4147817  13.5159728  67.7195256  74.1879379
  13.4703673  67.4743051  72.6947313   7.0331913  73.8088929  66.0122596
   7.8677517  73.3770128  65.8300071   6.8716256  73.6370943  66.9399490
   6.6877805  70.3121043  67.3778935   6.6326609  70.1465314  66.4367379
   6.0623861  71.0197076  67.5341125   4.0023713  72.6169955  86.7032498
   4.8714872  72.7910607  86.3419133   3.5230464  73.4364371  86.5808227
   3.8126050  56.4071928  71.2110190   3.0458446  55.8530415  71.3566873
   4.2236755  56.4793797  72.0724342  15.6616188  84.3258580  76.1077772
  16.2994598  84.2065328  75.4041113  15.5437031  85.2739424  76.1665725
  12.4705895  84.2786009  76.0439297  12.1324406  84.1627073  75.1559832
  13.3395663  83.8777174  76.0240303   8.3292710  86.1321485  72.0336188
   7.7657575  86.0411422  71.2652476   8.2145105  85.3121389  72.5138681
  12.9525678  85.4320860  82.0025503  12.9414318  85.0373659  81.1306006
  13.1146317  84.6986933  82.5959274   5.8757142  87.6272677  74.8720409
   6.6678434  87.2863501  74.4566708   6.1153792  87.7367652  75.7922562
  13.9092269  89.7992453  67.3450653  13.2580249  90.3846533  66.9584667
  14.7036632  90.3298648  67.4045690   7.8347896  86.8881590  67.7437787
   8.6078772  86.3410577  67.6050663   8.1873295  87.7525839  67.9552249
   9.6732939  88.2157972  80.9504687   9.3822805  89.1203603  80.8351353
  10.3089923  88.2574500  81.6648756  10.5989146  85.5934821  77.5406046
  11.1952718  85.3690843  76.8263009  10.6564117  84.8519566  78.1431494
  10.1714174  83.0474256  65.3756237  10.4239695  82.5255777  64.6139700
   9.2338733  82.8840401  65.4782921  15.2157457  82.0510034  73.1830981
  16.0020546  81.6329457  72.8321398  15.4796161  82.9556127  73.3512629
  15.3867534  87.4882885  67.8819637  14.7513367  87.5617511  68.5940542
  15.0564941  88.0776483  67.2038717  20.6165884  81.9885268  74.0863959
  21.3491056  81.4184484  74.3201788  19.8605240  81.6006868  74.5270465
   9.8910463  84.9502362  67.5780612   9.7746721  84.2747265  68.2461697
  10.0012723  84.4634736  66.7612765  12.2342004  84.4112509  71.2827301
  11.8700211  83.8843130  71.9940223  13.0909120  84.0210978  71.1093787
  18.1391304  75.7006842  78.5458568  17.8074629  76.5702253  78.3219783
  17.5436918  75.3843126  79.2252598  11.8747491  79.4402409  66.2788650
  12.0421893  80.3082645  66.6459121  11.6844660  79.6029690  65.3549939
  14.6322824  87.9019388  77.9454480  14.3323547  88.8044426  77.8370288
  14.2873883  87.6351571  78.7975633   8.0835305  84.3533184  73.9791185
   7.1585802  84.2209399  74.1868877   8.3319718  85.1327404  74.4761127
  18.0319968  80.4201928  75.6251918  17.1236845  80.3517336  75.3310679
  17.9807563  80.8973873  76.4533743  11.8536711  81.8960066  67.2635317
  11.7336337  82.3417117  68.1020797  11.1589300  82.2445384  66.7048855
   5.4444116  83.9966458  74.8134974   5.5736497  84.2500937  75.7274386
   4.7641568  84.5894166  74.4939629   9.6143604  94.6663708  70.9125448
   9.5367633  95.6171533  70.9913929   9.0105247  94.3209580  71.5700374
  12.1060833  81.8391573  83.5686815  11.3294167  82.3985494  83.5589680
  12.7451396  82.3248356  84.0901685  19.8981614  78.6218366  77.4029792
  19.2555994  78.9150899  76.7569586  19.3936543  78.5071287  78.2082988
  17.5521778  82.3681539  68.0915651  18.4639634  82.6008926  67.9163348
  17.0431425  82.9518584  67.5290729  10.3607206  84.6477027  83.1304782
  11.1021890  85.1862071  82.8539606   9.6544191  85.2743316  83.2876334
  15.8362545  86.7906167  81.7276943  16.2445901  86.3488578  80.9831576
  15.1139807  86.2158795  81.9811136  12.1893615  81.7278774  79.1010500
  13.0354811  82.1518188  79.2445149  12.1292253  81.0712398  79.7949063
  16.1591360  87.3507358  75.4829232  15.5300222  87.5153072  74.7805300
  15.7717022  87.7648967  76.2540196  20.0380592  88.2861796  72.8373596
  19.3531630  88.6660697  72.2870629  20.1224441  88.8957122  73.5705544
  15.3393061  79.3883142  80.7591674  15.0953993  80.1425203  80.2225950
  15.6152991  79.7668490  81.5938921  17.2931523  85.9321755  79.4368940
  17.5048419  86.5753515  78.7603321  17.2461272  85.0984071  78.9690870
  14.8957752  78.5439575  76.3405512  14.0342231  78.8420829  76.6322249
  14.9220187  78.7609974  75.4086544  11.7119322  87.0881766  72.7479317
  12.1757667  87.3669469  71.9583940  11.4476120  86.1865211  72.5652408
   8.6043403  86.6353247  75.6859081   9.1744760  87.0640516  75.0476565
   9.1951515  86.3535832  76.3843266  10.6488208  83.2104918  69.5568883
  11.3512251  83.6625962  70.0242809  10.3168836  82.5688737  70.1848776
   9.0968569  81.8016675  83.9320092   8.4667230  82.4832956  84.1655489
   8.9904657  81.6899757  82.9873230   4.3913542  81.4688471  74.8586016
   3.6012596  81.7245999  74.3826127   4.8824789  82.2836809  74.9638057
  18.4077351  88.8093710  77.6091297  19.2294795  88.4073897  77.3273979
  18.4039754  88.7061944  78.5607413   6.3428287  81.8333050  71.8169493
   5.5459451  81.9451744  72.3352988   6.1153879  82.1719702  70.9510383
  12.1733955  88.3577753  79.7652007  12.2378387  88.8198161  80.6010179
  11.4644879  87.7275118  79.8934317   2.6751245  81.7218961  77.2901007
   2.9259283  82.6065971  77.5558583   3.2110793  81.5423563  76.5176099
  26.4983344  85.1532459  73.9576268  25.7447053  84.5839857  73.8020273
  26.6330886  85.1195123  74.9046903  11.8881973  90.0245861  69.6330988
  11.7527647  90.8697397  70.0615836  12.4291785  90.2265139  68.8696922
   8.3749312  76.1037441  86.2945343   7.9816258  75.5503639  86.9692987
   9.1915452  76.4148019  86.6851861   5.3411370  87.5421299  70.2058913
   5.8535890  88.3364549  70.3564478   5.9934083  86.8447589  70.1392514
   7.1506255  90.6587055  72.2881666   7.3272883  91.5805020  72.1002650
   7.9463088  90.3445474  72.7176046  11.2917273  77.5195320  83.8865600
  12.0326987  78.1202473  83.8070062  11.5235196  76.7772958  83.3283642
   6.4358611  82.7051687  82.1643829   6.3212126  81.8036944  82.4650928
   5.5803129  82.9515384  81.8128646  13.5150449  90.6469427  83.7631330
  13.0714303  89.8605806  83.4452234  14.1767662  90.8348578  83.0975221
   8.2737570  92.1765229  78.2892008   8.8244995  92.0482292  77.5169002
   7.4349046  92.4760118  77.9386901  15.6131687  90.9272227  81.7912731
  15.5950162  91.7481108  81.2993000  16.5351607  90.8026303  82.0162872
  12.0704741  88.4416357  82.6336239  12.6033078  87.6804645  82.4035547
  11.5418822  88.1490009  83.3760394  15.2374436  73.5476423  78.1629881
  14.8938705  74.4378064  78.0868992  15.6053399  73.3578080  77.2999466
   3.3060287  85.8709953  70.9818483   4.1435509  86.2806962  70.7652191
   3.4838554  84.9309395  70.9518677  15.2024719  83.5385034  66.6702316
  14.6871342  84.3089639  66.9090704  14.9302027  82.8650170  67.2935378
  12.7871830  78.3834735  71.7287555  11.9313426  77.9941585  71.5493193
  13.1998782  78.4626695  70.8687340  14.3170976  75.9181078  76.1279114
  13.8135772  75.8811213  75.3146920  14.6101583  76.8273821  76.1875771
  10.5613862  76.0019808  75.1345296  11.4266859  75.8062616  74.7751186
  10.6291371  75.7730159  76.0614653  20.1758993  86.2917389  68.6055490
  19.3988436  85.9528548  68.1610652  20.8550474  86.2970012  67.9310455
  14.9911022  81.4112126  68.4962098  14.6861158  81.7258275  69.3472241
  15.9441464  81.4893546  68.5389431  13.4357454  87.5702349  70.1455052
  12.9078815  86.8355109  69.8328289  12.9344957  88.3477026  69.8995020
  18.4150300  85.7651370  75.2622098  17.7573974  86.4550631  75.3502226
  19.2190699  86.1547802  75.6056084   8.1676181  78.2322016  72.5061663
   8.7419933  78.0097197  71.7734856   8.7547164  78.3010710  73.2590264
  17.2255759  84.1195742  73.3126040  17.7387640  84.7525734  73.8147749
  17.8756983  83.5196938  72.9469400   8.4945769  80.2626477  66.5257548
   7.6583081  80.6001163  66.8466823   8.3550538  80.1275456  65.5884685
  10.4698849  75.1063265  71.2336732   9.8163261  74.7912282  70.6093347
  10.4279323  74.4839005  71.9596555  11.5810054  85.3882560  63.1490025
  10.6737116  85.1571813  63.3481174  12.0781086  84.5920179  63.3364006
  14.4878133  94.0980067  66.0686711  13.8139832  94.4011764  66.6771669
  14.8743955  94.9009147  65.7192168  13.7036589  81.5945198  75.5584380
  12.7859151  81.8160145  75.4006068  14.1196733  81.6691509  74.6996087
  14.4871637  82.9936614  70.6887060  15.2343456  83.5058011  70.3794182
  14.7563227  82.6720666  71.5491454  12.7598287  85.4895154  67.6714015
  11.8509507  85.2054187  67.7686484  12.7893371  85.9094233  66.8117321
  17.9917555  89.1001744  71.4405182  17.5379882  88.2592654  71.4970373
  17.3611522  89.7363142  71.7779962  16.9350474  80.0293730  72.6705850
  16.1973231  79.5171116  73.0016092  17.1877248  79.5894112  71.8589127
  16.4350494  90.9378241  72.3755000  16.7273468  91.4983298  71.6567366
  16.9449115  91.2306802  73.1308159  17.0362102  72.8069982  73.2647619
  17.3420979  71.9467345  72.9773534  17.7614707  73.3987602  73.0646613
   3.3286458  83.2100669  71.6529217   3.1310858  82.6170029  70.9280283
   2.7733122  82.9052879  72.3705156  11.3083181  83.1023775  73.7723810
  11.3631791  82.1497611  73.6966287  10.4974384  83.2583214  74.2565108
  12.4574375  87.0303898  65.0102093  12.0193805  86.3139757  64.5507731
  13.1984816  87.2580013  64.4487185   9.2475541  81.7200835  71.5314189
   8.4343407  82.0195005  71.9379381   9.7434536  81.3256524  72.2488671
  11.3984119  91.7158592  73.4648454  11.3560298  91.9419438  72.5356986
  12.3146818  91.4821966  73.6134255  14.8449753  82.1842659  80.3629083
  15.1999141  82.4114132  81.2223548  15.4921884  82.5161036  79.7406338
  20.5747490  85.3061095  71.0678412  20.4365389  85.4962691  70.1399601
  20.2183709  86.0680478  71.5246463   8.7389616  79.2919190  77.1475424
   9.3788995  79.1507949  76.4498387   7.9067147  79.0053704  76.7714026
  20.6016870  87.3737622  76.0789683  21.0353376  87.2812911  76.9272737
  21.3148450  87.3495123  75.4409699   9.5149920  88.5921621  73.2610416
  10.3090519  88.0971941  73.0592991   8.8041612  88.0639484  72.8978122
  14.3344765  90.9739716  77.6122784  14.3881787  91.5430653  78.3800500
  13.4659546  91.1441601  77.2476821   5.8232684  82.7364702  69.3370169
   4.8930272  82.6749158  69.5540131   5.9190156  82.2140655  68.5406810
   5.7418233  79.2619515  71.9248411   6.0025050  80.1764849  71.8157571
   6.5635405  78.7943958  72.0745023   7.2143158  80.6757272  79.0947235
   7.8866211  80.4674635  78.4459884   6.3872944  80.4779358  78.6552467
  21.4632419  87.4161323  78.6122569  21.6568309  88.3207133  78.8581844
  21.3633037  86.9568742  79.4461154  13.1168730  77.3019213  81.1112896
  12.4696645  78.0009163  81.0177372  13.8869745  77.7355357  81.4789144
  16.5247528  87.5668066  84.1863449  16.3733034  87.3378617  83.2693533
  16.5152207  88.5238667  84.1994794  13.2932864  85.1399978  79.1709716
  14.2224924  85.2911138  78.9978683  12.8723894  85.2283999  78.3158362
  12.0921196  89.1650643  76.9408253  11.9532282  88.7969427  77.8134191
  11.3035792  89.6798282  76.7692211  12.6869348  94.2659739  68.2833790
  12.8621104  93.7947782  69.0979413  12.0002136  94.8925505  68.5115051
  13.6426411  88.5432245  74.3297091  13.3076244  88.5033015  75.2254741
  13.1430357  87.8776961  73.8567501   7.6170655  83.9499875  79.8549672
   7.4790453  83.2180114  80.4561211   8.5275579  83.8608776  79.5733860
  16.5785603  85.8888280  64.6034151  15.9614773  85.1635108  64.5067203
  16.1102091  86.6497640  64.2601225  10.2452956  83.6619835  79.3433352
  10.9552574  83.0213027  79.3019970  10.2022264  83.9132730  80.2659533
  18.2339735  90.5987188  82.2639931  18.1752281  89.9146408  81.5970514
  18.6359253  91.3406178  81.8120557   8.9581890  80.6485053  81.1628991
   8.4219247  80.1975791  81.8150588   8.3698598  80.7830961  80.4199456
   7.2530433  97.4149102  75.0573650   7.4927032  98.0467626  75.7352669
   6.4099630  97.0637142  75.3439009   8.3684149  80.1073704  63.7255455
   7.4913615  79.9862505  63.3617702   8.8441902  79.3159782  63.4734344
  18.2357142  88.5626772  80.4953911  17.3483921  88.2252694  80.6180310
  18.8055693  87.8309803  80.7322676   4.6921011  79.7841060  78.2481986
   4.6079200  79.1766730  77.5132396   3.8703717  80.2750079  78.2491482
  11.7658295  93.2228224  77.4615154  11.6928467  94.0283196  77.9734459
  11.3235688  93.4220190  76.6363175  11.5548075  92.4599994  70.9717976
  10.7715597  93.0021675  71.0656200  12.2540820  92.9773974  71.3712217
  14.8644725  78.2694624  73.6152181  15.3613424  77.5164586  73.2953251
  14.0931706  78.3058941  73.0495390  22.7174482  83.9734989  75.2570472
  22.7064359  84.8559705  74.8864406  21.8491862  83.6206540  75.0625010
  14.2256979  93.1215058  79.6173313  14.9384951  93.7562523  79.5449214
  13.7347007  93.2178924  78.8013315  15.9474506  87.0266311  71.1890604
  15.0130784  87.1467774  71.0195309  16.1251174  86.1238778  70.9250614
  11.4479694  80.4112007  73.3423866  11.0777481  79.8583047  74.0304771
  11.9438786  79.8070140  72.7898866  19.3347057  82.8683630  71.7240639
  19.8007509  83.7011622  71.6500941  19.7854557  82.4028612  72.4285897
   9.2768892  90.8709502  80.4378884   9.9778352  91.5045985  80.5908278
   8.8064007  91.2124233  79.6774523  17.4023288  89.2127452  68.7226791
  17.6783132  89.0984046  69.6320665  16.5327787  88.8144937  68.6838964
  17.3063720  75.2364217  75.7631540  16.3926799  75.4668444  75.9313747
  17.7356821  75.3202661  76.6145572  17.0770178  83.4254109  78.2631434
  16.4241628  83.6730017  77.6083887  17.4550558  82.6118248  77.9293911
  14.0377352  93.4613803  72.3659604  14.2199747  92.6435458  72.8287356
  14.8610338  93.6781495  71.9284494  14.3719518  92.3881988  69.6274653
  14.9007284  91.8774442  69.0144815  14.6347737  92.0724518  70.4920186
  13.1257751  84.1673920  84.7497471  12.4498388  84.0668050  85.4199846
  13.9485385  84.0113134  85.2133468   4.8736610  90.4045857  77.3709986
   5.4590047  89.6589545  77.5037890   4.6761449  90.7149814  78.2546650
   7.7275266  93.4397104  72.3872429   7.0585641  93.9243232  71.9036469
   7.5888135  93.6866325  73.3015807  11.8680534  95.4740848  78.9855087
  12.4198842  95.6372469  79.7504172  12.2086728  96.0645286  78.3135112
   6.8445027  77.8215998  79.5876972   6.9086354  78.6830829  79.1754369
   6.7812148  77.2089999  78.8549330   6.3197300  79.8939130  83.2350006
   6.9469339  79.5116208  83.8487530   5.4625219  79.6753332  83.6005698
  16.7191408  90.3002105  84.8403741  17.2631312  90.9132064  84.3458696
  16.1378253  90.8581684  85.3570754   3.0962843  81.7015559  69.1668361
   3.3916284  80.7926238  69.1135414   2.1950878  81.6803299  68.8449363
  15.0048921  93.4222823  75.9718769  14.8800061  92.6212563  75.4629715
  15.6628012  93.9169017  75.4832739   6.6257090  79.7771556  75.1495909
   5.9043675  80.3907524  75.0103383   7.4150345  80.3129321  75.0712555
  17.0683830  91.2231843  77.5998319  16.1214165  91.1037195  77.5276646
  17.4166603  90.3354342  77.6824581   9.4283403  77.1125982  81.4236561
   9.9517805  77.3588279  82.1862870   9.2095736  77.9446017  81.0039698
   4.8250684  79.3829657  69.2907686   4.4963390  78.5027036  69.1082792
   5.1790055  79.3277326  70.1784075  14.0730263  91.0184560  73.8002671
  13.9255225  90.0901267  73.9810241  14.8983757  91.0404650  73.3159747
   7.9392507  79.6702627  69.6583164   8.2788580  80.1988548  68.9361772
   8.3864628  80.0083033  70.4341730  17.6764385  91.8413118  74.8867544
  18.6010932  91.6355980  74.7491995  17.5079688  91.5929520  75.7956886
  10.6335948  78.0539678  79.1086232  10.2932769  77.2547491  79.5106912
   9.9274954  78.3541388  78.5363065  11.2852420  75.1388990  77.5613555
  12.1078489  74.6649468  77.4392445  11.5290484  75.9179474  78.0612241
   9.9260654  78.1677248  67.8576456  10.6469017  78.5458501  67.3540173
   9.3025959  78.8866125  67.9611434  14.0691777  78.8722397  68.7934789
  14.2855392  79.7547035  68.4923617  13.5885845  78.4808611  68.0640431
   8.8090999  81.8308111  75.3705533   8.6635579  82.1448414  76.2629815
   8.3316202  82.4493011  74.8176432  10.6687382  78.8210659  75.4186423
  10.6548950  77.9251752  75.0818721  11.3859810  78.8281322  76.0524709
  12.5213512  79.2547999  77.4639550  12.2631290  80.1765069  77.4623881
  11.9898553  78.8578433  78.1540014  17.4659701  92.3598786  70.2429636
  17.6396579  91.7945208  69.4903488  17.9588592  93.1599681  70.0609126
   3.2836661  84.3713455  78.3093194   2.7390129  85.1473263  78.4413469
   4.1616011  84.7184259  78.1512316  10.0724278  77.7025039  70.6873993
  10.1940189  76.7741685  70.8864880   9.7826320  77.7163725  69.7752308
  12.9415468  75.3879949  73.8240713  12.9637165  75.4519282  72.8692692
  13.3583527  74.5484458  74.0181219  23.3199092  85.1235209  71.8619935
  23.7630238  84.3742534  71.4639059  22.4425603  85.1145345  71.4793667
  18.4534874  91.6765550  67.3426534  19.1485778  92.2972243  67.5613849
  18.7958024  90.8260901  67.6178912   4.0702683  83.4983351  81.2023351
   3.3284419  83.6465987  81.7887982   3.7495427  83.7591617  80.3390101
  20.3526297  89.1265256  68.8713865  20.8777621  89.4652529  68.1463185
  20.2648649  88.1912271  68.6876999  12.0146345  93.0399329  81.0003741
  12.3233472  92.7948476  81.8726441  12.8121827  93.2445968  80.5122612
  12.0366957  95.1937239  73.2309118  11.5971948  94.7013618  73.9241975
  12.7875074  94.6510207  72.9901193   4.5159296  91.3848780  73.2333746
   5.3417316  91.0852552  72.8532389   4.1653348  90.6156402  73.6823535
   9.4840830  90.7375248  75.3031420   8.8620839  90.0745953  75.0033647
  10.1545697  90.7636380  74.6205067   2.7167901  89.3035106  74.1922680
   1.8799810  88.8757281  74.0106681   2.6891547  89.4967550  75.1293471
   9.5565357  79.2157036  84.8963926   9.6053513  80.0919159  84.5141695
  10.0987871  78.6734429  84.3235569  20.0420203  89.7598159  84.1765063
  19.2515746  89.7422298  83.6369562  19.8053557  90.2986453  84.9314099
  20.1618078  86.6090626  81.4897791  20.2116083  86.4440633  82.4313314
  20.0532001  85.7417885  81.0995672   9.0454337  89.2879172  68.7789880
   9.1942457  89.9714636  68.1256553   9.8520780  89.2684262  69.2939336
  17.4521840  82.5921554  82.8057098  18.3531703  82.4528019  82.5141096
  17.5269815  82.7576009  83.7455275  11.7864646  79.9688409  81.6510284
  10.9167955  80.2621975  81.3792873  12.0224126  80.5528854  82.3717548
  21.6636275  89.0287567  81.7339813  21.3721083  89.3917548  82.5703274
  21.0508406  88.3154576  81.5553145  22.8631957  86.5940447  74.2542383
  23.6978848  87.0330251  74.4179943  22.9991086  86.1179100  73.4350629
  19.9123463  84.1520182  80.2019871  20.3877584  84.3447828  79.3938722
  18.9889028  84.2079368  79.9563254   6.8006970  85.3144349  69.7850949
   6.5553011  84.4106679  69.9831159   6.9702884  85.3161500  68.8430427
  14.4903679  76.1868026  79.1675705  15.0085623  76.9229052  78.8422193
  14.1358812  76.4932019  80.0022464   6.0702617  81.0472707  67.2837110
   5.3771862  81.1217062  66.6277146   5.8254369  80.2833050  67.8058627
  14.7416274  72.6068308  74.6876601  15.0218027  71.9391497  75.3137028
  15.5266880  72.7997404  74.1751265  12.5449742  91.7827302  66.2501628
  11.9723709  92.4017489  65.7972099  13.1182536  92.3326664  66.7841549
  18.6125132  81.0285942  78.4348176  19.5642555  81.1284040  78.4560400
  18.4428582  80.2364211  78.9446261  16.6339511  78.1141525  78.6207577
  16.0389443  78.3946538  77.9254066  16.3489208  78.6035426  79.3924318
  15.7647002  92.0664452  67.3810210  16.6977675  92.0010014  67.5843085
  15.6770215  92.9020719  66.9224742  18.3935019  91.3830322  64.3414157
  18.3148650  91.0490186  65.2349915  19.2144685  91.8752090  64.3405630
  21.0913210  84.2492062  77.5490476  21.0589530  83.3108062  77.7350160
  21.7013833  84.3276098  76.8156301  12.9296541  83.1188115  63.5917680
  13.8755645  82.9894323  63.6606098  12.5510786  82.3802777  64.0687108
  21.2407698  81.0403105  77.5948759  20.7246747  80.2561562  77.4078688
  22.1247647  80.7121822  77.7595279  18.9018425  74.7844121  73.5544572
  18.7043246  74.4759209  74.4387904  19.5118131  75.5105760  73.6842502
  26.9089760  85.3108069  76.6896513  27.6393148  85.0493357  77.2504216
  26.2996705  84.5736791  76.7298581  24.9905057  83.4515931  77.2870964
  24.2638220  83.3171896  76.6787456  24.5752344  83.7592760  78.0927682
  12.8135233  87.1705861  85.0518337  13.7338243  87.3484460  85.2458383
  12.7784816  86.2261906  84.8998036  11.1139458  81.0438091  63.5272565
  10.2070913  80.7471204  63.6035279  11.3915439  80.7467909  62.6606851
   2.0317398  82.3644455  73.9771612   1.7120182  81.5109763  73.6845986
   1.4850826  82.5793033  74.7329579   5.8097306  85.0806896  77.6941118
   6.0283315  86.0124003  77.7129152   6.2223079  84.7214870  78.4795922
  12.7301523  75.5874981  69.6816807  11.9202252  75.2422066  70.0572053
  13.4185940  75.2782525  70.2704418  14.6592072  74.6653028  71.3041103
  15.2123110  75.0848481  71.9631126  14.8962158  73.7388776  71.3464059
  10.6825171  80.6540101  87.0843867  10.5821898  81.6034458  87.0155958
  10.4646713  80.3258340  86.2119937   9.8838242  77.9025026  63.6684544
  10.7457406  78.2279925  63.9280362  10.0688586  77.1156522  63.1557610
   1.9005658  85.9847366  75.9464733   1.2069130  85.5701319  75.4334688
   2.6478649  86.0267903  75.3498152  18.0370879  76.7753553  70.8119767
  17.4569548  77.4338357  70.4297820  17.7706811  75.9530897  70.4007185
  16.4874445  76.1758610  73.0141088  16.9874224  76.2875145  72.2055407
  17.1310053  75.8719663  73.6541896  10.5456441  84.0837240  85.9008929
  10.0623523  84.8837600  86.1072818  10.6317380  84.0945185  84.9476373
   3.8142401  85.9165620  73.8230748   3.7913089  86.0153307  72.8712631
   4.1243037  86.7630771  74.1447914   6.4729778  87.9741775  77.9377363
   7.4273032  87.9425717  77.8707294   6.2742302  87.5132399  78.7527588
   7.0629161  86.5442891  80.5048160   7.8822050  87.0386970  80.5282997
   7.3365968  85.6274859  80.4765728  16.8195757  78.9353643  69.8676116
  15.9321612  79.2203294  69.6496310  17.2349746  78.7747407  69.0203393
  20.1710293  78.9600164  73.5830455  20.9470683  79.4496617  73.8555072
  19.4458427  79.3858218  74.0402324  22.6082852  79.6727783  74.6404396
  23.2027342  79.4323519  73.9297704  22.6809435  78.9534914  75.2677932
   4.8280007  93.5161394  74.9547560   4.6934475  92.7561795  74.3885558
   4.4112070  94.2402294  74.4876349  15.9638970  88.6998318  63.9624136
  16.6674820  88.9048320  64.5781791  15.2401619  89.2675080  64.2273219
  16.7936781  84.4508179  70.0826406  16.7371982  84.9076731  69.2434038
  17.3465123  83.6898864  69.9049249  20.6041586  80.2397911  70.9076525
  20.3478521  79.8394547  71.7384733  19.9794455  80.9541705  70.7826664
  24.9153924  82.9793984  73.4147817  24.3553482  83.0487174  74.1879379
  24.3097428  82.8034969  72.6947313   7.9849133  94.4130711  75.1666003
   7.8681517  95.3576144  75.0644693   7.1641579  94.1104273  75.5551802
  17.8725668  89.1380847  66.0122596  18.7071272  88.7062046  65.8300071
  17.7110011  88.9662861  66.9399490  17.5271560  85.6412960  67.3778935
  17.4720364  85.4757232  66.4367379  16.9017615  86.3488993  67.5341125
   2.3164075  80.8781025  81.2040357   2.9622938  80.3679979  81.6927582
   2.1081226  81.6149706  81.7783782  14.8417467  87.9461872  86.7032498
  15.7108627  88.1202524  86.3419133  14.3624219  88.7656289  86.5808227
  10.8367685  75.1421069  66.9564253  10.8246355  76.0862909  67.1132524
  11.7291107  74.9591215  66.6623715   9.0103647  95.0658973  78.3821931
   9.9130894  95.0982583  78.6988426   8.7841017  94.1359424  78.3968267
  10.7657249  93.8189960  75.0432010   9.8152880  93.8191821  74.9296382
  11.0689735  93.0722694  74.5268045  14.6519805  71.7363846  71.2110190
  13.8852201  71.1822333  71.3566873  15.0630510  71.8085715  72.0724342
   6.6561566  78.0248642  85.3015371   7.5193027  77.6685447  85.5118696
   6.0826977  77.6862537  85.9890776  26.5009943  99.6550498  76.1077772
  27.1388353  99.5357246  75.4041113  26.3830786 100.6031342  76.1665725
  23.3099649  99.6077926  76.0439297  22.9718161  99.4918991  75.1559832
  24.1789417  99.2069091  76.0240303  19.1686465 101.4613403  72.0336188
  18.6051330 101.3703340  71.2652476  19.0538860 100.6413307  72.5138681
  23.7919432 100.7612778  82.0025503  23.7808073 100.3665576  81.1306006
  23.9540072 100.0278851  82.5959274  16.7150897 102.9564594  74.8720409
  17.5072189 102.6155419  74.4566708  16.9547547 103.0659569  75.7922562
  24.7486023 105.1284370  67.3450653  24.0974003 105.7138451  66.9584667
  25.5430386 105.6590565  67.4045690  18.6741651 102.2173508  67.7437787
  19.4472527 101.6702495  67.6050663  19.0267050 103.0817757  67.9552249
  20.5126693 103.5449890  80.9504687  20.2216559 104.4495521  80.8351353
  21.1483678 103.5866417  81.6648756  21.4382900 100.9226738  77.5406046
  22.0346472 100.6982761  76.8263009  21.4957872 100.1811484  78.1431494
  21.0107928  98.3766174  65.3756237  21.2633449  97.8547695  64.6139700
  20.0732488  98.2132319  65.4782921  26.0551211  97.3801952  73.1830981
  26.8414301  96.9621375  72.8321398  26.3189916  98.2848044  73.3512629
  26.2261289 102.8174802  67.8819637  25.5907122 102.8909429  68.5940542
  25.8958695 103.4068401  67.2038717  31.4559638  97.3177185  74.0863959
  32.1884810  96.7476402  74.3201788  30.6998994  96.9298786  74.5270465
  20.7304217 100.2794280  67.5780612  20.6140475  99.6039183  68.2461697
  20.8406477  99.7926654  66.7612765  23.0735758  99.7404427  71.2827301
  22.7093965  99.2135048  71.9940223  23.9302874  99.3502896  71.1093787
  28.9785059  91.0298759  78.5458568  28.6468384  91.8994170  78.3219783
  28.3830672  90.7135043  79.2252598  22.7141245  94.7694326  66.2788650
  22.8815647  95.6374563  66.6459121  22.5238414  94.9321608  65.3549939
  25.4716578 103.2311305  77.9454480  25.1717301 104.1336344  77.8370288
  25.1267638 102.9643489  78.7975633  18.9229060  99.6825102  73.9791185
  17.9979556  99.5501316  74.1868877  19.1713473 100.4619321  74.4761127
  28.8713722  95.7493845  75.6251918  27.9630599  95.6809254  75.3310679
  28.8201318  96.2265790  76.4533743  22.6930466  97.2251984  67.2635317
  22.5730091  97.6709035  68.1020797  21.9983054  97.5737302  66.7048855
  16.2837871  99.3258376  74.8134974  16.4130252  99.5792855  75.7274386
  15.6035322  99.9186084  74.4939629  20.4537358 109.9955626  70.9125448
  20.3761388 110.9463451  70.9913929  19.8499002 109.6501498  71.5700374
  22.9454588  97.1683491  83.5686815  22.1687922  97.7277411  83.5589680
  23.5845151  97.6540274  84.0901685  30.7375368  93.9510284  77.4029792
  30.0949749  94.2442817  76.7569586  30.2330297  93.8363204  78.2082988
  28.3915532  97.6973457  68.0915651  29.3033388  97.9300844  67.9163348
  27.8825179  98.2810501  67.5290729  21.2000960  99.9768944  83.1304782
  21.9415645 100.5153988  82.8539606  20.4937946 100.6035233  83.2876334
  26.6756300 102.1198085  81.7276943  27.0839656 101.6780495  80.9831576
  25.9533561 101.5450712  81.9811136  23.0287370  97.0570692  79.1010500
  23.8748565  97.4810105  79.2445149  22.9686008  96.4004316  79.7949063
  26.9985114 102.6799276  75.4829232  26.3693977 102.8444990  74.7805300
  26.6110777 103.0940885  76.2540196  30.8774346 103.6153713  72.8373596
  30.1925384 103.9952615  72.2870629  30.9618196 104.2249040  73.5705544
  26.1786815  94.7175060  80.7591674  25.9347747  95.4717121  80.2225950
  26.4546746  95.0960408  81.5938921  28.1325278 101.2613672  79.4368940
  28.3442173 101.9045432  78.7603321  28.0855026 100.4275989  78.9690870
  25.7351507  93.8731493  76.3405512  24.8735986  94.1712747  76.6322249
  25.7613942  94.0901892  75.4086544  22.5513076 102.4173684  72.7479317
  23.0151422 102.6961387  71.9583940  22.2869874 101.5157128  72.5652408
  19.4437157 101.9645165  75.6859081  20.0138514 102.3932434  75.0476565
  20.0345269 101.6827750  76.3843266  21.4881962  98.5396836  69.5568883
  22.1906006  98.9917880  70.0242809  21.1562591  97.8980655  70.1848776
  19.9362324  97.1308593  83.9320092  19.3060984  97.8124873  84.1655489
  19.8298412  97.0191674  82.9873230  15.2307296  96.7980389  74.8586016
  14.4406350  97.0537917  74.3826127  15.7218544  97.6128726  74.9638057
  29.2471106 104.1385628  77.6091297  30.0688550 103.7365815  77.3273979
  29.2433509 104.0353862  78.5607413  17.1822042  97.1624968  71.8169493
  16.3853205  97.2743662  72.3352988  16.9547634  97.5011620  70.9510383
  23.0127709 103.6869671  79.7652007  23.0772142 104.1490078  80.6010179
  22.3038633 103.0567036  79.8934317  13.5144999  97.0510879  77.2901007
  13.7653038  97.9357889  77.5558583  14.0504548  96.8715481  76.5176099
  37.3377099 100.4824376  73.9576268  36.5840807  99.9131774  73.8020273
  37.4724640 100.4487041  74.9046903  22.7275727 105.3537779  69.6330988
  22.5921402 106.1989314  70.0615836  23.2685540 105.5557056  68.8696922
  19.2143067  91.4329358  86.2945343  18.8210012  90.8795557  86.9692987
  20.0309207  91.7439937  86.6851861  16.1805124 102.8713217  70.2058913
  16.6929645 103.6656467  70.3564478  16.8327837 102.1739507  70.1392514
  17.9900009 105.9878973  72.2881666  18.1666637 106.9096938  72.1002650
  18.7856843 105.6737392  72.7176046  22.1311028  92.8487238  83.8865600
  22.8720741  93.4494391  83.8070062  22.3628950  92.1064875  83.3283642
  17.2752366  98.0343605  82.1643829  17.1605881  97.1328862  82.4650928
  16.4196883  98.2807302  81.8128646  24.3544203 105.9761345  83.7631330
  23.9108058 105.1897724  83.4452234  25.0161417 106.1640496  83.0975221
  19.1131325 107.5057147  78.2892008  19.6638750 107.3774210  77.5169002
  18.2742800 107.8052036  77.9386901  26.4525441 106.2564145  81.7912731
  26.4343917 107.0773026  81.2993000  27.3745361 106.1318220  82.0162872
  22.9098496 103.7708275  82.6336239  23.4426832 103.0096563  82.4035547
  22.3812577 103.4781926  83.3760394  26.0768191  88.8768340  78.1629881
  25.7332460  89.7669982  78.0868992  26.4447153  88.6869998  77.2999466
  14.1454041 101.2001871  70.9818483  14.9829263 101.6098879  70.7652191
  14.3232309 100.2601313  70.9518677  26.0418473  98.8676952  66.6702316
  25.5265097  99.6381556  66.9090704  25.7695782  98.1942088  67.2935378
  23.6265584  93.7126652  71.7287555  22.7707181  93.3233503  71.5493193
  24.0392536  93.7918613  70.8687340  25.1564731  91.2472996  76.1279114
  24.6529527  91.2103131  75.3146920  25.4495338  92.1565738  76.1875771
  21.4007617  91.3311725  75.1345296  22.2660614  91.1354534  74.7751186
  21.4685126  91.1022077  76.0614653  31.0152747 101.6209306  68.6055490
  30.2382190 101.2820466  68.1610652  31.6944228 101.6261929  67.9310455
  25.8304776  96.7404044  68.4962098  25.5254912  97.0550193  69.3472241
  26.7835219  96.8185464  68.5389431  24.2751208 102.8994267  70.1455052
  23.7472570 102.1647027  69.8328289  23.7738711 103.6768943  69.8995020
  29.2544054 101.0943287  75.2622098  28.5967729 101.7842549  75.3502226
  30.0584454 101.4839719  75.6056084  19.0069936  93.5613933  72.5061663
  19.5813688  93.3389115  71.7734856  19.5940918  93.6302628  73.2590264
  28.0649513  99.4487660  73.3126040  28.5781395 100.0817652  73.8147749
  28.7150737  98.8488856  72.9469400  19.3339523  95.5918394  66.5257548
  18.4976835  95.9293081  66.8466823  19.1944293  95.4567374  65.5884685
  21.3092604  90.4355182  71.2336732  20.6557016  90.1204199  70.6093347
  21.2673078  89.8130923  71.9596555  22.4203808 100.7174477  63.1490025
  21.5130870 100.4863731  63.3481174  22.9174840  99.9212097  63.3364006
  25.3271887 109.4271984  66.0686711  24.6533586 109.7303681  66.6771669
  25.7137709 110.2301065  65.7192168  24.5430344  96.9237116  75.5584380
  23.6252905  97.1452063  75.4006068  24.9590488  96.9983426  74.6996087
  25.3265392  98.3228531  70.6887060  26.0737211  98.8349929  70.3794182
  25.5956981  98.0012584  71.5491454  23.5992042 100.8187072  67.6714015
  22.6903261 100.5346105  67.7686484  23.6287126 101.2386151  66.8117321
  28.8311309 104.4293662  71.4405182  28.3773636 103.5884572  71.4970373
  28.2005276 105.0655060  71.7779962  27.7744229  95.3585648  72.6705850
  27.0366986  94.8463034  73.0016092  28.0271002  94.9186029  71.8589127
  27.2744249 106.2670158  72.3755000  27.5667223 106.8275215  71.6567366
  27.7842869 106.5598719  73.1308159  27.8755856  88.1361900  73.2647619
  28.1814733  87.2759263  72.9773534  28.6008461  88.7279520  73.0646613
  14.1680212  98.5392586  71.6529217  13.9704612  97.9461947  70.9280283
  13.6126876  98.2344796  72.3705156  22.1476936  98.4315693  73.7723810
  22.2025546  97.4789529  73.6966287  21.3368138  98.5875132  74.2565108
  23.2968130 102.3595816  65.0102093  22.8587560 101.6431675  64.5507731
  24.0378571 102.5871931  64.4487185  20.0869296  97.0492752  71.5314189
  19.2737161  97.3486923  71.9379381  20.5828290  96.6548441  72.2488671
  22.2377874 107.0450509  73.4648454  22.1954053 107.2711356  72.5356986
  23.1540573 106.8113884  73.6134255  25.6843508  97.5134577  80.3629083
  26.0392895  97.7406050  81.2223548  26.3315639  97.8452954  79.7406338
  31.4141245 100.6353013  71.0678412  31.2759143 100.8254609  70.1399601
  31.0577463 101.3972396  71.5246463  19.5783371  94.6211108  77.1475424
  20.2182750  94.4799867  76.4498387  18.7460901  94.3345621  76.7714026
  31.4410624 102.7029540  76.0789683  31.8747131 102.6104829  76.9272737
  32.1542205 102.6787040  75.4409699  20.3543675 103.9213538  73.2610416
  21.1484273 103.4263859  73.0592991  19.6435367 103.3931402  72.8978122
  25.1738519 106.3031634  77.6122784  25.2275541 106.8722570  78.3800500
  24.3053300 106.4733519  77.2476821  16.6626438  98.0656620  69.3370169
  15.7324026  98.0041076  69.5540131  16.7583910  97.5432573  68.5406810
  16.5811987  94.5911433  71.9248411  16.8418804  95.5056766  71.8157571
  17.4029159  94.1235876  72.0745023  18.0536912  96.0049190  79.0947235
  18.7259966  95.7966552  78.4459884  17.2266699  95.8071276  78.6552467
  32.3026174 102.7453241  78.6122569  32.4962064 103.6499051  78.8581844
  32.2026792 102.2860660  79.4461154  23.9562484  92.6311131  81.1112896
  23.3090399  93.3301081  81.0177372  24.7263500  93.0647275  81.4789144
  27.3641282 102.8959983  84.1863449  27.2126789 102.6670535  83.2693533
  27.3545962 103.8530585  84.1994794  24.1326619 100.4691896  79.1709716
  25.0618679 100.6203056  78.9978683  23.7117649 100.5575917  78.3158362
  22.9314951 104.4942560  76.9408253  22.7926036 104.1261345  77.8134191
  22.1429547 105.0090200  76.7692211  23.5263103 109.5951657  68.2833790
  23.7014858 109.1239700  69.0979413  22.8395891 110.2217423  68.5115051
  24.4820166 103.8724163  74.3297091  24.1469998 103.8324933  75.2254741
  23.9824111 103.2068879  73.8567501  18.4564410  99.2791793  79.8549672
  18.3184208  98.5472032  80.4561211  19.3669333  99.1900693  79.5733860
  27.4179357 101.2180197  64.6034151  26.8008528 100.4927026  64.5067203
  26.9495846 101.9789558  64.2601225  21.0846710  98.9911752  79.3433352
  21.7946329  98.3504945  79.3019970  21.0416018  99.2424647  80.2659533
  29.0733489 105.9279106  82.2639931  29.0146035 105.2438326  81.5970514
  29.4753007 106.6698096  81.8120557  19.7975644  95.9776970  81.1628991
  19.2613001  95.5267709  81.8150588  19.2092353  96.1122879  80.4199456
  19.2077903  95.4365622  63.7255455  18.3307370  95.3154423  63.3617702
  19.6835656  94.6451700  63.4734344  29.0750896 103.8918690  80.4953911
  28.1877675 103.5544612  80.6180310  29.6449447 103.1601721  80.7322676
  10.7280043 100.2242781  73.8196962  11.4151083  99.9104512  73.2317978
  10.5728172 101.1284146  73.5464214  15.5314766  95.1132978  78.2481986
  15.4472954  94.5058648  77.5132396  14.7097472  95.6041996  78.2491482
  22.6052050 108.5520142  77.4615154  22.5322221 109.3575114  77.9734459
  22.1629443 108.7512108  76.6363175  22.3941829 107.7891912  70.9717976
  21.6109351 108.3313592  71.0656200  23.0934574 108.3065892  71.3712217
  25.7038479  93.5986542  73.6152181  26.2007179  92.8456504  73.2953251
  24.9325461  93.6350858  73.0495390  33.5568237  99.3026907  75.2570472
  33.5458113 100.1851623  74.8864406  32.6885616  98.9498458  75.0625010
  25.0650733 108.4506976  79.6173313  25.7778705 109.0854441  79.5449214
  24.5740762 108.5470842  78.8013315  26.7868260 102.3558229  71.1890604
  25.8524539 102.4759691  71.0195309  26.9644929 101.4530696  70.9250614
  22.2873448  95.7403925  73.3423866  21.9171236  95.1874965  74.0304771
  22.7832541  95.1362058  72.7898866  30.1740811  98.1975548  71.7240639
  30.6401264  99.0303540  71.6500941  30.6248312  97.7320530  72.4285897
  20.1162647 106.2001420  80.4378884  20.8172106 106.8337903  80.5908278
  19.6457762 106.5416151  79.6774523  28.2417043 104.5419369  68.7226791
  28.5176886 104.4275964  69.6320665  27.3721541 104.1436854  68.6838964
  28.1457474  90.5656135  75.7631540  27.2320554  90.7960362  75.9313747
  28.5750576  90.6494579  76.6145572  27.9163933  98.7546027  78.2631434
  27.2635383  99.0021934  77.6083887  28.2944313  97.9410165  77.9293911
  24.8771107 108.7905720  72.3659604  25.0593501 107.9727376  72.8287356
  25.7004093 109.0073412  71.9284494  25.2113272 107.7173905  69.6274653
  25.7401038 107.2066360  69.0144815  25.4741492 107.4016436  70.4920186
  23.9651506  99.4965838  84.7497471  23.2892143  99.3959967  85.4199846
  24.7879140  99.3405052  85.2133468  15.7130365 105.7337775  77.3709986
  16.2983802 104.9881463  77.5037890  15.5155203 106.0441731  78.2546650
  18.5669020 108.7689022  72.3872429  17.8979395 109.2535150  71.9036469
  18.4281890 109.0158242  73.3015807  10.3048020  98.3043375  76.0914429
  10.3432119  97.7706966  76.8851547   9.7988312  97.7778580  75.4725407
  22.7074289 110.8032766  78.9855087  23.2592597 110.9664387  79.7504172
  23.0480482 111.3937203  78.3135112  17.6838782  93.1507915  79.5876972
  17.7480108  94.0122746  79.1754369  17.6205902  92.5381917  78.8549330
  17.1591054  95.2231048  83.2350006  17.7863093  94.8408125  83.8487530
  16.3018973  95.0045250  83.6005698  27.5585163 105.6294023  84.8403741
  28.1025067 106.2423981  84.3458696  26.9772008 106.1873601  85.3570754
  13.9356597  97.0307477  69.1668361  14.2310038  96.1218155  69.1135414
  13.0344633  97.0095216  68.8449363  25.8442676 108.7514741  75.9718769
  25.7193815 107.9504481  75.4629715  26.5021767 109.2460934  75.4832739
  17.4650844  95.1063474  75.1495909  16.7437430  95.7199441  75.0103383
  18.2544100  95.6421238  75.0712555  27.9077584 106.5523761  77.5998319
  26.9607920 106.4329112  77.5276646  28.2560357 105.6646259  77.6824581
  20.2677158  92.4417900  81.4236561  20.7911559  92.6880197  82.1862870
  20.0489491  93.2737935  81.0039698  15.6644439  94.7121575  69.2907686
  15.3357145  93.8318954  69.1082792  16.0183809  94.6569243  70.1784075
  24.9124018 106.3476477  73.8002671  24.7648980 105.4193185  73.9810241
  25.7377511 106.3696568  73.3159747  18.7786262  94.9994544  69.6583164
  19.1182334  95.5280466  68.9361772  19.2258382  95.3374951  70.4341730
  28.5158139 107.1705036  74.8867544  29.4404687 106.9647897  74.7491995
  28.3473443 106.9221437  75.7956886  21.4729703  93.3831595  79.1086232
  21.1326523  92.5839408  79.5106912  20.7668709  93.6833306  78.5363065
  22.1246174  90.4680908  77.5613555  22.9472244  89.9941386  77.4392445
  22.3684238  91.2471391  78.0612241  20.7654409  93.4969166  67.8576456
  21.4862771  93.8750419  67.3540173  20.1419713  94.2158043  67.9611434
  24.9085532  94.2014315  68.7934789  25.1249146  95.0838953  68.4923617
  24.4279599  93.8100528  68.0640431  19.6484753  97.1600028  75.3705533
  19.5029334  97.4740331  76.2629815  19.1709957  97.7784929  74.8176432
  21.5081136  94.1502576  75.4186423  21.4942705  93.2543670  75.0818721
  22.2253564  94.1573240  76.0524709  23.3607267  94.5839916  77.4639550
  23.1025045  95.5056987  77.4623881  22.8292307  94.1870351  78.1540014
  28.3053456 107.6890704  70.2429636  28.4790333 107.1237126  69.4903488
  28.7982347 108.4891598  70.0609126  14.1230415  99.7005373  78.3093194
  13.5783883 100.4765181  78.4413469  15.0009765 100.0476177  78.1512316
  20.9118032  93.0316957  70.6873993  21.0333943  92.1033603  70.8864880
  20.6220074  93.0455642  69.7752308  23.7809222  90.7171867  73.8240713
  23.8030919  90.7811200  72.8692692  24.1977281  89.8776376  74.0181219
  34.1592847 100.4527126  71.8619935  34.6023993  99.7034452  71.4639059
  33.2819357 100.4437263  71.4793667  29.2928628 107.0057468  67.3426534
  29.9879533 107.6264161  67.5613849  29.6351778 106.1552819  67.6178912
  14.9096437  98.8275269  81.2023351  14.1678173  98.9757904  81.7887982
  14.5889182  99.0883535  80.3390101  31.1920051 104.4557173  68.8713865
  31.7171375 104.7944446  68.1463185  31.1042404 103.5204189  68.6876999
  22.8540100 108.3691247  81.0003741  23.1627226 108.1240394  81.8726441
  23.6515582 108.5737886  80.5122612  22.8760712 110.5229157  73.2309118
  22.4365702 110.0305535  73.9241975  23.6268829 109.9802124  72.9901193
  15.3553051 106.7140698  73.2333746  16.1811071 106.4144469  72.8532389
  15.0047103 105.9448320  73.6823535  20.3234584 106.0667166  75.3031420
  19.7014593 105.4037871  75.0033647  20.9939451 106.0928298  74.6205067
  13.5561656 104.6327024  74.1922680  12.7193564 104.2049198  74.0106681
  13.5285301 104.8259467  75.1293471  20.3959112  94.5448954  84.8963926
  20.4447267  95.4211077  84.5141695  20.9381626  94.0026347  84.3235569
  30.8813957 105.0890077  84.1765063  30.0909501 105.0714216  83.6369562
  30.6447312 105.6278371  84.9314099  31.0011832 101.9382543  81.4897791
  31.0509837 101.7732551  82.4313314  30.8925756 101.0709803  81.0995672
  19.8848091 104.6171089  68.7789880  20.0336211 105.3006554  68.1256553
  20.6914534 104.5976179  69.2939336  28.2915595  97.9213472  82.8057098
  29.1925457  97.7819936  82.5141096  28.3663569  98.0867926  83.7455275
  22.6258400  95.2980326  81.6510284  21.7561709  95.5913892  81.3792873
  22.8617880  95.8820771  82.3717548  32.5030029 104.3579485  81.7339813
  32.2114837 104.7209466  82.5703274  31.8902160 103.6446493  81.5553145
  33.7025711 101.9232365  74.2542383  34.5372603 102.3622169  74.4179943
  33.8384840 101.4471018  73.4350629  30.7517217  99.4812100  80.2019871
  31.2271339  99.6739746  79.3938722  29.8282783  99.5371285  79.9563254
  17.6400724 100.6436267  69.7850949  17.3946766  99.7398597  69.9831159
  17.8096639 100.6453417  68.8430427  25.3297434  91.5159943  79.1675705
  25.8479378  92.2520970  78.8422193  24.9752567  91.8223936  80.0022464
  16.9096372  96.3764624  67.2837110  16.2165616  96.4508979  66.6277146
  16.6648123  95.6124968  67.8058627  25.5810028  87.9360226  74.6876601
  25.8611782  87.2683415  75.3137028  26.3660635  88.1289321  74.1751265
  23.3843497 107.1119220  66.2501628  22.8117464 107.7309407  65.7972099
  23.9576290 107.6618581  66.7841549  29.4518886  96.3577860  78.4348176
  30.4036309  96.4575957  78.4560400  29.2822337  95.5656128  78.9446261
  27.4733266  93.4433443  78.6207577  26.8783198  93.7238456  77.9254066
  27.1882963  93.9327344  79.3924318  26.6040756 107.3956370  67.3810210
  27.5371429 107.3301931  67.5843085  26.5163969 108.2312637  66.9224742
  29.2328773 106.7122240  64.3414157  29.1542405 106.3782104  65.2349915
  30.0538440 107.2044008  64.3405630  31.9306964  99.5783979  77.5490476
  31.8983284  98.6399980  77.7350160  32.5407588  99.6568016  76.8156301
  23.7690295  98.4480032  63.5917680  24.7149400  98.3186240  63.6606098
  23.3904540  97.7094694  64.0687108  32.0801453  96.3695023  77.5948759
  31.5640501  95.5853479  77.4078688  32.9641401  96.0413739  77.7595279
  29.7412180  90.1136038  73.5544572  29.5437001  89.8051127  74.4387904
  30.3511885  90.8397677  73.6842502  37.7483514 100.6399986  76.6896513
  38.4786903 100.3785274  77.2504216  37.1390460  99.9028708  76.7298581
  35.8298811  98.7807849  77.2870964  35.1031975  98.6463814  76.6787456
  35.4146098  99.0884677  78.0927682  23.6528988 102.4997779  85.0518337
  24.5731997 102.6776378  85.2458383  23.6178571 101.5553824  84.8998036
  21.9533212  96.3730009  63.5272565  21.0464668  96.0763121  63.6035279
  22.2309193  96.0759827  62.6606851  12.8711153  97.6936372  73.9771612
  12.5513937  96.8401680  73.6845986  12.3244581  97.9084950  74.7329579
  16.6491060 100.4098813  77.6941118  16.8677070 101.3415921  77.7129152
  17.0616834 100.0506788  78.4795922  23.5695278  90.9166898  69.6816807
  22.7596006  90.5713983  70.0572053  24.2579695  90.6074442  70.2704418
  25.4985826  89.9944945  71.3041103  26.0516865  90.4140399  71.9631126
  25.7355913  89.0680693  71.3464059  21.5218925  95.9832019  87.0843867
  21.4215652  96.9326376  87.0155958  21.3040467  95.6550258  86.2119937
  20.7231997  93.2316944  63.6684544  21.5851161  93.5571842  63.9280362
  20.9082341  92.4448440  63.1557610  12.7399413 101.3139284  75.9464733
  12.0462884 100.8993236  75.4334688  13.4872404 101.3559820  75.3498152
  28.8764633  92.1045470  70.8119767  28.2963302  92.7630274  70.4297820
  28.6100566  91.2822815  70.4007185  27.3268200  91.5050528  73.0141088
  27.8267978  91.6167063  72.2055407  27.9703808  91.2011581  73.6541896
  21.3850195  99.4129158  85.9008929  20.9017277 100.2129518  86.1072818
  21.4711135  99.4237103  84.9476373  14.6536155 101.2457537  73.8230748
  14.6306843 101.3445225  72.8712631  14.9636792 102.0922688  74.1447914
  17.3123533 103.3033692  77.9377363  18.2666787 103.2717635  77.8707294
  17.1136057 102.8424316  78.7527588  17.9022915 101.8734809  80.5048160
  18.7215804 102.3678887  80.5282997  18.1759723 100.9566777  80.4765728
  27.6589511  94.2645561  69.8676116  26.7715366  94.5495211  69.6496310
  28.0743500  94.1039324  69.0203393  31.0104047  94.2892082  73.5830455
  31.7864438  94.7788534  73.8555072  30.2852182  94.7150136  74.0402324
  33.4476606  95.0019701  74.6404396  34.0421097  94.7615437  73.9297704
  33.5203190  94.2826832  75.2677932  15.6673762 108.8453312  74.9547560
  15.5328230 108.0853713  74.3885558  15.2505824 109.5694212  74.4876349
  26.8032725 104.0290236  63.9624136  27.5068575 104.2340238  64.5781791
  26.0795374 104.5966997  64.2273219  27.6330535  99.7800097  70.0826406
  27.5765736 100.2368648  69.2434038  28.1858878  99.0190781  69.9049249
  31.4435341  95.5689829  70.9076525  31.1872275  95.1686464  71.7384733
  30.8188209  96.2833623  70.7826664  35.7547679  98.3085902  73.4147817
  35.1947237  98.3779091  74.1879379  35.1491182  98.1326887  72.6947313
  18.8242888 109.7422629  75.1666003  18.7075272 110.6868061  75.0644693
  18.0035334 109.4396191  75.5551802  28.7119422 104.4672765  66.0122596
  29.5465026 104.0353963  65.8300071  28.5503765 104.2954778  66.9399490
  28.3665314 100.9704878  67.3778935  28.3114118 100.8049149  66.4367379
  27.7411370 101.6780911  67.5341125  13.1557829  96.2072942  81.2040357
  13.8016693  95.6971896  81.6927582  12.9474980  96.9441624  81.7783782
  25.6811222 103.2753790  86.7032498  26.5502381 103.4494442  86.3419133
  25.2017973 104.0948207  86.5808227  21.6761440  90.4712987  66.9564253
  21.6640110  91.4154827  67.1132524  22.5684862  90.2883132  66.6623715
  19.8497402 110.3950891  78.3821931  20.7524648 110.4274501  78.6988426
  19.6234772 109.4651342  78.3968267  21.6051004 109.1481877  75.0432010
  20.6546635 109.1483739  74.9296382  21.9083490 108.4014612  74.5268045
  25.4913559  87.0655764  71.2110190  24.7245955  86.5114250  71.3566873
  25.9024264  87.1377632  72.0724342  17.4955320  93.3540559  85.3015371
  18.3586782  92.9977364  85.5118696  16.9220731  93.0154454  85.9890776
  37.3403697 114.9842416  76.1077772  37.9782107 114.8649163  75.4041113
  37.2224540 115.9323260  76.1665725  34.1493404 114.9369844  76.0439297
  33.8111915 114.8210909  75.1559832  35.0183172 114.5361009  76.0240303
  34.6313187 116.0904696  82.0025503  34.6201827 115.6957494  81.1306006
  34.7933826 115.3570768  82.5959274  31.8501683 113.7058091  65.3756237
  32.1027204 113.1839613  64.6139700  30.9126242 113.5424237  65.4782921
  36.8944966 112.7093870  73.1830981  37.6808055 112.2913293  72.8321398
  37.1583670 113.6139962  73.3512629  42.2953393 112.6469103  74.0863959
  43.0278565 112.0768320  74.3201788  41.5392749 112.2590703  74.5270465
  33.9129513 115.0696344  71.2827301  33.5487720 114.5426965  71.9940223
  34.7696629 114.6794813  71.1093787  39.8178813 106.3590677  78.5458568
  39.4862138 107.2286088  78.3219783  39.2224427 106.0426961  79.2252598
  33.5535000 110.0986244  66.2788650  33.7209402 110.9666480  66.6459121
  33.3632169 110.2613526  65.3549939  39.7107477 111.0785763  75.6251918
  38.8024354 111.0101172  75.3310679  39.6595072 111.5557708  76.4533743
  33.5324220 112.5543902  67.2635317  33.4123846 113.0000952  68.1020797
  32.8376809 112.9029219  66.7048855  33.7848342 112.4975409  83.5686815
  33.0081676 113.0569329  83.5589680  34.4238905 112.9832192  84.0901685
  41.5769123 109.2802202  77.4029792  40.9343503 109.5734735  76.7569586
  41.0724051 109.1655122  78.2082988  39.2309287 113.0265375  68.0915651
  40.1427143 113.2592761  67.9163348  38.7218934 113.6102419  67.5290729
  37.5150054 117.4490003  81.7276943  37.9233410 117.0072413  80.9831576
  36.7927316 116.8742630  81.9811136  33.8681124 112.3862609  79.1010500
  34.7142320 112.8102023  79.2445149  33.8079762 111.7296234  79.7949063
  37.0180570 110.0466978  80.7591674  36.7741502 110.8009038  80.2225950
  37.2940500 110.4252325  81.5938921  38.9719032 116.5905590  79.4368940
  39.1835928 117.2337350  78.7603321  38.9248781 115.7567907  78.9690870
  36.5745261 109.2023411  76.3405512  35.7129740 109.5004664  76.6322249
  36.6007696 109.4193810  75.4086544  32.3275717 113.8688754  69.5568883
  33.0299760 114.3209797  70.0242809  31.9956345 113.2272573  70.1848776
  30.7756078 112.4600510  83.9320092  30.1454739 113.1416791  84.1655489
  30.6692166 112.3483592  82.9873230  26.0701051 112.1272306  74.8586016
  25.2800105 112.3829835  74.3826127  26.5612298 112.9420644  74.9638057
  28.0215796 112.4916886  71.8169493  27.2246959 112.6035580  72.3352988
  27.7941388 112.8303538  70.9510383  48.1770853 115.8116294  73.9576268
  47.4234562 115.2423692  73.8020273  48.3118395 115.7778958  74.9046903
  30.0536821 106.7621276  86.2945343  29.6603767 106.2087475  86.9692987
  30.8702961 107.0731855  86.6851861  32.9704782 108.1779155  83.8865600
  33.7114495 108.7786308  83.8070062  33.2022705 107.4356793  83.3283642
  28.1146120 113.3635522  82.1643829  27.9999635 112.4620780  82.4650928
  27.2590638 113.6099219  81.8128646  36.9161945 104.2060258  78.1629881
  36.5726214 105.0961900  78.0868992  37.2840908 104.0161916  77.2999466
  36.8812228 114.1968869  66.6702316  36.3658851 114.9673474  66.9090704
  36.6089536 113.5234005  67.2935378  34.4659339 109.0418570  71.7287555
  33.6100935 108.6525420  71.5493193  34.8786291 109.1210531  70.8687340
  35.9958485 106.5764913  76.1279114  35.4923281 106.5395048  75.3146920
  36.2889092 107.4857656  76.1875771  32.2401371 106.6603643  75.1345296
  33.1054368 106.4646452  74.7751186  32.3078880 106.4313995  76.0614653
  41.8546502 116.9501224  68.6055490  41.0775945 116.6112383  68.1610652
  42.5337983 116.9553847  67.9310455  36.6698531 112.0695961  68.4962098
  36.3648667 112.3842111  69.3472241  37.6228973 112.1477381  68.5389431
  40.0937809 116.4235205  75.2622098  39.4361483 117.1134467  75.3502226
  40.8978208 116.8131637  75.6056084  29.8463690 108.8905851  72.5061663
  30.4207442 108.6681032  71.7734856  30.4334673 108.9594545  73.2590264
  38.9043268 114.7779578  73.3126040  39.4175149 115.4109570  73.8147749
  39.5544492 114.1780773  72.9469400  30.1733278 110.9210312  66.5257548
  29.3370590 111.2584999  66.8466823  30.0338047 110.7859292  65.5884685
  32.1486358 105.7647100  71.2336732  31.4950770 105.4496117  70.6093347
  32.1066832 105.1422840  71.9596555  33.2597563 116.0466395  63.1490025
  32.3524625 115.8155648  63.3481174  33.7568595 115.2504014  63.3364006
  35.3824098 112.2529033  75.5584380  34.4646660 112.4743980  75.4006068
  35.7984242 112.3275344  74.6996087  36.1659146 113.6520449  70.6887060
  36.9130965 114.1641846  70.3794182  36.4350736 113.3304502  71.5491454
  34.4385796 116.1478990  67.6714015  33.5297016 115.8638023  67.7686484
  34.4680880 116.5678068  66.8117321  38.6137983 110.6877565  72.6705850
  37.8760740 110.1754952  73.0016092  38.8664757 110.2477947  71.8589127
  38.7149611 103.4653817  73.2647619  39.0208488 102.6051181  72.9773534
  39.4402216 104.0571438  73.0646613  32.9870690 113.7607610  73.7723810
  33.0419300 112.8081447  73.6966287  32.1761892 113.9167050  74.2565108
  30.9263050 112.3784670  71.5314189  30.1130916 112.6778841  71.9379381
  31.4222045 111.9840359  72.2488671  36.5237262 112.8426495  80.3629083
  36.8786650 113.0697968  81.2223548  37.1709393 113.1744871  79.7406338
  42.2534999 115.9644931  71.0678412  42.1152898 116.1546526  70.1399601
  41.8971218 116.7264313  71.5246463  30.4177125 109.9503026  77.1475424
  31.0576504 109.8091785  76.4498387  29.5854656 109.6637539  76.7714026
  42.2804379 118.0321458  76.0789683  42.7140885 117.9396747  76.9272737
  42.9935959 118.0078958  75.4409699  27.5020193 113.3948538  69.3370169
  26.5717781 113.3332993  69.5540131  27.5977664 112.8724491  68.5406810
  27.4205742 109.9203351  71.9248411  27.6812559 110.8348684  71.8157571
  28.2422914 109.4527793  72.0745023  28.8930667 111.3341108  79.0947235
  29.5653720 111.1258470  78.4459884  28.0660453 111.1363194  78.6552467
  43.1419928 118.0745158  78.6122569  43.3355818 118.9790969  78.8581844
  43.0420546 117.6152577  79.4461154  34.7956239 107.9603049  81.1112896
  34.1484154 108.6592998  81.0177372  35.5657254 108.3939193  81.4789144
  34.9720373 115.7983814  79.1709716  35.9012433 115.9494973  78.9978683
  34.5511403 115.8867834  78.3158362  29.2958164 114.6083711  79.8549672
  29.1577962 113.8763950  80.4561211  30.2063088 114.5192611  79.5733860
  38.2573112 116.5472115  64.6034151  37.6402282 115.8218943  64.5067203
  37.7889600 117.3081475  64.2601225  31.9240465 114.3203670  79.3433352
  32.6340083 113.6796862  79.3019970  31.8809773 114.5716565  80.2659533
  30.6369399 111.3068888  81.1628991  30.1006756 110.8559626  81.8150588
  30.0486107 111.4414797  80.4199456  30.0471658 110.7657539  63.7255455
  29.1701124 110.6446340  63.3617702  30.5229411 109.9743618  63.4734344
  26.3708520 110.4424896  78.2481986  26.2866709 109.8350565  77.5132396
  25.5491226 110.9333914  78.2491482  36.5432234 108.9278459  73.6152181
  37.0400933 108.1748422  73.2953251  35.7719215 108.9642776  73.0495390
  44.3961991 114.6318825  75.2570472  44.3851868 115.5143540  74.8864406
  43.5279371 114.2790376  75.0625010  33.1267203 111.0695842  73.3423866
  32.7564990 110.5166883  74.0304771  33.6226295 110.4653976  72.7898866
  41.0134566 113.5267466  71.7240639  41.4795018 114.3595457  71.6500941
  41.4642066 113.0612447  72.4285897  38.9851229 105.8948053  75.7631540
  38.0714308 106.1252280  75.9313747  39.4144330 105.9786497  76.6145572
  38.7557687 114.0837945  78.2631434  38.1029137 114.3313852  77.6083887
  39.1338067 113.2702083  77.9293911  34.8045260 114.8257756  84.7497471
  34.1285897 114.7251885  85.4199846  35.6272894 114.6696970  85.2133468
  28.5232536 108.4799833  79.5876972  28.5873863 109.3414664  79.1754369
  28.4599657 107.8673835  78.8549330  27.9984809 110.5522966  83.2350006
  28.6256848 110.1700043  83.8487530  27.1412728 110.3337167  83.6005698
  24.7750352 112.3599395  69.1668361  25.0703793 111.4510073  69.1135414
  23.8738387 112.3387134  68.8449363  28.3044599 110.4355391  75.1495909
  27.5831184 111.0491359  75.0103383  29.0937854 110.9713156  75.0712555
  31.1070912 107.7709818  81.4236561  31.6305314 108.0172114  82.1862870
  30.8883245 108.6029853  81.0039698  26.5038193 110.0413492  69.2907686
  26.1750899 109.1610871  69.1082792  26.8577564 109.9861161  70.1784075
  29.6180016 110.3286462  69.6583164  29.9576089 110.8572383  68.9361772
  30.0652137 110.6666868  70.4341730  32.3123457 108.7123513  79.1086232
  31.9720278 107.9131326  79.5106912  31.6062463 109.0125224  78.5363065
  32.9639929 105.7972825  77.5613555  33.7865998 105.3233303  77.4392445
  33.2077993 106.5763309  78.0612241  31.6048163 108.8261084  67.8576456
  32.3256526 109.2042337  67.3540173  30.9813468 109.5449961  67.9611434
  35.7479286 109.5306233  68.7934789  35.9642901 110.4130871  68.4923617
  35.2673353 109.1392446  68.0640431  30.4878508 112.4891946  75.3705533
  30.3423088 112.8032249  76.2629815  30.0103711 113.1076846  74.8176432
  32.3474891 109.4794494  75.4186423  32.3336459 108.5835587  75.0818721
  33.0647319 109.4865158  76.0524709  34.2001021 109.9131834  77.4639550
  33.9418799 110.8348905  77.4623881  33.6686062 109.5162269  78.1540014
  31.7511787 108.3608874  70.6873993  31.8727698 107.4325520  70.8864880
  31.4613829 108.3747560  69.7752308  34.6202977 106.0463785  73.8240713
  34.6424674 106.1103118  72.8692692  35.0371036 105.2068293  74.0181219
  44.9986601 115.7819044  71.8619935  45.4417747 115.0326369  71.4639059
  44.1213112 115.7729181  71.4793667  31.2352866 109.8740872  84.8963926
  31.2841022 110.7502994  84.5141695  31.7775380 109.3318265  84.3235569
  41.8405587 117.2674461  81.4897791  41.8903592 117.1024469  82.4313314
  41.7319510 116.4001720  81.0995672  39.1309349 113.2505389  82.8057098
  40.0319212 113.1111854  82.5141096  39.2057324 113.4159844  83.7455275
  33.4652155 110.6272244  81.6510284  32.5955464 110.9205810  81.3792873
  33.7011635 111.2112689  82.3717548  44.5419466 117.2524282  74.2542383
  45.3766357 117.6914087  74.4179943  44.6778595 116.7762936  73.4350629
  41.5910972 114.8104017  80.2019871  42.0665093 115.0031664  79.3938722
  40.6676537 114.8663203  79.9563254  36.1691188 106.8451861  79.1675705
  36.6873132 107.5812888  78.8422193  35.8146321 107.1515854  80.0022464
  27.7490126 111.7056542  67.2837110  27.0559371 111.7800897  66.6277146
  27.5041878 110.9416886  67.8058627  36.4203783 103.2652143  74.6876601
  36.7005536 102.5975332  75.3137028  37.2054389 103.4581239  74.1751265
  40.2912641 111.6869777  78.4348176  41.2430064 111.7867875  78.4560400
  40.1216091 110.8948046  78.9446261  38.3127020 108.7725361  78.6207577
  37.7176952 109.0530373  77.9254066  38.0276717 109.2619262  79.3924318
  42.7700719 114.9075897  77.5490476  42.7377039 113.9691898  77.7350160
  43.3801342 114.9859934  76.8156301  34.6084050 113.7771950  63.5917680
  35.5543154 113.6478158  63.6606098  34.2298294 113.0386612  64.0687108
  42.9195207 111.6986941  77.5948759  42.4034256 110.9145397  77.4078688
  43.8035156 111.3705657  77.7595279  40.5805934 105.4427956  73.5544572
  40.3830755 105.1343044  74.4387904  41.1905640 106.1689595  73.6842502
  48.5877269 115.9691904  76.6896513  49.3180657 115.7077192  77.2504216
  47.9784214 115.2320626  76.7298581  46.6692566 114.1099767  77.2870964
  45.9425729 113.9755731  76.6787456  46.2539853 114.4176595  78.0927682
  32.7926967 111.7021926  63.5272565  31.8858422 111.4055039  63.6035279
  33.0702948 111.4051745  62.6606851  34.4089032 106.2458816  69.6816807
  33.5989761 105.9005901  70.0572053  35.0973449 105.9366360  70.2704418
  36.3379581 105.3236863  71.3041103  36.8910619 105.7432316  71.9631126
  36.5749667 104.3972611  71.3464059  32.3612680 111.3123937  87.0843867
  32.2609407 112.2618294  87.0155958  32.1434222 110.9842176  86.2119937
  31.5625751 108.5608862  63.6684544  32.4244915 108.8863760  63.9280362
  31.7476095 107.7740358  63.1557610  39.7158388 107.4337388  70.8119767
  39.1357057 108.0922192  70.4297820  39.4494320 106.6114733  70.4007185
  38.1661954 106.8342446  73.0141088  38.6661733 106.9458980  72.2055407
  38.8097562 106.5303499  73.6541896  32.2243950 114.7421075  85.9008929
  31.7411032 115.5421436  86.1072818  32.3104889 114.7529020  84.9476373
  38.4983266 109.5937479  69.8676116  37.6109121 109.8787129  69.6496310
  38.9137255 109.4331242  69.0203393  41.8497802 109.6183999  73.5830455
  42.6258192 110.1080452  73.8555072  41.1245936 110.0442054  74.0402324
  44.2870361 110.3311619  74.6404396  44.8814851 110.0907355  73.9297704
  44.3596944 109.6118749  75.2677932  38.4724290 115.1092014  70.0826406
  38.4159491 115.5660566  69.2434038  39.0252632 114.3482699  69.9049249
  42.2829095 110.8981746  70.9076525  42.0266030 110.4978382  71.7384733
  41.6581963 111.6125540  70.7826664  46.5941433 113.6377820  73.4147817
  46.0340991 113.7071009  74.1879379  45.9884937 113.4618804  72.6947313
  39.2059069 116.2996796  67.3778935  39.1507873 116.1341067  66.4367379
  38.5805124 117.0072829  67.5341125  23.9951584 111.5364860  81.2040357
  24.6410447 111.0263814  81.6927582  23.7868735 112.2733542  81.7783782
  32.5155194 105.8004905  66.9564253  32.5033864 106.7446745  67.1132524
  33.4078616 105.6175050  66.6623715  36.3307314 102.3947681  71.2110190
  35.5639710 101.8406168  71.3566873  36.7418019 102.4669550  72.0724342
  28.3349075 108.6832477  85.3015371  29.1980536 108.3269282  85.5118696
  27.7614485 108.3446372  85.9890776  47.7555700 119.5352176  78.1629881
  47.4119969 120.4253818  78.0868992  48.1234662 119.3453833  77.2999466
  49.5543365 118.7945735  73.2647619  49.8602242 117.9343098  72.9773534
  50.2795970 119.3863355  73.0646613  49.8244983 121.2239970  75.7631540
  48.9108063 121.4544197  75.9313747  50.2538085 121.3078414  76.6145572
  47.2597537 118.5944061  74.6876601  47.5399291 117.9267250  75.3137028
  48.0448144 118.7873157  74.1751265  51.4199689 120.7719874  73.5544572
  51.2224510 120.4634962  74.4387904  52.0299394 121.4981513  73.6842502
  47.1773335 120.6528781  71.3041103  47.7304374 121.0724234  71.9631126
  47.4143422 119.7264529  71.3464059  47.1701068 117.7239599  71.2110190
  46.4033464 117.1698086  71.3566873  47.5811773 117.7961468  72.0724342
   4.8195837  31.5010746  60.6821575   4.0659545  30.9318144  60.5265579
   4.9543378  31.4673410  61.6292210   1.6411585  31.4713496  58.5865242
   2.0842731  30.7220821  58.1884365   0.7638095  31.4623632  58.2038974
   1.1844449  32.9418734  60.9787690   2.0191341  33.3808538  61.1425250
   1.3203578  32.4657388  60.1595935   5.2302252  31.6586356  63.4141819
   5.9605640  31.3971644  63.9749523   4.6209197  30.9215078  63.4543887
   3.3117549  29.7994218  64.0116271   2.5850713  29.6650183  63.4032762
   2.8964836  30.1071047  64.8172989   0.9295344  26.0206071  61.3649702
   1.5239835  25.7801807  60.6543010   1.0021928  25.3013201  61.9923238
   3.2366417  29.3272271  60.1393123   2.6765975  29.3965461  60.9124685
   2.6309920  29.1513256  59.4192620   4.8222435  46.0028785  62.8323079
   5.4600845  45.8835533  62.1286419   4.7043278  46.9509629  62.8911031
   1.6312141  45.9556213  62.7684604   1.2930653  45.8397278  61.8805139
   2.5001910  45.5547379  62.7485610   2.1131924  47.1091065  68.7270809
   2.1020565  46.7143863  67.8551313   2.2752564  46.3757138  69.3204581
   3.0698516  51.4762658  54.0695960   2.4186496  52.0616738  53.6829973
   3.8642879  52.0068853  54.1290997   4.3763704  43.7280239  59.9076287
   5.1626793  43.3099662  59.5566704   4.6402408  44.6326331  60.0757936
   4.5473781  49.1653090  54.6064944   3.9119614  49.2387716  55.3185849
   4.2171187  49.7546688  53.9284023   9.7772131  43.6655472  60.8109266
  10.5097303  43.0954689  61.0447095   9.0211486  43.2777073  61.2515771
   1.3948250  46.0882714  58.0072608   1.0306458  45.5613335  58.7185530
   2.2515366  45.6981183  57.8339094   7.2997551  37.3777047  65.2703874
   6.9680876  38.2472458  65.0465089   6.7043164  37.0613331  65.9497905
   1.0353737  41.1172614  53.0033957   1.2028140  41.9852850  53.3704428
   0.8450906  41.2799895  52.0795246   3.7929071  49.5789593  64.6699787
   3.4929794  50.4814631  64.5615594   3.4480130  49.3121776  65.5220940
   7.1926214  42.0972133  62.3497224   6.2843092  42.0287541  62.0555985
   7.1413810  42.5744078  63.1779050   1.2667080  43.5161778  70.2932122
   0.4900414  44.0755698  70.2834986   1.9057643  44.0018561  70.8146992
   9.0587861  40.2988571  64.1275098   8.4162241  40.5921104  63.4814893
   8.5542789  40.1841491  64.9328295   6.7128024  44.0451744  54.8160957
   7.6245881  44.2779131  54.6408655   6.2037671  44.6288789  54.2536036
   4.9968792  48.4676372  68.4522250   5.4052148  48.0258783  67.7076882
   4.2746054  47.8929000  68.7056443   1.3499862  43.4048979  65.8255807
   2.1961057  43.8288392  65.9690456   1.2898500  42.7482603  66.5194370
   5.3197607  49.0277563  62.2074539   4.6906469  49.1923277  61.5050607
   4.9323269  49.4419172  62.9785503   9.1986839  49.9632001  59.5618903
   8.5137877  50.3430902  59.0115936   9.2830688  50.5727327  60.2950850
   4.4999307  41.0653347  67.4836981   4.2560239  41.8195408  66.9471256
   4.7759238  41.4438695  68.3184228   6.4537770  47.6091960  66.1614246
   6.6654665  48.2523720  65.4848627   6.4067518  46.7754276  65.6936176
   4.0563999  40.2209780  63.0650818   3.1948478  40.5191034  63.3567556
   4.0826434  40.4380179  62.1331851   0.8725569  48.7651971  59.4724624
   1.3363914  49.0439674  58.6829247   0.6082367  47.8635415  59.2897715
   7.5683598  50.4863915  64.3336604   8.3901042  50.0844102  64.0519285
   7.5646001  50.3832149  65.2852719   1.3340202  50.0347958  66.4897314
   1.3984634  50.4968366  67.3255486   0.6251126  49.4045323  66.6179624
  15.6589591  46.8302664  60.6821575  14.9053300  46.2610062  60.5265579
  15.7937132  46.7965328  61.6292210   1.0488219  51.7016066  56.3576294
   0.9133894  52.5467602  56.7861142   1.5898032  51.9035343  55.5942228
   2.6756696  52.3239632  70.4876636   2.2320550  51.5376011  70.1697541
   3.3373909  52.5118783  69.8220527   4.7737934  52.6042432  68.5158038
   4.7556409  53.4251313  68.0238307   5.6957854  52.4796508  68.7408179
   1.2310988  50.1186562  69.3581546   1.7639325  49.3574850  69.1280854
   0.7025069  49.8260214  70.1005701   4.3980683  35.2246628  64.8875188
   4.0544952  36.1148269  64.8114298   4.7659645  35.0348285  64.0244773
   4.3630966  45.2155239  53.3947623   3.8477589  45.9859843  53.6336010
   4.0908274  44.5420375  54.0180684   1.9478077  40.0604940  58.4532861
   1.0919673  39.6711790  58.2738500   2.3605028  40.1396900  57.5932647
   3.4777223  37.5951283  62.8524421   2.9742019  37.5581418  62.0392226
   3.7707830  38.5044026  62.9121078   9.3365240  47.9687593  55.3300796
   8.5594682  47.6298753  54.8855959  10.0156721  47.9740217  54.6555762
   4.1517269  43.0882331  55.2207404   3.8467404  43.4028480  56.0717547
   5.1047711  43.1663751  55.2634737   2.5963701  49.2472554  56.8700358
   2.0685062  48.5125314  56.5573596   2.0951203  50.0247231  56.6240326
   7.5756547  47.4421575  61.9867404   6.9180221  48.1320836  62.0747533
   8.3796946  47.8318007  62.3301391   6.3862005  45.7965947  60.0371346
   6.8993887  46.4295939  60.5393056   7.0363229  45.1967143  59.6714706
   3.6484380  55.7750272  52.7932017   2.9746078  56.0781968  53.4016975
   4.0350202  56.5779352  52.4437474   2.8642836  43.2715403  62.2829687
   1.9465398  43.4930350  62.1251375   3.2802980  43.3461713  61.4241394
   3.6477884  44.6706819  57.4132367   4.3949703  45.1828216  57.1039489
   3.9169474  44.3490871  58.2736761   1.9204534  47.1665359  54.3959321
   1.0115753  46.8824392  54.4931791   1.9499618  47.5864438  53.5362628
   7.1523802  50.7771949  58.1650489   6.6986129  49.9362859  58.2215679
   6.5217768  51.4133347  58.5025269   6.0956721  41.7063935  59.3951156
   5.3579478  41.1941321  59.7261399   6.3483495  41.2664317  58.5834433
   5.5956741  52.6148446  59.1000307   5.8879715  53.1753503  58.3812673
   6.1055361  52.9077007  59.8553466   6.1968348  34.4840187  59.9892926
   6.5027225  33.6237550  59.7018841   6.9220953  35.0757807  59.7891919
   1.6180622  48.7074103  51.7347400   1.1800052  47.9909962  51.2753037
   2.3591063  48.9350218  51.1732491   0.5590366  53.3928797  60.1893760
   0.5166545  53.6189643  59.2602292   1.4753065  53.1592171  60.3379561
   4.0056000  43.8612864  67.0874389   4.3605388  44.0884337  67.9468855
   4.6528131  44.1931241  66.4651645   9.7353737  46.9831300  57.7923718
   9.5971635  47.1732896  56.8644908   9.3789956  47.7450683  58.2491770
   9.7623116  49.0507827  62.8034990  10.1959623  48.9583116  63.6518044
  10.4754697  49.0265328  62.1655006   3.4951011  52.6509921  64.3368091
   3.5488034  53.2200858  65.1045806   2.6265793  52.8211806  63.9722128
  10.6238666  49.0931528  65.3367875  10.8174556  49.9977338  65.5827150
  10.5239284  48.6338947  66.1706460   2.2774977  38.9789418  67.8358203
   1.6302892  39.6779368  67.7422679   3.0475992  39.4125562  68.2034451
   5.6853775  49.2438270  70.9108756   5.5339281  49.0148822  69.9938840
   5.6758454  50.2008872  70.9240101   2.4539111  46.8170183  65.8955022
   3.3831171  46.9681343  65.7223990   2.0330141  46.9054204  65.0403669
   1.8475595  55.9429944  55.0079097   2.0227350  55.4717987  55.8224719
   1.1608383  56.5695710  55.2360357   2.8032658  50.2202450  61.0542398
   2.4682491  50.1803220  61.9500048   2.3036604  49.5547166  60.5812808
   5.7391850  47.5658485  51.3279457   5.1221020  46.8405313  51.2312510
   5.2708338  48.3267845  50.9846532   7.3945981  52.2757393  68.9885238
   7.3358527  51.5916613  68.3215821   7.7965500  53.0176383  68.5365864
   7.3963389  50.2396977  67.2199217   6.5090167  49.9022899  67.3425616
   7.9661940  49.5080008  67.4567983   0.9264542  54.8998429  64.1860461
   0.8534713  55.7053401  64.6979765   0.4841935  55.0990395  63.3608482
   4.0250972  39.9464829  60.3397488   4.5219671  39.1934791  60.0198558
   3.2537953  39.9829145  59.7740697  11.8780729  45.6505194  61.9815779
  11.8670605  46.5329910  61.6109712  11.0098109  45.2976745  61.7870316
   3.3863225  54.7985263  66.3418619   4.0991198  55.4332728  66.2694521
   2.8953254  54.8949129  65.5258621   5.1080752  48.7036516  57.9135911
   4.1737031  48.8237978  57.7440615   5.2857421  47.8008983  57.6495921
   8.4953304  44.5453835  58.4485945   8.9613756  45.3781827  58.3746248
   8.9460804  44.0798817  59.1531204   6.5629535  50.8897657  55.4472097
   6.8389379  50.7754251  56.3565971   5.6934034  50.4915141  55.4084270
   6.4669966  36.9134422  62.4876846   5.5533046  37.1438649  62.6559053
   6.8963068  36.9972866  63.3390879   6.2376425  45.1024314  64.9876741
   5.5847875  45.3500222  64.3329193   6.6156805  44.2888452  64.6539218
   3.1983599  55.1384007  59.0904911   3.3805993  54.3205663  59.5532663
   4.0216585  55.3551700  58.6529801   3.5325764  54.0652193  56.3519959
   4.0613531  53.5544647  55.7390121   3.7953984  53.7494723  57.2165492
   2.2863998  45.8444125  71.4742778   1.6104635  45.7438255  72.1445153
   3.1091632  45.6883339  71.9378775   1.0286781  57.1511053  65.7100394
   1.5805089  57.3142674  66.4749479   1.3692974  57.7415491  65.0380418
   5.8797655  51.9772310  71.5649048   6.4237559  52.5902269  71.0704003
   5.2984500  52.5351889  72.0816061   4.1655168  55.0993028  62.6964076
   4.0406308  54.2982768  62.1875021   4.8234259  55.5939222  62.2078046
   6.2290077  52.9002048  64.3243626   5.2820412  52.7807400  64.2521953
   6.5772850  52.0124546  64.4069887   3.2336510  52.6954765  60.5247978
   3.0861472  51.7671472  60.7055548   4.0590003  52.7174855  60.0405053
   6.8370632  53.5183323  61.6112851   7.7617179  53.3126185  61.4737302
   6.6685935  53.2699725  62.5202192   3.2298024  40.5492602  55.5180095
   3.4461639  41.4317240  55.2168923   2.7492091  40.1578816  54.7885737
   1.6819759  40.9318204  64.1884857   1.4237537  41.8535274  64.1869187
   1.1504799  40.5348638  64.8785321   6.6265948  54.0368991  56.9674942
   6.8002825  53.4715413  56.2148795   7.1194839  54.8369886  56.7854432
   2.1021715  37.0650154  60.5486019   2.1243412  37.1289487  59.5937999
   2.5189774  36.2254663  60.7426526  12.4805339  46.8005414  58.5865242
  12.9236485  46.0512739  58.1884365  11.6031849  46.7915550  58.2038974
   7.6141120  53.3535755  54.0671841   8.3092025  53.9742448  54.2859155
   7.9564271  52.5031106  54.3424218   9.5132543  50.8035461  55.5959171
  10.0383868  51.1422733  54.8708491   9.4254896  49.8682476  55.4122306
   1.1752592  54.7169534  67.7249048   1.4839719  54.4718681  68.5971748
   1.9728074  54.9216173  67.2367918   1.1973204  56.8707444  59.9554424
   0.7578195  56.3783823  60.6487281   1.9481321  56.3280412  59.7146500
   9.2026450  51.4368364  70.9010369   8.4121993  51.4192503  70.3614869
   8.9659804  51.9756658  71.6559406   9.3224325  48.2860831  68.2143098
   9.3722330  48.1210838  69.1558621   9.2138248  47.4188090  67.8240979
   6.6128087  44.2691759  69.5302405   7.5137950  44.1298224  69.2386402
   6.6876062  44.4346214  70.4700582  10.8242521  50.7057772  68.4585119
  10.5327330  51.0687753  69.2948580  10.2114653  49.9924781  68.2798451
  12.0238204  48.2710652  60.9787690  12.8585095  48.7100456  61.1425250
  12.1597333  47.7949305  60.1595935   9.0729710  45.8290387  66.9265177
   9.5483831  46.0218033  66.1184029   8.1495275  45.8849573  66.6808561
   3.6509926  37.8638230  65.8921011   4.1691870  38.5999257  65.5667500
   3.2965059  38.1702224  66.7267770   3.9022520  34.2838513  61.4121908
   4.1824274  33.6161702  62.0382334   4.6873127  34.4767609  60.8996572
   1.7055989  53.4597507  52.9746934   1.1329956  54.0787694  52.5217406
   2.2788782  54.0096869  53.5086856   7.7731379  42.7056147  65.1593483
   8.7248802  42.8054245  65.1805707   7.6034829  41.9134416  65.6691567
   5.7945758  39.7911730  65.3452884   5.1995690  40.0716743  64.6499372
   5.5095455  40.2805631  66.1169625   4.9253249  53.7434657  54.1055516
   5.8583922  53.6780219  54.3088392   4.8376461  54.5790924  53.6470049
   7.5541265  53.0600527  51.0659464   7.4754897  52.7260391  51.9595222
   8.3750932  53.5522295  51.0650936  10.2519456  45.9262267  64.2735783
  10.2195777  44.9878267  64.4595466  10.8620080  46.0046303  63.5401607
   2.0902787  44.7958320  50.3162987   3.0361892  44.6664528  50.3851405
   1.7117032  44.0572982  50.7932415  10.4013945  42.7173310  64.3194066
   9.8852994  41.9331767  64.1323995  11.2853893  42.3892027  64.4840585
   8.0624672  36.4614326  60.2789878   7.8649493  36.1529414  61.1633210
   8.6724377  37.1875965  60.4087808  16.0696006  46.9878274  63.4141819
  16.7999395  46.7263562  63.9749523  15.4602952  46.2506995  63.4543887
  14.1511303  45.1286136  64.0116271  13.4244467  44.9942101  63.4032762
  13.7358590  45.4362965  64.8172989   1.9741480  48.8476066  71.7763644
   2.8944489  49.0254665  71.9703690   1.9391063  47.9032111  71.6243343
   1.8907770  37.2645186  56.4062113   1.0808499  36.9192271  56.7817359
   2.5792187  36.9552729  56.9949725   3.8198318  36.3423233  58.0286410
   4.3729357  36.7618686  58.6876433   4.0568405  35.4158981  58.0709366
   7.1977126  38.4523758  57.5365074   6.6175795  39.1108562  57.1543126
   6.9313058  37.6301102  57.1252492   5.6480692  37.8528815  59.7386394
   6.1480470  37.9645350  58.9300713   6.2916300  37.5489868  60.3787203
   5.9802004  40.6123848  56.5921422   5.0927859  40.8973499  56.3741617
   6.3955993  40.4517611  55.7448699   9.3316540  40.6370369  60.3075762
  10.1076930  41.1266822  60.5800378   8.6064674  41.0628423  60.7647631
  11.7689098  41.3497988  61.3649702  12.3633589  41.1093724  60.6543010
  11.8415682  40.6305119  61.9923238   5.1245217  50.3768523  50.6869442
   5.8281067  50.5818525  51.3027098   4.4007866  50.9445285  50.9518526
   5.9543027  46.1278384  56.8071712   5.8978229  46.5846935  55.9679345
   6.5071370  45.3669069  56.6294555   9.7647833  41.9168116  57.6321832
   9.5084767  41.5164752  58.4630040   9.1400701  42.6311910  57.5071971
  14.0760171  44.6564189  60.1393123  13.5159729  44.7257378  60.9124685
  13.4703674  44.4805174  59.4192620   7.0331914  50.8151052  52.7367902
   7.8677518  50.3832250  52.5545377   6.8716257  50.6433066  53.6644797
   6.6877807  47.3183165  54.1024242   6.6326610  47.1527437  53.1612686
   6.0623862  48.0259198  54.2586431   4.0023714  49.6232077  73.4277804
   4.8714873  49.7972729  73.0664439   3.5230465  50.4426494  73.3053534
   3.8126052  33.4134051  57.9355497   3.0458447  32.8592538  58.0812179
   4.2236757  33.4855920  58.7969648  15.6616190  61.3320703  62.8323079
  16.2994600  61.2127450  62.1286419  15.5437032  62.2801547  62.8911031
  12.4705896  61.2848131  62.7684604  12.1324407  61.1689196  61.8805139
  13.3395664  60.8839296  62.7485610   8.3292712  63.1383608  58.7581495
   7.7657577  63.0473545  57.9897782   8.2145107  62.3183512  59.2383987
  12.9525679  62.4382983  68.7270809  12.9414320  62.0435781  67.8551313
  13.1146318  61.7049056  69.3204581   5.8757143  64.6334799  61.5965715
   6.6678435  64.2925624  61.1812014   6.1153794  64.7429774  62.5167869
  13.9092270  66.8054575  54.0695960  13.2580250  67.3908656  53.6829973
  14.7036633  67.3360770  54.1290997   7.8347897  63.8943712  54.4683094
   8.6078773  63.3472700  54.3295970   8.1873296  64.7587962  54.6797555
   9.6732940  65.2220095  67.6749993   9.3822806  66.1265726  67.5596660
  10.3089924  65.2636622  68.3894063  10.5989147  62.5996943  64.2651353
  11.1952719  62.3752966  63.5508316  10.6564118  61.8581689  64.8676801
  10.1714175  60.0536379  52.1001544  10.4239696  59.5317900  51.3385007
   9.2338734  59.8902524  52.2028228  15.2157458  59.0572157  59.9076287
  16.0020547  58.6391580  59.5566704  15.4796162  59.9618249  60.0757936
  15.3867535  64.4945007  54.6064944  14.7513368  64.5679634  55.3185849
  15.0564942  65.0838606  53.9284023  20.6165885  58.9947390  60.8109266
  21.3491057  58.4246607  61.0447095  19.8605241  58.6068991  61.2515771
   9.8910464  61.9564485  54.3025919   9.7746722  61.2809388  54.9707003
  10.0012724  61.4696858  53.4858072  12.2342005  61.4174632  58.0072608
  11.8700212  60.8905253  58.7185530  13.0909121  61.0273101  57.8339094
  18.1391306  52.7068964  65.2703874  17.8074630  53.5764375  65.0465089
  17.5436919  52.3905248  65.9497905  11.8747492  56.4464531  53.0033957
  12.0421894  57.3144768  53.3704428  11.6844661  56.6091813  52.0795246
  14.6322825  64.9081510  64.6699787  14.3323548  65.8106549  64.5615594
  14.2873885  64.6413693  65.5220940   8.0835307  61.3595307  60.7036491
   7.1585803  61.2271521  60.9114183   8.3319720  62.1389526  61.2006434
  18.0319969  57.4264050  62.3497224  17.1236846  57.3579459  62.0555985
  17.9807565  57.9035995  63.1779050  11.8536713  58.9022189  53.9880623
  11.7336338  59.3479240  54.8266104  11.1589301  59.2507506  53.4294162
   5.4444118  61.0028581  61.5380280   5.5736499  61.2563060  62.4519692
   4.7641569  61.5956289  61.2184936   9.6143605  71.6725831  57.6370755
   9.5367635  72.6233656  57.7159235   9.0105248  71.3271703  58.2945681
  12.1060835  58.8453696  70.2932122  11.3294169  59.4047616  70.2834986
  12.7451398  59.3310479  70.8146992  19.8981615  55.6280489  64.1275098
  19.2555995  55.9213022  63.4814893  19.3936544  55.5133409  64.9328295
  17.5521779  59.3743662  54.8160957  18.4639635  59.6071049  54.6408655
  17.0431426  59.9580706  54.2536036  10.3607207  61.6539149  69.8550089
  11.1021891  62.1924193  69.5784912   9.6544192  62.2805438  70.0121640
  15.8362547  63.7968290  68.4522250  16.2445903  63.3550700  67.7076882
  15.1139808  63.2220917  68.7056443  12.1893617  58.7340897  65.8255807
  13.0354812  59.1580310  65.9690456  12.1292254  58.0774521  66.5194370
  16.1591361  64.3569480  62.2074539  15.5300224  64.5215195  61.5050607
  15.7717023  64.7711090  62.9785503  20.0380593  65.2923918  59.5618903
  19.3531631  65.6722820  59.0115936  20.1224442  65.9019245  60.2950850
  15.3393062  56.3945265  67.4836981  15.0953994  57.1487325  66.9471256
  15.6152992  56.7730613  68.3184228  17.2931525  62.9383877  66.1614246
  17.5048420  63.5815637  65.4848627  17.2461273  62.1046194  65.6936176
  14.8957754  55.5501698  63.0650818  14.0342233  55.8482952  63.3567556
  14.9220188  55.7672097  62.1331851  11.7119323  64.0943889  59.4724624
  12.1757669  64.3731592  58.6829247  11.4476121  63.1927333  59.2897715
   8.6043404  63.6415370  62.4104387   9.1744761  64.0702638  61.7721872
   9.1951516  63.3597955  63.1088573  10.6488209  60.2167041  56.2814189
  11.3512252  60.6688085  56.7488116  10.3168838  59.5750860  56.9094082
   9.0968571  58.8078798  70.6565399   8.4667231  59.4895078  70.8900795
   8.9904659  58.6961879  69.7118537   4.3913543  58.4750594  61.5831323
   3.6012597  58.7308122  61.1071433   4.8824790  59.2898931  61.6883363
  18.4077353  65.8155833  64.3336604  19.2294796  65.4136020  64.0519285
  18.4039756  65.7124067  65.2852719   6.3428288  58.8395173  58.5414799
   5.5459452  58.9513867  59.0598295   6.1153881  59.1781825  57.6755690
  12.1733956  65.3639876  66.4897314  12.2378389  65.8260283  67.3255486
  11.4644880  64.7337241  66.6179624   2.6751246  58.7281084  64.0146314
   2.9259285  59.6128094  64.2803889   3.2110794  58.5485686  63.2421405
  26.4983346  62.1594581  60.6821575  25.7447054  61.5901979  60.5265579
  26.6330887  62.1257246  61.6292210  11.8881974  67.0307984  56.3576294
  11.7527649  67.8759519  56.7861142  12.4291786  67.2327261  55.5942228
   8.3749313  53.1099563  73.0190650   7.9816259  52.5565762  73.6938294
   9.1915454  53.4210142  73.4097167   5.3411371  64.5483422  56.9304219
   5.8535892  65.3426672  57.0809784   5.9934084  63.8509712  56.8637821
   7.1506256  67.6649178  59.0126973   7.3272884  68.5867143  58.8247957
   7.9463089  67.3507597  59.4421352  11.2917274  54.5257442  70.6110906
  12.0326988  55.1264596  70.5315369  11.5235197  53.7835080  70.0528949
   6.4358612  59.7113810  68.8889136   6.3212128  58.8099067  69.1896235
   5.5803130  59.9577506  68.5373952  13.5150450  67.6531550  70.4876636
  13.0714304  66.8667929  70.1697541  14.1767664  67.8410701  69.8220527
   8.2737571  69.1827352  65.0137315   8.8244996  69.0544415  64.2414309
   7.4349047  69.4822241  64.6632208  15.6131688  67.9334350  68.5158038
  15.5950164  68.7543231  68.0238307  16.5351608  67.8088425  68.7408179
  12.0704742  65.4478479  69.3581546  12.6033079  64.6866768  69.1280854
  11.5418823  65.1552131  70.1005701  15.2374437  50.5538545  64.8875188
  14.8938707  51.4440187  64.8114298  15.6053400  50.3640203  64.0244773
   3.3060288  62.8772076  57.7063790   4.1435510  63.2869084  57.4897498
   3.4838556  61.9371518  57.6763984  15.2024720  60.5447157  53.3947623
  14.6871343  61.3151761  53.6336010  14.9302029  59.8712293  54.0180684
  12.7871831  55.3896857  58.4532861  11.9313427  55.0003708  58.2738500
  13.1998783  55.4688818  57.5932647  14.3170978  52.9243201  62.8524421
  13.8135773  52.8873336  62.0392226  14.6101585  53.8335943  62.9121078
  10.5613864  53.0081930  61.8590603  11.4266860  52.8124739  61.4996492
  10.6291373  52.7792282  62.7859960  20.1758994  63.2979511  55.3300796
  19.3988437  62.9590671  54.8855959  20.8550475  63.3032134  54.6555762
  14.9911023  58.4174249  55.2207404  14.6861159  58.7320398  56.0717547
  15.9441465  58.4955668  55.2634737  13.4357455  64.5764472  56.8700358
  12.9078817  63.8417232  56.5573596  12.9344958  65.3539148  56.6240326
  18.4150301  62.7713492  61.9867404  17.7573976  63.4612754  62.0747533
  19.2190700  63.1609924  62.3301391   8.1676183  55.2384138  59.2306970
   8.7419935  55.0159320  58.4980163   8.7547165  55.3072833  59.9835571
  17.2255760  61.1257865  60.0371346  17.7387642  61.7587857  60.5393056
  17.8756984  60.5259061  59.6714706   8.4945770  57.2688599  53.2502855
   7.6583082  57.6063286  53.5712130   8.3550539  57.1337579  52.3129992
  10.4698850  52.1125387  57.9582039   9.8163263  51.7974404  57.3338654
  10.4279325  51.4901128  58.6841862  11.5810055  62.3944682  49.8735331
  10.6737117  62.1633936  50.0726480  12.0781087  61.5982301  50.0609313
  14.4878134  71.1042189  52.7932017  13.8139833  71.4073886  53.4016975
  14.8743956  71.9071270  52.4437474  13.7036591  58.6007321  62.2829687
  12.7859152  58.8222268  62.1251375  14.1196734  58.6753631  61.4241394
  14.4871639  59.9998736  57.4132367  15.2343457  60.5120134  57.1039489
  14.7563228  59.6782789  58.2736761  12.7598289  62.4957277  54.3959321
  11.8509508  62.2116310  54.4931791  12.7893372  62.9156356  53.5362628
  17.9917556  66.1063867  58.1650489  17.5379883  65.2654776  58.2215679
  17.3611523  66.7425265  58.5025269  16.9350476  57.0355853  59.3951156
  16.1973232  56.5233239  59.7261399  17.1877249  56.5956234  58.5834433
  16.4350495  67.9440363  59.1000307  16.7273470  68.5045420  58.3812673
  16.9449116  68.2368924  59.8553466  17.0362103  49.8132105  59.9892926
  17.3420980  48.9529468  59.7018841  17.7614708  50.4049725  59.7891919
   3.3286459  60.2162791  58.3774523   3.1310859  59.6232152  57.6525590
   2.7733123  59.9115001  59.0950462  11.3083183  60.1085898  60.4969117
  11.3631793  59.1559734  60.4211593  10.4974385  60.2645337  60.9810415
  12.4574376  64.0366021  51.7347400  12.0193806  63.3201880  51.2753037
  13.1984817  64.2642136  51.1732491   9.2475543  58.7262957  58.2559495
   8.4343408  59.0257128  58.6624688   9.7434537  58.3318646  58.9733978
  11.3984121  68.7220714  60.1893760  11.3560299  68.9481561  59.2602292
  12.3146819  68.4884089  60.3379561  14.8449754  59.1904782  67.0874389
  15.1999142  59.4176255  67.9468855  15.4921886  59.5223159  66.4651645
  20.5747491  62.3123218  57.7923718  20.4365390  62.5024814  56.8644908
  20.2183710  63.0742601  58.2491770   8.7389617  56.2981313  63.8720730
   9.3788997  56.1570072  63.1743694   7.9067148  56.0115826  63.4959332
  20.6016871  64.3799745  62.8034990  21.0353378  64.2875034  63.6518044
  21.3148452  64.3557245  62.1655006   9.5149921  65.5983743  59.9855723
  10.3090520  65.1034063  59.7838298   8.8041614  65.0701606  59.6223428
  14.3344766  67.9801839  64.3368091  14.3881788  68.5492775  65.1045806
  13.4659547  68.1503724  63.9722128   5.8232685  59.7426825  56.0615476
   4.8930273  59.6811281  56.2785438   5.9190157  59.2202778  55.2652117
   5.7418234  56.2681638  58.6493717   6.0025051  57.1826971  58.5402878
   6.5635406  55.8006080  58.7990330   7.2143159  57.6819395  65.8192542
   7.8866213  57.4736757  65.1705191   6.3872946  57.4841481  65.3797774
  21.4632420  64.4223445  65.3367875  21.6568311  65.3269256  65.5827150
  21.3633039  63.9630864  66.1706460  13.1168731  54.3081336  67.8358203
  12.4696646  55.0071286  67.7422679  13.8869747  54.7417480  68.2034451
  16.5247529  64.5730188  70.9108756  16.3733036  64.3440740  69.9938840
  16.5152209  65.5300790  70.9240101  13.2932866  62.1462101  65.8955022
  14.2224926  62.2973261  65.7223990  12.8723896  62.2346122  65.0403669
  12.0921197  66.1712765  63.6653560  11.9532283  65.8031550  64.5379498
  11.3035794  66.6860405  63.4937518  12.6869349  71.2721862  55.0079097
  12.8621105  70.8009905  55.8224719  12.0002137  71.8987628  55.2360357
  13.6426412  65.5494368  61.0542398  13.3076245  65.5095138  61.9500048
  13.1430358  64.8839084  60.5812808   7.6170656  60.9561998  66.5794979
   7.4790454  60.2242237  67.1806518   8.5275580  60.8670898  66.2979167
  16.5785604  62.8950402  51.3279457  15.9614775  62.1697231  51.2312510
  16.1102093  63.6559763  50.9846532  10.2452957  60.6681957  66.0678659
  10.9552576  60.0275150  66.0265277  10.2022265  60.9194852  66.9904839
  18.2339736  67.6049311  68.9885238  18.1752282  66.9208531  68.3215821
  18.6359254  68.3468301  68.5365864   8.9581891  57.6547175  67.8874298
   8.4219248  57.2037914  68.5395894   8.3698600  57.7893084  67.1444762
   7.2530435  74.4211225  61.7818957   7.4927033  75.0529749  62.4597975
   6.4099631  74.0699265  62.0684316   8.3684150  57.1135827  50.4500762
   7.4913616  56.9924627  50.0863008   8.8441903  56.3221905  50.1979650
  18.2357143  65.5688895  67.2199217  17.3483922  65.2314816  67.3425616
  18.8055694  64.8371926  67.4567983   4.6921012  56.7903183  64.9727293
   4.6079201  56.1828853  64.2377702   3.8703719  57.2812201  64.9736789
  11.7658296  70.2290347  64.1860461  11.6928468  71.0345319  64.6979765
  11.3235690  70.4282313  63.3608482  11.5548076  69.4662117  57.6963282
  10.7715598  70.0083797  57.7901507  12.2540821  69.9836097  58.0957523
  14.8644726  55.2756746  60.3397488  15.3613426  54.5226709  60.0198558
  14.0931708  55.3121063  59.7740697  22.7174484  60.9797112  61.9815779
  22.7064360  61.8621827  61.6109712  21.8491863  60.6268663  61.7870316
  14.2256980  70.1277181  66.3418619  14.9384952  70.7624646  66.2694521
  13.7347009  70.2241047  65.5258621  15.9474507  64.0328434  57.9135911
  15.0130786  64.1529896  57.7440615  16.1251175  63.1300900  57.6495921
  11.4479695  57.4174129  60.0669172  11.0777482  56.8645170  60.7550078
  11.9438787  56.8132263  59.5144172  19.3347058  59.8745753  58.4485945
  19.8007510  60.7073745  58.3746248  19.7854559  59.4090735  59.1531204
   9.2768893  67.8771625  67.1624190   9.9778353  68.5108107  67.3153584
   8.8064008  68.2186356  66.4019829  17.4023289  66.2189574  55.4472097
  17.6783133  66.1046169  56.3565971  16.5327788  65.8207059  55.4084270
  17.3063721  52.2426340  62.4876846  16.3926801  52.4730567  62.6559053
  17.7356822  52.3264784  63.3390879  17.0770179  60.4316232  64.9876741
  16.4241630  60.6792139  64.3329193  17.4550559  59.6180370  64.6539218
  14.0377353  70.4675925  59.0904911  14.2199748  69.6497581  59.5532663
  14.8610339  70.6843617  58.6529801  14.3719519  69.3944110  56.3519959
  14.9007285  68.8836565  55.7390121  14.6347738  69.0786640  57.2165492
  13.1257752  61.1736043  71.4742778  12.4498389  61.0730172  72.1445153
  13.9485386  61.0175257  71.9378775   4.8736612  67.4107980  64.0955293
   5.4590048  66.6651667  64.2283197   4.6761450  67.7211936  64.9791957
   7.7275267  70.4459227  59.1117735   7.0585642  70.9305355  58.6281775
   7.5888136  70.6928447  60.0261114  11.8680535  72.4802970  65.7100394
  12.4198843  72.6434592  66.4749479  12.2086729  73.0707408  65.0380418
   6.8445029  54.8278120  66.3122278   6.9086355  55.6892951  65.8999676
   6.7812149  54.2152122  65.5794637   6.3197301  56.9001253  69.9595313
   6.9469340  56.5178330  70.5732837   5.4625220  56.6815455  70.3251005
  16.7191410  67.3064228  71.5649048  17.2631314  67.9194186  71.0704003
  16.1378255  67.8643806  72.0816061   3.0962844  58.7077682  55.8913667
   3.3916285  57.7988360  55.8380721   2.1950880  58.6865421  55.5694670
  15.0048923  70.4284946  62.6964076  14.8800062  69.6274686  62.1875021
  15.6628014  70.9231139  62.2078046   6.6257091  56.7833678  61.8741216
   5.9043677  57.3969646  61.7348689   7.4150347  57.3191443  61.7957862
  17.0683831  68.2293966  64.3243626  16.1214167  68.1099317  64.2521953
  17.4166604  67.3416464  64.4069887   9.4283404  54.1188105  68.1481868
   9.9517806  54.3650402  68.9108177   9.2095738  54.9508140  67.7285005
   4.8250685  56.3891780  56.0152993   4.4963392  55.5089158  55.8328098
   5.1790056  56.3339448  56.9029382  14.0730264  68.0246682  60.5247978
  13.9255227  67.0963390  60.7055548  14.8983758  68.0466773  60.0405053
   7.9392509  56.6764749  56.3828470   8.2788581  57.2050671  55.6607079
   8.3864629  57.0145155  57.1587037  17.6764386  68.8475241  61.6112851
  18.6010934  68.6418102  61.4737302  17.5079690  68.5991642  62.5202192
  10.6335949  55.0601800  65.8331538  10.2932770  54.2609613  66.2352218
   9.9274956  55.3603511  65.2608371  11.2852421  52.1451113  64.2858861
  12.1078491  51.6711591  64.1637752  11.5290485  52.9241596  64.7857548
   9.9260656  55.1739371  54.5821763  10.6469018  55.5520624  54.0785480
   9.3025960  55.8928248  54.6856741  14.0691779  55.8784520  55.5180095
  14.2855393  56.7609158  55.2168923  13.5885846  55.4870733  54.7885737
   8.8091000  58.8370233  62.0950840   8.6635581  59.1510536  62.9875121
   8.3316204  59.4555133  61.5421739  10.6687383  55.8272781  62.1431729
  10.6548952  54.9313874  61.8064027  11.3859811  55.8343445  62.7770015
  12.5213514  56.2610121  64.1884857  12.2631291  57.1827192  64.1869187
  11.9898554  55.8640556  64.8785321  17.4659702  69.3660908  56.9674942
  17.6396580  68.8007331  56.2148795  17.9588594  70.1661803  56.7854432
   3.2836662  61.3775578  65.0338501   2.7390130  62.1535386  65.1658775
   4.1616012  61.7246382  64.8757623  10.0724279  54.7087161  57.4119300
  10.1940190  53.7803808  57.6110187   9.7826321  54.7225847  56.4997615
  12.9415469  52.3942072  60.5486019  12.9637166  52.4581405  59.5937999
  13.3583528  51.5546581  60.7426526  23.3199094  62.1297331  58.5865242
  23.7630240  61.3804657  58.1884365  22.4425604  62.1207468  58.2038974
  18.4534875  68.6827673  54.0671841  19.1485779  69.3034366  54.2859155
  18.7958025  67.8323024  54.3424218   4.0702684  60.5045474  67.9268658
   3.3284420  60.6528109  68.5133288   3.7495428  60.7653739  67.0635407
  20.3526298  66.1327378  55.5959171  20.8777622  66.4714651  54.8708491
  20.2648651  65.1974394  55.4122306  12.0146347  70.0461452  67.7249048
  12.3233473  69.8010599  68.5971748  12.8121829  70.2508091  67.2367918
  12.0366959  72.1999362  59.9554424  11.5971949  71.7075740  60.6487281
  12.7875076  71.6572329  59.7146500   4.5159298  68.3910903  59.9579053
   5.3417318  68.0914674  59.5777696   4.1653350  67.6218525  60.4068841
   9.4840831  67.7437371  62.0276726   8.8620840  67.0808076  61.7278954
  10.1545698  67.7698503  61.3450374   2.7167903  66.3097229  60.9167986
   1.8799811  65.8819403  60.7351987   2.6891548  66.5029672  61.8538777
   9.5565358  56.2219159  71.6209232   9.6053514  57.0981282  71.2387002
  10.0987873  55.6796552  71.0480875  20.0420204  66.7660282  70.9010369
  19.2515748  66.7484421  70.3614869  19.8053559  67.3048576  71.6559406
  20.1618079  63.6152748  68.2143098  20.2116084  63.4502756  69.1558621
  20.0532002  62.7480007  67.8240979   9.0454338  66.2941294  55.5035187
   9.1942458  66.9776758  54.8501859   9.8520781  66.2746384  56.0184642
  17.4521841  59.5983676  69.5302405  18.3531704  59.4590141  69.2386402
  17.5269816  59.7638131  70.4700582  11.7864647  56.9750531  68.3755591
  10.9167956  57.2684097  68.1038179  12.0224127  57.5590976  69.0962854
  21.6636276  66.0349690  68.4585119  21.3721084  66.3979670  69.2948580
  21.0508407  65.3216698  68.2798451  22.8631958  63.6002570  60.9787690
  23.6978850  64.0392374  61.1425250  22.9991087  63.1241223  60.1595935
  19.9123464  61.1582305  66.9265177  20.3877586  61.3509951  66.1184029
  18.9889030  61.2141490  66.6808561   6.8006971  62.3206472  56.5096256
   6.5553013  61.4168802  56.7076466   6.9702885  62.3223622  55.5675734
  14.4903681  53.1930148  65.8921011  15.0085625  53.9291175  65.5667500
  14.1358813  53.4994141  66.7267770   6.0702618  58.0534829  54.0082417
   5.3771863  58.1279184  53.3522453   5.8254370  57.2895173  54.5303934
  14.7416275  49.6130431  61.4121908  15.0218029  48.9453620  62.0382334
  15.5266882  49.8059526  60.8996572  12.5449743  68.7889425  52.9746934
  11.9723710  69.4079612  52.5217406  13.1182537  69.3388786  53.5086856
  18.6125133  58.0348065  65.1593483  19.5642556  58.1346162  65.1805707
  18.4428584  57.2426333  65.6691567  16.6339513  55.1203648  65.3452884
  16.0389445  55.4008661  64.6499372  16.3489209  55.6097549  66.1169625
  15.7647003  69.0726575  54.1055516  16.6977676  69.0072136  54.3088392
  15.6770216  69.9082842  53.6470049  18.3935020  68.3892445  51.0659464
  18.3148651  68.0552309  51.9595222  19.2144687  68.8814213  51.0650936
  21.0913211  61.2554184  64.2735783  21.0589531  60.3170185  64.4595466
  21.7013835  61.3338221  63.5401607  12.9296542  60.1250237  50.3162987
  13.8755647  59.9956445  50.3851405  12.5510787  59.3864899  50.7932415
  21.2407699  58.0465228  64.3194066  20.7246748  57.2623684  64.1323995
  22.1247648  57.7183944  64.4840585  18.9018426  51.7906243  60.2789878
  18.7043247  51.4821332  61.1633210  19.5118132  52.5167882  60.4087808
  26.9089761  62.3170191  63.4141819  27.6393149  62.0555479  63.9749523
  26.2996706  61.5798913  63.4543887  24.9905058  60.4578054  64.0116271
  24.2638222  60.3234019  63.4032762  24.5752345  60.7654882  64.8172989
  12.8135234  64.1767983  71.7763644  13.7338244  64.3546582  71.9703690
  12.7784817  63.2324029  71.6243343  11.1139459  58.0500214  50.2517872
  10.2070914  57.7533326  50.3280585  11.3915440  57.7530032  49.3852158
   2.0317399  59.3706577  60.7016918   1.7120184  58.5171885  60.4091292
   1.4850828  59.5855155  61.4574886   5.8097307  62.0869018  64.4186425
   6.0283317  63.0186126  64.4374459   6.2223081  61.7276993  65.2041229
  12.7301525  52.5937103  56.4062113  11.9202253  52.2484188  56.7817359
  13.4185942  52.2844647  56.9949725  14.6592073  51.6715150  58.0286410
  15.2123112  52.0910604  58.6876433  14.8962159  50.7450898  58.0709366
  10.6825172  57.6602224  73.8089174  10.5821899  58.6096581  73.7401265
  10.4646714  57.3320463  72.9365244   9.8838244  54.9087149  50.3929851
  10.7457408  55.2342047  50.6525668  10.0688588  54.1218645  49.8802917
   1.9005659  62.9909489  62.6710040   1.2069131  62.5763441  62.1579994
   2.6478650  63.0330025  62.0743459  18.0370880  53.7815675  57.5365074
  17.4569549  54.4400479  57.1543126  17.7706813  52.9593020  57.1252492
  16.4874446  53.1820733  59.7386394  16.9874225  53.2937268  58.9300713
  17.1310054  52.8781786  60.3787203  10.5456442  61.0899363  72.6254235
  10.0623524  61.8899723  72.8318124  10.6317381  61.1007308  71.6721679
   3.8142402  62.9227742  60.5476055   3.7913090  63.0215430  59.5957938
   4.1243038  63.7692893  60.8693221   6.4729780  64.9803897  64.6622669
   7.4273033  64.9487840  64.5952601   6.2742303  64.5194521  65.4772895
   7.0629162  63.5505013  67.2293467   7.8822051  64.0449092  67.2528304
   7.3365970  62.6336982  67.2011034  16.8195758  55.9415766  56.5921422
  15.9321613  56.2265416  56.3741617  17.2349747  55.7809529  55.7448699
  20.1710294  55.9662287  60.3075762  20.9470684  56.4558739  60.5800378
  19.4458428  56.3920341  60.7647631  22.6082853  56.6789906  61.3649702
  23.2027344  56.4385642  60.6543010  22.6809437  55.9597037  61.9923238
   4.8280009  70.5223517  61.6792867   4.6934476  69.7623918  61.1130865
   4.4112071  71.2464417  61.2121656  15.9638972  65.7060440  50.6869442
  16.6674822  65.9110443  51.3027098  15.2401620  66.2737202  50.9518526
  16.7936782  61.4570302  56.8071712  16.7371983  61.9138853  55.9679345
  17.3465124  60.6960986  56.6294555  20.6041588  57.2460034  57.6321832
  20.3478522  56.8456669  58.4630040  19.9794456  57.9603827  57.5071971
  24.9153926  59.9856107  60.1393123  24.3553484  60.0549296  60.9124685
  24.3097429  59.8097091  59.4192620   7.9849134  71.4192834  61.8911310
   7.8681519  72.3638266  61.7890000   7.1641581  71.1166395  62.2797109
  17.8725669  66.1442970  52.7367902  18.7071273  65.7124168  52.5545377
  17.7110012  65.9724983  53.6644797  17.5271561  62.6475083  54.1024242
  17.4720365  62.4819354  53.1612686  16.9017616  63.3551116  54.2586431
   2.3164076  57.8843147  67.9285664   2.9622940  57.3742101  68.4172889
   2.1081227  58.6211829  68.5029089  14.8417468  64.9523995  73.4277804
  15.7108628  65.1264647  73.0664439  14.3624220  65.7718412  73.3053534
  10.8367687  52.1483192  53.6809560  10.8246356  53.0925032  53.8377831
  11.7291108  51.9653337  53.3869021   9.0103649  72.0721096  65.1067238
   9.9130895  72.1044706  65.4233733   8.7841019  71.1421547  65.1213574
  10.7657251  70.8252082  61.7677317   9.8152882  70.8253944  61.6541689
  11.0689737  70.0784817  61.2513351  14.6519806  48.7425969  57.9355497
  13.8852202  48.1884455  58.0812179  15.0630511  48.8147837  58.7969648
   6.6561567  55.0310764  72.0260678   7.5193029  54.6747569  72.2364003
   6.0826978  54.6924659  72.7136082  23.3099650  76.6140049  62.7684604
  22.9718162  76.4981114  61.8805139  24.1789419  76.2131214  62.7485610
  19.1686466  78.4675525  58.7581495  18.6051331  78.3765462  57.9897782
  19.0538861  77.6475430  59.2383987  23.7919433  77.7674901  68.7270809
  23.7808074  77.3727699  67.8551313  23.9540073  77.0340973  69.3204581
  16.7150898  79.9626717  61.5965715  17.5072190  79.6217542  61.1812014
  16.9547548  80.0721692  62.5167869  24.7486025  82.1346493  54.0695960
  24.0974004  82.7200573  53.6829973  25.5430388  82.6652688  54.1290997
  18.6741652  79.2235630  54.4683094  19.4472528  78.6764617  54.3295970
  19.0267051  80.0879879  54.6797555  20.5126694  80.5512012  67.6749993
  20.2216560  81.4557643  67.5596660  21.1483679  80.5928540  68.3894063
  21.4382901  77.9288861  64.2651353  22.0346474  77.7044883  63.5508316
  21.4957873  77.1873606  64.8676801  21.0107930  75.3828296  52.1001544
  21.2633450  74.8609818  51.3385007  20.0732489  75.2194442  52.2028228
  26.0551213  74.3864075  59.9076287  26.8414302  73.9683498  59.5566704
  26.3189917  75.2910167  60.0757936  26.2261290  79.8236925  54.6064944
  25.5907123  79.8971551  55.3185849  25.8958696  80.4130524  53.9284023
  20.7304218  77.2856402  54.3025919  20.6140477  76.6101306  54.9707003
  20.8406478  76.7988776  53.4858072  23.0735759  76.7466549  58.0072608
  22.7093967  76.2197170  58.7185530  23.9302875  76.3565018  57.8339094
  28.9785060  68.0360882  65.2703874  28.6468385  68.9056293  65.0465089
  28.3830673  67.7197166  65.9497905  22.7141246  71.7756449  53.0033957
  22.8815649  72.6436685  53.3704428  22.5238415  71.9383731  52.0795246
  18.9229061  76.6887225  60.7036491  17.9979557  76.5563439  60.9114183
  19.1713474  77.4681444  61.2006434  28.8713723  72.7555968  62.3497224
  27.9630601  72.6871377  62.0555985  28.8201319  73.2327913  63.1779050
  22.6930467  74.2314106  53.9880623  22.5730092  74.6771157  54.8266104
  21.9983056  74.5799424  53.4294162  16.2837872  76.3320498  61.5380280
  16.4130253  76.5854977  62.4519692  15.6035323  76.9248206  61.2184936
  20.4537359  87.0017748  57.6370755  20.3761389  87.9525573  57.7159235
  19.8499003  86.6563621  58.2945681  22.9454589  74.1745614  70.2932122
  22.1687923  74.7339534  70.2834986  23.5845152  74.6602397  70.8146992
  28.3915533  74.7035580  54.8160957  29.3033390  74.9362966  54.6408655
  27.8825180  75.2872624  54.2536036  21.2000961  76.9831067  69.8550089
  21.9415646  77.5216111  69.5784912  20.4937947  77.6097356  70.0121640
  23.0287371  74.0632814  65.8255807  23.8748566  74.4872228  65.9690456
  22.9686009  73.4066439  66.5194370  26.1786816  71.7237183  67.4836981
  25.9347748  72.4779243  66.9471256  26.4546747  72.1022530  68.3184228
  25.7351508  70.8793616  63.0650818  24.8735987  71.1774869  63.3567556
  25.7613943  71.0964015  62.1331851  22.5513078  79.4235806  59.4724624
  23.0151423  79.7023509  58.6829247  22.2869876  78.5219251  59.2897715
  19.4437159  78.9707288  62.4104387  20.0138516  79.3994556  61.7721872
  20.0345270  78.6889872  63.1088573  21.4881964  75.5458959  56.2814189
  22.1906007  75.9980002  56.7488116  21.1562592  74.9042777  56.9094082
  19.9362325  74.1370715  70.6565399  19.3060986  74.8186996  70.8900795
  19.8298413  74.0253797  69.7118537  15.2307298  73.8042511  61.5831323
  14.4406352  74.0600040  61.1071433  15.7218545  74.6190849  61.6883363
  17.1822043  74.1687090  58.5414799  16.3853206  74.2805785  59.0598295
  16.9547635  74.5073743  57.6755690  23.0127711  80.6931794  66.4897314
  23.0772143  81.1552201  67.3255486  22.3038634  80.0629159  66.6179624
  13.5145001  74.0573002  64.0146314  13.7653039  74.9420012  64.2803889
  14.0504549  73.8777603  63.2421405  22.7275728  82.3599901  56.3576294
  22.5921403  83.2051437  56.7861142  23.2685541  82.5619179  55.5942228
  19.2143068  68.4391481  73.0190650  18.8210013  67.8857680  73.6938294
  20.0309208  68.7502060  73.4097167  16.1805126  79.8775339  56.9304219
  16.6929646  80.6718589  57.0809784  16.8327838  79.1801630  56.8637821
  17.9900010  82.9941096  59.0126973  18.1666639  83.9159060  58.8247957
  18.7856844  82.6799515  59.4421352  22.1311029  69.8549360  70.6110906
  22.8720742  70.4556513  70.5315369  22.3628952  69.1126998  70.0528949
  17.2752367  75.0405727  68.8889136  17.1605882  74.1390985  69.1896235
  16.4196885  75.2869424  68.5373952  24.3544205  82.9823468  70.4876636
  23.9108059  82.1959846  70.1697541  25.0161418  83.1702618  69.8220527
  19.1131326  84.5119269  65.0137315  19.6638751  84.3836333  64.2414309
  18.2742802  84.8114158  64.6632208  26.4525443  83.2626268  68.5158038
  26.4343918  84.0835149  68.0238307  27.3745363  83.1380343  68.7408179
  22.9098497  80.7770397  69.3581546  23.4426834  80.0158685  69.1280854
  22.3812578  80.4844049  70.1005701  26.0768192  65.8830463  64.8875188
  25.7332461  66.7732105  64.8114298  26.4447154  65.6932121  64.0244773
  14.1454042  78.2063994  57.7063790  14.9829264  78.6161002  57.4897498
  14.3232310  77.2663436  57.6763984  26.0418475  75.8739074  53.3947623
  25.5265098  76.6443679  53.6336010  25.7695783  75.2004210  54.0180684
  23.6265586  70.7188775  58.4532861  22.7707182  70.3295625  58.2738500
  24.0392537  70.7980736  57.5932647  25.1564732  68.2535118  62.8524421
  24.6529528  68.2165253  62.0392226  25.4495339  69.1627861  62.9121078
  21.4007618  68.3373848  61.8590603  22.2660615  68.1416657  61.4996492
  21.4685127  68.1084200  62.7859960  25.8304778  73.7466166  55.2207404
  25.5254913  74.0612315  56.0717547  26.7835220  73.8247586  55.2634737
  24.2751210  79.9056390  56.8700358  23.7472571  79.1709149  56.5573596
  23.7738712  80.6831066  56.6240326  19.0069937  70.5676056  59.2306970
  19.5813689  70.3451237  58.4980163  19.5940920  70.6364750  59.9835571
  19.3339524  72.5980517  53.2502855  18.4976837  72.9355203  53.5712130
  19.1944294  72.4629497  52.3129992  21.3092605  67.4417305  57.9582039
  20.6557017  67.1266322  57.3338654  21.2673079  66.8193045  58.6841862
  22.4203810  77.7236600  49.8735331  21.5130871  77.4925853  50.0726480
  22.9174842  76.9274219  50.0609313  25.3271889  86.4334107  52.7932017
  24.6533587  86.7365804  53.4016975  25.7137711  87.2363187  52.4437474
  24.5430345  73.9299238  62.2829687  23.6252907  74.1514185  62.1251375
  24.9590489  74.0045549  61.4241394  25.3265393  75.3290654  57.4132367
  26.0737212  75.8412051  57.1039489  25.5956983  75.0074707  58.2736761
  23.5992043  77.8249195  54.3959321  22.6903262  77.5408228  54.4931791
  23.6287127  78.2448273  53.5362628  27.7744230  72.3647770  59.3951156
  27.0366987  71.8525156  59.7261399  28.0271004  71.9248152  58.5834433
  27.2744250  83.2732281  59.1000307  27.5667224  83.8337338  58.3812673
  27.7842870  83.5660842  59.8553466  27.8755857  65.1424022  59.9892926
  28.1814734  64.2821386  59.7018841  28.6008462  65.7341642  59.7891919
  14.1680214  75.5454709  58.3774523  13.9704613  74.9524070  57.6525590
  13.6126878  75.2406919  59.0950462  22.1476937  75.4377815  60.4969117
  22.2025547  74.4851652  60.4211593  21.3368139  75.5937254  60.9810415
  23.2968131  79.3657938  51.7347400  22.8587561  78.6493797  51.2753037
  24.0378572  79.5934053  51.1732491  20.0869297  74.0554875  58.2559495
  19.2737163  74.3549046  58.6624688  20.5828291  73.6610564  58.9733978
  22.2377875  84.0512632  60.1893760  22.1954054  84.2773478  59.2602292
  23.1540574  83.8176007  60.3379561  19.5783372  71.6273231  63.8720730
  20.2182751  71.4861990  63.1743694  18.7460902  71.3407744  63.4959332
  20.3543676  80.9275661  59.9855723  21.1484274  80.4325981  59.7838298
  19.6435368  80.3993524  59.6223428  25.1738520  83.3093757  64.3368091
  25.2275543  83.8784693  65.1045806  24.3053302  83.4795642  63.9722128
  16.6626439  75.0718743  56.0615476  15.7324027  75.0103198  56.2785438
  16.7583911  74.5494696  55.2652117  16.5811988  71.5973556  58.6493717
  16.8418806  72.5118889  58.5402878  17.4029161  71.1297998  58.7990330
  18.0536914  73.0111313  65.8192542  18.7259967  72.8028675  65.1705191
  17.2266700  72.8133399  65.3797774  23.9562486  69.6373254  67.8358203
  23.3090401  70.3363203  67.7422679  24.7263501  70.0709398  68.2034451
  24.1326620  77.4754019  65.8955022  25.0618680  77.6265178  65.7223990
  23.7117650  77.5638039  65.0403669  22.9314952  81.5004683  63.6653560
  22.7926037  81.1323467  64.5379498  22.1429548  82.0152322  63.4937518
  23.5263104  86.6013779  55.0079097  23.7014859  86.1301823  55.8224719
  22.8395892  87.2279546  55.2360357  24.4820167  80.8786286  61.0542398
  24.1470000  80.8387056  61.9500048  23.9824113  80.2131002  60.5812808
  18.4564411  76.2853916  66.5794979  18.3184209  75.5534155  67.1806518
  19.3669334  76.1962816  66.2979167  27.4179359  78.2242320  51.3279457
  26.8008529  77.4989148  51.2312510  26.9495847  78.9851680  50.9846532
  21.0846712  75.9973875  66.0678659  21.7946330  75.3567067  66.0265277
  21.0416020  76.2486770  66.9904839  19.7975646  72.9839093  67.8874298
  19.2613003  72.5329831  68.5395894  19.2092354  73.1185002  67.1444762
  18.0924189  89.7503142  61.7818957  18.3320787  90.3821666  62.4597975
  17.2493386  89.3991182  62.0684316  19.2077905  72.4427744  50.4500762
  18.3307371  72.3216545  50.0863008  19.6835658  71.6513823  50.1979650
  10.7280045  77.2304904  60.5442269  11.4151084  76.9166634  59.9563284
  10.5728173  78.1346269  60.2709520  15.5314767  72.1195101  64.9727293
  15.4472956  71.5120770  64.2377702  14.7097473  72.6104119  64.9736789
  22.6052051  85.5582265  64.1860461  22.5322222  86.3637236  64.6979765
  22.1629444  85.7574231  63.3608482  22.3941831  84.7954035  57.6963282
  21.6109352  85.3375715  57.7901507  23.0934576  85.3128014  58.0957523
  25.7038481  70.6048664  60.3397488  26.2007180  69.8518626  60.0198558
  24.9325462  70.6412981  59.7740697  25.0650734  85.4569099  66.3418619
  25.7778707  86.0916564  66.2694521  24.5740763  85.5532965  65.5258621
  22.2873449  72.7466047  60.0669172  21.9171237  72.1937088  60.7550078
  22.7832542  72.1424181  59.5144172  20.1162648  83.2063542  67.1624190
  20.8172107  83.8400025  67.3153584  19.6457763  83.5478274  66.4019829
  28.2417044  81.5481492  55.4472097  28.5176888  81.4338087  56.3565971
  27.3721543  81.1498977  55.4084270  28.1457475  67.5718258  62.4876846
  27.2320555  67.8022485  62.6559053  28.5750577  67.6556702  63.3390879
  24.8771108  85.7967843  59.0904911  25.0593502  84.9789499  59.5532663
  25.7004094  86.0135535  58.6529801  25.2113273  84.7236028  56.3519959
  25.7401040  84.2128483  55.7390121  25.4741493  84.4078558  57.2165492
  23.9651507  76.5027961  71.4742778  23.2892144  76.4022090  72.1445153
  24.7879141  76.3467174  71.9378775  15.7130366  82.7399897  64.0955293
  16.2983803  81.9943585  64.2283197  15.5155204  83.0503854  64.9791957
  18.5669021  85.7751145  59.1117735  17.8979397  86.2597272  58.6281775
  18.4281891  86.0220365  60.0261114  10.3048021  75.3105497  62.8159736
  10.3432120  74.7769088  63.6096854   9.7988314  74.7840703  62.1970713
  22.7074290  87.8094888  65.7100394  23.2592598  87.9726510  66.4749479
  23.0480483  88.3999326  65.0380418  17.6838783  70.1570038  66.3122278
  17.7480110  71.0184869  65.8999676  17.6205903  69.5444040  65.5794637
  17.1591056  72.2293170  69.9595313  17.7863094  71.8470248  70.5732837
  16.3018974  72.0107372  70.3251005  13.9356598  74.0369600  55.8913667
  14.2310039  73.1280278  55.8380721  13.0344634  74.0157339  55.5694670
  25.8442677  85.7576864  62.6964076  25.7193817  84.9566604  62.1875021
  26.5021768  86.2523057  62.2078046  17.4650845  72.1125596  61.8741216
  16.7437431  72.7261564  61.7348689  18.2544101  72.6483361  61.7957862
  27.9077586  83.5585884  64.3243626  26.9607921  83.4391235  64.2521953
  28.2560359  82.6708382  64.4069887  20.2677159  69.4480023  68.1481868
  20.7911561  69.6942319  68.9108177  20.0489492  70.2800057  67.7285005
  15.6644440  71.7183697  56.0152993  15.3357146  70.8381076  55.8328098
  16.0183811  71.6631366  56.9029382  24.9124019  83.3538600  60.5247978
  24.7648981  82.4255307  60.7055548  25.7377512  83.3758691  60.0405053
  18.7786263  72.0056667  56.3828470  19.1182336  72.5342588  55.6607079
  19.2258384  72.3437073  57.1587037  28.5158141  84.1767159  61.6112851
  29.4404688  83.9710020  61.4737302  28.3473444  83.9283560  62.5202192
  21.4729704  70.3893718  65.8331538  21.1326524  69.5901531  66.2352218
  20.7668710  70.6895429  65.2608371  22.1246176  67.4743030  64.2858861
  22.9472245  67.0003508  64.1637752  22.3684239  68.2533514  64.7857548
  20.7654410  70.5031289  54.5821763  21.4862773  70.8812541  54.0785480
  20.1419714  71.2220165  54.6856741  24.9085533  71.2076438  55.5180095
  25.1249148  72.0901075  55.2168923  24.4279600  70.8162651  54.7885737
  19.6484755  74.1662151  62.0950840  19.5029335  74.4802454  62.9875121
  19.1709958  74.7847051  61.5421739  21.5081137  71.1564699  62.1431729
  21.4942706  70.2605792  61.8064027  22.2253565  71.1635363  62.7770015
  23.3607268  71.5902039  64.1884857  23.1025046  72.5119110  64.1869187
  22.8292308  71.1932474  64.8785321  28.3053457  84.6952826  56.9674942
  28.4790334  84.1299249  56.2148795  28.7982348  85.4953721  56.7854432
  14.1230417  76.7067495  65.0338501  13.5783885  77.4827303  65.1658775
  15.0009767  77.0538300  64.8757623  20.9118033  70.0379079  57.4119300
  21.0333945  69.1095725  57.6110187  20.6220076  70.0517765  56.4997615
  23.7809224  67.7233990  60.5486019  23.8030921  67.7873323  59.5937999
  24.1977283  66.8838498  60.7426526  29.2928629  84.0119591  54.0671841
  29.9879534  84.6326283  54.2859155  29.6351779  83.1614942  54.3424218
  14.9096439  75.8337391  67.9268658  14.1678175  75.9820027  68.5133288
  14.5889183  76.0945657  67.0635407  31.1920052  81.4619296  55.5959171
  31.7171377  81.8006569  54.8708491  31.1042405  80.5266311  55.4122306
  22.8540101  85.3753370  67.7249048  23.1627228  85.1302516  68.5971748
  23.6515583  85.5800008  67.2367918  22.8760713  87.5291279  59.9554424
  22.4365704  87.0367658  60.6487281  23.6268830  86.9864247  59.7146500
  15.3553052  83.7202820  59.9579053  16.1811072  83.4206592  59.5777696
  15.0047104  82.9510443  60.4068841  20.3234585  83.0729288  62.0276726
  19.7014595  82.4099993  61.7278954  20.9939452  83.0990420  61.3450374
  13.5561657  81.6389147  60.9167986  12.7193566  81.2111321  60.7351987
  13.5285303  81.8321590  61.8538777  20.3959113  71.5511076  71.6209232
  20.4447268  72.4273199  71.2387002  20.9381627  71.0088470  71.0480875
  19.8848092  81.6233212  55.5035187  20.0336213  82.3068676  54.8501859
  20.6914536  81.6038302  56.0184642  22.6258401  72.3042449  68.3755591
  21.7561711  72.5976015  68.1038179  22.8617882  72.8882894  69.0962854
  17.6400725  77.6498389  56.5096256  17.3946767  76.7460719  56.7076466
  17.8096640  77.6515540  55.5675734  25.3297435  68.5222066  65.8921011
  25.8479379  69.2583093  65.5667500  24.9752568  68.8286059  66.7267770
  16.9096373  73.3826747  54.0082417  16.2165618  73.4571102  53.3522453
  16.6648125  72.6187091  54.5303934  25.5810029  64.9422348  61.4121908
  25.8611783  64.2745537  62.0382334  26.3660636  65.1351444  60.8996572
  23.3843498  84.1181342  52.9746934  22.8117465  84.7371529  52.5217406
  23.9576291  84.6680704  53.5086856  27.4733267  70.4495566  65.3452884
  26.8783199  70.7300578  64.6499372  27.1882964  70.9389466  66.1169625
  26.6040758  84.4018492  54.1055516  27.5371431  84.3364054  54.3088392
  26.5163970  85.2374759  53.6470049  29.2328774  83.7184363  51.0659464
  29.1542406  83.3844226  51.9595222  30.0538441  84.2106131  51.0650936
  23.7690296  75.4542155  50.3162987  24.7149401  75.3248363  50.3851405
  23.3904541  74.7156817  50.7932415  29.7412181  67.1198161  60.2789878
  29.5437002  66.8113249  61.1633210  30.3511886  67.8459800  60.4087808
  23.6528989  79.5059901  71.7763644  24.5731998  79.6838500  71.9703690
  23.6178572  78.5615946  71.6243343  21.9533213  73.3792131  50.2517872
  21.0464669  73.0825244  50.3280585  22.2309194  73.0821949  49.3852158
  12.8711154  74.6998495  60.7016918  12.5513938  73.8463803  60.4091292
  12.3244582  74.9147073  61.4574886  16.6491061  77.4160936  64.4186425
  16.8677071  78.3478044  64.4374459  17.0616835  77.0568910  65.2041229
  23.5695279  67.9229021  56.4062113  22.7596007  67.5776106  56.7817359
  24.2579696  67.6136565  56.9949725  25.4985827  67.0007068  58.0286410
  26.0516866  67.4202521  58.6876433  25.7355914  66.0742816  58.0709366
  21.5218927  72.9894142  73.8089174  21.4215654  73.9388498  73.7401265
  21.3040469  72.6612380  72.9365244  20.7231998  70.2379067  50.3929851
  21.5851162  70.5633965  50.6525668  20.9082342  69.4510562  49.8802917
  12.7399414  78.3201406  62.6710040  12.0462885  77.9055359  62.1579994
  13.4872405  78.3621943  62.0743459  28.8764635  69.1107593  57.5365074
  28.2963304  69.7692397  57.1543126  28.6100567  68.2884938  57.1252492
  27.3268201  68.5112651  59.7386394  27.8267979  68.6229185  58.9300713
  27.9703809  68.2073704  60.3787203  21.3850197  76.4191280  72.6254235
  20.9017278  77.2191640  72.8318124  21.4711136  76.4299225  71.6721679
  14.6536156  78.2519660  60.5476055  14.6306844  78.3507347  59.5957938
  14.9636793  79.0984811  60.8693221  17.3123534  80.3095815  64.6622669
  18.2666788  80.2779757  64.5952601  17.1136058  79.8486439  65.4772895
  17.9022916  78.8796931  67.2293467  18.7215805  79.3741010  67.2528304
  18.1759724  77.9628899  67.2011034  27.6589513  71.2707683  56.5921422
  26.7715368  71.5557334  56.3741617  28.0743502  71.1101447  55.7448699
  31.0104049  71.2954204  60.3075762  31.7864439  71.7850657  60.5800378
  30.2852183  71.7212259  60.7647631  15.6673763  85.8515435  61.6792867
  15.5328231  85.0915835  61.1130865  15.2505825  86.5756334  61.2121656
  26.8032726  81.0352358  50.6869442  27.5068576  81.2402361  51.3027098
  26.0795375  81.6029120  50.9518526  18.8242889  86.7484752  61.8911310
  18.7075273  87.6930184  61.7890000  18.0035335  86.4458313  62.2797109
  28.7119423  81.4734887  52.7367902  29.5465027  81.0416086  52.5545377
  28.5503766  81.3016901  53.6644797  28.3665316  77.9767001  54.1024242
  28.3114119  77.8111272  53.1612686  27.7411371  78.6843034  54.2586431
  13.1557831  73.2135065  67.9285664  13.8016694  72.7034019  68.4172889
  12.9474982  73.9503747  68.5029089  25.6811223  80.2815912  73.4277804
  26.5502382  80.4556565  73.0664439  25.2017974  81.1010329  73.3053534
  21.6761441  67.4775110  53.6809560  21.6640111  68.4216950  53.8377831
  22.5684863  67.2945255  53.3869021  19.8497403  87.4013013  65.1067238
  20.7524650  87.4336624  65.4233733  19.6234773  86.4713464  65.1213574
  21.6051005  86.1544000  61.7677317  20.6546636  86.1545862  61.6541689
  21.9083491  85.4076735  61.2513351  25.4913561  64.0717886  57.9355497
  24.7245956  63.5176373  58.0812179  25.9024266  64.1439755  58.7969648
  17.4955322  70.3602682  72.0260678  18.3586783  70.0039487  72.2364003
  16.9220732  70.0216577  72.7136082  37.3403699  91.9904538  62.8323079
  37.9782108  91.8711286  62.1286419  37.2224541  92.9385382  62.8911031
  34.1493405  91.9431967  62.7684604  33.8111916  91.8273031  61.8805139
  35.0183173  91.5423132  62.7485610  30.0080221  93.7967443  58.7581495
  29.4445086  93.7057380  57.9897782  29.8932616  92.9767347  59.2383987
  34.6313188  93.0966818  68.7270809  34.6201829  92.7019617  67.8551313
  34.7933827  92.3632891  69.3204581  27.5544652  95.2918635  61.5965715
  28.3465944  94.9509459  61.1812014  27.7941303  95.4013610  62.5167869
  35.5879779  97.4638411  54.0695960  34.9367759  98.0492491  53.6829973
  36.3824142  97.9944606  54.1290997  29.5135406  94.5527548  54.4683094
  30.2866282  94.0056535  54.3295970  29.8660805  95.4171797  54.6797555
  31.3520449  95.8803930  67.6749993  31.0610315  96.7849561  67.5596660
  31.9877433  95.9220458  68.3894063  32.2776656  93.2580779  64.2651353
  32.8740228  93.0336801  63.5508316  32.3351627  92.5165524  64.8676801
  31.8501684  90.7120214  52.1001544  32.1027205  90.1901735  51.3385007
  30.9126243  90.5486359  52.2028228  36.8944967  89.7155992  59.9076287
  37.6808056  89.2975415  59.5566704  37.1583671  90.6202084  60.0757936
  37.0655044  95.1528843  54.6064944  36.4300877  95.2263469  55.3185849
  36.7352451  95.7422441  53.9284023  42.2953394  89.6531225  60.8109266
  43.0278566  89.0830442  61.0447095  41.5392750  89.2652826  61.2515771
  31.5697973  92.6148320  54.3025919  31.4534231  91.9393223  54.9707003
  31.6800233  92.1280694  53.4858072  33.9129514  92.0758467  58.0072608
  33.5487721  91.5489088  58.7185530  34.7696630  91.6856936  57.8339094
  33.5535001  87.1048367  53.0033957  33.7209403  87.9728603  53.3704428
  33.3632170  87.2675648  52.0795246  36.3110334  95.5665346  64.6699787
  36.0111057  96.4690384  64.5615594  35.9661394  95.2997529  65.5220940
  29.7622816  92.0179142  60.7036491  28.8373312  91.8855357  60.9114183
  30.0107229  92.7973362  61.2006434  39.7107478  88.0847886  62.3497224
  38.8024355  88.0163294  62.0555985  39.6595074  88.5619831  63.1779050
  33.5324222  89.5606024  53.9880623  33.4123847  90.0063075  54.8266104
  32.8376810  89.9091342  53.4294162  27.1231627  91.6612416  61.5380280
  27.2524008  91.9146895  62.4519692  26.4429078  92.2540124  61.2184936
  31.2931114 102.3309666  57.6370755  31.2155144 103.2817491  57.7159235
  30.6892757 101.9855538  58.2945681  33.7848344  89.5037531  70.2932122
  33.0081678  90.0631451  70.2834986  34.4238907  89.9894314  70.8146992
  41.5769124  86.2864324  64.1275098  40.9343504  86.5796857  63.4814893
  41.0724053  86.1717244  64.9328295  39.2309288  90.0327497  54.8160957
  40.1427144  90.2654884  54.6408655  38.7218935  90.6164542  54.2536036
  32.0394716  92.3122985  69.8550089  32.7809400  92.8508029  69.5784912
  31.3331701  92.9389273  70.0121640  37.5150056  94.4552125  68.4522250
  37.9233412  94.0134536  67.7076882  36.7927317  93.8804753  68.7056443
  33.8681126  89.3924732  65.8255807  34.7142321  89.8164145  65.9690456
  33.8079763  88.7358356  66.5194370  37.8378870  95.0153316  62.2074539
  37.2087733  95.1799030  61.5050607  37.4504532  95.4294925  62.9785503
  41.7168102  95.9507754  59.5618903  41.0319140  96.3306655  59.0115936
  41.8011951  96.5603080  60.2950850  37.0180571  87.0529100  67.4836981
  36.7741503  87.8071161  66.9471256  37.2940501  87.4314448  68.3184228
  38.9719034  93.5967713  66.1614246  39.1835929  94.2399473  65.4848627
  38.9248782  92.7630029  65.6936176  36.5745263  86.2085533  63.0650818
  35.7129742  86.5066787  63.3567556  36.6007697  86.4255932  62.1331851
  33.3906832  94.7527724  59.4724624  33.8545178  95.0315427  58.6829247
  33.1263630  93.8511168  59.2897715  30.2830913  94.2999205  62.4104387
  30.8532270  94.7286474  61.7721872  30.8739025  94.0181790  63.1088573
  32.3275718  90.8750876  56.2814189  33.0299761  91.3271920  56.7488116
  31.9956347  90.2334695  56.9094082  30.7756080  89.4662633  70.6565399
  30.1454740  90.1478914  70.8900795  30.6692168  89.3545714  69.7118537
  26.0701052  89.1334429  61.5831323  25.2800106  89.3891957  61.1071433
  26.5612299  89.9482767  61.6883363  40.0864862  96.4739668  64.3336604
  40.9082305  96.0719855  64.0519285  40.0827265  96.3707902  65.2852719
  28.0215797  89.4979008  58.5414799  27.2246961  89.6097702  59.0598295
  27.7941390  89.8365660  57.6755690  33.8521465  96.0223711  66.4897314
  33.9165898  96.4844119  67.3255486  33.1432389  95.3921076  66.6179624
  24.3538755  89.3864919  64.0146314  24.6046793  90.2711929  64.2803889
  24.8898303  89.2069521  63.2421405  48.1770855  92.8178417  60.6821575
  47.4234563  92.2485815  60.5265579  48.3118396  92.7841081  61.6292210
  33.5669483  97.6891819  56.3576294  33.4315158  98.5343355  56.7861142
  34.1079295  97.8911097  55.5942228  27.0198880  95.2067257  56.9304219
  27.5323401  96.0010507  57.0809784  27.6721593  94.5093547  56.8637821
  28.8293765  98.3233013  59.0126973  29.0060393  99.2450978  58.8247957
  29.6250598  98.0091432  59.4421352  32.9704783  85.1841278  70.6110906
  33.7114497  85.7848431  70.5315369  33.2022706  84.4418916  70.0528949
  28.1146121  90.3697645  68.8889136  27.9999637  89.4682902  69.1896235
  27.2590639  90.6161342  68.5373952  35.1937959  98.3115385  70.4876636
  34.7501813  97.5251764  70.1697541  35.8555173  98.4994536  69.8220527
  29.9525080  99.8411187  65.0137315  30.5032505  99.7128250  64.2414309
  29.1136556 100.1406076  64.6632208  37.2919197  98.5918185  68.5158038
  37.2737673  99.4127066  68.0238307  38.2139117  98.4672261  68.7408179
  33.7492251  96.1062315  69.3581546  34.2820588  95.3450603  69.1280854
  33.2206332  95.8135967  70.1005701  24.9847797  93.5355911  57.7063790
  25.8223019  93.9452920  57.4897498  25.1626065  92.5955353  57.6763984
  36.8812229  91.2030992  53.3947623  36.3658852  91.9735596  53.6336010
  36.6089537  90.5296128  54.0180684  34.4659340  86.0480693  58.4532861
  33.6100936  85.6587543  58.2738500  34.8786292  86.1272653  57.5932647
  32.2401373  83.6665766  61.8590603  33.1054369  83.4708574  61.4996492
  32.3078881  83.4376117  62.7859960  41.8546503  93.9563347  55.3300796
  41.0775946  93.6174506  54.8855959  42.5337984  93.9615970  54.6555762
  36.6698532  89.0758084  55.2207404  36.3648668  89.3904233  56.0717547
  37.6228974  89.1539504  55.2634737  35.1144964  95.2348307  56.8700358
  34.5866326  94.5001067  56.5573596  34.6132467  96.0122984  56.6240326
  40.0937810  93.4297328  61.9867404  39.4361485  94.1196589  62.0747533
  40.8978209  93.8193760  62.3301391  29.8463692  85.8967974  59.2306970
  30.4207444  85.6743155  58.4980163  30.4334674  85.9656668  59.9835571
  38.9043269  91.7841700  60.0371346  39.4175151  92.4171692  60.5393056
  39.5544493  91.1842896  59.6714706  30.1733279  87.9272435  53.2502855
  29.3370591  88.2647121  53.5712130  30.0338048  87.7921414  52.3129992
  32.1486359  82.7709222  57.9582039  31.4950772  82.4558240  57.3338654
  32.1066834  82.1484963  58.6841862  33.2597564  93.0528518  49.8735331
  32.3524626  92.8217771  50.0726480  33.7568596  92.2566137  50.0609313
  36.1665643 101.7626025  52.7932017  35.4927342 102.0657721  53.4016975
  36.5531465 102.5655105  52.4437474  35.3824100  89.2591156  62.2829687
  34.4646661  89.4806103  62.1251375  35.7984243  89.3337466  61.4241394
  36.1659147  90.6582572  57.4132367  36.9130966  91.1703969  57.1039489
  36.4350737  90.3366624  58.2736761  34.4385798  93.1541112  54.3959321
  33.5297017  92.8700145  54.4931791  34.4680881  93.5740191  53.5362628
  39.6705065  96.7647702  58.1650489  39.2167392  95.9238612  58.2215679
  39.0399032  97.4009100  58.5025269  38.6137985  87.6939688  59.3951156
  37.8760741  87.1817074  59.7261399  38.8664758  87.2540070  58.5834433
  38.1138004  98.6024199  59.1000307  38.4060979  99.1629256  58.3812673
  38.6236625  98.8952760  59.8553466  38.7149612  80.4715940  59.9892926
  39.0208489  79.6113303  59.7018841  39.4402217  81.0633560  59.7891919
  25.0073968  90.8746627  58.3774523  24.8098368  90.2815987  57.6525590
  24.4520632  90.5698837  59.0950462  32.9870692  90.7669733  60.4969117
  33.0419301  89.8143569  60.4211593  32.1761894  90.9229172  60.9810415
  34.1361885  94.6949856  51.7347400  33.6981315  93.9785715  51.2753037
  34.8772326  94.9225971  51.1732491  30.9263052  89.3846793  58.2559495
  30.1130917  89.6840963  58.6624688  31.4222046  88.9902482  58.9733978
  33.0771630  99.3804550  60.1893760  33.0347808  99.6065396  59.2602292
  33.9934328  99.1467924  60.3379561  36.5237263  89.8488617  67.0874389
  36.8786651  90.0760090  67.9468855  37.1709395  90.1806994  66.4651645
  42.2535000  92.9707053  57.7923718  42.1152899  93.1608649  56.8644908
  41.8971219  93.7326436  58.2491770  30.4177126  86.9565148  63.8720730
  31.0576506  86.8153907  63.1743694  29.5854657  86.6699662  63.4959332
  42.2804380  95.0383580  62.8034990  42.7140887  94.9458869  63.6518044
  42.9935961  95.0141081  62.1655006  31.1937430  96.2567579  59.9855723
  31.9878029  95.7617899  59.7838298  30.4829123  95.7285442  59.6223428
  36.0132275  98.6385674  64.3368091  36.0669297  99.2076611  65.1045806
  35.1447056  98.8087559  63.9722128  27.5020194  90.4010660  56.0615476
  26.5717782  90.3395116  56.2785438  27.5977666  89.8786613  55.2652117
  27.4205743  86.9265473  58.6493717  27.6812560  87.8410807  58.5402878
  28.2422915  86.4589916  58.7990330  28.8930668  88.3403230  65.8192542
  29.5653722  88.1320593  65.1705191  28.0660455  88.1425316  65.3797774
  43.1419929  95.0807281  65.3367875  43.3355820  95.9853091  65.5827150
  43.0420548  94.6214700  66.1706460  34.7956240  84.9665171  67.8358203
  34.1484155  85.6655121  67.7422679  35.5657256  85.4001315  68.2034451
  38.2035038  95.2314024  70.9108756  38.0520545  95.0024575  69.9938840
  38.1939718  96.1884625  70.9240101  34.9720375  92.8045936  65.8955022
  35.9012435  92.9557096  65.7223990  34.5511405  92.8929957  65.0403669
  33.7708706  96.8296601  63.6653560  33.6319792  96.4615385  64.5379498
  32.9823303  97.3444240  63.4937518  34.3656858 101.9305697  55.0079097
  34.5408614 101.4593740  55.8224719  33.6789646 102.5571463  55.2360357
  35.3213921  96.2078203  61.0542398  34.9863754  96.1678973  61.9500048
  34.8217867  95.5422919  60.5812808  29.2958165  91.6145833  66.5794979
  29.1577963  90.8826072  67.1806518  30.2063089  91.5254734  66.2979167
  38.2573113  93.5534238  51.3279457  37.6402284  92.8281066  51.2312510
  37.7889602  94.3143598  50.9846532  31.9240466  91.3265793  66.0678659
  32.6340085  90.6858985  66.0265277  31.8809774  91.5778688  66.9904839
  39.9127245  98.2633146  68.9885238  39.8539791  97.5792366  68.3215821
  40.3146763  99.0052136  68.5365864  30.6369400  88.3131011  67.8874298
  30.1006757  87.8621749  68.5395894  30.0486108  88.4476919  67.1444762
  28.9317944 105.0795060  61.7818957  29.1714542 105.7113584  62.4597975
  28.0887140 104.7283100  62.0684316  30.0471659  87.7719662  50.4500762
  29.1701125  87.6508463  50.0863008  30.5229412  86.9805740  50.1979650
  39.9144652  96.2272730  67.2199217  39.0271431  95.8898652  67.3425616
  40.4843203  95.4955761  67.4567983  21.5673799  92.5596822  60.5442269
  22.2544839  92.2458552  59.9563284  21.4121928  93.4638186  60.2709520
  26.3708521  87.4487018  64.9727293  26.2866710  86.8412688  64.2377702
  25.5491228  87.9396037  64.9736789  33.4445805 100.8874182  64.1860461
  33.3715977 101.6929154  64.6979765  33.0023199 101.0866148  63.3608482
  33.2335585 100.1245952  57.6963282  32.4503107 100.6667633  57.7901507
  33.9328330 100.6419932  58.0957523  36.5432235  85.9340582  60.3397488
  37.0400935  85.1810544  60.0198558  35.7719217  85.9704899  59.7740697
  44.3961993  91.6380947  61.9815779  44.3851869  92.5205663  61.6109712
  43.5279372  91.2852498  61.7870316  35.9044489 100.7861016  66.3418619
  36.6172461 101.4208481  66.2694521  35.4134518 100.8824882  65.5258621
  37.6262016  94.6912269  57.9135911  36.6918295  94.8113732  57.7440615
  37.8038684  93.7884736  57.6495921  33.1267204  88.0757965  60.0669172
  32.7564991  87.5229005  60.7550078  33.6226296  87.4716098  59.5144172
  41.0134567  90.5329588  58.4485945  41.4795019  91.3657580  58.3746248
  41.4642068  90.0674570  59.1531204  30.9556402  98.5355460  67.1624190
  31.6565862  99.1691943  67.3153584  30.4851517  98.8770191  66.4019829
  39.0810798  96.8773410  55.4472097  39.3570642  96.7630004  56.3565971
  38.2115297  96.4790894  55.4084270  38.7557688  91.0900067  64.9876741
  38.1029139  91.3375975  64.3329193  39.1338068  90.2764205  64.6539218
  35.7164862 101.1259760  59.0904911  35.8987257 100.3081416  59.5532663
  36.5397848 101.3427453  58.6529801  36.0507028 100.0527946  56.3519959
  36.5794794  99.5420400  55.7390121  36.3135247  99.7370476  57.2165492
  34.8045261  91.8319878  71.4742778  34.1285898  91.7314008  72.1445153
  35.6272895  91.6759092  71.9378775  26.5524121  98.0691815  64.0955293
  27.1377557  97.3235503  64.2283197  26.3548959  98.3795772  64.9791957
  29.4062776 101.1043062  59.1117735  28.7373151 101.5889190  58.6281775
  29.2675645 101.3512283  60.0261114  21.1441775  90.6397415  62.8159736
  21.1825875  90.1061006  63.6096854  20.6382068  90.1132621  62.1970713
  33.5468044 103.1386806  65.7100394  34.0986352 103.3018427  66.4749479
  33.8874238 103.7291244  65.0380418  28.5232538  85.4861956  66.3122278
  28.5873864  86.3476787  65.8999676  28.4599658  84.8735957  65.5794637
  27.9984810  87.5585088  69.9595313  28.6256849  87.1762165  70.5732837
  27.1412729  87.3399290  70.3251005  38.3978919  97.9648063  71.5649048
  38.9418823  98.5778022  71.0704003  37.8165764  98.5227642  72.0816061
  24.7750353  89.3661517  55.8913667  25.0703794  88.4572196  55.8380721
  23.8738389  89.3449257  55.5694670  36.6836432 101.0868781  62.6964076
  36.5587571 100.2858521  62.1875021  37.3415523 101.5814975  62.2078046
  28.3044600  87.4417514  61.8741216  27.5831186  88.0553482  61.7348689
  29.0937856  87.9775279  61.7957862  38.7471340  98.8877801  64.3243626
  37.8001676  98.7683153  64.2521953  39.0954113  98.0000299  64.4069887
  31.1070913  84.7771940  68.1481868  31.6305315  85.0234237  68.9108177
  30.8883247  85.6091975  67.7285005  26.5038194  87.0475615  56.0152993
  26.1750901  86.1672994  55.8328098  26.8577565  86.9923284  56.9029382
  35.7517773  98.6830518  60.5247978  35.6042736  97.7547225  60.7055548
  36.5771267  98.7050608  60.0405053  29.6180018  87.3348585  56.3828470
  29.9576090  87.8634506  55.6607079  30.0652138  87.6728991  57.1587037
  39.3551895  99.5059076  61.6112851  40.2798443  99.3001938  61.4737302
  39.1867199  99.2575478  62.5202192  32.3123458  85.7185635  65.8331538
  31.9720279  84.9193449  66.2352218  31.6062465  86.0187346  65.2608371
  31.6048165  85.8323206  54.5821763  32.3256527  86.2104459  54.0785480
  30.9813469  86.5512083  54.6856741  35.7479288  86.5368355  55.5180095
  35.9642902  87.4192993  55.2168923  35.2673355  86.1454569  54.7885737
  30.4878509  89.4954069  62.0950840  30.3423090  89.8094372  62.9875121
  30.0103713  90.1138969  61.5421739  32.3474892  86.4856616  62.1431729
  32.3336461  85.5897710  61.8064027  33.0647320  86.4927280  62.7770015
  34.2001023  86.9193957  64.1884857  33.9418800  87.8411027  64.1869187
  33.6686063  86.5224391  64.8785321  39.1447211 100.0244744  56.9674942
  39.3184089  99.4591166  56.2148795  39.6376103 100.8245639  56.7854432
  24.9624171  92.0359413  65.0338501  24.4177639  92.8119221  65.1658775
  25.8403521  92.3830217  64.8757623  31.7511788  85.3670997  57.4119300
  31.8727699  84.4387643  57.6110187  31.4613830  85.3809683  56.4997615
  44.9986603  92.7881167  58.5865242  45.4417749  92.0388492  58.1884365
  44.1213113  92.7791303  58.2038974  40.1322384  99.3411508  54.0671841
  40.8273288  99.9618201  54.2859155  40.4745534  98.4906859  54.3424218
  25.7490193  91.1629309  67.9268658  25.0071929  91.3111945  68.5133288
  25.4282937  91.4237575  67.0635407  42.0313807  96.7911214  55.5959171
  42.5565131  97.1298487  54.8708491  41.9436160  95.8558229  55.4122306
  33.6933856 100.7045287  67.7249048  34.0020982 100.4594434  68.5971748
  34.4909338 100.9091926  67.2367918  33.7154468 102.8583197  59.9554424
  33.2759458 102.3659576  60.6487281  34.4662585 102.3156165  59.7146500
  26.1946807  99.0494738  59.9579053  27.0204827  98.7498510  59.5777696
  25.8440859  98.2802360  60.4068841  31.1628340  98.4021206  62.0276726
  30.5408349  97.7391911  61.7278954  31.8333207  98.4282338  61.3450374
  24.3955412  96.9681064  60.9167986  23.5587320  96.5403239  60.7351987
  24.3679057  97.1613508  61.8538777  31.2352867  86.8802994  71.6209232
  31.2841023  87.7565117  71.2387002  31.7775382  86.3380387  71.0480875
  41.7207713  97.4244117  70.9010369  40.9303257  97.4068256  70.3614869
  41.4841068  97.9632411  71.6559406  41.8405588  94.2736584  68.2143098
  41.8903593  94.1086591  69.1558621  41.7319511  93.4063843  67.8240979
  30.7241847  96.9525129  55.5035187  30.8729967  97.6360594  54.8501859
  31.5308290  96.9330220  56.0184642  39.1309350  90.2567512  69.5302405
  40.0319213  90.1173977  69.2386402  39.2057325  90.4221967  70.4700582
  33.4652156  87.6334367  68.3755591  32.5955465  87.9267933  68.1038179
  33.7011636  88.2174812  69.0962854  43.3423785  96.6933525  68.4585119
  43.0508593  97.0563506  69.2948580  42.7295916  95.9800534  68.2798451
  44.5419467  94.2586405  60.9787690  45.3766359  94.6976209  61.1425250
  44.6778596  93.7825058  60.1595935  41.5910973  91.8166140  66.9265177
  42.0665095  92.0093786  66.1184029  40.6676539  91.8725326  66.6808561
  28.4794480  92.9790307  56.5096256  28.2340522  92.0752637  56.7076466
  28.6490394  92.9807458  55.5675734  27.7490127  88.7118665  54.0082417
  27.0559372  88.7863020  53.3522453  27.5041879  87.9479008  54.5303934
  34.2237252  99.4473260  52.9746934  33.6511219 100.0663447  52.5217406
  34.7970046  99.9972622  53.5086856  40.2912642  88.6931900  65.1593483
  41.2430065  88.7929998  65.1805707  40.1216093  87.9010169  65.6691567
  38.3127022  85.7787483  65.3452884  37.7176954  86.0592496  64.6499372
  38.0276718  86.2681384  66.1169625  37.4434512  99.7310410  54.1055516
  38.3765185  99.6655972  54.3088392  37.3557725 100.5666677  53.6470049
  40.0722529  99.0476280  51.0659464  39.9936160  98.7136144  51.9595222
  40.8932196  99.5398048  51.0650936  42.7700720  91.9138020  64.2735783
  42.7377040  90.9754020  64.4595466  43.3801344  91.9922056  63.5401607
  34.6084051  90.7834073  50.3162987  35.5543156  90.6540281  50.3851405
  34.2298296  90.0448735  50.7932415  42.9195208  88.7049063  64.3194066
  42.4034257  87.9207520  64.1323995  43.8035157  88.3767780  64.4840585
  40.5805935  82.4490079  60.2789878  40.3830756  82.1405167  61.1633210
  41.1905641  83.1751718  60.4087808  48.5877270  92.9754027  63.4141819
  49.3180658  92.7139315  63.9749523  47.9784215  92.2382748  63.4543887
  46.6692567  91.1161889  64.0116271  45.9425730  90.9817854  63.4032762
  46.2539854  91.4238718  64.8172989  34.4922743  94.8351819  71.7763644
  35.4125753  95.0130418  71.9703690  34.4572326  93.8907864  71.6243343
  32.7926968  88.7084049  50.2517872  31.8858423  88.4117162  50.3280585
  33.0702949  88.4113867  49.3852158  23.7104908  90.0290412  60.7016918
  23.3907693  89.1755721  60.4091292  23.1638337  90.2438991  61.4574886
  27.4884816  92.7452853  64.4186425  27.7070826  93.6769961  64.4374459
  27.9010590  92.3860828  65.2041229  34.4089034  83.2520939  56.4062113
  33.5989762  82.9068024  56.7817359  35.0973451  82.9428482  56.9949725
  36.3379582  82.3298986  58.0286410  36.8910621  82.7494439  58.6876433
  36.5749668  81.4034734  58.0709366  32.3612681  88.3186059  73.8089174
  32.2609408  89.2680416  73.7401265  32.1434223  87.9904298  72.9365244
  31.5625753  85.5670984  50.3929851  32.4244917  85.8925883  50.6525668
  31.7476097  84.7802480  49.8802917  23.5793168  93.6493324  62.6710040
  22.8856640  93.2347277  62.1579994  24.3266159  93.6913860  62.0743459
  39.7158389  84.4399511  57.5365074  39.1357058  85.0984315  57.1543126
  39.4494322  83.6176855  57.1252492  38.1661955  83.8404568  59.7386394
  38.6661734  83.9521103  58.9300713  38.8097563  83.5365621  60.3787203
  32.2243951  91.7483198  72.6254235  31.7411033  92.5483558  72.8318124
  32.3104890  91.7591143  71.6721679  25.4929911  93.5811578  60.5476055
  25.4700599  93.6799265  59.5957938  25.8030547  94.4276729  60.8693221
  28.1517289  95.6387733  64.6622669  29.1060542  95.6071675  64.5952601
  27.9529812  95.1778356  65.4772895  28.7416671  94.2088849  67.2293467
  29.5609560  94.7032927  67.2528304  29.0153479  93.2920817  67.2011034
  38.4983267  86.5999601  56.5921422  37.6109122  86.8849252  56.3741617
  38.9137256  86.4393364  55.7448699  41.8497803  86.6246122  60.3075762
  42.6258193  87.1142575  60.5800378  41.1245937  87.0504176  60.7647631
  44.2870362  87.3373741  61.3649702  44.8814853  87.0969477  60.6543010
  44.3596946  86.6180872  61.9923238  26.5067518 101.1807352  61.6792867
  26.3721985 100.4207753  61.1130865  26.0899580 101.9048252  61.2121656
  37.6426481  96.3644276  50.6869442  38.3462331  96.5694278  51.3027098
  36.9189129  96.9321038  50.9518526  38.4724291  92.1154137  56.8071712
  38.4159492  92.5722688  55.9679345  39.0252633  91.3544822  56.6294555
  42.2829097  87.9043869  57.6321832  42.0266031  87.5040505  58.4630040
  41.6581965  88.6187663  57.5071971  46.5941435  90.6439942  60.1393123
  46.0340993  90.7133131  60.9124685  45.9884938  90.4680927  59.4192620
  29.6636643 102.0776669  61.8911310  29.5469028 103.0222102  61.7890000
  28.8429090 101.7750231  62.2797109  39.5513178  96.8026805  52.7367902
  40.3858782  96.3708003  52.5545377  39.3897521  96.6308819  53.6644797
  39.2059070  93.3058918  54.1024242  39.1507874  93.1403190  53.1612686
  38.5805125  94.0134951  54.2586431  23.9951585  88.5426983  67.9285664
  24.6410449  88.0325937  68.4172889  23.7868736  89.2795664  68.5029089
  36.5204977  95.6107830  73.4277804  37.3896137  95.7848482  73.0664439
  36.0411729  96.4302247  73.3053534  32.5155196  82.8067027  53.6809560
  32.5033865  83.7508867  53.8377831  33.4078617  82.6237173  53.3869021
  30.6891158 102.7304931  65.1067238  31.5918404 102.7628541  65.4233733
  30.4628528 101.8005382  65.1213574  32.4444760 101.4835918  61.7677317
  31.4940391 101.4837779  61.6541689  32.7477246 100.7368652  61.2513351
  28.3349076  85.6894600  72.0260678  29.1980538  85.3331405  72.2364003
  27.7614487  85.3508495  72.7136082  48.1797453 107.3196456  62.8323079
  48.8175863 107.2003203  62.1286419  48.0618296 108.2677300  62.8911031
  44.9887159 107.2723884  62.7684604  44.6505671 107.1564949  61.8805139
  45.8576927 106.8715049  62.7485610  40.8473975 109.1259361  58.7581495
  40.2838840 109.0349298  57.9897782  40.7326370 108.3059265  59.2383987
  45.4706942 108.4258736  68.7270809  45.4595583 108.0311534  67.8551313
  45.6327582 107.6924809  69.3204581  38.3938407 110.6210552  61.5965715
  39.1859699 110.2801377  61.1812014  38.6335057 110.7305527  62.5167869
  46.4273534 112.7930328  54.0695960  45.7761513 113.3784409  53.6829973
  47.2217897 113.3236523  54.1290997  40.3529161 109.8819465  54.4683094
  41.1260037 109.3348453  54.3295970  40.7054560 110.7463715  54.6797555
  42.1914203 111.2095848  67.6749993  41.9004069 112.1141479  67.5596660
  42.8271188 111.2512375  68.3894063  43.1170410 108.5872696  64.2651353
  43.7133983 108.3628719  63.5508316  43.1745382 107.8457442  64.8676801
  42.6895439 106.0412132  52.1001544  42.9420959 105.5193653  51.3385007
  41.7519998 105.8778277  52.2028228  47.7338722 105.0447910  59.9076287
  48.5201811 104.6267333  59.5566704  47.9977426 105.9494002  60.0757936
  47.9048799 110.4820760  54.6064944  47.2694632 110.5555387  55.3185849
  47.5746205 111.0714359  53.9284023  53.1347149 104.9823143  60.8109266
  53.8672321 104.4122360  61.0447095  52.3786504 104.5944744  61.2515771
  42.4091727 107.9440238  54.3025919  42.2927986 107.2685141  54.9707003
  42.5193987 107.4572611  53.4858072  44.7523268 107.4050385  58.0072608
  44.3881476 106.8781006  58.7185530  45.6090384 107.0148854  57.8339094
  50.6572569  98.6944717  65.2703874  50.3255894  99.5640128  65.0465089
  50.0618182  98.3781001  65.9497905  44.3928755 102.4340284  53.0033957
  44.5603158 103.3020521  53.3704428  44.2025924 102.5967566  52.0795246
  47.1504089 110.8957263  64.6699787  46.8504812 111.7982302  64.5615594
  46.8055148 110.6289446  65.5220940  40.6016570 107.3471060  60.7036491
  39.6767066 107.2147274  60.9114183  40.8500983 108.1265279  61.2006434
  50.5501232 103.4139803  62.3497224  49.6418110 103.3455212  62.0555985
  50.4988828 103.8911748  63.1779050  44.3717976 104.8897942  53.9880623
  44.2517601 105.3354993  54.8266104  43.6770565 105.2383260  53.4294162
  37.9625381 106.9904334  61.5380280  38.0917762 107.2438813  62.4519692
  37.2822832 107.5832042  61.2184936  42.1324868 117.6601584  57.6370755
  42.0548898 118.6109409  57.7159235  41.5286512 117.3147456  58.2945681
  44.6242098 104.8329449  70.2932122  43.8475432 105.3923369  70.2834986
  45.2632661 105.3186232  70.8146992  52.4162879 101.6156242  64.1275098
  51.7737259 101.9088775  63.4814893  51.9117807 101.5009162  64.9328295
  50.0703042 105.3619415  54.8160957  50.9820898 105.5946802  54.6408655
  49.5612689 105.9456459  54.2536036  42.8788470 107.6414902  69.8550089
  43.6203155 108.1799946  69.5784912  42.1725456 108.2681191  70.0121640
  48.3543810 109.7844043  68.4522250  48.7627166 109.3426453  67.7076882
  47.6321072 109.2096670  68.7056443  44.7074880 104.7216650  65.8255807
  45.5536075 105.1456063  65.9690456  44.6473518 104.0650274  66.5194370
  48.6772625 110.3445233  62.2074539  48.0481487 110.5090948  61.5050607
  48.2898287 110.7586843  62.9785503  52.5561857 111.2799671  59.5618903
  51.8712895 111.6598573  59.0115936  52.6405706 111.8894998  60.2950850
  47.8574325 102.3821018  67.4836981  47.6135257 103.1363079  66.9471256
  48.1334256 102.7606366  68.3184228  49.8112788 108.9259630  66.1614246
  50.0229683 109.5691390  65.4848627  49.7642536 108.0921947  65.6936176
  47.4139017 101.5377451  63.0650818  46.5523496 101.8358705  63.3567556
  47.4401452 101.7547850  62.1331851  44.2300587 110.0819642  59.4724624
  44.6938932 110.3607345  58.6829247  43.9657385 109.1803086  59.2897715
  41.1224668 109.6291123  62.4104387  41.6926025 110.0578391  61.7721872
  41.7132779 109.3473708  63.1088573  43.1669473 106.2042794  56.2814189
  43.8693516 106.6563838  56.7488116  42.8350101 105.5626613  56.9094082
  41.6149834 104.7954551  70.6565399  40.9848495 105.4770831  70.8900795
  41.5085922 104.6837632  69.7118537  36.9094807 104.4626347  61.5831323
  36.1193861 104.7183875  61.1071433  37.4006054 105.2774684  61.6883363
  50.9258616 111.8031586  64.3336604  51.7476060 111.4011773  64.0519285
  50.9221019 111.6999820  65.2852719  38.8609552 104.8270926  58.5414799
  38.0640715 104.9389620  59.0598295  38.6335144 105.1657578  57.6755690
  44.6915220 111.3515629  66.4897314  44.7559652 111.8136036  67.3255486
  43.9826143 110.7212994  66.6179624  35.1932510 104.7156837  64.0146314
  35.4440548 105.6003847  64.2803889  35.7292058 104.5361439  63.2421405
  59.0164609 108.1470334  60.6821575  58.2628318 107.5777732  60.5265579
  59.1512150 108.1132999  61.6292210  44.4063237 113.0183737  56.3576294
  44.2708912 113.8635272  56.7861142  44.9473050 113.2203014  55.5942228
  40.8930577  99.0975316  73.0190650  40.4997522  98.5441515  73.6938294
  41.7096717  99.4085895  73.4097167  37.8592635 110.5359175  56.9304219
  38.3717155 111.3302425  57.0809784  38.5115347 109.8385465  56.8637821
  39.6687519 113.6524931  59.0126973  39.8454148 114.5742896  58.8247957
  40.4644353 113.3383350  59.4421352  43.8098538 100.5133195  70.6110906
  44.5508251 101.1140349  70.5315369  44.0416461  99.7710833  70.0528949
  38.9539876 105.6989563  68.8889136  38.8393391 104.7974820  69.1896235
  38.0984394 105.9453260  68.5373952  46.0331714 113.6407303  70.4876636
  45.5895568 112.8543682  70.1697541  46.6948927 113.8286454  69.8220527
  40.7918835 115.1703105  65.0137315  41.3426260 115.0420168  64.2414309
  39.9530311 115.4697994  64.6632208  48.1312952 113.9210103  68.5158038
  48.1131427 114.7418984  68.0238307  49.0532872 113.7964178  68.7408179
  44.5886006 111.4354232  69.3581546  45.1214343 110.6742521  69.1280854
  44.0600087 111.1427884  70.1005701  47.7555701  96.5414298  64.8875188
  47.4119970  97.4315940  64.8114298  48.1234663  96.3515956  64.0244773
  35.8241551 108.8647829  57.7063790  36.6616773 109.2744837  57.4897498
  36.0019819 107.9247271  57.6763984  47.7205984 106.5322910  53.3947623
  47.2052607 107.3027514  53.6336010  47.4483292 105.8588046  54.0180684
  45.3053095 101.3772610  58.4532861  44.4494691 100.9879461  58.2738500
  45.7180046 101.4564571  57.5932647  46.8352241  98.9118954  62.8524421
  46.3317037  98.8749089  62.0392226  47.1282848  99.8211696  62.9121078
  43.0795127  98.9957683  61.8590603  43.9448124  98.8000492  61.4996492
  43.1472636  98.7668035  62.7859960  52.6940258 109.2855264  55.3300796
  51.9169700 108.9466424  54.8855959  53.3731739 109.2907887  54.6555762
  47.5092287 104.4050002  55.2207404  47.2042422 104.7196151  56.0717547
  48.4622729 104.4831422  55.2634737  45.9538719 110.5640225  56.8700358
  45.4260080 109.8292985  56.5573596  45.4526221 111.3414901  56.6240326
  50.9331565 108.7589245  61.9867404  50.2755239 109.4488507  62.0747533
  51.7371964 109.1485677  62.3301391  40.6857446 101.2259891  59.2306970
  41.2601198 101.0035073  58.4980163  41.2728429 101.2948586  59.9835571
  49.7437023 107.1133618  60.0371346  50.2568905 107.7463610  60.5393056
  50.3938247 106.5134814  59.6714706  41.0127033 103.2564352  53.2502855
  40.1764346 103.5939039  53.5712130  40.8731803 103.1213332  52.3129992
  42.9880114  98.1001140  57.9582039  42.3344526  97.7850157  57.3338654
  42.9460588  97.4776881  58.6841862  44.0991319 108.3820435  49.8735331
  43.1918380 108.1509689  50.0726480  44.5962351 107.5858054  50.0609313
  47.0059398 117.0917942  52.7932017  46.3321096 117.3949639  53.4016975
  47.3925220 117.8947023  52.4437474  46.2217854 104.5883074  62.2829687
  45.3040416 104.8098021  62.1251375  46.6377998 104.6629384  61.4241394
  47.0052902 105.9874489  57.4132367  47.7524721 106.4995887  57.1039489
  47.2744492 105.6658542  58.2736761  45.2779552 108.4833030  54.3959321
  44.3690771 108.1992063  54.4931791  45.3074636 108.9032109  53.5362628
  50.5098820 112.0939620  58.1650489  50.0561147 111.2530529  58.2215679
  49.8792786 112.7301018  58.5025269  49.4531739 103.0231606  59.3951156
  48.7154496 102.5108992  59.7261399  49.7058513 102.5831987  58.5834433
  48.9531759 113.9316116  59.1000307  49.2454733 114.4921173  58.3812673
  49.4630379 114.2244677  59.8553466  49.5543366  95.8007858  59.9892926
  49.8602243  94.9405221  59.7018841  50.2795971  96.3925478  59.7891919
  35.8467723 106.2038544  58.3774523  35.6492122 105.6107905  57.6525590
  35.2914387 105.8990754  59.0950462  43.8264446 106.0961651  60.4969117
  43.8813056 105.1435487  60.4211593  43.0155648 106.2521090  60.9810415
  44.9755640 110.0241774  51.7347400  44.5375070 109.3077633  51.2753037
  45.7166081 110.2517889  51.1732491  41.7656806 104.7138710  58.2559495
  40.9524672 105.0132881  58.6624688  42.2615800 104.3194399  58.9733978
  43.9165384 114.7096467  60.1893760  43.8741563 114.9357314  59.2602292
  44.8328083 114.4759842  60.3379561  47.3631018 105.1780535  67.0874389
  47.7180406 105.4052008  67.9468855  48.0103149 105.5098912  66.4651645
  53.0928755 108.2998971  57.7923718  52.9546653 108.4900567  56.8644908
  52.7364974 109.0618354  58.2491770  41.2570881 102.2857066  63.8720730
  41.8970260 102.1445825  63.1743694  40.4248411 101.9991579  63.4959332
  53.1198134 110.3675498  62.8034990  53.5534641 110.2750787  63.6518044
  53.8329715 110.3432998  62.1655006  42.0331185 111.5859496  59.9855723
  42.8271783 111.0909817  59.7838298  41.3222877 111.0577360  59.6223428
  46.8526029 113.9677592  64.3368091  46.9063052 114.5368528  65.1045806
  45.9840811 114.1379477  63.9722128  38.3413948 105.7302578  56.0615476
  37.4111536 105.6687034  56.2785438  38.4371420 105.2078531  55.2652117
  38.2599497 102.2557391  58.6493717  38.5206315 103.1702724  58.5402878
  39.0816670 101.7881834  58.7990330  39.7324423 103.6695148  65.8192542
  40.4047476 103.4612510  65.1705191  38.9054209 103.4717234  65.3797774
  53.9813684 110.4099198  65.3367875  54.1749574 111.3145009  65.5827150
  53.8814302 109.9506618  66.1706460  45.6349995 100.2957089  67.8358203
  44.9877910 100.9947039  67.7422679  46.4051010 100.7293233  68.2034451
  49.0428793 110.5605941  70.9108756  48.8914299 110.3316493  69.9938840
  49.0333472 111.5176543  70.9240101  45.8114129 108.1337854  65.8955022
  46.7406189 108.2849014  65.7223990  45.3905159 108.2221875  65.0403669
  44.6102461 112.1588518  63.6653560  44.4713546 111.7907303  64.5379498
  43.8217057 112.6736158  63.4937518  45.2050613 117.2597615  55.0079097
  45.3802368 116.7885658  55.8224719  44.5183401 117.8863381  55.2360357
  46.1607676 111.5370121  61.0542398  45.8257509 111.4970891  61.9500048
  45.6611622 110.8714837  60.5812808  40.1351920 106.9437751  66.5794979
  39.9971718 106.2117990  67.1806518  41.0456843 106.8546651  66.2979167
  49.0966868 108.8826155  51.3279457  48.4796038 108.1572984  51.2312510
  48.6283356 109.6435516  50.9846532  42.7634221 106.6557710  66.0678659
  43.4733839 106.0150903  66.0265277  42.7203529 106.9070605  66.9904839
  50.7520999 113.5925064  68.9885238  50.6933545 112.9084284  68.3215821
  51.1540518 114.3344054  68.5365864  41.4763155 103.6422928  67.8874298
  40.9400512 103.1913667  68.5395894  40.8879863 103.7768837  67.1444762
  40.8865413 103.1011580  50.4500762  40.0094880 102.9800380  50.0863008
  41.3623167 102.3097658  50.1979650  50.7538407 111.5564648  67.2199217
  49.8665185 111.2190569  67.3425616  51.3236958 110.8247679  67.4567983
  32.4067554 107.8888739  60.5442269  33.0938593 107.5750469  59.9563284
  32.2515682 108.7930104  60.2709520  37.2102276 102.7778936  64.9727293
  37.1260465 102.1704606  64.2377702  36.3884982 103.2687954  64.9736789
  44.2839560 116.2166100  64.1860461  44.2109731 117.0221072  64.6979765
  43.8416953 116.4158066  63.3608482  44.0729340 115.4537870  57.6963282
  43.2896861 115.9959550  57.7901507  44.7722085 115.9711850  58.0957523
  47.3825990 101.2632500  60.3397488  47.8794689 100.5102462  60.0198558
  46.6112971 101.2996816  59.7740697  55.2355747 106.9672865  61.9815779
  55.2245623 107.8497580  61.6109712  54.3673126 106.6144416  61.7870316
  46.7438243 116.1152934  66.3418619  47.4566216 116.7500399  66.2694521
  46.2528272 116.2116800  65.5258621  48.4655770 110.0204187  57.9135911
  47.5312049 110.1405649  57.7440615  48.6432439 109.1176654  57.6495921
  43.9660958 103.4049883  60.0669172  43.5958746 102.8520923  60.7550078
  44.4620051 102.8008016  59.5144172  51.8528322 105.8621506  58.4485945
  52.3188774 106.6949498  58.3746248  52.3035822 105.3966488  59.1531204
  41.7950157 113.8647378  67.1624190  42.4959616 114.4983860  67.3153584
  41.3245272 114.2062109  66.4019829  49.9204553 112.2065327  55.4472097
  50.1964397 112.0921922  56.3565971  49.0509052 111.8082812  55.4084270
  49.8244984  98.2302093  62.4876846  48.9108064  98.4606320  62.6559053
  50.2538086  98.3140537  63.3390879  49.5951443 106.4191985  64.9876741
  48.9422893 106.6667892  64.3329193  49.9731823 105.6056123  64.6539218
  46.5558617 116.4551678  59.0904911  46.7381011 115.6373334  59.5532663
  47.3791603 116.6719370  58.6529801  46.8900782 115.3819863  56.3519959
  47.4188549 114.8712318  55.7390121  47.1529002 115.0662394  57.2165492
  45.6439016 107.1611796  71.4742778  44.9679653 107.0605925  72.1445153
  46.4666650 107.0051010  71.9378775  37.3917875 113.3983733  64.0955293
  37.9771312 112.6527420  64.2283197  37.1942713 113.7087689  64.9791957
  40.2456530 116.4334980  59.1117735  39.5766906 116.9181108  58.6281775
  40.1069400 116.6804200  60.0261114  31.9835530 105.9689333  62.8159736
  32.0219629 105.4352923  63.6096854  31.4775823 105.4424538  62.1970713
  44.3861799 118.4678723  65.7100394  44.9380107 118.6310345  66.4749479
  44.7267992 119.0583161  65.0380418  39.3626292 100.8153873  66.3122278
  39.4267619 101.6768704  65.8999676  39.2993412 100.2027875  65.5794637
  38.8378565 102.8877006  69.9595313  39.4650603 102.5054083  70.5732837
  37.9806483 102.6691208  70.3251005  49.2372673 113.2939981  71.5649048
  49.7812577 113.9069939  71.0704003  48.6559518 113.8519559  72.0816061
  35.6144107 104.6953435  55.8913667  35.9097548 103.7864113  55.8380721
  34.7132143 104.6741174  55.5694670  47.5230186 116.4160699  62.6964076
  47.3981326 115.6150439  62.1875021  48.1809277 116.9106892  62.2078046
  39.1438354 102.7709432  61.8741216  38.4224940 103.3845399  61.7348689
  39.9331610 103.3067196  61.7957862  49.5865094 114.2169719  64.3243626
  48.6395430 114.0975070  64.2521953  49.9347868 113.3292217  64.4069887
  41.9464668 100.1063858  68.1481868  42.4699070 100.3526155  68.9108177
  41.7277001 100.9383893  67.7285005  37.3431949 102.3767533  56.0152993
  37.0144655 101.4964912  55.8328098  37.6971320 102.3215201  56.9029382
  46.5911528 114.0122435  60.5247978  46.4436490 113.0839143  60.7055548
  47.4165021 114.0342526  60.0405053  40.4573772 102.6640502  56.3828470
  40.7969845 103.1926424  55.6607079  40.9045893 103.0020909  57.1587037
  50.1945650 114.8350994  61.6112851  51.1192197 114.6293855  61.4737302
  50.0260953 114.5867395  62.5202192  43.1517213 101.0477553  65.8331538
  42.8114033 100.2485366  66.2352218  42.4456219 101.3479264  65.2608371
  43.8033685  98.1326866  64.2858861  44.6259754  97.6587344  64.1637752
  44.0471748  98.9117349  64.7857548  42.4441919 101.1615124  54.5821763
  43.1650282 101.5396377  54.0785480  41.8207223 101.8804001  54.6856741
  46.5873042 101.8660273  55.5180095  46.8036656 102.7484911  55.2168923
  46.1067109 101.4746486  54.7885737  41.3272263 104.8245986  62.0950840
  41.1816844 105.1386289  62.9875121  40.8497467 105.4430887  61.5421739
  43.1868646 101.8148534  62.1431729  43.1730215 100.9189627  61.8064027
  43.9041074 101.8219198  62.7770015  45.0394777 102.2485874  64.1884857
  44.7812555 103.1702945  64.1869187  44.5079817 101.8516309  64.8785321
  49.9840966 115.3536661  56.9674942  50.1577843 114.7883084  56.2148795
  50.4769857 116.1537556  56.7854432  35.8017926 107.3651331  65.0338501
  35.2571394 108.1411139  65.1658775  36.6797276 107.7122135  64.8757623
  42.5905542 100.6962914  57.4119300  42.7121453  99.7679561  57.6110187
  42.3007585 100.7101600  56.4997615  45.4596733  98.3817825  60.5486019
  45.4818430  98.4457158  59.5937999  45.8764792  97.5422334  60.7426526
  55.8380357 108.1173084  58.5865242  56.2811503 107.3680410  58.1884365
  54.9606867 108.1083221  58.2038974  50.9716138 114.6703426  54.0671841
  51.6667043 115.2910119  54.2859155  51.3139288 113.8198777  54.3424218
  36.5883948 106.4921227  67.9268658  35.8465684 106.6403862  68.5133288
  36.2676692 106.7529492  67.0635407  52.8707561 112.1203131  55.5959171
  53.3958886 112.4590404  54.8708491  52.7829914 111.1850147  55.4122306
  44.5327610 116.0337205  67.7249048  44.8414737 115.7886352  68.5971748
  45.3303092 116.2383844  67.2367918  44.5548222 118.1875115  59.9554424
  44.1153212 117.6951493  60.6487281  45.3056339 117.6448082  59.7146500
  37.0340561 114.3786656  59.9579053  37.8598581 114.0790427  59.5777696
  36.6834613 113.6094278  60.4068841  42.0022094 113.7313124  62.0276726
  41.3802104 113.0683829  61.7278954  42.6726961 113.7574256  61.3450374
  35.2349166 112.2972982  60.9167986  34.3981075 111.8695156  60.7351987
  35.2072812 112.4905425  61.8538777  42.0746622 102.2094912  71.6209232
  42.1234777 103.0857035  71.2387002  42.6169136 101.6672305  71.0480875
  52.5601468 112.7536035  70.9010369  51.7697011 112.7360174  70.3614869
  52.3234822 113.2924329  71.6559406  52.6799343 109.6028501  68.2143098
  52.7297347 109.4378509  69.1558621  52.5713266 108.7355760  67.8240979
  41.5635601 112.2817047  55.5035187  41.7123722 112.9652512  54.8501859
  42.3702045 112.2622137  56.0184642  49.9703105 105.5859429  69.5302405
  50.8712968 105.4465894  69.2386402  50.0451079 105.7513884  70.4700582
  44.3045910 102.9626284  68.3755591  43.4349220 103.2559850  68.1038179
  44.5405391 103.5466729  69.0962854  54.1817539 112.0225443  68.4585119
  53.8902348 112.3855424  69.2948580  53.5689671 111.3092451  68.2798451
  55.3813222 109.5878323  60.9787690  56.2160113 110.0268127  61.1425250
  55.5172351 109.1116976  60.1595935  52.4304728 107.1458058  66.9265177
  52.9058849 107.3385704  66.1184029  51.5070293 107.2017243  66.6808561
  39.3188234 108.3082225  56.5096256  39.0734276 107.4044555  56.7076466
  39.4884149 108.3099375  55.5675734  47.0084944  99.1805901  65.8921011
  47.5266888  99.9166928  65.5667500  46.6540077  99.4869894  66.7267770
  38.5883882 104.0410582  54.0082417  37.8953127 104.1154937  53.3522453
  38.3435634 103.2770926  54.5303934  47.2597538  95.6006184  61.4121908
  47.5399292  94.9329373  62.0382334  48.0448145  95.7935279  60.8996572
  45.0631007 114.7765178  52.9746934  44.4904974 115.3955365  52.5217406
  45.6363800 115.3264539  53.5086856  51.1306397 104.0223818  65.1593483
  52.0823820 104.1221915  65.1805707  50.9609847 103.2302086  65.6691567
  49.1520776 101.1079401  65.3452884  48.5570708 101.3884414  64.6499372
  48.8670473 101.5973302  66.1169625  48.2828267 115.0602328  54.1055516
  49.2158940 114.9947889  54.3088392  48.1951479 115.8958595  53.6470049
  50.9116283 114.3768198  51.0659464  50.8329915 114.0428062  51.9595222
  51.7325950 114.8689966  51.0650936  53.6094474 107.2429937  64.2735783
  53.5770795 106.3045938  64.4595466  54.2195098 107.3213974  63.5401607
  45.4477805 106.1125990  50.3162987  46.3936910 105.9832198  50.3851405
  45.0692050 105.3740652  50.7932415  53.7588963 104.0340981  64.3194066
  53.2428012 103.2499437  64.1323995  54.6428911 103.7059697  64.4840585
  51.4199690  97.7781996  60.2789878  51.2224511  97.4697085  61.1633210
  52.0299395  98.5043635  60.4087808  59.4271024 108.3045944  63.4141819
  60.1574413 108.0431232  63.9749523  58.8177970 107.5674666  63.4543887
  57.5086321 106.4453807  64.0116271  56.7819485 106.3109772  63.4032762
  57.0933608 106.7530635  64.8172989  45.3316498 110.1643736  71.7763644
  46.2519507 110.3422335  71.9703690  45.2966081 109.2199782  71.6243343
  43.6320722 104.0375967  50.2517872  42.7252178 103.7409079  50.3280585
  43.9096703 103.7405785  49.3852158  34.5498663 105.3582330  60.7016918
  34.2301447 104.5047638  60.4091292  34.0032091 105.5730908  61.4574886
  38.3278570 108.0744771  64.4186425  38.5464580 109.0061879  64.4374459
  38.7404344 107.7152746  65.2041229  45.2482788  98.5812856  56.4062113
  44.4383516  98.2359941  56.7817359  45.9367205  98.2720400  56.9949725
  47.1773336  97.6590903  58.0286410  47.7304375  98.0786357  58.6876433
  47.4143423  96.7326651  58.0709366  43.2006436 103.6477977  73.8089174
  43.1003163 104.5972334  73.7401265  42.9827978 103.3196216  72.9365244
  42.4019507 100.8962902  50.3929851  43.2638671 101.2217800  50.6525668
  42.5869851 100.1094398  49.8802917  34.4186923 108.9785242  62.6710040
  33.7250394 108.5639194  62.1579994  35.1659914 109.0205778  62.0743459
  50.5552144  99.7691428  57.5365074  49.9750813 100.4276232  57.1543126
  50.2888076  98.9468773  57.1252492  49.0055710  99.1696486  59.7386394
  49.5055488  99.2813021  58.9300713  49.6491318  98.8657539  60.3787203
  43.0637706 107.0775116  72.6254235  42.5804787 107.8775476  72.8318124
  43.1498645 107.0883061  71.6721679  36.3323665 108.9103495  60.5476055
  36.3094353 109.0091183  59.5957938  36.6424302 109.7568646  60.8693221
  38.9911043 110.9679650  64.6622669  39.9454297 110.9363593  64.5952601
  38.7923567 110.5070274  65.4772895  39.5810425 109.5380766  67.2293467
  40.4003314 110.0324845  67.2528304  39.8547233 108.6212735  67.2011034
  49.3377022 101.9291519  56.5921422  48.4502877 102.2141169  56.3741617
  49.7531011 101.7685282  55.7448699  52.6891558 101.9538040  60.3075762
  53.4651948 102.4434492  60.5800378  51.9639692 102.3796094  60.7647631
  55.1264116 102.6665659  61.3649702  55.7208607 102.4261395  60.6543010
  55.1990700 101.9472790  61.9923238  37.3461272 116.5099270  61.6792867
  37.2115740 115.7499671  61.1130865  36.9293334 117.2340170  61.2121656
  48.4820235 111.6936193  50.6869442  49.1856085 111.8986196  51.3027098
  47.7582884 112.2612955  50.9518526  49.3118045 107.4446055  56.8071712
  49.2553247 107.9014606  55.9679345  49.8646388 106.6836739  56.6294555
  53.1222851 103.2335787  57.6321832  52.8659785 102.8332422  58.4630040
  52.4975719 103.9479581  57.5071971  57.4335189 105.9731860  60.1393123
  56.8734747 106.0425049  60.9124685  56.8278692 105.7972844  59.4192620
  40.5030398 117.4068587  61.8911310  40.3862782 118.3514019  61.7890000
  39.6822844 117.1042148  62.2797109  50.3906932 112.1318723  52.7367902
  51.2252536 111.6999921  52.5545377  50.2291275 111.9600736  53.6644797
  50.0452825 108.6350836  54.1024242  49.9901628 108.4695107  53.1612686
  49.4198880 109.3426869  54.2586431  34.8345340 103.8718900  67.9285664
  35.4804203 103.3617854  68.4172889  34.6262491 104.6087582  68.5029089
  47.3598732 110.9399748  73.4277804  48.2289891 111.1140400  73.0664439
  46.8805483 111.7594165  73.3053534  43.3548950  98.1358945  53.6809560
  43.3427620  99.0800785  53.8377831  44.2472372  97.9529090  53.3869021
  41.5284912 118.0596849  65.1067238  42.4312159 118.0920459  65.4233733
  41.3022282 117.1297300  65.1213574  43.2838514 116.8127835  61.7677317
  42.3334145 116.8129697  61.6541689  43.5871000 116.0660570  61.2513351
  47.1701070  94.7301722  57.9355497  46.4033465  94.1760208  58.0812179
  47.5811774  94.8023590  58.7969648  39.1742831 101.0186517  72.0260678
  40.0374292 100.6623322  72.2364003  38.6008241 100.6800412  72.7136082
  59.0191208 122.6488374  62.8323079  59.6569617 122.5295121  62.1286419
  58.9012050 123.5969218  62.8911031  55.8280914 122.6015802  62.7684604
  55.4899425 122.4856867  61.8805139  56.6970682 122.2006967  62.7485610
  56.3100697 123.7550654  68.7270809  56.2989338 123.3603452  67.8551313
  56.4721336 123.0216726  69.3204581  53.5289193 121.3704049  52.1001544
  53.7814714 120.8485571  51.3385007  52.5913752 121.2070195  52.2028228
  58.5732476 120.3739828  59.9076287  59.3595565 119.9559251  59.5566704
  58.8371180 121.2785920  60.0757936  63.9740903 120.3115061  60.8109266
  64.7066075 119.7414278  61.0447095  63.2180259 119.9236661  61.2515771
  55.5917023 122.7342302  58.0072608  55.2275230 122.2072923  58.7185530
  56.4484139 122.3440771  57.8339094  61.4966323 114.0236635  65.2703874
  61.1649648 114.8932046  65.0465089  60.9011937 113.7072919  65.9497905
  55.2322510 117.7632202  53.0033957  55.3996912 118.6312438  53.3704428
  55.0419679 117.9259484  52.0795246  61.3894987 118.7431721  62.3497224
  60.4811864 118.6747130  62.0555985  61.3382583 119.2203666  63.1779050
  55.2111731 120.2189860  53.9880623  55.0911356 120.6646910  54.8266104
  54.5164319 120.5675177  53.4294162  55.4635853 120.1621367  70.2932122
  54.6869187 120.7215287  70.2834986  56.1026416 120.6478150  70.8146992
  63.2556633 116.9448160  64.1275098  62.6131013 117.2380693  63.4814893
  62.7511562 116.8301080  64.9328295  60.9096797 120.6911333  54.8160957
  61.8214653 120.9238719  54.6408655  60.4006444 121.2748377  54.2536036
  59.1937565 125.1135961  68.4522250  59.6020921 124.6718371  67.7076882
  58.4714826 124.5388588  68.7056443  55.5468635 120.0508567  65.8255807
  56.3929830 120.4747981  65.9690456  55.4867272 119.3942192  66.5194370
  58.6968080 117.7112936  67.4836981  58.4529012 118.4654996  66.9471256
  58.9728010 118.0898283  68.3184228  60.6506543 124.2551548  66.1614246
  60.8623438 124.8983308  65.4848627  60.6036291 123.4213865  65.6936176
  58.2532772 116.8669369  63.0650818  57.3917251 117.1650622  63.3567556
  58.2795206 117.0839768  62.1331851  54.0063227 121.5334712  56.2814189
  54.7087270 121.9855755  56.7488116  53.6743856 120.8918530  56.9094082
  52.4543589 120.1246468  70.6565399  51.8242249 120.8062749  70.8900795
  52.3479677 120.0129550  69.7118537  47.7488561 119.7918264  61.5831323
  46.9587615 120.0475793  61.1071433  48.2399808 120.6066602  61.6883363
  49.7003306 120.1562844  58.5414799  48.9034470 120.2681538  59.0598295
  49.4728899 120.4949496  57.6755690  69.8558364 123.4762252  60.6821575
  69.1022072 122.9069650  60.5265579  69.9905905 123.4424916  61.6292210
  51.7324331 114.4267234  73.0190650  51.3391277 113.8733433  73.6938294
  52.5490472 114.7377813  73.4097167  54.6492292 115.8425113  70.6110906
  55.3902006 116.4432266  70.5315369  54.8810215 115.1002751  70.0528949
  49.7933630 121.0281480  68.8889136  49.6787145 120.1266738  69.1896235
  48.9378148 121.2745177  68.5373952  58.5949455 111.8706216  64.8875188
  58.2513725 112.7607858  64.8114298  58.9628418 111.6807874  64.0244773
  58.5599738 121.8614827  53.3947623  58.0446361 122.6319432  53.6336010
  58.2877046 121.1879963  54.0180684  56.1446849 116.7064528  58.4532861
  55.2888445 116.3171378  58.2738500  56.5573801 116.7856489  57.5932647
  57.6745996 114.2410871  62.8524421  57.1710791 114.2041006  62.0392226
  57.9676603 115.1503614  62.9121078  53.9188882 114.3249601  61.8590603
  54.7841878 114.1292410  61.4996492  53.9866390 114.0959953  62.7859960
  63.5334012 124.6147182  55.3300796  62.7563455 124.2758341  54.8855959
  64.2125493 124.6199805  54.6555762  58.3486041 119.7341919  55.2207404
  58.0436177 120.0488068  56.0717547  59.3016483 119.8123339  55.2634737
  61.7725319 124.0881163  61.9867404  61.1148993 124.7780425  62.0747533
  62.5765718 124.4777595  62.3301391  51.5251201 116.5551809  59.2306970
  52.0994953 116.3326990  58.4980163  52.1122183 116.6240503  59.9835571
  60.5830778 122.4425536  60.0371346  61.0962660 123.0755528  60.5393056
  61.2332002 121.8426731  59.6714706  51.8520788 118.5856270  53.2502855
  51.0158100 118.9230956  53.5712130  51.7125557 118.4505250  52.3129992
  53.8273868 113.4293058  57.9582039  53.1738281 113.1142075  57.3338654
  53.7854342 112.8068798  58.6841862  54.9385073 123.7112353  49.8735331
  54.0312135 123.4801606  50.0726480  55.4356105 122.9149972  50.0609313
  57.0611609 119.9174991  62.2829687  56.1434170 120.1389938  62.1251375
  57.4771752 119.9921302  61.4241394  57.8446656 121.3166407  57.4132367
  58.5918475 121.8287804  57.1039489  58.1138246 120.9950460  58.2736761
  56.1173307 123.8124948  54.3959321  55.2084526 123.5283981  54.4931791
  56.1468390 124.2324026  53.5362628  60.2925494 118.3523523  59.3951156
  59.5548250 117.8400909  59.7261399  60.5452267 117.9123905  58.5834433
  60.3937121 111.1299775  59.9892926  60.6995998 110.2697139  59.7018841
  61.1189726 111.7217395  59.7891919  54.6658201 121.4253568  60.4969117
  54.7206810 120.4727405  60.4211593  53.8549403 121.5813007  60.9810415
  52.6050561 120.0430628  58.2559495  51.7918426 120.3424799  58.6624688
  53.1009555 119.6486317  58.9733978  58.2024772 120.5072453  67.0874389
  58.5574160 120.7343926  67.9468855  58.8496904 120.8390829  66.4651645
  63.9322509 123.6290888  57.7923718  63.7940408 123.8192484  56.8644908
  63.5758728 124.3910271  58.2491770  52.0964635 117.6148984  63.8720730
  52.7364015 117.4737743  63.1743694  51.2642166 117.3283497  63.4959332
  63.9591889 125.6967415  62.8034990  64.3928396 125.6042705  63.6518044
  64.6723470 125.6724916  62.1655006  49.1807703 121.0594496  56.0615476
  48.2505291 120.9978951  56.2785438  49.2765175 120.5370449  55.2652117
  49.0993252 117.5849309  58.6493717  49.3600069 118.4994642  58.5402878
  49.9210424 117.1173751  58.7990330  50.5718177 118.9987066  65.8192542
  51.2441231 118.7904428  65.1705191  49.7447964 118.8009152  65.3797774
  64.8207438 125.7391116  65.3367875  65.0143328 126.6436927  65.5827150
  64.7208057 125.2798535  66.1706460  56.4743749 115.6249007  67.8358203
  55.8271664 116.3238956  67.7422679  57.2444765 116.0585151  68.2034451
  56.6507883 123.4629772  65.8955022  57.5799943 123.6140931  65.7223990
  56.2298914 123.5513792  65.0403669  50.9745674 122.2729669  66.5794979
  50.8365472 121.5409908  67.1806518  51.8850598 122.1838569  66.2979167
  59.9360622 124.2118073  51.3279457  59.3189793 123.4864901  51.2312510
  59.4677111 124.9727433  50.9846532  53.6027975 121.9849628  66.0678659
  54.3127594 121.3442820  66.0265277  53.5597283 122.2362523  66.9904839
  52.3156909 118.9714846  67.8874298  51.7794266 118.5205584  68.5395894
  51.7273617 119.1060755  67.1444762  51.7259168 118.4303497  50.4500762
  50.8488634 118.3092298  50.0863008  52.2016921 117.6389576  50.1979650
  48.0496030 118.1070854  64.9727293  47.9654219 117.4996523  64.2377702
  47.2278737 118.5979872  64.9736789  58.2219744 116.5924417  60.3397488
  58.7188444 115.8394380  60.0198558  57.4506726 116.6288734  59.7740697
  66.0749502 122.2964783  61.9815779  66.0639378 123.1789498  61.6109712
  65.2066881 121.9436334  61.7870316  54.8054713 118.7341800  60.0669172
  54.4352500 118.1812841  60.7550078  55.3013805 118.1299934  59.5144172
  62.6922076 121.1913424  58.4485945  63.1582528 122.0241415  58.3746248
  63.1429577 120.7258405  59.1531204  60.6638739 113.5594011  62.4876846
  59.7501819 113.7898238  62.6559053  61.0931840 113.6432455  63.3390879
  60.4345197 121.7483903  64.9876741  59.7816648 121.9959810  64.3329193
  60.8125577 120.9348041  64.6539218  56.4832770 122.4903714  71.4742778
  55.8073407 122.3897843  72.1445153  57.3060404 122.3342927  71.9378775
  50.2020047 116.1445791  66.3122278  50.2661373 117.0060622  65.8999676
  50.1387167 115.5319793  65.5794637  49.6772319 118.2168924  69.9595313
  50.3044358 117.8346001  70.5732837  48.8200238 117.9983125  70.3251005
  46.4537862 120.0245353  55.8913667  46.7491303 119.1156031  55.8380721
  45.5525898 120.0033092  55.5694670  49.9832109 118.1001349  61.8741216
  49.2618695 118.7137317  61.7348689  50.7725365 118.6359114  61.7957862
  52.7858422 115.4355776  68.1481868  53.3092824 115.6818072  68.9108177
  52.5670756 116.2675811  67.7285005  48.1825703 117.7059450  56.0152993
  47.8538410 116.8256829  55.8328098  48.5365074 117.6507119  56.9029382
  51.2967527 117.9932420  56.3828470  51.6363599 118.5218341  55.6607079
  51.7439647 118.3312826  57.1587037  53.9910967 116.3769471  65.8331538
  53.6507788 115.5777284  66.2352218  53.2849974 116.6771182  65.2608371
  54.6427439 113.4618783  64.2858861  55.4653509 112.9879261  64.1637752
  54.8865503 114.2409267  64.7857548  53.2835674 116.4907042  54.5821763
  54.0044036 116.8688294  54.0785480  52.6600978 117.2095918  54.6856741
  57.4266797 117.1952191  55.5180095  57.6430411 118.0776829  55.2168923
  56.9460864 116.8038404  54.7885737  52.1666018 120.1537904  62.0950840
  52.0210599 120.4678207  62.9875121  51.6891222 120.7722804  61.5421739
  54.0262401 117.1440452  62.1431729  54.0123970 116.2481545  61.8064027
  54.7434829 117.1511116  62.7770015  55.8788532 117.5777792  64.1884857
  55.6206309 118.4994863  64.1869187  55.3473572 117.1808227  64.8785321
  53.4299297 116.0254832  57.4119300  53.5515208 115.0971478  57.6110187
  53.1401339 116.0393518  56.4997615  56.2990487 113.7109743  60.5486019
  56.3212184 113.7749076  59.5937999  56.7158546 112.8714251  60.7426526
  66.6774112 123.4465002  58.5865242  67.1205258 122.6972327  58.1884365
  65.8000622 123.4375138  58.2038974  52.9140376 117.5386829  71.6209232
  52.9628532 118.4148952  71.2387002  53.4562891 116.9964223  71.0480875
  63.5193097 124.9320419  68.2143098  63.5691102 124.7670427  69.1558621
  63.4107020 124.0647678  67.8240979  60.8096859 120.9151347  69.5302405
  61.7106722 120.7757812  69.2386402  60.8844834 121.0805802  70.4700582
  55.1439665 118.2918202  68.3755591  54.2742974 118.5851768  68.1038179
  55.3799145 118.8758647  69.0962854  66.2206976 124.9170240  60.9787690
  67.0553868 125.3560044  61.1425250  66.3566105 124.4408894  60.1595935
  63.2698482 122.4749975  66.9265177  63.7452604 122.6677622  66.1184029
  62.3464047 122.5309161  66.6808561  57.8478699 114.5097819  65.8921011
  58.3660642 115.2458846  65.5667500  57.4933831 114.8161812  66.7267770
  49.4277636 119.3702500  54.0082417  48.7346881 119.4446855  53.3522453
  49.1829388 118.6062844  54.5303934  58.0991293 110.9298101  61.4121908
  58.3793047 110.2621290  62.0382334  58.8841900 111.1227197  60.8996572
  61.9700151 119.3515735  65.1593483  62.9217574 119.4513833  65.1805707
  61.8003602 118.5594004  65.6691567  59.9914531 116.4371319  65.3452884
  59.3964463 116.7176331  64.6499372  59.7064227 116.9265219  66.1169625
  64.4488229 122.5721855  64.2735783  64.4164549 121.6337856  64.4595466
  65.0588853 122.6505892  63.5401607  56.2871560 121.4417908  50.3162987
  57.2330664 121.3124116  50.3851405  55.9085805 120.7032570  50.7932415
  64.5982717 119.3632898  64.3194066  64.0821766 118.5791355  64.1323995
  65.4822666 119.0351615  64.4840585  62.2593444 113.1073914  60.2789878
  62.0618265 112.7989002  61.1633210  62.8693150 113.8335553  60.4087808
  70.2664779 123.6337862  63.4141819  70.9968167 123.3723150  63.9749523
  69.6571724 122.8966584  63.4543887  68.3480076 121.7745724  64.0116271
  67.6213239 121.6401689  63.4032762  67.9327363 122.0822553  64.8172989
  54.4714477 119.3667884  50.2517872  53.5645932 119.0700997  50.3280585
  54.7490458 119.0697702  49.3852158  56.0876543 113.9104774  56.4062113
  55.2777271 113.5651859  56.7817359  56.7760960 113.6012318  56.9949725
  58.0167091 112.9882821  58.0286410  58.5698130 113.4078274  58.6876433
  58.2537177 112.0618569  58.0709366  54.0400190 118.9769895  73.8089174
  53.9396917 119.9264252  73.7401265  53.8221732 118.6488133  72.9365244
  53.2413262 116.2254820  50.3929851  54.1032426 116.5509718  50.6525668
  53.4263606 115.4386316  49.8802917  61.3945898 115.0983346  57.5365074
  60.8144567 115.7568150  57.1543126  61.1281831 114.2760691  57.1252492
  59.8449464 114.4988404  59.7386394  60.3449243 114.6104938  58.9300713
  60.4885072 114.1949457  60.3787203  53.9031460 122.4067033  72.6254235
  53.4198542 123.2067394  72.8318124  53.9892399 122.4174978  71.6721679
  60.1770776 117.2583436  56.5921422  59.2896631 117.5433087  56.3741617
  60.5924765 117.0977200  55.7448699  63.5285312 117.2829957  60.3075762
  64.3045702 117.7726410  60.5800378  62.8033446 117.7088012  60.7647631
  65.9657871 117.9957577  61.3649702  66.5602362 117.7553313  60.6543010
  66.0384455 117.2764707  61.9923238  60.1511800 122.7737972  56.8071712
  60.0947001 123.2306524  55.9679345  60.7040142 122.0128657  56.6294555
  63.9616606 118.5627704  57.6321832  63.7053540 118.1624340  58.4630040
  63.3369474 119.2771498  57.5071971  68.2728944 121.3023778  60.1393123
  67.7128502 121.3716967  60.9124685  67.6672447 121.1264762  59.4192620
  60.8846579 123.9642754  54.1024242  60.8295383 123.7987025  53.1612686
  60.2592634 124.6718787  54.2586431  45.6739094 119.2010818  67.9285664
  46.3197958 118.6909772  68.4172889  45.4656245 119.9379500  68.5029089
  54.1942705 113.4650863  53.6809560  54.1821374 114.4092703  53.8377831
  55.0866126 113.2821008  53.3869021  58.0094824 110.0593639  57.9355497
  57.2427220 109.5052126  58.0812179  58.4205529 110.1315508  58.7969648
  50.0136585 116.3478435  72.0260678  50.8768047 115.9915240  72.2364003
  49.4401996 116.0092330  72.7136082  69.4343210 127.1998134  64.8875188
  69.0907479 128.0899775  64.8114298  69.8022172 127.0099791  64.0244773
  71.2330875 126.4591693  59.9892926  71.5389752 125.5989056  59.7018841
  71.9583480 127.0509313  59.7891919  71.5032493 128.8885928  62.4876846
  70.5895573 129.1190155  62.6559053  71.9325595 128.9724372  63.3390879
  68.9385047 126.2590019  61.4121908  69.2186801 125.5913208  62.0382334
  69.7235654 126.4519115  60.8996572  73.0987199 128.4365832  60.2789878
  72.9012020 128.1280920  61.1633210  73.7086904 129.1627471  60.4087808
  68.8560845 128.3174739  58.0286410  69.4091884 128.7370192  58.6876433
  69.0930932 127.3910487  58.0709366  68.8488579 125.3885557  57.9355497
  68.0820974 124.8344044  58.0812179  69.2599283 125.4607426  58.7969648
   4.8222436  23.0090908  49.5568386   5.4600846  22.8897655  48.8531726
   4.7043279  23.9571752  49.6156338   1.6312143  22.9618336  49.4929910
   1.2930654  22.8459401  48.6050445   2.5001911  22.5609501  49.4730917
   2.1131926  24.1153188  55.4516116   2.1020566  23.7205986  54.5796620
   2.2752565  23.3819260  56.0449887   3.0698517  28.4824780  40.7941266
   2.4186497  29.0678861  40.4075280   3.8642880  29.0130975  40.8536304
   4.3763705  20.7342362  46.6321594   5.1626794  20.3161785  46.2812011
   4.6402409  21.6388454  46.8003242   4.5473782  26.1715212  41.3310251
   3.9119615  26.2449839  42.0431155   4.2171189  26.7608811  40.6529330
   9.7772132  20.6717595  47.5354572  10.5097304  20.1016812  47.7692402
   9.0211488  20.2839195  47.9761078   1.3948252  23.0944837  44.7317915
   1.0306459  22.5675458  45.4430836   2.2515368  22.7043306  44.5584400
   7.2997552  14.3839169  51.9949181   6.9680877  15.2534580  51.7710396
   6.7043166  14.0675453  52.6743211   1.0353739  18.1234736  39.7279263
   1.2028141  18.9914973  40.0949734   0.8450908  18.2862018  38.8040553
   3.7929072  26.5851715  51.3945094   3.4929795  27.4876754  51.2860901
   3.4480131  26.3183898  52.2466247   7.1926216  19.1034255  49.0742531
   6.2843093  19.0349664  48.7801292   7.1413811  19.5806200  49.9024356
   1.2667081  20.5223901  57.0177428   0.4900415  21.0817821  57.0080293
   1.9057644  21.0080684  57.5392298   9.0587862  17.3050694  50.8520405
   8.4162242  17.5983227  50.2060199   8.5542791  17.1903614  51.6573602
   6.7128026  21.0513867  41.5406264   7.6245882  21.2841254  41.3653962
   6.2037673  21.6350911  40.9781343   4.9968793  25.4738495  55.1767557
   5.4052149  25.0320905  54.4322189   4.2746055  24.8991122  55.4301750
   1.3499863  20.4111102  52.5501114   2.1961059  20.8350515  52.6935763
   1.2898501  19.7544726  53.2439677   5.3197608  26.0339685  48.9319846
   4.6906470  26.1985399  48.2295913   4.9323270  26.4481295  49.7030810
   9.1986840  26.9694123  46.2864209   8.5137878  27.3493025  45.7361243
   9.2830689  27.5789450  47.0196157   4.4999309  18.0715470  54.2082287
   4.2560241  18.8257530  53.6716563   4.7759239  18.4500817  55.0429534
   6.4537771  24.6154082  52.8859553   6.6654667  25.2585842  52.2093934
   6.4067520  23.7816399  52.4181483   4.0564000  17.2271903  49.7896125
   3.1948479  17.5253156  50.0812863   4.0826435  17.4442302  48.8577158
   0.8725570  25.7714093  46.1969931   1.3363915  26.0501796  45.4074553
   0.6082368  24.8697538  46.0143021   7.5683599  27.4926038  51.0581910
   8.3901043  27.0906225  50.7764592   7.5646002  27.3894272  52.0098026
   1.3340203  27.0410081  53.2142621   1.3984635  27.5030488  54.0500793
   0.6251127  26.4107446  53.3424931  15.6589592  23.8364786  47.4066882
  14.9053301  23.2672184  47.2510886  15.7937134  23.8027451  48.3537516
   1.0488221  28.7078188  43.0821601   0.9133895  29.5529724  43.5106449
   1.5898033  28.9097466  42.3187535   2.6756697  29.3301755  57.2121943
   2.2320551  28.5438134  56.8942848   3.3373910  29.5180905  56.5465834
   4.7737935  29.6104555  55.2403344   4.7556410  30.4313436  54.7483614
   5.6957855  29.4858630  55.4653486   1.2310989  27.1248684  56.0826853
   1.7639326  26.3636973  55.8526161   0.7025070  26.8322336  56.8251007
   4.3630967  22.2217361  40.1192930   3.8477590  22.9921966  40.3581317
   4.0908275  21.5482498  40.7425991   9.3365241  24.9749716  42.0546103
   8.5594684  24.6360876  41.6101265  10.0156722  24.9802339  41.3801068
   4.1517270  20.0944454  41.9452711   3.8467406  20.4090603  42.7962854
   5.1047712  20.1725873  41.9880044   2.5963702  26.2534677  43.5945665
   2.0685063  25.5187436  43.2818902   2.0951205  27.0309353  43.3485633
   7.5756548  24.4483697  48.7112711   6.9180222  25.1382959  48.7992840
   8.3796947  24.8380129  49.0546697   6.3862007  22.8028070  46.7616653
   6.8993888  23.4358062  47.2638363   7.0363231  22.2029266  46.3960013
   3.6484381  32.7812394  39.5177324   2.9746080  33.0844091  40.1262282
   4.0350203  33.5841475  39.1682781   2.8642838  20.2777526  49.0074993
   1.9465399  20.4992473  48.8496681   3.2802981  20.3523836  48.1486701
   3.6477885  21.6768941  44.1377674   4.3949704  22.1890338  43.8284796
   3.9169475  21.3552994  44.9982067   1.9204535  24.1727482  41.1204628
   1.0115755  23.8886515  41.2177098   1.9499619  24.5926561  40.2607935
   7.1523803  27.7834071  44.8895795   6.6986130  26.9424981  44.9460986
   6.5217770  28.4195470  45.2270576   6.0956722  18.7126058  46.1196463
   5.3579479  18.2003444  46.4506705   6.3483496  18.2726439  45.3079740
   5.5956742  29.6210568  45.8245614   5.8879716  30.1815625  45.1057979
   6.1055363  29.9139129  46.5798773   1.6180623  25.7136226  38.4592706
   1.1800053  24.9972085  37.9998344   2.3591064  25.9412340  37.8977798
   0.5590367  30.3990919  46.9139067   0.5166546  30.6251766  45.9847599
   1.4753066  30.1654294  47.0624868   4.0056001  20.8674987  53.8119696
   4.3605389  21.0946460  54.6714162   4.6528132  21.1993364  53.1896951
   9.7353738  23.9893423  44.5169025   9.5971637  24.1795019  43.5890214
   9.3789957  24.7512805  44.9737076   9.7623118  26.0569950  49.5280297
  10.1959624  25.9645239  50.3763351  10.4754698  26.0327450  48.8900313
   3.4951013  29.6572044  51.0613397   3.5488035  30.2262980  51.8291113
   2.6265794  29.8273929  50.6967434  10.6238667  26.0993650  52.0613182
  10.8174557  27.0039461  52.3072457  10.5239285  25.6401069  52.8951767
   5.6853776  26.2500393  57.6354063   5.5339282  26.0210945  56.7184146
   5.6758455  27.2070995  57.6485408   2.4539112  23.8232306  52.6200329
   3.3831172  23.9743465  52.4469296   2.0330142  23.9116327  51.7648976
   1.8475596  32.9492067  41.7324403   2.0227352  32.4780110  42.5470026
   1.1608384  33.5757833  41.9605664   2.8032659  27.2264573  47.7787704
   2.4682492  27.1865343  48.6745354   2.3036605  26.5609289  47.3058115
   5.7391851  24.5720607  38.0524764   5.1221022  23.8467435  37.9557817
   5.2708339  25.3329968  37.7091838   7.3945983  29.2819516  55.7130544
   7.3358529  28.5978736  55.0461127   7.7965501  30.0238506  55.2611170
   7.3963390  27.2459100  53.9444524   6.5090169  26.9085021  54.0670923
   7.9661941  26.5142131  54.1813289   0.9264543  31.9060552  50.9105767
   0.8534715  32.7115523  51.4225072   0.4841936  32.1052518  50.0853789
   4.0250973  16.9526951  47.0642794   4.5219672  16.1996914  46.7443864
   3.2537954  16.9891268  46.4986004  11.8780730  22.6567317  48.7061086
  11.8670607  23.5392032  48.3355019  11.0098110  22.3038868  48.5115623
   3.3863227  31.8047386  53.0663926   4.0991199  32.4394851  52.9939827
   2.8953255  31.9011252  52.2503928   5.1080754  25.7098639  44.6381218
   4.1737032  25.8300101  44.4685922   5.2857422  24.8071105  44.3741227
   8.4953305  21.5515958  45.1731252   8.9613757  22.3843950  45.0991554
   8.9460805  21.0860939  45.8776510   6.5629536  27.8959779  42.1717404
   6.8389380  27.7816374  43.0811278   5.6934035  27.4977264  42.1329577
   6.2376426  22.1086437  51.7122047   5.5847876  22.3562344  51.0574500
   6.6156806  21.2950575  51.3784524   3.1983600  32.1446130  45.8150217
   3.3805995  31.3267786  46.2777970   4.0216586  32.3613822  45.3775107
   3.5325766  31.0714315  43.0765266   4.0613532  30.5606770  42.4635428
   3.7953985  30.7556845  43.9410799   2.2863999  22.8506248  58.1988084
   1.6104636  22.7500377  58.8690459   3.1091633  22.6945462  58.6624081
   1.0286782  34.1573175  52.4345700   1.5805090  34.3204797  53.1994785
   1.3692976  34.7477613  51.7625725   5.8797656  28.9834433  58.2894355
   6.4237560  29.5964391  57.7949309   5.2984501  29.5414011  58.8061368
   4.1655169  32.1055151  49.4209382   4.0406309  31.3044891  48.9120328
   4.8234261  32.6001344  48.9323352   6.2290078  29.9064171  51.0488932
   5.2820413  29.7869522  50.9767259   6.5772851  29.0186669  51.1315194
   3.2336511  29.7016887  47.2493285   3.0861474  28.7733595  47.4300855
   4.0590005  29.7236978  46.7650360   6.8370633  30.5245446  48.3358157
   7.7617180  30.3188307  48.1982609   6.6685936  30.2761847  49.2447499
   3.2298025  17.5554725  42.2425402   3.4461640  18.4379363  41.9414230
   2.7492093  17.1640938  41.5131044   6.6265949  31.0431113  43.6920249
   6.8002827  30.4777536  42.9394101   7.1194840  31.8432008  43.5099739
  12.4805340  23.8067536  45.3110549  12.9236486  23.0574862  44.9129672
  11.6031851  23.7977673  44.9284281   7.6141122  30.3597878  40.7917147
   8.3092026  30.9804570  41.0104462   7.9564272  29.5093229  41.0669525
   9.5132545  27.8097583  42.3204478  10.0383869  28.1484856  41.5953798
   9.4254897  26.8744599  42.1367613   1.1752593  31.7231657  54.4494355
   1.4839720  31.4780804  55.3217054   1.9728075  31.9278295  53.9613225
   1.1973205  33.8769567  46.6799731   0.7578196  33.3845945  47.3732588
   1.9481322  33.3342534  46.4391806   9.2026451  28.4430487  57.6255676
   8.4121995  28.4254626  57.0860175   8.9659805  28.9818781  58.3804712
   9.3224326  25.2922953  54.9388404   9.3722331  25.1272961  55.8803927
   9.2138249  24.4250212  54.5486285   6.6128088  21.2753881  56.2547711
   7.5137951  21.1360346  55.9631709   6.6876063  21.4408336  57.1945889
  10.8242523  27.7119895  55.1830426  10.5327331  28.0749875  56.0193887
  10.2114654  26.9986903  55.0043758  12.0238205  25.2772775  47.7032996
  12.8585096  25.7162579  47.8670557  12.1597334  24.8011428  46.8841242
   9.0729711  22.8352509  53.6510484   9.5483833  23.0280156  52.8429335
   8.1495276  22.8911695  53.4053868   1.7055990  30.4659629  39.6992241
   1.1329957  31.0849817  39.2462713   2.2788784  31.0158991  40.2332163
   7.7731380  19.7118270  51.8838790   8.7248803  19.8116367  51.9051014
   7.6034830  18.9196538  52.3936874   5.7945759  16.7973853  52.0698191
   5.1995692  17.0778865  51.3744679   5.5095456  17.2867754  52.8414932
   4.9253250  30.7496780  40.8300823   5.8583923  30.6842341  41.0333699
   4.8376463  31.5853046  40.3715356   7.5541267  30.0662650  37.7904771
   7.4754898  29.7322514  38.6840529   8.3750933  30.5584418  37.7896243
  10.2519458  22.9324389  50.9981089  10.2195778  21.9940390  51.1840773
  10.8620081  23.0108426  50.2646914   2.0902789  21.8020442  37.0408293
   3.0361893  21.6726650  37.1096711   1.7117034  21.0635104  37.5177721
  10.4013946  19.7235433  51.0439372   9.8852995  18.9393889  50.8569301
  11.2853895  19.3954149  51.2085892   8.0624673  13.4676448  47.0035185
   7.8649494  13.1591536  47.8878517   8.6724379  14.1938087  47.1333115
  16.0696008  23.9940396  50.1387126  16.7999396  23.7325684  50.6994829
  15.4602953  23.2569118  50.1789194  14.1511305  22.1348259  50.7361577
  13.4244468  22.0004224  50.1278069  13.7358592  22.4425087  51.5418295
   1.9741481  25.8538188  58.5008950   2.8944491  26.0316787  58.6948997
   1.9391064  24.9094234  58.3488650   7.1977127  15.4585880  44.2610381
   6.6175796  16.1170684  43.8788433   6.9313060  14.6363225  43.8497798
   5.6480693  14.8590938  46.4631701   6.1480472  14.9707473  45.6546020
   6.2916301  14.5551991  47.1032509   5.9802005  17.6185971  43.3166729
   5.0927860  17.9035621  43.0986924   6.3955994  17.4579734  42.4694006
   9.3316541  17.6432492  47.0321068  10.1076931  18.1328944  47.3045685
   8.6064675  18.0690546  47.4892938  11.7689100  18.3560111  48.0895009
  12.3633590  18.1155847  47.3788317  11.8415683  17.6367241  48.7168545
   5.1245218  27.3830645  37.4114749   5.8281068  27.5880648  38.0272405
   4.4007867  27.9507407  37.6763832   5.9543029  23.1340507  43.5317019
   5.8978230  23.5909058  42.6924652   6.5071371  22.3731191  43.3539862
   9.7647835  18.9230238  44.3567139   9.5084769  18.5226874  45.1875346
   9.1400703  19.6374032  44.2317278  14.0760172  21.6626312  46.8638430
  13.5159730  21.7319501  47.6369992  13.4703676  21.4867296  46.1437926
   7.0331916  27.8213175  39.4613209   7.8677520  27.3894373  39.2790684
   6.8716259  27.6495188  40.3890103   6.6877808  24.3245288  40.8269548
   6.6326612  24.1589559  39.8857992   6.0623863  25.0321321  40.9831738
   4.0023715  26.6294200  60.1523111   4.8714875  26.8034852  59.7909746
   3.5230467  27.4488617  60.0298840  15.6616191  38.3382826  49.5568386
  16.2994601  38.2189573  48.8531726  15.5437034  39.2863670  49.6156338
  12.4705897  38.2910254  49.4929910  12.1324409  38.1751318  48.6050445
  13.3395665  37.8901419  49.4730917   8.3292713  40.1445730  45.4826801
   7.7657578  40.0535667  44.7143089   8.2145108  39.3245635  45.9629294
  12.9525680  39.4445105  55.4516116  12.9414321  39.0497904  54.5796620
  13.1146320  38.7111178  56.0449887   5.8757145  41.6396922  48.3211022
   6.6678437  41.2987746  47.9057321   6.1153795  41.7491897  49.2413175
  13.9092272  43.8116698  40.7941266  13.2580251  44.3970778  40.4075280
  14.7036634  44.3422893  40.8536304   7.8347899  40.9005835  41.1928401
   8.6078775  40.3534822  41.0541276   8.1873298  41.7650084  41.4042862
   9.6732941  42.2282217  54.3995300   9.3822807  43.1327848  54.2841966
  10.3089926  42.2698745  55.1139369  10.5989148  39.6059066  50.9896660
  11.1952720  39.3815088  50.2753623  10.6564120  38.8643811  51.5922107
  10.1714176  37.0598501  38.8246851  10.4239697  36.5380022  38.0630314
   9.2338736  36.8964647  38.9273534  15.2157459  36.0634280  46.6321594
  16.0020549  35.6453703  46.2812011  15.4796164  36.9680372  46.8003242
  15.3867537  41.5007130  41.3310251  14.7513370  41.5741756  42.0431155
  15.0564943  42.0900729  40.6529330  20.6165886  36.0009513  47.5354572
  21.3491058  35.4308730  47.7692402  19.8605242  35.6131113  47.9761078
   9.8910465  38.9626607  41.0271226   9.7746723  38.2871510  41.6952310
  10.0012725  38.4758981  40.2103379  12.2342006  38.4236754  44.7317915
  11.8700213  37.8967375  45.4430836  13.0909122  38.0335223  44.5584400
  18.1391307  29.7131087  51.9949181  17.8074632  30.5826498  51.7710396
  17.5436920  29.3967371  52.6743211  11.8747493  33.4526654  39.7279263
  12.0421895  34.3206890  40.0949734  11.6844662  33.6153936  38.8040553
  14.6322826  41.9143633  51.3945094  14.3323549  42.8168672  51.2860901
  14.2873886  41.6475816  52.2466247   8.0835308  38.3657430  47.4281798
   7.1585804  38.2333644  47.6359490   8.3319721  39.1451649  47.9251740
  18.0319970  34.4326173  49.0742531  17.1236847  34.3641581  48.7801292
  17.9807566  34.9098118  49.9024356  11.8536714  35.9084311  40.7125930
  11.7336339  36.3541362  41.5511410  11.1589302  36.2569629  40.1539468
   5.4444119  38.0090703  48.2625587   5.5736500  38.2625182  49.1764999
   4.7641570  38.6018411  47.9430242   9.6143606  48.6787953  44.3616061
   9.5367636  49.6295778  44.4404542   9.0105250  48.3333826  45.0190988
  12.1060836  35.8515819  57.0177428  11.3294170  36.4109739  57.0080293
  12.7451399  36.3372602  57.5392298  19.8981617  32.6342611  50.8520405
  19.2555997  32.9275145  50.2060199  19.3936545  32.5195532  51.6573602
  17.5521780  36.3805785  41.5406264  18.4639636  36.6133171  41.3653962
  17.0431427  36.9642829  40.9781343  10.3607208  38.6601272  56.5795395
  11.1021893  39.1986316  56.3030219   9.6544194  39.2867561  56.7366947
  15.8362548  40.8030412  55.1767557  16.2445904  40.3612823  54.4322189
  15.1139809  40.2283040  55.4301750  12.1893618  35.7403019  52.5501114
  13.0354813  36.1642433  52.6935763  12.1292256  35.0836643  53.2439677
  16.1591362  41.3631603  48.9319846  15.5300225  41.5277317  48.2295913
  15.7717025  41.7773213  49.7030810  20.0380594  42.2986041  46.2864209
  19.3531633  42.6784942  45.7361243  20.1224444  42.9081368  47.0196157
  15.3393063  33.4007388  54.2082287  15.0953995  34.1549448  53.6716563
  15.6152994  33.7792735  55.0429534  17.2931526  39.9446000  52.8859553
  17.5048421  40.5877760  52.2093934  17.2461274  39.1108316  52.4181483
  14.8957755  32.5563821  49.7896125  14.0342234  32.8545074  50.0812863
  14.9220190  32.7734219  48.8577158  11.7119324  41.1006011  46.1969931
  12.1757670  41.3793714  45.4074553  11.4476122  40.1989456  46.0143021
   8.6043405  40.6477493  49.1349694   9.1744762  41.0764761  48.4967178
   9.1951517  40.3660077  49.8333880  10.6488210  37.2229163  43.0059496
  11.3512254  37.6750207  43.4733422  10.3168839  36.5812982  43.6339389
   9.0968572  35.8140920  57.3810705   8.4667233  36.4957201  57.6146102
   8.9904660  35.7024002  56.4363843   4.3913544  35.4812716  48.3076629
   3.6012598  35.7370245  47.8316740   4.8824792  36.2961054  48.4128670
  18.4077354  42.8217955  51.0581910  19.2294798  42.4198143  50.7764592
  18.4039757  42.7186189  52.0098026   6.3428290  35.8457295  45.2660106
   5.5459453  35.9575990  45.7843602   6.1153882  36.1843948  44.4000997
  12.1733957  42.3701999  53.2142621  12.2378390  42.8322406  54.0500793
  11.4644881  41.7399364  53.3424931   2.6751247  35.7343207  50.7391620
   2.9259286  36.6190217  51.0049196   3.2110796  35.5547808  49.9666712
  26.4983347  39.1656704  47.4066882  25.7447055  38.5964102  47.2510886
  26.6330888  39.1319368  48.3537516  11.8881975  44.0370106  43.0821601
  11.7527650  44.8821642  43.5106449  12.4291788  44.2389384  42.3187535
   8.3749315  30.1161686  59.7435956   7.9816260  29.5627885  60.4183601
   9.1915455  30.4272264  60.1342474   5.3411372  41.5545544  43.6549526
   5.8535893  42.3488794  43.8055091   5.9934085  40.8571835  43.5883128
   7.1506257  44.6711300  45.7372279   7.3272885  45.5929265  45.5493263
   7.9463091  44.3569720  46.1666659  11.2917276  31.5319565  57.3356213
  12.0326989  32.1326718  57.2560675  11.5235198  30.7897203  56.7774255
   6.4358614  36.7175932  55.6134443   6.3212129  35.8161190  55.9141541
   5.5803131  36.9639629  55.2619259  13.5150451  44.6593673  57.2121943
  13.0714306  43.8730051  56.8942848  14.1767665  44.8472823  56.5465834
   8.2737573  46.1889474  51.7382622   8.8244998  46.0606538  50.9659616
   7.4349048  46.4884363  51.3877514  15.6131689  44.9396473  55.2403344
  15.5950165  45.7605354  54.7483614  16.5351610  44.8150548  55.4653486
  12.0704744  42.4540602  56.0826853  12.6033080  41.6928890  55.8526161
  11.5418825  42.1614254  56.8251007  15.2374439  27.5600668  51.6120495
  14.8938708  28.4502310  51.5359605  15.6053401  27.3702326  50.7490080
   3.3060289  39.8834198  44.4309097   4.1435511  40.2931207  44.2142804
   3.4838557  38.9433641  44.4009291  15.2024721  37.5509279  40.1192930
  14.6871345  38.3213884  40.3581317  14.9302030  36.8774415  40.7425991
  12.7871832  32.3958980  45.1778168  11.9313429  32.0065830  44.9983807
  13.1998784  32.4750941  44.3177954  14.3170979  29.9305323  49.5769728
  13.8135775  29.8935458  48.7637533  14.6101586  30.8398066  49.6366384
  10.5613865  30.0144053  48.5835909  11.4266862  29.8186862  48.2241799
  10.6291374  29.7854405  49.5105266  20.1758995  40.3041634  42.0546103
  19.3988438  39.9652793  41.6101265  20.8550476  40.3094257  41.3801068
  14.9911024  35.4236371  41.9452711  14.6861160  35.7382520  42.7962854
  15.9441467  35.5017791  41.9880044  13.4357456  41.5826595  43.5945665
  12.9078818  40.8479354  43.2818902  12.9344959  42.3601271  43.3485633
  18.4150302  39.7775615  48.7112711  17.7573977  40.4674876  48.7992840
  19.2190702  40.1672047  49.0546697   8.1676184  32.2446261  45.9552276
   8.7419936  32.0221442  45.2225469   8.7547166  32.3134955  46.7080878
  17.2255761  38.1319988  46.7616653  17.7387643  38.7649980  47.2638363
  17.8756985  37.5321183  46.3960013   8.4945771  34.2750722  39.9748162
   7.6583083  34.6125408  40.2957436   8.3550541  34.1399702  39.0375299
  10.4698852  29.1187510  44.6827346   9.8163264  28.8036527  44.0583961
  10.4279326  28.4963250  45.4087169  11.5810057  39.4006805  36.5980638
  10.6737118  39.1696058  36.7971787  12.0781088  38.6044424  36.7854619
  14.4878135  48.1104312  39.5177324  13.8139834  48.4136009  40.1262282
  14.8743957  48.9133392  39.1682781  13.7036592  35.6069443  49.0074993
  12.7859153  35.8284390  48.8496681  14.1196736  35.6815754  48.1486701
  14.4871640  37.0060859  44.1377674  15.2343459  37.5182256  43.8284796
  14.7563229  36.6844912  44.9982067  12.7598290  39.5019400  41.1204628
  11.8509509  39.2178432  41.2177098  12.7893374  39.9218478  40.2607935
  17.9917557  43.1125989  44.8895795  17.5379884  42.2716899  44.9460986
  17.3611524  43.7487388  45.2270576  16.9350477  34.0417975  46.1196463
  16.1973234  33.5295361  46.4506705  17.1877250  33.6018357  45.3079740
  16.4350497  44.9502486  45.8245614  16.7273471  45.5107543  45.1057979
  16.9449117  45.2431047  46.5798773  17.0362104  26.8194227  46.7138232
  17.3420981  25.9591591  46.4264147  17.7614709  27.4111847  46.5137226
   3.3286460  37.2224914  45.1019830   3.1310860  36.6294274  44.3770897
   2.7733124  36.9177124  45.8195769  11.3083184  37.1148020  47.2214423
  11.3631794  36.1621857  47.1456900  10.4974386  37.2707459  47.7055722
  12.4574378  41.0428143  38.4592706  12.0193808  40.3264002  37.9998344
  13.1984819  41.2704258  37.8977798   9.2475544  35.7325080  44.9804802
   8.4343409  36.0319251  45.3869994   9.7434538  35.3380769  45.6979284
  11.3984122  45.7282837  46.9139067  11.3560301  45.9543683  45.9847599
  12.3146821  45.4946212  47.0624868  14.8449756  36.1966904  53.8119696
  15.1999143  36.4238378  54.6714162  15.4921887  36.5285281  53.1896951
  20.5747493  39.3185340  44.5169025  20.4365391  39.5086936  43.5890214
  20.2183711  40.0804723  44.9737076   8.7389619  33.3043436  50.5966037
   9.3788998  33.1632195  49.8989000   7.9067149  33.0177949  50.2204639
  20.6016872  41.3861867  49.5280297  21.0353379  41.2937156  50.3763351
  21.3148453  41.3619368  48.8900313   9.5149923  42.6045866  46.7101030
  10.3090521  42.1096186  46.5083604   8.8041615  42.0763729  46.3468735
  14.3344767  44.9863961  51.0613397  14.3881789  45.5554898  51.8291113
  13.4659548  45.1565847  50.6967434   5.8232686  36.7488948  42.7860782
   4.8930274  36.6873403  43.0030744   5.9190158  36.2264900  41.9897423
   5.7418235  33.2743761  45.3739024   6.0025052  34.1889094  45.2648184
   6.5635407  32.8068203  45.5235637   7.2143160  34.6881518  52.5437848
   7.8866214  34.4798880  51.8950497   6.3872947  34.4903604  52.1043081
  21.4632422  41.4285568  52.0613182  21.6568312  42.3331379  52.3072457
  21.3633040  40.9692987  52.8951767  13.1168732  31.3143459  54.5603509
  12.4696647  32.0133408  54.4667986  13.8869748  31.7479603  54.9279757
  16.5247530  41.5792311  57.6354063  16.3733037  41.3502862  56.7184146
  16.5152210  42.5362912  57.6485408  13.2932867  39.1524224  52.6200329
  14.2224927  39.3035383  52.4469296  12.8723897  39.2408244  51.7648976
  12.0921199  43.1774888  50.3898867  11.9532284  42.8093672  51.2624805
  11.3035795  43.6922527  50.2182824  12.6869351  48.2783984  41.7324403
  12.8621106  47.8072028  42.5470026  12.0002139  48.9049751  41.9605664
  13.6426414  42.5556491  47.7787704  13.3076246  42.5157261  48.6745354
  13.1430359  41.8901207  47.3058115   7.6170658  37.9624121  53.3040286
   7.4790456  37.2304359  53.9051825   8.5275581  37.8733021  53.0224473
  16.5785605  39.9012525  38.0524764  15.9614776  39.1759353  37.9557817
  16.1102094  40.6621885  37.7091838  10.2452958  37.6744080  52.7923965
  10.9552577  37.0337272  52.7510584  10.2022267  37.9256975  53.7150146
  18.2339737  44.6111433  55.7130544  18.1752283  43.9270653  55.0461127
  18.6359255  45.3530423  55.2611170   8.9581892  34.6609298  54.6119605
   8.4219249  34.2100036  55.2641201   8.3698601  34.7955207  53.8690069
   7.2530436  51.4273347  48.5064263   7.4927034  52.0591871  49.1843282
   6.4099632  51.0761387  48.7929623   8.3684151  34.1197949  37.1746068
   7.4913618  33.9986750  36.8108315   8.8441904  33.3284028  36.9224957
  18.2357144  42.5751017  53.9444524  17.3483923  42.2376939  54.0670923
  18.8055695  41.8434048  54.1813289   4.6921014  33.7965306  51.6972599
   4.6079202  33.1890975  50.9623009   3.8703720  34.2874324  51.6982096
  11.7658298  47.2352470  50.9105767  11.6928469  48.0407441  51.4225072
  11.3235691  47.4344435  50.0853789  11.5548077  46.4724240  44.4208589
  10.7715599  47.0145920  44.5146813  12.2540822  46.9898219  44.8202830
  14.8644727  32.2818869  47.0642794  15.3613427  31.5288831  46.7443864
  14.0931709  32.3183186  46.4986004  22.7174485  37.9859235  48.7061086
  22.7064361  38.8683950  48.3355019  21.8491864  37.6330785  48.5115623
  14.2256981  47.1339304  53.0663926  14.9384953  47.7686768  52.9939827
  13.7347010  47.2303170  52.2503928  15.9474508  41.0390556  44.6381218
  15.0130787  41.1592019  44.4685922  16.1251177  40.1363023  44.3741227
  11.4479696  34.4236252  46.7914479  11.0777484  33.8707292  47.4795384
  11.9438789  33.8194386  46.2389479  19.3347059  36.8807876  45.1731252
  19.8007512  37.7135867  45.0991554  19.7854560  36.4152857  45.8776510
   9.2768895  44.8833747  53.8869497   9.9778354  45.5170230  54.0398891
   8.8064010  45.2248479  53.1265136  17.4023291  43.2251697  42.1717404
  17.6783134  43.1108291  43.0811278  16.5327789  42.8269182  42.1329577
  17.3063722  29.2488463  49.2122153  16.3926802  29.4792689  49.3804360
  17.7356824  29.3326907  50.0636185  17.0770181  37.4378355  51.7122047
  16.4241631  37.6854262  51.0574500  17.4550561  36.6242493  51.3784524
  14.0377355  47.4738048  45.8150217  14.2199749  46.6559704  46.2777970
  14.8610341  47.6905740  45.3775107  14.3719520  46.4006233  43.0765266
  14.9007287  45.8898687  42.4635428  14.6347740  46.0848763  43.9410799
  13.1257754  38.1798166  58.1988084  12.4498391  38.0792295  58.8690459
  13.9485388  38.0237379  58.6624081   4.8736613  44.4170102  50.8200599
   5.4590050  43.6713790  50.9528504   4.6761451  44.7274059  51.7037263
   7.7275268  47.4521350  45.8363042   7.0585643  47.9367477  45.3527082
   7.5888138  47.6990570  46.7506420  11.8680537  49.4865093  52.4345700
  12.4198845  49.6496715  53.1994785  12.2086730  50.0769531  51.7625725
   6.8445030  31.8340243  53.0367585   6.9086356  32.6955074  52.6244983
   6.7812150  31.2214245  52.3039943   6.3197302  33.9063375  56.6840619
   6.9469341  33.5240453  57.2978143   5.4625221  33.6877577  57.0496312
  16.7191411  44.3126351  58.2894355  17.2631315  44.9256309  57.7949309
  16.1378256  44.8705929  58.8061368   3.0962845  35.7139805  42.6158974
   3.3916286  34.8050483  42.5626028   2.1950881  35.6927544  42.2939976
  15.0048924  47.4347069  49.4209382  14.8800063  46.6336808  48.9120328
  15.6628015  47.9293262  48.9323352   6.6257092  33.7895801  48.5986523
   5.9043678  34.4031769  48.4593996   7.4150348  34.3253566  48.5203169
  17.0683832  45.2356089  51.0488932  16.1214168  45.1161440  50.9767259
  17.4166605  44.3478587  51.1315194   9.4283406  31.1250228  54.8727174
   9.9517807  31.3712524  55.6353484   9.2095739  31.9570262  54.4530312
   4.8250687  33.3953902  42.7398299   4.4963393  32.5151281  42.5573405
   5.1790057  33.3401571  43.6274688  14.0730266  45.0308805  47.2493285
  13.9255228  44.1025512  47.4300855  14.8983759  45.0528896  46.7650360
   7.9392510  33.6826872  43.1073777   8.2788582  34.2112793  42.3852385
   8.3864630  34.0207278  43.8832343  17.6764387  45.8537364  48.3358157
  18.6010935  45.6480225  48.1982609  17.5079691  45.6053765  49.2447499
  10.6335951  32.0663923  52.5576845  10.2932771  31.2671736  52.9597525
   9.9274957  32.3665634  51.9853678  11.2852423  29.1513235  51.0104168
  12.1078492  28.6773713  50.8883058  11.5290486  29.9303719  51.5102854
   9.9260657  32.1801494  41.3067070  10.6469020  32.5582746  40.8030786
   9.3025961  32.8990370  41.4102048  14.0691780  32.8846643  42.2425402
  14.2855394  33.7671280  41.9414230  13.5885847  32.4932856  41.5131044
   8.8091001  35.8432356  48.8196147   8.6635582  36.1572659  49.7120428
   8.3316205  36.4617256  48.2667045  10.6687384  32.8334904  48.8677036
  10.6548953  31.9375997  48.5309334  11.3859812  32.8405567  49.5015322
  12.5213515  33.2672244  50.9130164  12.2631293  34.1889315  50.9114494
  11.9898555  32.8702678  51.6030628  17.4659704  46.3723031  43.6920249
  17.6396581  45.8069454  42.9394101  17.9588595  47.1723926  43.5099739
   3.2836663  38.3837700  51.7583808   2.7390132  39.1597508  51.8904082
   4.1616013  38.7308505  51.6002929  10.0724280  31.7149284  44.1364606
  10.1940191  30.7865930  44.3355494   9.7826322  31.7287970  43.2242922
  12.9415470  29.4004194  47.2731326  12.9637167  29.4643528  46.3183306
  13.3583529  28.5608703  47.4671832  23.3199095  39.1359454  45.3110549
  23.7630241  38.3866779  44.9129672  22.4425605  39.1269590  44.9284281
  18.4534876  45.6889795  40.7917147  19.1485781  46.3096488  41.0104462
  18.7958026  44.8385147  41.0669525   4.0702685  37.5107596  54.6513965
   3.3284421  37.6590232  55.2378595   3.7495430  37.7715862  53.7880714
  20.3526299  43.1389501  42.3204478  20.8777623  43.4776774  41.5953798
  20.2648652  42.2036516  42.1367613  12.0146348  47.0523575  54.4494355
  12.3233474  46.8072721  55.3217054  12.8121830  47.2570213  53.9613225
  12.0366960  49.2061484  46.6799731  11.5971950  48.7137863  47.3732588
  12.7875077  48.6634452  46.4391806   4.5159299  45.3973025  46.6824359
   5.3417319  45.0976797  46.3023003   4.1653351  44.6280648  47.1314148
   9.4840832  44.7499493  48.7522033   8.8620841  44.0870198  48.4524261
  10.1545699  44.7760625  48.0695681   2.7167904  43.3159352  47.6413293
   1.8799812  42.8881526  47.4597294   2.6891549  43.5091795  48.5784084
   9.5565360  33.2281281  58.3454539   9.6053515  34.1043404  57.9632308
  10.0987874  32.6858674  57.7726182  20.0420205  43.7722405  57.6255676
  19.2515749  43.7546543  57.0860175  19.8053560  44.3110698  58.3804712
  20.1618080  40.6214871  54.9388404  20.2116085  40.4564878  55.8803927
  20.0532004  39.7542130  54.5486285   9.0454339  43.3003417  42.2280493
   9.1942459  43.9838881  41.5747166   9.8520782  43.2808507  42.7429949
  17.4521843  36.6045799  56.2547711  18.3531705  36.4652264  55.9631709
  17.5269817  36.7700254  57.1945889  11.7864648  33.9812654  55.1000897
  10.9167957  34.2746220  54.8283486  12.0224128  34.5653099  55.8208161
  21.6636277  43.0411813  55.1830426  21.3721085  43.4041793  56.0193887
  21.0508408  42.3278821  55.0043758  22.8631959  40.6064692  47.7032996
  23.6978851  41.0454496  47.8670557  22.9991088  40.1303346  46.8841242
  19.9123465  38.1644427  53.6510484  20.3877587  38.3572073  52.8429335
  18.9889031  38.2203613  53.4053868   6.8006972  39.3268594  43.2341562
   6.5553014  38.4230924  43.4321772   6.9702887  39.3285745  42.2921040
  14.4903682  30.1992271  52.6166318  15.0085626  30.9353298  52.2912806
  14.1358815  30.5056264  53.4513077   6.0702620  35.0596952  40.7327724
   5.3771864  35.1341307  40.0767760   5.8254371  34.2957296  41.2549241
  14.7416276  26.6192553  48.1367214  15.0218030  25.9515742  48.7627641
  15.5266883  26.8121649  47.6241878  12.5449745  45.7951547  39.6992241
  11.9723712  46.4141734  39.2462713  13.1182538  46.3450909  40.2332163
  18.6125134  35.0410187  51.8838790  19.5642557  35.1408285  51.9051014
  18.4428585  34.2488456  52.3936874  16.6339514  32.1265770  52.0698191
  16.0389446  32.4070783  51.3744679  16.3489211  32.6159671  52.8414932
  15.7647004  46.0788697  40.8300823  16.6977678  46.0134259  41.0333699
  15.6770217  46.9144964  40.3715356  18.3935021  45.3954568  37.7904771
  18.3148653  45.0614431  38.6840529  19.2144688  45.8876336  37.7896243
  21.0913212  38.2616307  50.9981089  21.0589532  37.3232308  51.1840773
  21.7013836  38.3400344  50.2646914  12.9296543  37.1312360  37.0408293
  13.8755648  37.0018568  37.1096711  12.5510788  36.3927022  37.5177721
  21.2407701  35.0527350  51.0439372  20.7246749  34.2685807  50.8569301
  22.1247649  34.7246067  51.2085892  18.9018428  28.7968366  47.0035185
  18.7043249  28.4883454  47.8878517  19.5118133  29.5230005  47.1333115
  26.9089762  39.3232314  50.1387126  27.6393151  39.0617602  50.6994829
  26.2996708  38.5861036  50.1789194  24.9905059  37.4640176  50.7361577
  24.2638223  37.3296141  50.1278069  24.5752346  37.7717005  51.5418295
  12.8135236  41.1830106  58.5008950  13.7338245  41.3608705  58.6948997
  12.7784819  40.2386151  58.3488650  11.1139460  35.0562336  36.9763178
  10.2070916  34.7595449  37.0525892  11.3915441  34.7592154  36.1097465
   2.0317401  36.3768700  47.4262225   1.7120185  35.5234008  47.1336599
   1.4850829  36.5917278  48.1820192   5.8097308  39.0931141  51.1431731
   6.0283318  40.0248249  51.1619765   6.2223082  38.7339115  51.9286535
  12.7301526  29.5999226  43.1307420  11.9202254  29.2546311  43.5062666
  13.4185943  29.2906770  43.7195031  14.6592074  28.6777273  44.7531716
  15.2123113  29.0972726  45.4121740  14.8962161  27.7513021  44.7954672
  10.6825173  34.6664346  60.5334480  10.5821900  35.6158703  60.4646571
  10.4646716  34.3382585  59.6610550   9.8838245  31.9149272  37.1175158
  10.7457409  32.2404170  37.3770975  10.0688589  31.1280767  36.6048223
   1.9005661  39.9971611  49.3955346   1.2069132  39.5825564  48.8825301
   2.6478652  40.0392148  48.7988765  18.0370881  30.7877798  44.2610381
  17.4569550  31.4462602  43.8788433  17.7706814  29.9655143  43.8497798
  16.4874448  30.1882856  46.4631701  16.9874226  30.2999390  45.6546020
  17.1310056  29.8843909  47.1032509  10.5456444  38.0961485  59.3499542
  10.0623525  38.8961845  59.5563431  10.6317383  38.1069430  58.3966986
   3.8142403  39.9289865  47.2721361   3.7913091  40.0277552  46.3203244
   4.1243040  40.7755016  47.5938527   6.4729781  41.9866020  51.3867976
   7.4273035  41.9549962  51.3197907   6.2742305  41.5256644  52.2018202
   7.0629163  40.5567136  53.9538773   7.8822052  41.0511215  53.9773611
   7.3365971  39.6399104  53.9256341  16.8195759  32.9477888  43.3166729
  15.9321614  33.2327539  43.0986924  17.2349748  32.7871652  42.4694006
  20.1710295  32.9724409  47.0321068  20.9470686  33.4620862  47.3045685
  19.4458430  33.3982464  47.4892938  22.6082854  33.6852029  48.0895009
  23.2027345  33.4447765  47.3788317  22.6809438  32.9659159  48.7168545
   4.8280010  47.5285639  48.4038174   4.6934478  46.7686040  47.8376172
   4.4112072  48.2526539  47.9366963  15.9638973  42.7122563  37.4114749
  16.6674823  42.9172566  38.0272405  15.2401622  43.2799325  37.6763832
  16.7936783  38.4632424  43.5317019  16.7371984  38.9200976  42.6924652
  17.3465126  37.7023109  43.3539862  20.6041589  34.2522156  44.3567139
  20.3478523  33.8518792  45.1875346  19.9794457  34.9665950  44.2317278
  24.9153927  36.9918229  46.8638430  24.3553485  37.0611419  47.6369992
  24.3097430  36.8159214  46.1437926   7.9849136  48.4254957  48.6156616
   7.8681520  49.3700389  48.5135307   7.1641582  48.1228518  49.0042415
  17.8725670  43.1505092  39.4613209  18.7071274  42.7186291  39.2790684
  17.7110013  42.9787106  40.3890103  17.5271562  39.6537206  40.8269548
  17.4720366  39.4881477  39.8857992  16.9017618  40.3613238  40.9831738
   2.3164077  34.8905270  54.6530970   2.9622941  34.3804224  55.1418196
   2.1081228  35.6273952  55.2274396  14.8417470  41.9586117  60.1523111
  15.7108629  42.1326770  59.7909746  14.3624221  42.7780534  60.0298840
  10.8367688  29.1545315  40.4054867  10.8246358  30.0987154  40.5623138
  11.7291110  28.9715460  40.1114328   9.0103650  49.0783218  51.8312545
   9.9130897  49.1106829  52.1479040   8.7841020  48.1483669  51.8458881
  10.7657252  47.8314205  48.4922623   9.8152883  47.8316067  48.3786996
  11.0689738  47.0846940  47.9758658  14.6519807  25.7488091  44.6600803
  13.8852203  25.1946578  44.8057486  15.0630512  25.8209960  45.5214955
   6.6561568  32.0372887  58.7505985   7.5193030  31.6809692  58.9609309
   6.0826979  31.6986782  59.4381389  26.5009945  53.6674743  49.5568386
  27.1388355  53.5481491  48.8531726  26.3830788  54.6155587  49.6156338
  23.3099652  53.6202171  49.4929910  22.9718163  53.5043236  48.6050445
  24.1789420  53.2193337  49.4730917  19.1686467  55.4737648  45.4826801
  18.6051332  55.3827585  44.7143089  19.0538862  54.6537552  45.9629294
  23.7919435  54.7737023  55.4516116  23.7808075  54.3789821  54.5796620
  23.9540074  54.0403096  56.0449887  16.7150899  56.9688839  48.3211022
  17.5072191  56.6279664  47.9057321  16.9547549  57.0783815  49.2413175
  24.7486026  59.1408616  40.7941266  24.0974006  59.7262696  40.4075280
  25.5430389  59.6714810  40.8536304  18.6741653  56.2297753  41.1928401
  19.4472529  55.6826740  41.0541276  19.0267052  57.0942002  41.4042862
  20.5126696  57.5574135  54.3995300  20.2216562  58.4619766  54.2841966
  21.1483680  57.5990663  55.1139369  21.4382903  54.9350983  50.9896660
  22.0346475  54.7107006  50.2753623  21.4957874  54.1935729  51.5922107
  21.0107931  52.3890419  38.8246851  21.2633452  51.8671940  38.0630314
  20.0732490  52.2256564  38.9273534  26.0551214  51.3926197  46.6321594
  26.8414303  50.9745620  46.2812011  26.3189918  52.2972289  46.8003242
  26.2261291  56.8299047  41.3310251  25.5907124  56.9033674  42.0431155
  25.8958698  57.4192646  40.6529330  31.4559641  51.3301430  47.5354572
  32.1884813  50.7600647  47.7692402  30.6998997  50.9423031  47.9761078
  20.7304220  54.2918525  41.0271226  20.6140478  53.6163428  41.6952310
  20.8406480  53.8050899  40.2103379  23.0735761  53.7528672  44.7317915
  22.7093968  53.2259293  45.4430836  23.9302877  53.3627141  44.5584400
  28.9785061  45.0423004  51.9949181  28.6468386  45.9118415  51.7710396
  28.3830675  44.7259288  52.6743211  22.7141248  48.7818572  39.7279263
  22.8815650  49.6498808  40.0949734  22.5238417  48.9445853  38.8040553
  25.4716581  57.2435550  51.3945094  25.1717304  58.1460589  51.2860901
  25.1267640  56.9767734  52.2466247  18.9229062  53.6949347  47.4281798
  17.9979559  53.5625561  47.6359490  19.1713475  54.4743567  47.9251740
  28.8713725  49.7618091  49.0742531  27.9630602  49.6933499  48.7801292
  28.8201320  50.2390036  49.9024356  22.6930468  51.2376229  40.7125930
  22.5730094  51.6833280  41.5511410  21.9983057  51.5861547  40.1539468
  16.2837873  53.3382621  48.2625587  16.4130254  53.5917100  49.1764999
  15.6035325  53.9310329  47.9430242  20.4537361  64.0079871  44.3616061
  20.3761390  64.9587696  44.4404542  19.8499004  63.6625743  45.0190988
  22.9454590  51.1807736  57.0177428  22.1687924  51.7401656  57.0080293
  23.5845153  51.6664519  57.5392298  30.7375371  47.9634529  50.8520405
  30.0949751  48.2567062  50.2060199  30.2330300  47.8487449  51.6573602
  28.3915535  51.7097702  41.5406264  29.3033391  51.9425089  41.3653962
  27.8825182  52.2934746  40.9781343  21.2000963  53.9893190  56.5795395
  21.9415647  54.5278234  56.3030219  20.4937948  54.6159478  56.7366947
  26.6756302  56.1322330  55.1767557  27.0839658  55.6904741  54.4322189
  25.9533564  55.5574958  55.4301750  23.0287372  51.0694937  52.5501114
  23.8748568  51.4934350  52.6935763  22.9686010  50.4128561  53.2439677
  26.9985117  56.6923521  48.9319846  26.3693979  56.8569235  48.2295913
  26.6110779  57.1065130  49.7030810  30.8774349  57.6277959  46.2864209
  30.1925387  58.0076860  45.7361243  30.9618198  58.2373285  47.0196157
  26.1786818  48.7299305  54.2082287  25.9347750  49.4841366  53.6716563
  26.4546748  49.1084653  55.0429534  28.1325280  55.2737918  52.8859553
  28.3442176  55.9169677  52.2093934  28.0855029  54.4400234  52.4181483
  25.7351509  47.8855738  49.7896125  24.8735988  48.1836992  50.0812863
  25.7613944  48.1026137  48.8577158  22.5513079  56.4297929  46.1969931
  23.0151424  56.7085632  45.4074553  22.2869877  55.5281373  46.0143021
  19.4437160  55.9769410  49.1349694  20.0138517  56.4056679  48.4967178
  20.0345272  55.6951995  49.8333880  21.4881965  52.5521081  43.0059496
  22.1906008  53.0042125  43.4733422  21.1562593  51.9104900  43.6339389
  19.9362326  51.1432838  57.3810705  19.3060987  51.8249119  57.6146102
  19.8298414  51.0315919  56.4363843  15.2307299  50.8104634  48.3076629
  14.4406353  51.0662162  47.8316740  15.7218546  51.6252972  48.4128670
  29.2471108  58.1509873  51.0581910  30.0688552  57.7490060  50.7764592
  29.2433511  58.0478107  52.0098026  17.1822044  51.1749213  45.2660106
  16.3853208  51.2867907  45.7843602  16.9547636  51.5135865  44.4000997
  23.0127712  57.6993916  53.2142621  23.0772144  58.1614324  54.0500793
  22.3038636  57.0691281  53.3424931  13.5145002  51.0635124  50.7391620
  13.7653040  51.9482134  51.0049196  14.0504550  50.8839726  49.9666712
  37.3377101  54.4948621  47.4066882  36.5840810  53.9256020  47.2510886
  37.4724643  54.4611286  48.3537516  22.7275730  59.3662024  43.0821601
  22.5921404  60.2113560  43.5106449  23.2685542  59.5681301  42.3187535
  19.2143069  45.4453604  59.7435956  18.8210015  44.8919802  60.4183601
  20.0309209  45.7564182  60.1342474  16.1805127  56.8837462  43.6549526
  16.6929647  57.6780712  43.8055091  16.8327840  56.1863752  43.5883128
  17.9900012  60.0003218  45.7372279  18.1666640  60.9221183  45.5493263
  18.7856845  59.6861637  46.1666659  22.1311030  46.8611483  57.3356213
  22.8720744  47.4618636  57.2560675  22.3628953  46.1189121  56.7774255
  17.2752368  52.0467850  55.6134443  17.1605883  51.1453107  55.9141541
  16.4196886  52.2931547  55.2619259  24.3544206  59.9885590  57.2121943
  23.9108060  59.2021969  56.8942848  25.0161419  60.1764741  56.5465834
  19.1131327  61.5181392  51.7382622  19.6638752  61.3898455  50.9659616
  18.2742803  61.8176281  51.3877514  26.4525444  60.2688390  55.2403344
  26.4343919  61.0897271  54.7483614  27.3745364  60.1442465  55.4653486
  22.9098498  57.7832520  56.0826853  23.4426835  57.0220808  55.8526161
  22.3812579  57.4906172  56.8251007  26.0768193  42.8892586  51.6120495
  25.7332462  43.7794227  51.5359605  26.4447156  42.6994243  50.7490080
  14.1454044  55.2126116  44.4309097  14.9829266  55.6223124  44.2142804
  14.3232311  54.2725558  44.4009291  26.0418476  52.8801197  40.1192930
  25.5265099  53.6505801  40.3581317  25.7695784  52.2066333  40.7425991
  23.6265587  47.7250898  45.1778168  22.7707183  47.3357748  44.9983807
  24.0392539  47.8042858  44.3177954  25.1564733  45.2597241  49.5769728
  24.6529529  45.2227376  48.7637533  25.4495340  46.1689984  49.6366384
  21.4007619  45.3435971  48.5835909  22.2660616  45.1478779  48.2241799
  21.4685128  45.1146322  49.5105266  31.0152750  55.6333551  42.0546103
  30.2382193  55.2944711  41.6101265  31.6944231  55.6386175  41.3801068
  25.8304779  50.7528289  41.9452711  25.5254915  51.0674438  42.7962854
  26.7835221  50.8309709  41.9880044  24.2751211  56.9118512  43.5945665
  23.7472572  56.1771272  43.2818902  23.7738714  57.6893189  43.3485633
  29.2544057  55.1067533  48.7112711  28.5967731  55.7966794  48.7992840
  30.0584456  55.4963965  49.0546697  19.0069938  47.5738178  45.9552276
  19.5813690  47.3513360  45.2225469  19.5940921  47.6426873  46.7080878
  28.0649516  53.4611905  46.7616653  28.5781397  54.0941897  47.2638363
  28.7150740  52.8613101  46.3960013  19.3339526  49.6042640  39.9748162
  18.4976838  49.9417326  40.2957436  19.1944295  49.4691619  39.0375299
  21.3092606  44.4479427  44.6827346  20.6557018  44.1328445  44.0583961
  21.2673080  43.8255168  45.4087169  22.4203811  54.7298722  36.5980638
  21.5130873  54.4987976  36.7971787  22.9174843  53.9336342  36.7854619
  25.3271890  63.4396230  39.5177324  24.6533589  63.7427926  40.1262282
  25.7137712  64.2425310  39.1682781  24.5430347  50.9361361  49.0074993
  23.6252908  51.1576308  48.8496681  24.9590490  51.0107671  48.1486701
  25.3265394  52.3352777  44.1377674  26.0737213  52.8474174  43.8284796
  25.5956984  52.0136829  44.9982067  23.5992044  54.8311317  41.1204628
  22.6903264  54.5470350  41.2177098  23.6287128  55.2510396  40.2607935
  28.8311312  58.4417907  44.8895795  28.3773639  57.6008817  44.9460986
  28.2005279  59.0779305  45.2270576  27.7744231  49.3709893  46.1196463
  27.0366988  48.8587279  46.4506705  28.0271005  48.9310274  45.3079740
  27.2744251  60.2794404  45.8245614  27.5667225  60.8399461  45.1057979
  27.7842872  60.5722965  46.5798773  27.8755859  42.1486145  46.7138232
  28.1814736  41.2883508  46.4264147  28.6008464  42.7403765  46.5137226
  14.1680215  52.5516831  45.1019830  13.9704615  51.9586192  44.3770897
  13.6126879  52.2469042  45.8195769  22.1476938  52.4439938  47.2214423
  22.2025548  51.4913774  47.1456900  21.3368141  52.5999377  47.7055722
  23.2968132  56.3720061  38.4592706  22.8587562  55.6555920  37.9998344
  24.0378573  56.5996176  37.8977798  20.0869298  51.0616998  44.9804802
  19.2737164  51.3611168  45.3869994  20.5828293  50.6672686  45.6979284
  22.2377876  61.0574755  46.9139067  22.1954055  61.2835601  45.9847599
  23.1540575  60.8238129  47.0624868  25.6843510  51.5258822  53.8119696
  26.0392898  51.7530295  54.6714162  26.3315641  51.8577199  53.1896951
  31.4141247  54.6477258  44.5169025  31.2759146  54.8378854  43.5890214
  31.0577466  55.4096641  44.9737076  19.5783373  48.6335353  50.5966037
  20.2182752  48.4924112  49.8989000  18.7460904  48.3469867  50.2204639
  31.4410627  56.7153785  49.5280297  31.8747133  56.6229074  50.3763351
  32.1542207  56.6911286  48.8900313  20.3543677  57.9337784  46.7101030
  21.1484276  57.4388104  46.5083604  19.6435369  57.4055647  46.3468735
  25.1738522  60.3155879  51.0613397  25.2275544  60.8846815  51.8291113
  24.3053303  60.4857764  50.6967434  16.6626441  52.0780865  42.7860782
  15.7324029  52.0165321  43.0030744  16.7583913  51.5556818  41.9897423
  16.5811990  48.6035678  45.3739024  16.8418807  49.5181011  45.2648184
  17.4029162  48.1360121  45.5235637  18.0536915  50.0173435  52.5437848
  18.7259968  49.8090797  51.8950497  17.2266701  49.8195521  52.1043081
  32.3026176  56.7577486  52.0613182  32.4962066  57.6623296  52.3072457
  32.2026794  56.2984905  52.8951767  23.9562487  46.6435376  54.5603509
  23.3090402  47.3425326  54.4667986  24.7263502  47.0771520  54.9279757
  27.3641285  56.9084228  57.6354063  27.2126791  56.6794780  56.7184146
  27.3545964  57.8654830  57.6485408  24.1326621  54.4816141  52.6200329
  25.0618681  54.6327301  52.4469296  23.7117651  54.5700162  51.7648976
  22.9314953  58.5066806  50.3898867  22.7926039  58.1385590  51.2624805
  22.1429549  59.0214445  50.2182824  23.5263105  63.6075902  41.7324403
  23.7014861  63.1363945  42.5470026  22.8395893  64.2341668  41.9605664
  24.4820168  57.8848408  47.7787704  24.1470001  57.8449178  48.6745354
  23.9824114  57.2193124  47.3058115  18.4564412  53.2916038  53.3040286
  18.3184210  52.5596277  53.9051825  19.3669336  53.2024938  53.0224473
  27.4179360  55.2304443  38.0524764  26.8008530  54.5051271  37.9557817
  26.9495848  55.9913803  37.7091838  21.0846713  53.0035998  52.7923965
  21.7946331  52.3629190  52.7510584  21.0416021  53.2548893  53.7150146
  29.0733492  59.9403351  55.7130544  29.0146038  59.2562571  55.0461127
  29.4753010  60.6822341  55.2611170  19.7975647  49.9901216  54.6119605
  19.2613004  49.5391954  55.2641201  19.2092355  50.1247124  53.8690069
  18.0924190  66.7565265  48.5064263  18.3320789  67.3883789  49.1843282
  17.2493387  66.4053305  48.7929623  19.2077906  49.4489867  37.1746068
  18.3307372  49.3278668  36.8108315  19.6835659  48.6575945  36.9224957
  29.0750899  57.9042935  53.9444524  28.1877678  57.5668857  54.0670923
  29.6449450  57.1725966  54.1813289  10.7280046  54.2367027  47.2687575
  11.4151086  53.9228757  46.6808591  10.5728175  55.1408391  46.9954827
  15.5314768  49.1257223  51.6972599  15.4472957  48.5182893  50.9623009
  14.7097474  49.6166242  51.6982096  22.6052052  62.5644387  50.9105767
  22.5322224  63.3699359  51.4225072  22.1629445  62.7636353  50.0853789
  22.3941832  61.8016157  44.4208589  21.6109354  62.3437837  44.5146813
  23.0934577  62.3190137  44.8202830  25.7038482  47.6110787  47.0642794
  26.2007181  46.8580749  46.7443864  24.9325463  47.6475103  46.4986004
  33.5568239  53.3151152  48.7061086  33.5458116  54.1975868  48.3355019
  32.6885619  52.9622703  48.5115623  25.0650736  62.4631221  53.0663926
  25.7778708  63.0978686  52.9939827  24.5740764  62.5595087  52.2503928
  26.7868263  56.3682474  44.6381218  25.8524541  56.4883936  44.4685922
  26.9644931  55.4654941  44.3741227  22.2873451  49.7528170  46.7914479
  21.9171238  49.1999210  47.4795384  22.7832543  49.1486303  46.2389479
  30.1740814  52.2099793  45.1731252  30.6401266  53.0427785  45.0991554
  30.6248314  51.7444775  45.8776510  20.1162649  60.2125665  53.8869497
  20.8172109  60.8462148  54.0398891  19.6457764  60.5540396  53.1265136
  28.2417045  58.5543615  42.1717404  28.5176889  58.4400209  43.0811278
  27.3721544  58.1561099  42.1329577  28.1457477  44.5780380  49.2122153
  27.2320556  44.8084607  49.3804360  28.5750578  44.6618824  50.0636185
  27.9163935  52.7670272  51.7122047  27.2635385  53.0146180  51.0574500
  28.2944315  51.9534410  51.3784524  24.8771109  62.8029965  45.8150217
  25.0593504  61.9851621  46.2777970  25.7004095  63.0197658  45.3775107
  25.2113275  61.7298151  43.0765266  25.7401041  61.2190605  42.4635428
  25.4741494  61.4140681  43.9410799  23.9651508  53.5090083  58.1988084
  23.2892145  53.4084213  58.8690459  24.7879142  53.3529297  58.6624081
  15.7130367  59.7462020  50.8200599  16.2983804  59.0005708  50.9528504
  15.5155206  60.0565977  51.7037263  18.5669023  62.7813267  45.8363042
  17.8979398  63.2659395  45.3527082  18.4281892  63.0282488  46.7506420
  10.3048022  52.3167620  49.5405043  10.3432122  51.7831211  50.3342161
   9.7988315  51.7902826  48.9216020  22.7074291  64.8157011  52.4345700
  23.2592599  64.9788632  53.1994785  23.0480485  65.4061449  51.7625725
  17.6838784  47.1632161  53.0367585  17.7480111  48.0246991  52.6244983
  17.6205905  46.5506162  52.3039943  17.1591057  49.2355293  56.6840619
  17.7863096  48.8532370  57.2978143  16.3018976  49.0169495  57.0496312
  27.5585165  59.6418268  58.2894355  28.1025069  60.2548227  57.7949309
  26.9772010  60.1997847  58.8061368  13.9356600  51.0431722  42.6158974
  14.2310041  50.1342401  42.5626028  13.0344635  51.0219462  42.2939976
  25.8442678  62.7638986  49.4209382  25.7193818  61.9628726  48.9120328
  26.5021769  63.2585180  48.9323352  17.4650847  49.1187719  48.5986523
  16.7437432  49.7323686  48.4593996  18.2544102  49.6545484  48.5203169
  27.9077587  60.5648006  51.0488932  26.9607922  60.4453358  50.9767259
  28.2560360  59.6770504  51.1315194  20.2677160  46.4542145  54.8727174
  20.7911562  46.7004442  55.6353484  20.0489493  47.2862180  54.4530312
  15.6644441  48.7245820  42.7398299  15.3357147  47.8443199  42.5573405
  16.0183812  48.6693489  43.6274688  24.9124020  60.3600723  47.2493285
  24.7648982  59.4317430  47.4300855  25.7377514  60.3820813  46.7650360
  18.7786264  49.0118790  43.1073777  19.1182337  49.5404711  42.3852385
  19.2258385  49.3499196  43.8832343  28.5158142  61.1829281  48.3358157
  29.4404689  60.9772143  48.1982609  28.3473445  60.9345682  49.2447499
  21.4729705  47.3955840  52.5576845  21.1326526  46.5963653  52.9597525
  20.7668711  47.6957551  51.9853678  22.1246177  44.4805153  51.0104168
  22.9472246  44.0065631  50.8883058  22.3684241  45.2595637  51.5102854
  20.7654411  47.5093411  41.3067070  21.4862774  47.8874664  40.8030786
  20.1419716  48.2282288  41.4102048  24.9085534  48.2138560  42.2425402
  25.1249149  49.0963198  41.9414230  24.4279602  47.8224774  41.5131044
  19.6484756  51.1724273  48.8196147  19.5029336  51.4864576  49.7120428
  19.1709959  51.7909174  48.2667045  21.5081139  48.1626821  48.8677036
  21.4942707  47.2667915  48.5309334  22.2253567  48.1697485  49.5015322
  23.3607269  48.5964162  50.9130164  23.1025047  49.5181232  50.9114494
  22.8292310  48.1994596  51.6030628  28.3053458  61.7014949  43.6920249
  28.4790336  61.1361371  42.9394101  28.7982349  62.5015844  43.5099739
  14.1230418  53.7129618  51.7583808  13.5783886  54.4889426  51.8904082
  15.0009768  54.0600422  51.6002929  20.9118035  47.0441202  44.1364606
  21.0333946  46.1157848  44.3355494  20.6220077  47.0579888  43.2242922
  23.7809225  44.7296112  47.2731326  23.8030922  44.7935445  46.3183306
  24.1977284  43.8900621  47.4671832  34.1592849  54.4651372  45.3110549
  34.6023995  53.7158697  44.9129672  33.2819360  54.4561508  44.9284281
  29.2928631  61.0181713  40.7917147  29.9879535  61.6388406  41.0104462
  29.6351781  60.1677064  41.0669525  14.9096440  52.8399514  54.6513965
  14.1678176  52.9882149  55.2378595  14.5889184  53.1007780  53.7880714
  31.1920054  58.4681419  42.3204478  31.7171378  58.8068691  41.5953798
  31.1042406  57.5328434  42.1367613  22.8540102  62.3815492  54.4494355
  23.1627229  62.1364639  55.3217054  23.6515584  62.5862131  53.9613225
  22.8760714  64.5353402  46.6799731  22.4365705  64.0429781  47.3732588
  23.6268831  63.9926370  46.4391806  15.3553053  60.7264943  46.6824359
  16.1811073  60.4268715  46.3023003  15.0047105  59.9572565  47.1314148
  20.3234587  60.0791411  48.7522033  19.7014596  59.4162116  48.4524261
  20.9939454  60.1052543  48.0695681  13.5561659  58.6451269  47.6413293
  12.7193567  58.2173444  47.4597294  13.5285304  58.8383713  48.5784084
  20.3959114  48.5573199  58.3454539  20.4447270  49.4335322  57.9632308
  20.9381628  48.0150592  57.7726182  30.8813960  59.1014322  57.6255676
  30.0909503  59.0838461  57.0860175  30.6447314  59.6402616  58.3804712
  31.0011835  55.9506789  54.9388404  31.0509840  55.7856796  55.8803927
  30.8925758  55.0834048  54.5486285  19.8848094  58.6295334  42.2280493
  20.0336214  59.3130799  41.5747166  20.6914537  58.6100424  42.7429949
  28.2915597  51.9337717  56.2547711  29.1925460  51.7944182  55.9631709
  28.3663572  52.0992172  57.1945889  22.6258403  49.3104571  55.1000897
  21.7561712  49.6038138  54.8283486  22.8617883  49.8945016  55.8208161
  32.5030032  58.3703730  55.1830426  32.2114840  58.7333711  56.0193887
  31.8902163  57.6570738  55.0043758  33.7025714  55.9356610  47.7032996
  34.5372605  56.3746414  47.8670557  33.8384843  55.4595263  46.8841242
  30.7517220  53.4936345  53.6510484  31.2271342  53.6863991  52.8429335
  29.8282785  53.5495531  53.4053868  17.6400727  54.6560512  43.2341562
  17.3946768  53.7522842  43.4321772  17.8096641  54.6577662  42.2921040
  25.3297436  45.5284188  52.6166318  25.8479380  46.2645215  52.2912806
  24.9752569  45.8348182  53.4513077  16.9096374  50.3888870  40.7327724
  16.2165619  50.4633225  40.0767760  16.6648126  49.6249213  41.2549241
  25.5810031  41.9484471  48.1367214  25.8611784  41.2807660  48.7627641
  26.3660637  42.1413567  47.6241878  23.3843499  61.1243465  39.6992241
  22.8117466  61.7433652  39.2462713  23.9576293  61.6742827  40.2332163
  29.4518889  50.3702105  51.8838790  30.4036312  50.4700203  51.9051014
  29.2822339  49.5780373  52.3936874  27.4733268  47.4557688  52.0698191
  26.8783200  47.7362701  51.3744679  27.1882965  47.9451589  52.8414932
  26.6040759  61.4080615  40.8300823  27.5371432  61.3426177  41.0333699
  26.5163972  62.2436882  40.3715356  29.2328776  60.7246485  37.7904771
  29.1542407  60.3906349  38.6840529  30.0538442  61.2168253  37.7896243
  31.9306967  53.5908225  50.9981089  31.8983287  52.6524225  51.1840773
  32.5407590  53.6692261  50.2646914  23.7690298  52.4604278  37.0408293
  24.7149402  52.3310486  37.1096711  23.3904543  51.7218939  37.5177721
  32.0801455  50.3819268  51.0439372  31.5640504  49.5977725  50.8569301
  32.9641404  50.0537985  51.2085892  29.7412182  44.1260284  47.0035185
  29.5437003  43.8175372  47.8878517  30.3511888  44.8521923  47.1333115
  37.7483517  54.6524231  50.1387126  38.4786905  54.3909520  50.6994829
  37.1390462  53.9152953  50.1789194  35.8298814  52.7932094  50.7361577
  35.1031977  52.6588059  50.1278069  35.4146101  53.1008923  51.5418295
  23.6528990  56.5122024  58.5008950  24.5732000  56.6900623  58.6948997
  23.6178573  55.5678069  58.3488650  21.9533215  50.3854254  36.9763178
  21.0464670  50.0887367  37.0525892  22.2309196  50.0884072  36.1097465
  12.8711155  51.7060617  47.4262225  12.5513939  50.8525926  47.1336599
  12.3244583  51.9209196  48.1820192  16.6491063  54.4223058  51.1431731
  16.8677072  55.3540166  51.1619765  17.0616836  54.0631033  51.9286535
  23.5695280  44.9291144  43.1307420  22.7596009  44.5838229  43.5062666
  24.2579697  44.6198687  43.7195031  25.4985829  44.0069190  44.7531716
  26.0516867  44.4264644  45.4121740  25.7355915  43.0804939  44.7954672
  21.5218928  49.9956264  60.5334480  21.4215655  50.9450621  60.4646571
  21.3040470  49.6674503  59.6610550  20.7231999  47.2441189  37.1175158
  21.5851163  47.5696088  37.3770975  20.9082343  46.4572685  36.6048223
  12.7399415  55.3263529  49.3955346  12.0462887  54.9117482  48.8825301
  13.4872406  55.3684065  48.7988765  28.8764636  46.1169716  44.2610381
  28.2963305  46.7754520  43.8788433  28.6100568  45.2947060  43.8497798
  27.3268202  45.5174773  46.4631701  27.8267981  45.6291308  45.6546020
  27.9703810  45.2135826  47.1032509  21.3850198  53.4253403  59.3499542
  20.9017280  54.2253763  59.5563431  21.4711137  53.4361348  58.3966986
  14.6536158  55.2581783  47.2721361  14.6306846  55.3569470  46.3203244
  14.9636794  56.1046933  47.5938527  17.3123535  57.3157938  51.3867976
  18.2666789  57.2841880  51.3197907  17.1136059  56.8548561  52.2018202
  17.9022918  55.8859054  53.9538773  18.7215807  56.3803132  53.9773611
  18.1759725  54.9691022  53.9256341  27.6589514  48.2769806  43.3166729
  26.7715369  48.5619457  43.0986924  28.0743503  48.1163569  42.4694006
  31.0104050  48.3016327  47.0321068  31.7864440  48.7912779  47.3045685
  30.2852184  48.7274381  47.4892938  33.4476609  49.0143946  48.0895009
  34.0421099  48.7739682  47.3788317  33.5203192  48.2951077  48.7168545
  15.6673764  62.8577557  48.4038174  15.5328232  62.0977958  47.8376172
  15.2505827  63.5818457  47.9366963  26.8032727  58.0414481  37.4114749
  27.5068577  58.2464483  38.0272405  26.0795376  58.6091243  37.6763832
  27.6330538  53.7924342  43.5317019  27.5765739  54.2492893  42.6924652
  28.1858880  53.0315027  43.3539862  31.4435343  49.5814074  44.3567139
  31.1872278  49.1810709  45.1875346  30.8188212  50.2957868  44.2317278
  35.7547681  52.3210147  46.8638430  35.1947239  52.3903336  47.6369992
  35.1491185  52.1451132  46.1437926  18.8242890  63.7546874  48.6156616
  18.7075274  64.6992307  48.5135307  18.0035336  63.4520436  49.0042415
  28.7119425  58.4797010  39.4613209  29.5465029  58.0478208  39.2790684
  28.5503768  58.3079024  40.3890103  28.3665317  54.9829123  40.8269548
  28.3114121  54.8173395  39.8857992  27.7411372  55.6905156  40.9831738
  13.1557832  50.2197188  54.6530970  13.8016695  49.7096142  55.1418196
  12.9474983  50.9565869  55.2274396  25.6811224  57.2878035  60.1523111
  26.5502384  57.4618687  59.7909746  25.2017976  58.1072452  60.0298840
  21.6761442  44.4837232  40.4054867  21.6640112  45.4279072  40.5623138
  22.5684864  44.3007378  40.1114328  19.8497404  64.4075136  51.8312545
  20.7524651  64.4398746  52.1479040  19.6234774  63.4775587  51.8458881
  21.6051006  63.1606123  48.4922623  20.6546637  63.1607984  48.3786996
  21.9083492  62.4138857  47.9758658  25.4913562  41.0780009  44.6600803
  24.7245958  40.5238496  44.8057486  25.9024267  41.1501878  45.5214955
  17.4955323  47.3664805  58.7505985  18.3586784  47.0101610  58.9609309
  16.9220734  47.0278699  59.4381389  37.3403700  68.9966661  49.5568386
  37.9782110  68.8773408  48.8531726  37.2224543  69.9447505  49.6156338
  34.1493406  68.9494089  49.4929910  33.8111918  68.8335154  48.6050445
  35.0183174  68.5485254  49.4730917  30.0080222  70.8029566  45.4826801
  29.4445087  70.7119502  44.7143089  29.8932617  69.9829470  45.9629294
  34.6313189  70.1028941  55.4516116  34.6201830  69.7081739  54.5796620
  34.7933829  69.3695013  56.0449887  27.5544654  72.2980757  48.3211022
  28.3465946  71.9571582  47.9057321  27.7941304  72.4075732  49.2413175
  35.5879780  74.4700533  40.7941266  34.9367760  75.0554614  40.4075280
  36.3824143  75.0006728  40.8536304  29.5135408  71.5589670  41.1928401
  30.2866284  71.0118657  41.0541276  29.8660807  72.4233920  41.4042862
  31.3520450  72.8866053  54.3995300  31.0610316  73.7911683  54.2841966
  31.9877435  72.9282580  55.1139369  32.2776657  70.2642901  50.9896660
  32.8740229  70.0398924  50.2753623  32.3351629  69.5227647  51.5922107
  31.8501685  67.7182337  38.8246851  32.1027206  67.1963858  38.0630314
  30.9126245  67.5548482  38.9273534  36.8944968  66.7218115  46.6321594
  37.6808058  66.3037538  46.2812011  37.1583673  67.6264207  46.8003242
  37.0655046  72.1590965  41.3310251  36.4300879  72.2325592  42.0431155
  36.7352452  72.7484564  40.6529330  42.2953395  66.6593348  47.5354572
  43.0278567  66.0892565  47.7692402  41.5392751  66.2714949  47.9761078
  31.5697974  69.6210442  41.0271226  31.4534232  68.9455346  41.6952310
  31.6800234  69.1342816  40.2103379  33.9129515  69.0820590  44.7317915
  33.5487722  68.5551211  45.4430836  34.7696631  68.6919059  44.5584400
  39.8178816  60.3714922  51.9949181  39.4862141  61.2410333  51.7710396
  39.2224429  60.0551206  52.6743211  33.5535002  64.1110489  39.7279263
  33.7209404  64.9790726  40.0949734  33.3632171  64.2737771  38.8040553
  36.3110335  72.5727468  51.3945094  36.0111058  73.4752507  51.2860901
  35.9661395  72.3059651  52.2466247  29.7622817  69.0241265  47.4281798
  28.8373313  68.8917479  47.6359490  30.0107230  69.8035484  47.9251740
  39.7107479  65.0910008  49.0742531  38.8024356  65.0225417  48.7801292
  39.6595075  65.5681953  49.9024356  33.5324223  66.5668147  40.7125930
  33.4123848  67.0125198  41.5511410  32.8376811  66.9153464  40.1539468
  27.1231628  68.6674539  48.2625587  27.2524009  68.9209017  49.1764999
  26.4429079  69.2602247  47.9430242  31.2931115  79.3371789  44.3616061
  31.2155145  80.2879614  44.4404542  30.6892759  78.9917661  45.0190988
  33.7848345  66.5099654  57.0177428  33.0081679  67.0693574  57.0080293
  34.4238908  66.9956437  57.5392298  41.5769125  63.2926447  50.8520405
  40.9343506  63.5858980  50.2060199  41.0724054  63.1779367  51.6573602
  39.2309289  67.0389620  41.5406264  40.1427145  67.2717007  41.3653962
  38.7218936  67.6226664  40.9781343  32.0394717  69.3185107  56.5795395
  32.7809402  69.8570151  56.3030219  31.3331703  69.9451396  56.7366947
  37.5150057  71.4614248  55.1767557  37.9233413  71.0196658  54.4322189
  36.7927318  70.8866875  55.4301750  33.8681127  66.3986855  52.5501114
  34.7142322  66.8226268  52.6935763  33.8079765  65.7420479  53.2439677
  37.8378871  72.0215438  48.9319846  37.2087734  72.1861153  48.2295913
  37.4504534  72.4357048  49.7030810  41.7168103  72.9569876  46.2864209
  41.0319142  73.3368778  45.7361243  41.8011953  73.5665203  47.0196157
  37.0180572  64.0591223  54.2082287  36.7741504  64.8133283  53.6716563
  37.2940503  64.4376570  55.0429534  38.9719035  70.6029835  52.8859553
  39.1835930  71.2461595  52.2093934  38.9248783  69.7692152  52.4181483
  36.5745264  63.2147656  49.7896125  35.7129743  63.5128909  50.0812863
  36.6007699  63.4318055  48.8577158  33.3906833  71.7589846  46.1969931
  33.8545179  72.0377549  45.4074553  33.1263631  70.8573291  46.0143021
  30.2830914  71.3061328  49.1349694  30.8532271  71.7348596  48.4967178
  30.8739026  71.0243913  49.8333880  32.3275719  67.8812999  43.0059496
  33.0299763  68.3334043  43.4733422  31.9956348  67.2396818  43.6339389
  30.7756081  66.4724755  57.3810705  30.1454741  67.1541036  57.6146102
  30.6692169  66.3607837  56.4363843  26.0701053  66.1396552  48.3076629
  25.2800107  66.3954080  47.8316740  26.5612301  66.9544889  48.4128670
  40.0864863  73.4801791  51.0581910  40.9082307  73.0781978  50.7764592
  40.0827266  73.3770025  52.0098026  28.0215799  66.5041131  45.2660106
  27.2246962  66.6159825  45.7843602  27.7941391  66.8427783  44.4000997
  33.8521466  73.0285834  53.2142621  33.9165899  73.4906241  54.0500793
  33.1432390  72.3983199  53.3424931  24.3538756  66.3927042  50.7391620
  24.6046795  67.2774052  51.0049196  24.8898305  66.2131643  49.9666712
  48.1770856  69.8240539  47.4066882  47.4234564  69.2547937  47.2510886
  48.3118397  69.7903204  48.3537516  33.5669484  74.6953941  43.0821601
  33.4315159  75.5405477  43.5106449  34.1079297  74.8973219  42.3187535
  30.0536824  60.7745521  59.7435956  29.6603769  60.2211720  60.4183601
  30.8702964  61.0856100  60.1342474  27.0198881  72.2129380  43.6549526
  27.5323402  73.0072630  43.8055091  27.6721594  71.5155670  43.5883128
  28.8293766  75.3295136  45.7372279  29.0060394  76.2513100  45.5493263
  29.6250600  75.0153555  46.1666659  32.9704785  62.1903400  57.3356213
  33.7114498  62.7910554  57.2560675  33.2022707  61.4481038  56.7774255
  28.1146123  67.3759768  55.6134443  27.9999638  66.4745025  55.9141541
  27.2590640  67.6223464  55.2619259  29.9525082  76.8473310  51.7382622
  30.5032507  76.7190373  50.9659616  29.1136557  77.1468199  51.3877514
  37.2919198  75.5980308  55.2403344  37.2737674  76.4189189  54.7483614
  38.2139119  75.4734383  55.4653486  33.7492253  73.1124437  56.0826853
  34.2820589  72.3512726  55.8526161  33.2206334  72.8198089  56.8251007
  36.9161948  58.2184503  51.6120495  36.5726217  59.1086145  51.5359605
  37.2840910  58.0286161  50.7490080  24.9847798  70.5418034  44.4309097
  25.8223020  70.9515042  44.2142804  25.1626066  69.6017476  44.4009291
  36.8812230  68.2093114  40.1192930  36.3658854  68.9797719  40.3581317
  36.6089539  67.5358251  40.7425991  34.4659341  63.0542815  45.1778168
  33.6100938  62.6649666  44.9983807  34.8786293  63.1334776  44.3177954
  35.9958488  60.5889159  49.5769728  35.4923284  60.5519294  48.7637533
  36.2889095  61.4981901  49.6366384  32.2401374  60.6727888  48.5835909
  33.1054371  60.4770697  48.2241799  32.3078883  60.4438240  49.5105266
  41.8546504  70.9625469  42.0546103  41.0775947  70.6236629  41.6101265
  42.5337985  70.9678092  41.3801068  36.6698533  66.0820207  41.9452711
  36.3648669  66.3966356  42.7962854  37.6228976  66.1601626  41.9880044
  35.1144965  72.2410430  43.5945665  34.5866327  71.5063189  43.2818902
  34.6132468  73.0185106  43.3485633  40.0937811  70.4359450  48.7112711
  39.4361486  71.1258712  48.7992840  40.8978211  70.8255882  49.0546697
  29.8463693  62.9030096  45.9552276  30.4207445  62.6805278  45.2225469
  30.4334675  62.9718791  46.7080878  38.9043270  68.7903823  46.7616653
  39.4175152  69.4233815  47.2638363  39.5544494  68.1905019  46.3960013
  30.1733280  64.9334557  39.9748162  29.3370592  65.2709244  40.2957436
  30.0338050  64.7983537  39.0375299  32.1486361  59.7771345  44.6827346
  31.4950773  59.4620362  44.0583961  32.1066835  59.1547086  45.4087169
  33.2597565  70.0590640  36.5980638  32.3524627  69.8279894  36.7971787
  33.7568597  69.2628259  36.7854619  36.1665644  78.7688147  39.5177324
  35.4927343  79.0719844  40.1262282  36.5531466  79.5717228  39.1682781
  35.3824101  66.2653279  49.0074993  34.4646662  66.4868226  48.8496681
  35.7984245  66.3399589  48.1486701  36.1659149  67.6644694  44.1377674
  36.9130968  68.1766091  43.8284796  36.4350738  67.3428747  44.9982067
  34.4385799  70.1603235  41.1204628  33.5297018  69.8762268  41.2177098
  34.4680883  70.5802314  40.2607935  39.6705066  73.7709824  44.8895795
  39.2167393  72.9300734  44.9460986  39.0399033  74.4071223  45.2270576
  38.6137986  64.7001811  46.1196463  37.8760743  64.1879197  46.4506705
  38.8664759  64.2602192  45.3079740  38.1138006  75.6086321  45.8245614
  38.4060980  76.1691378  45.1057979  38.6236626  75.9014882  46.5798773
  38.7149613  57.4778063  46.7138232  39.0208490  56.6175426  46.4264147
  39.4402218  58.0695683  46.5137226  25.0073969  67.8808749  45.1019830
  24.8098369  67.2878110  44.3770897  24.4520633  67.5760959  45.8195769
  32.9870693  67.7731856  47.2214423  33.0419303  66.8205692  47.1456900
  32.1761895  67.9291295  47.7055722  34.1361887  71.7011979  38.4592706
  33.6981317  70.9847838  37.9998344  34.8772328  71.9288093  37.8977798
  30.9263053  66.3908915  44.9804802  30.1130918  66.6903086  45.3869994
  31.4222047  65.9964604  45.6979284  33.0771631  76.3866672  46.9139067
  33.0347810  76.6127519  45.9847599  33.9934330  76.1530047  47.0624868
  36.5237265  66.8550740  53.8119696  36.8786652  67.0822213  54.6714162
  37.1709396  67.1869117  53.1896951  42.2535002  69.9769176  44.5169025
  42.1152900  70.1670772  43.5890214  41.8971220  70.7388559  44.9737076
  30.4177128  63.9627271  50.5966037  31.0576507  63.8216030  49.8989000
  29.5854658  63.6761784  50.2204639  42.2804381  72.0445703  49.5280297
  42.7140888  71.9520992  50.3763351  42.9935962  72.0203203  48.8900313
  31.1937432  73.2629701  46.7101030  31.9878030  72.7680021  46.5083604
  30.4829124  72.7347564  46.3468735  36.0132276  75.6447797  51.0613397
  36.0669298  76.2138733  51.8291113  35.1447057  75.8149682  50.6967434
  27.5020195  67.4072783  42.7860782  26.5717783  67.3457239  43.0030744
  27.5977667  66.8848736  41.9897423  27.4205744  63.9327596  45.3739024
  27.6812561  64.8472929  45.2648184  28.2422916  63.4652038  45.5235637
  28.8930669  65.3465353  52.5437848  29.5653723  65.1382715  51.8950497
  28.0660456  65.1487439  52.1043081  43.1419931  72.0869403  52.0613182
  43.3355821  72.9915214  52.3072457  43.0420549  71.6276822  52.8951767
  34.7956241  61.9727294  54.5603509  34.1484156  62.6717244  54.4667986
  35.5657257  62.4063438  54.9279757  38.2035039  72.2376146  57.6354063
  38.0520546  72.0086698  56.7184146  38.1939719  73.1946748  57.6485408
  34.9720376  69.8108059  52.6200329  35.9012436  69.9619218  52.4469296
  34.5511406  69.8992080  51.7648976  33.7708708  73.8358723  50.3898867
  33.6319793  73.4677508  51.2624805  32.9823304  74.3506363  50.2182824
  34.3656860  78.9367820  41.7324403  34.5408615  78.4655863  42.5470026
  33.6789648  79.5633586  41.9605664  35.3213923  73.2140326  47.7787704
  34.9863755  73.1741096  48.6745354  34.8217868  72.5485042  47.3058115
  29.2958167  68.6207956  53.3040286  29.1577965  67.8888195  53.9051825
  30.2063090  68.5316856  53.0224473  38.2573114  70.5596360  38.0524764
  37.6402285  69.8343188  37.9557817  37.7889603  71.3205721  37.7091838
  31.9240467  68.3327915  52.7923965  32.6340086  67.6921108  52.7510584
  31.8809775  68.5840810  53.7150146  39.9127246  75.2695269  55.7130544
  39.8539792  74.5854489  55.0461127  40.3146764  76.0114259  55.2611170
  30.6369401  65.3193133  54.6119605  30.1006758  64.8683872  55.2641201
  30.0486110  65.4539042  53.8690069  28.9317945  82.0857183  48.5064263
  29.1714543  82.7175707  49.1843282  28.0887141  81.7345223  48.7929623
  30.0471660  64.7781785  37.1746068  29.1701127  64.6570585  36.8108315
  30.5229413  63.9867863  36.9224957  39.9144653  73.2334853  53.9444524
  39.0271432  72.8960774  54.0670923  40.4843204  72.5017884  54.1813289
  21.5673800  69.5658944  47.2687575  22.2544840  69.2520674  46.6808591
  21.4121929  70.4700309  46.9954827  26.3708523  64.4549141  51.6972599
  26.2866711  63.8474810  50.9623009  25.5491229  64.9458159  51.6982096
  33.4445807  77.8936305  50.9105767  33.3715978  78.6991276  51.4225072
  33.0023200  78.0928271  50.0853789  33.2335586  77.1308075  44.4208589
  32.4503108  77.6729755  44.5146813  33.9328331  77.6482055  44.8202830
  36.5432236  62.9402704  47.0642794  37.0400936  62.1872667  46.7443864
  35.7719218  62.9767021  46.4986004  44.3961994  68.6443070  48.7061086
  44.3851870  69.5267785  48.3355019  43.5279373  68.2914621  48.5115623
  35.9044490  77.7923139  53.0663926  36.6172462  78.4270604  52.9939827
  35.4134519  77.8887005  52.2503928  37.6262017  71.6974392  44.6381218
  36.6918296  71.8175854  44.4685922  37.8038686  70.7946858  44.3741227
  33.1267205  65.0820087  46.7914479  32.7564993  64.5291128  47.4795384
  33.6226298  64.4778221  46.2389479  41.0134568  67.5391711  45.1731252
  41.4795021  68.3719703  45.0991554  41.4642069  67.0736693  45.8776510
  30.9556404  75.5417582  53.8869497  31.6565863  76.1754065  54.0398891
  30.4851519  75.8832314  53.1265136  39.0810800  73.8835532  42.1717404
  39.3570643  73.7692127  43.0811278  38.2115298  73.4853017  42.1329577
  38.9851231  59.9072298  49.2122153  38.0714311  60.1376525  49.3804360
  39.4144333  59.9910742  50.0636185  38.7557690  68.0962190  51.7122047
  38.1029140  68.3438097  51.0574500  39.1338070  67.2826328  51.3784524
  35.7164864  78.1321883  45.8150217  35.8987258  77.3143539  46.2777970
  36.5397850  78.3489575  45.3775107  36.0507029  77.0590068  43.0765266
  36.5794795  76.5482523  42.4635428  36.3135249  76.7432598  43.9410799
  34.8045263  68.8382001  58.1988084  34.1285900  68.7376130  58.8690459
  35.6272897  68.6821215  58.6624081  26.5524122  75.0753937  50.8200599
  27.1377559  74.3297625  50.9528504  26.3548960  75.3857894  51.7037263
  29.4062777  78.1105185  45.8363042  28.7373152  78.5951313  45.3527082
  29.2675647  78.3574405  46.7506420  21.1441777  67.6459538  49.5405043
  21.1825876  67.1123128  50.3342161  20.6382069  67.1194743  48.9216020
  33.5468046  80.1448928  52.4345700  34.0986354  80.3080550  53.1994785
  33.8874239  80.7353366  51.7625725  28.5232539  62.4924078  53.0367585
  28.5873865  63.3538909  52.6244983  28.4599659  61.8798080  52.3039943
  27.9984811  64.5647211  56.6840619  28.6256850  64.1824288  57.2978143
  27.1412730  64.3461413  57.0496312  24.7750354  66.3723640  42.6158974
  25.0703795  65.4634318  42.5626028  23.8738390  66.3511379  42.2939976
  36.6836433  78.0930904  49.4209382  36.5587572  77.2920644  48.9120328
  37.3415524  78.5877097  48.9323352  28.3044601  64.4479636  48.5986523
  27.5831187  65.0615604  48.4593996  29.0937857  64.9837401  48.5203169
  38.7471341  75.8939924  51.0488932  37.8001677  75.7745275  50.9767259
  39.0954114  75.0062422  51.1315194  31.1070915  61.7834063  54.8727174
  31.6305316  62.0296359  55.6353484  30.8883248  62.6154098  54.4530312
  26.5038196  64.0537738  42.7398299  26.1750902  63.1735116  42.5573405
  26.8577566  63.9985406  43.6274688  35.7517775  75.6892640  47.2493285
  35.6042737  74.7609348  47.4300855  36.5771268  75.7112731  46.7650360
  29.6180019  64.3410707  43.1073777  29.9576091  64.8696629  42.3852385
  30.0652139  64.6791113  43.8832343  39.3551896  76.5121199  48.3358157
  40.2798444  76.3064060  48.1982609  39.1867200  76.2637600  49.2447499
  32.3123460  62.7247758  52.5576845  31.9720280  61.9255571  52.9597525
  31.6062466  63.0249469  51.9853678  32.9639931  59.8097070  51.0104168
  33.7866001  59.3357549  50.8883058  33.2077995  60.5887554  51.5102854
  31.6048166  62.8385329  41.3067070  32.3256528  63.2166582  40.8030786
  30.9813470  63.5574206  41.4102048  35.7479289  63.5430478  42.2425402
  35.9642903  64.4255116  41.9414230  35.2673356  63.1516691  41.5131044
  30.4878510  66.5016191  48.8196147  30.3423091  66.8156494  49.7120428
  30.0103714  67.1201091  48.2667045  32.3474893  63.4918739  48.8677036
  32.3336462  62.5959832  48.5309334  33.0647321  63.4989403  49.5015322
  34.2001024  63.9256079  50.9130164  33.9418802  64.8473150  50.9114494
  33.6686064  63.5286514  51.6030628  39.1447213  77.0306866  43.6920249
  39.3184090  76.4653289  42.9394101  39.6376104  77.8307761  43.5099739
  24.9624172  69.0421535  51.7583808  24.4177640  69.8181343  51.8904082
  25.8403522  69.3892340  51.6002929  31.7511789  62.3733119  44.1364606
  31.8727700  61.4449766  44.3355494  31.4613831  62.3871805  43.2242922
  34.6202979  60.0588030  47.2731326  34.6424676  60.1227363  46.3183306
  35.0371038  59.2192538  47.4671832  44.9986604  69.7943289  45.3110549
  45.4417750  69.0450615  44.9129672  44.1213114  69.7853426  44.9284281
  40.1322385  76.3473631  40.7917147  40.8273290  76.9680323  41.0104462
  40.4745535  75.4968982  41.0669525  25.7490194  68.1691432  54.6513965
  25.0071930  68.3174067  55.2378595  25.4282939  68.4299697  53.7880714
  42.0313808  73.7973336  42.3204478  42.5565132  74.1360609  41.5953798
  41.9436161  72.8620352  42.1367613  33.6933857  77.7107410  54.4494355
  34.0020983  77.4656557  55.3217054  34.4909339  77.9154048  53.9613225
  33.7154469  79.8645320  46.6799731  33.2759459  79.3721698  47.3732588
  34.4662586  79.3218287  46.4391806  26.1946808  76.0556860  46.6824359
  27.0204828  75.7560632  46.3023003  25.8440860  75.2864483  47.1314148
  31.1628341  75.4083329  48.7522033  30.5408350  74.7454034  48.4524261
  31.8333208  75.4344461  48.0695681  24.3955413  73.9743187  47.6413293
  23.5587321  73.5465361  47.4597294  24.3679058  74.1675630  48.5784084
  31.2352869  63.8865117  58.3454539  31.2841024  64.7627240  57.9632308
  31.7775383  63.3442510  57.7726182  41.7207714  74.4306240  57.6255676
  40.9303258  74.4130379  57.0860175  41.4841069  74.9694534  58.3804712
  41.8405589  71.2798706  54.9388404  41.8903594  71.1148714  55.8803927
  41.7319513  70.4125965  54.5486285  30.7241848  73.9587252  42.2280493
  30.8729968  74.6422716  41.5747166  31.5308291  73.9392342  42.7429949
  39.1309352  67.2629634  56.2547711  40.0319214  67.1236099  55.9631709
  39.2057326  67.4284089  57.1945889  33.4652157  64.6396489  55.1000897
  32.5955466  64.9330055  54.8283486  33.7011637  65.2236934  55.8208161
  43.3423786  73.6995648  55.1830426  43.0508594  74.0625628  56.0193887
  42.7295917  72.9862656  55.0043758  44.5419468  71.2648528  47.7032996
  45.3766360  71.7038332  47.8670557  44.6778597  70.7887181  46.8841242
  41.5910974  68.8228263  53.6510484  42.0665096  69.0155909  52.8429335
  40.6676540  68.8787448  53.4053868  28.4794481  69.9852430  43.2341562
  28.2340523  69.0814760  43.4321772  28.6490396  69.9869580  42.2921040
  36.1691191  60.8576106  52.6166318  36.6873135  61.5937133  52.2912806
  35.8146324  61.1640099  53.4513077  27.7490129  65.7180787  40.7327724
  27.0559373  65.7925142  40.0767760  27.5041880  64.9541131  41.2549241
  36.4203785  57.2776389  48.1367214  36.7005539  56.6099578  48.7627641
  37.2054392  57.4705484  47.6241878  34.2237254  76.4535382  39.6992241
  33.6511221  77.0725570  39.2462713  34.7970047  77.0034744  40.2332163
  40.2912643  65.6994023  51.8838790  41.2430066  65.7992120  51.9051014
  40.1216094  64.9072291  52.3936874  38.3127023  62.7849606  52.0698191
  37.7176955  63.0654619  51.3744679  38.0276720  63.2743507  52.8414932
  37.4434513  76.7372533  40.8300823  38.3765186  76.6718094  41.0333699
  37.3557726  77.5728799  40.3715356  40.0722530  76.0538403  37.7904771
  39.9936162  75.7198267  38.6840529  40.8932197  76.5460171  37.7896243
  42.7700721  68.9200142  50.9981089  42.7377041  67.9816143  51.1840773
  43.3801345  68.9984179  50.2646914  34.6084052  67.7896195  37.0408293
  35.5543157  67.6602403  37.1096711  34.2298297  67.0510857  37.5177721
  42.9195210  65.7111186  51.0439372  42.4034258  64.9269642  50.8569301
  43.8035158  65.3829902  51.2085892  40.5805937  59.4552201  47.0035185
  40.3830758  59.1467289  47.8878517  41.1905642  60.1813840  47.1333115
  48.5877271  69.9816149  50.1387126  49.3180660  69.7201437  50.6994829
  47.9784217  69.2444871  50.1789194  46.6692568  68.1224012  50.7361577
  45.9425732  67.9879977  50.1278069  46.2539855  68.4300840  51.5418295
  34.4922745  71.8413941  58.5008950  35.4125754  72.0192540  58.6948997
  34.4572328  70.8969987  58.3488650  32.7926969  65.7146172  36.9763178
  31.8858425  65.4179284  37.0525892  33.0702950  65.4175990  36.1097465
  23.7104910  67.0352535  47.4262225  23.3907694  66.1817843  47.1336599
  23.1638338  67.2501113  48.1820192  27.4884817  69.7514976  51.1431731
  27.7070827  70.6832084  51.1619765  27.9010591  69.3922950  51.9286535
  34.4089035  60.2583061  43.1307420  33.5989763  59.9130146  43.5062666
  35.0973452  59.9490605  43.7195031  36.3379583  59.3361108  44.7531716
  36.8910622  59.7556562  45.4121740  36.5749670  58.4096856  44.7954672
  32.3612682  65.3248182  60.5334480  32.2609409  66.2742539  60.4646571
  32.1434224  64.9966421  59.6610550  31.5625754  62.5733107  37.1175158
  32.4244918  62.8988005  37.3770975  31.7476098  61.7864603  36.6048223
  23.5793170  70.6555447  49.3955346  22.8856641  70.2409399  48.8825301
  24.3266161  70.6975983  48.7988765  39.7158390  61.4461633  44.2610381
  39.1357059  62.1046437  43.8788433  39.4494323  60.6238978  43.8497798
  38.1661957  60.8466691  46.4631701  38.6661735  60.9583226  45.6546020
  38.8097565  60.5427744  47.1032509  32.2243953  68.7545321  59.3499542
  31.7411034  69.5545681  59.5563431  32.3104892  68.7653266  58.3966986
  25.4929912  70.5873700  47.2721361  25.4700600  70.6861388  46.3203244
  25.8030549  71.4338851  47.5938527  28.1517290  72.6449855  51.3867976
  29.1060544  72.6133798  51.3197907  27.9529814  72.1840479  52.2018202
  28.7416672  71.2150971  53.9538773  29.5609561  71.7095050  53.9773611
  29.0153480  70.2982940  53.9256341  38.4983268  63.6061724  43.3166729
  37.6109123  63.8911374  43.0986924  38.9137257  63.4455487  42.4694006
  41.8497804  63.6308245  47.0321068  42.6258195  64.1204697  47.3045685
  41.1245939  64.0566299  47.4892938  44.2870363  64.3435864  48.0895009
  44.8814854  64.1031600  47.3788317  44.3596947  63.6242994  48.7168545
  26.5067519  78.1869475  48.4038174  26.3721987  77.4269876  47.8376172
  26.0899581  78.9110375  47.9366963  37.6426482  73.3706398  37.4114749
  38.3462332  73.5756401  38.0272405  36.9189131  73.9383160  37.6763832
  38.4724292  69.1216260  43.5317019  38.4159493  69.5784811  42.6924652
  39.0252635  68.3606944  43.3539862  42.2829098  64.9105992  44.3567139
  42.0266032  64.5102627  45.1875346  41.6581966  65.6249785  44.2317278
  46.5941436  67.6502065  46.8638430  46.0340994  67.7195254  47.6369992
  45.9884939  67.4743049  46.1437926  29.6636645  79.0838792  48.6156616
  29.5469029  80.0284224  48.5135307  28.8429091  78.7812353  49.0042415
  39.5513179  73.8088928  39.4613209  40.3858783  73.3770126  39.2790684
  39.3897522  73.6370941  40.3890103  39.2059071  70.3121041  40.8269548
  39.1507875  70.1465312  39.8857992  38.5805127  71.0197074  40.9831738
  23.9951586  65.5489105  54.6530970  24.6410450  65.0388059  55.1418196
  23.7868737  66.2857787  55.2274396  32.5155197  59.8129150  40.4054867
  32.5033867  60.7570990  40.5623138  33.4078619  59.6299295  40.1114328
  30.6891159  79.7367054  51.8312545  31.5918405  79.7690664  52.1479040
  30.4628529  78.8067505  51.8458881  32.4444761  78.4898040  48.4922623
  31.4940392  78.4899902  48.3786996  32.7477247  77.7430775  47.9758658
  36.3307316  56.4071927  44.6600803  35.5639712  55.8530413  44.8057486
  36.7418021  56.4793795  45.5214955  28.3349077  62.6956722  58.7505985
  29.1980539  62.3393527  58.9609309  27.7614488  62.3570617  59.4381389
  48.1797454  84.3258579  49.5568386  48.8175864  84.2065326  48.8531726
  48.0618297  85.2739423  49.6156338  44.9887161  84.2786007  49.4929910
  44.6505672  84.1627071  48.6050445  45.8576929  83.8777172  49.4730917
  40.8473976  86.1321483  45.4826801  40.2838841  86.0411420  44.7143089
  40.7326371  85.3121388  45.9629294  45.4706944  85.4320859  55.4516116
  45.4595584  85.0373657  54.5796620  45.6327583  84.6986931  56.0449887
  38.3938408  87.6272675  48.3211022  39.1859700  87.2863499  47.9057321
  38.6335058  87.7367650  49.2413175  46.4273535  89.7992451  40.7941266
  45.7761515  90.3846531  40.4075280  47.2217898  90.3298646  40.8536304
  40.3529162  86.8881588  41.1928401  41.1260038  86.3410575  41.0541276
  40.7054561  87.7525837  41.4042862  42.1914205  88.2157970  54.3995300
  41.9004071  89.1203601  54.2841966  42.8271189  88.2574498  55.1139369
  43.1170412  85.5934819  50.9896660  43.7133984  85.3690841  50.2753623
  43.1745383  84.8519564  51.5922107  42.6895440  83.0474254  38.8246851
  42.9420961  82.5255775  38.0630314  41.7519999  82.8840400  38.9273534
  47.7338723  82.0510033  46.6321594  48.5201812  81.6329456  46.2812011
  47.9977427  82.9556125  46.8003242  47.9048800  87.4882883  41.3310251
  47.2694633  87.5617509  42.0431155  47.5746207  88.0776482  40.6529330
  53.1347150  81.9885266  47.5354572  53.8672322  81.4184483  47.7692402
  52.3786506  81.6006866  47.9761078  42.4091729  84.9502360  41.0271226
  42.2927987  84.2747264  41.6952310  42.5193989  84.4634734  40.2103379
  44.7523270  84.4112507  44.7317915  44.3881477  83.8843128  45.4430836
  45.6090386  84.0210976  44.5584400  50.6572570  75.7006840  51.9949181
  50.3255895  76.5702251  51.7710396  50.0618184  75.3843124  52.6743211
  44.3928757  79.4402407  39.7279263  44.5603159  80.3082643  40.0949734
  44.2025926  79.6029689  38.8040553  47.1504090  87.9019386  51.3945094
  46.8504813  88.8044425  51.2860901  46.8055149  87.6351569  52.2466247
  40.6016571  84.3533183  47.4281798  39.6767068  84.2209397  47.6359490
  40.8500984  85.1327402  47.9251740  50.5501234  80.4201926  49.0742531
  49.6418111  80.3517334  48.7801292  50.4988829  80.8973871  49.9024356
  44.3717977  81.8960064  40.7125930  44.2517603  82.3417115  41.5511410
  43.6770566  82.2445382  40.1539468  37.9625382  83.9966456  48.2625587
  38.0917763  84.2500935  49.1764999  37.2822834  84.5894164  47.9430242
  42.1324870  94.6663706  44.3616061  42.0548899  95.6171531  44.4404542
  41.5286513  94.3209579  45.0190988  44.6242099  81.8391572  57.0177428
  43.8475433  82.3985492  57.0080293  45.2632662  82.3248355  57.5392298
  52.4162880  78.6218364  50.8520405  51.7737260  78.9150898  50.2060199
  51.9117808  78.5071285  51.6573602  50.0703044  82.3681538  41.5406264
  50.9820900  82.6008924  41.3653962  49.5612691  82.9518582  40.9781343
  42.8788472  84.6477025  56.5795395  43.6203156  85.1862069  56.3030219
  42.1725457  85.2743314  56.7366947  48.3543811  86.7906165  55.1767557
  48.7627167  86.3488576  54.4322189  47.6321073  86.2158793  55.4301750
  44.7074881  81.7278772  52.5501114  45.5536077  82.1518186  52.6935763
  44.6473519  81.0712397  53.2439677  48.6772626  87.3507356  48.9319846
  48.0481488  87.5153070  48.2295913  48.2898288  87.7648966  49.7030810
  52.5561858  88.2861794  46.2864209  51.8712896  88.6660695  45.7361243
  52.6405707  88.8957121  47.0196157  47.8574327  79.3883141  54.2082287
  47.6135259  80.1425201  53.6716563  48.1334257  79.7668488  55.0429534
  49.8112789  85.9321753  52.8859553  50.0229685  86.5753513  52.2093934
  49.7642538  85.0984069  52.4181483  47.4139018  78.5439574  49.7896125
  46.5523497  78.8420827  50.0812863  47.4401453  78.7609972  48.8577158
  44.2300588  87.0881764  46.1969931  44.6938933  87.3669467  45.4074553
  43.9657386  86.1865209  46.0143021  41.1224669  86.6353246  49.1349694
  41.6926026  87.0640514  48.4967178  41.7132781  86.3535830  49.8333880
  43.1669474  83.2104917  43.0059496  43.8693517  83.6625960  43.4733422
  42.8350102  82.5688735  43.6339389  41.6149835  81.8016673  57.3810705
  40.9848496  82.4832954  57.6146102  41.5085923  81.6899755  56.4363843
  36.9094808  81.4688469  48.3076629  36.1193862  81.7245998  47.8316740
  37.4006055  82.2836807  48.4128670  50.9258617  88.8093708  51.0581910
  51.7476061  88.4073896  50.7764592  50.9221020  88.7061943  52.0098026
  38.8609553  81.8333048  45.2660106  38.0640716  81.9451743  45.7843602
  38.6335145  82.1719701  44.4000997  44.6915221  88.3577752  53.2142621
  44.7559653  88.8198159  54.0500793  43.9826145  87.7275117  53.3424931
  35.1932511  81.7218960  50.7391620  35.4440549  82.6065970  51.0049196
  35.7292059  81.5423561  49.9666712  59.0164610  85.1532457  47.4066882
  58.2628319  84.5839855  47.2510886  59.1512152  85.1195121  48.3537516
  44.4063238  90.0245859  43.0821601  44.2708913  90.8697395  43.5106449
  44.9473051  90.2265137  42.3187535  37.8592636  87.5421297  43.6549526
  38.3717156  88.3364547  43.8055091  38.5115349  86.8447588  43.5883128
  39.6687521  90.6587053  45.7372279  39.8454149  91.5805018  45.5493263
  40.4644354  90.3445473  46.1666659  43.8098539  77.5195318  57.3356213
  44.5508252  78.1202471  57.2560675  44.0416462  76.7772956  56.7774255
  38.9539877  82.7051685  55.6134443  38.8393392  81.8036943  55.9141541
  38.0984395  82.9515382  55.2619259  46.0331715  90.6469426  57.2121943
  45.5895569  89.8605804  56.8942848  46.6948928  90.8348576  56.5465834
  40.7918836  92.1765227  51.7382622  41.3426261  92.0482291  50.9659616
  39.9530312  92.4760116  51.3877514  48.1312953  90.9272226  55.2403344
  48.1131428  91.7481107  54.7483614  49.0532873  90.8026301  55.4653486
  44.5886007  88.4416355  56.0826853  45.1214344  87.6804643  55.8526161
  44.0600088  88.1490007  56.8251007  47.7555702  73.5476421  51.6120495
  47.4119971  74.4378063  51.5359605  48.1234665  73.3578079  50.7490080
  35.8241553  85.8709951  44.4309097  36.6616775  86.2806960  44.2142804
  36.0019820  84.9309394  44.4009291  47.7205985  83.5385032  40.1192930
  47.2052608  84.3089637  40.3581317  47.4483293  82.8650168  40.7425991
  45.3053096  78.3834733  45.1778168  44.4494692  77.9941583  44.9983807
  45.7180048  78.4626694  44.3177954  46.8352242  75.9181076  49.5769728
  46.3317038  75.8811211  48.7637533  47.1282849  76.8273819  49.6366384
  43.0795128  76.0019806  48.5835909  43.9448125  75.8062615  48.2241799
  43.1472637  75.7730158  49.5105266  52.6940259  86.2917387  42.0546103
  51.9169702  85.9528546  41.6101265  53.3731740  86.2970010  41.3801068
  47.5092288  81.4112124  41.9452711  47.2042424  81.7258273  42.7962854
  48.4622730  81.4893544  41.9880044  45.9538720  87.5702348  43.5945665
  45.4260081  86.8355107  43.2818902  45.4526223  88.3477024  43.3485633
  50.9331566  85.7651368  48.7112711  50.2755240  86.4550629  48.7992840
  51.7371965  86.1547800  49.0546697  40.6857447  78.2322014  45.9552276
  41.2601199  78.0097195  45.2225469  41.2728430  78.3010708  46.7080878
  49.7437025  84.1195741  46.7616653  50.2568906  84.7525733  47.2638363
  50.3938249  83.5196936  46.3960013  41.0127035  80.2626475  39.9748162
  40.1764347  80.6001161  40.2957436  40.8731804  80.1275455  39.0375299
  42.9880115  75.1063263  44.6827346  42.3344527  74.7912280  44.0583961
  42.9460589  74.4839003  45.4087169  44.0991320  85.3882558  36.5980638
  43.1918382  85.1571811  36.7971787  44.5962352  84.5920177  36.7854619
  47.0059399  94.0980065  39.5177324  46.3321098  94.4011762  40.1262282
  47.3925221  94.9009145  39.1682781  46.2217855  81.5945196  49.0074993
  45.3040417  81.8160143  48.8496681  46.6377999  81.6691507  48.1486701
  47.0052903  82.9936612  44.1377674  47.7524722  83.5058009  43.8284796
  47.2744493  82.6720665  44.9982067  45.2779553  85.4895153  41.1204628
  44.3690773  85.2054185  41.2177098  45.3074637  85.9094231  40.2607935
  50.5098821  89.1001742  44.8895795  50.0561148  88.2592652  44.9460986
  49.8792788  89.7363141  45.2270576  49.4531740  80.0293728  46.1196463
  48.7154497  79.5171114  46.4506705  49.7058514  79.5894110  45.3079740
  48.9531760  90.9378239  45.8245614  49.2454734  91.4983296  45.1057979
  49.4630381  91.2306800  46.5798773  49.5543368  72.8069980  46.7138232
  49.8602245  71.9467344  46.4264147  50.2795973  73.3987600  46.5137226
  35.8467724  83.2100667  45.1019830  35.6492124  82.6170028  44.3770897
  35.2914388  82.9052877  45.8195769  43.8264447  83.1023773  47.2214423
  43.8813057  82.1497610  47.1456900  43.0155649  83.2583212  47.7055722
  44.9755641  87.0303896  38.4592706  44.5375071  86.3139755  37.9998344
  45.7166082  87.2580011  37.8977798  41.7656807  81.7200833  44.9804802
  40.9524673  82.0195004  45.3869994  42.2615802  81.3256522  45.6979284
  43.9165385  91.7158590  46.9139067  43.8741564  91.9419436  45.9847599
  44.8328084  91.4821965  47.0624868  47.3631019  82.1842657  53.8119696
  47.7180407  82.4114131  54.6714162  48.0103150  82.5161034  53.1896951
  53.0928756  85.3061093  44.5169025  52.9546655  85.4962689  43.5890214
  52.7364975  86.0680476  44.9737076  41.2570882  79.2919189  50.5966037
  41.8970261  79.1507948  49.8989000  40.4248413  79.0053702  50.2204639
  53.1198136  87.3737620  49.5280297  53.5534642  87.2812909  50.3763351
  53.8329716  87.3495121  48.8900313  42.0331186  88.5921619  46.7101030
  42.8271785  88.0971939  46.5083604  41.3222878  88.0639482  46.3468735
  46.8526031  90.9739715  51.0613397  46.9063053  91.5430651  51.8291113
  45.9840812  91.1441600  50.6967434  38.3413950  82.7364701  42.7860782
  37.4111538  82.6749156  43.0030744  38.4371421  82.2140653  41.9897423
  38.2599499  79.2619514  45.3739024  38.5206316  80.1764847  45.2648184
  39.0816671  78.7943956  45.5235637  39.7324424  80.6757271  52.5437848
  40.4047477  80.4674633  51.8950497  38.9054210  80.4779357  52.1043081
  53.9813685  87.4161321  52.0613182  54.1749575  88.3207132  52.3072457
  53.8814303  86.9568740  52.8951767  45.6349996  77.3019212  54.5603509
  44.9877911  78.0009161  54.4667986  46.4051011  77.7355356  54.9279757
  49.0428794  87.5668064  57.6354063  48.8914300  87.3378615  56.7184146
  49.0333473  88.5238665  57.6485408  45.8114130  85.1399977  52.6200329
  46.7406190  85.2911136  52.4469296  45.3905160  85.2283997  51.7648976
  44.6102462  89.1650641  50.3898867  44.4713548  88.7969425  51.2624805
  43.8217058  89.6798280  50.2182824  45.2050614  94.2659737  41.7324403
  45.3802370  93.7947781  42.5470026  44.5183402  94.8925504  41.9605664
  46.1607677  88.5432244  47.7787704  45.8257510  88.5033014  48.6745354
  45.6611623  87.8776960  47.3058115  40.1351921  83.9499874  53.3040286
  39.9971719  83.2180113  53.9051825  41.0456845  83.8608774  53.0224473
  49.0966869  85.8888278  38.0524764  48.4796039  85.1635106  37.9557817
  48.6283357  86.6497638  37.7091838  42.7634222  83.6619833  52.7923965
  43.4733840  83.0213025  52.7510584  42.7203530  83.9132728  53.7150146
  50.7521000  90.5987186  55.7130544  50.6933547  89.9146406  55.0461127
  51.1540519  91.3406176  55.2611170  41.4763156  80.6485051  54.6119605
  40.9400513  80.1975789  55.2641201  40.8879864  80.7830960  53.8690069
  39.7711699  97.4149100  48.5064263  40.0108298  98.0467624  49.1843282
  38.9280896  97.0637140  48.7929623  40.8865415  80.1073702  37.1746068
  40.0094881  79.9862503  36.8108315  41.3623168  79.3159781  36.9224957
  50.7538408  88.5626770  53.9444524  49.8665187  88.2252692  54.0670923
  51.3236959  87.8309802  54.1813289  32.4067555  84.8950862  47.2687575
  33.0938595  84.5812592  46.6808591  32.2515684  85.7992227  46.9954827
  37.2102277  79.7841059  51.6972599  37.1260466  79.1766728  50.9623009
  36.3884983  80.2750077  51.6982096  44.2839561  93.2228223  50.9105767
  44.2109733  94.0283194  51.4225072  43.8416954  93.4220188  50.0853789
  44.0729341  92.4599993  44.4208589  43.2896863  93.0021673  44.5146813
  44.7722086  92.9773972  44.8202830  47.3825991  78.2694622  47.0642794
  47.8794690  77.5164584  46.7443864  46.6112972  78.3058939  46.4986004
  55.2355748  83.9734988  48.7061086  55.2245625  84.8559703  48.3355019
  54.3673128  83.6206538  48.5115623  46.7438245  93.1215057  53.0663926
  47.4566217  93.7562521  52.9939827  46.2528273  93.2178923  52.2503928
  48.4655772  87.0266309  44.6381218  47.5312050  87.1467772  44.4685922
  48.6432440  86.1238776  44.3741227  43.9660960  80.4112005  46.7914479
  43.5958747  79.8583045  47.4795384  44.4620052  79.8070139  46.2389479
  51.8528323  82.8683629  45.1731252  52.3188775  83.7011620  45.0991554
  52.3035823  82.4028610  45.8776510  41.7950158  90.8709500  53.8869497
  42.4959618  91.5045983  54.0398891  41.3245273  91.2124232  53.1265136
  49.9204554  89.2127450  42.1717404  50.1964398  89.0984044  43.0811278
  49.0509053  88.8144935  42.1329577  49.8244986  75.2364216  49.2122153
  48.9108065  75.4668442  49.3804360  50.2538087  75.3202660  50.0636185
  49.5951444  83.4254108  51.7122047  48.9422894  83.6730015  51.0574500
  49.9731824  82.6118246  51.3784524  46.5558618  93.4613801  45.8150217
  46.7381013  92.6435457  46.2777970  47.3791604  93.6781493  45.3775107
  46.8900784  92.3881986  43.0765266  47.4188550  91.8774440  42.4635428
  47.1529003  92.0724516  43.9410799  45.6439017  84.1673919  58.1988084
  44.9679654  84.0668048  58.8690459  46.4666651  84.0113132  58.6624081
  37.3917876  90.4045855  50.8200599  37.9771313  89.6589543  50.9528504
  37.1942715  90.7149812  51.7037263  40.2456531  93.4397103  45.8363042
  39.5766907  93.9243230  45.3527082  40.1069401  93.6866323  46.7506420
  31.9835531  82.9751455  49.5405043  32.0219631  82.4415046  50.3342161
  31.4775824  82.4486661  48.9216020  44.3861800  95.4740846  52.4345700
  44.9380108  95.6372468  53.1994785  44.7267994  96.0645284  51.7625725
  39.3626293  77.8215996  53.0367585  39.4267620  78.6830827  52.6244983
  39.2993414  77.2089998  52.3039943  38.8378566  79.8939128  56.6840619
  39.4650605  79.5116206  57.2978143  37.9806485  79.6753330  57.0496312
  49.2372674  90.3002104  58.2894355  49.7812578  90.9132062  57.7949309
  48.6559519  90.8581682  58.8061368  35.6144109  81.7015558  42.6158974
  35.9097550  80.7926236  42.5626028  34.7132144  81.6803297  42.2939976
  47.5230187  93.4222822  49.4209382  47.3981327  92.6212561  48.9120328
  48.1809278  93.9169015  48.9323352  39.1438356  79.7771554  48.5986523
  38.4224941  80.3907522  48.4593996  39.9331611  80.3129319  48.5203169
  49.5865096  91.2231842  51.0488932  48.6395431  91.1037193  50.9767259
  49.9347869  90.3354340  51.1315194  41.9464669  77.1125981  54.8727174
  42.4699071  77.3588277  55.6353484  41.7277002  77.9446015  54.4530312
  37.3431950  79.3829655  42.7398299  37.0144656  78.5027034  42.5573405
  37.6971321  79.3277324  43.6274688  46.5911529  91.0184558  47.2493285
  46.4436491  90.0901265  47.4300855  47.4165023  91.0404649  46.7650360
  40.4573773  79.6702625  43.1073777  40.7969846  80.1988546  42.3852385
  40.9045894  80.0083031  43.8832343  50.1945651  91.8413117  48.3358157
  51.1192198  91.6355978  48.1982609  50.0260954  91.5929518  49.2447499
  43.1517214  78.0539676  52.5576845  42.8114035  77.2547489  52.9597525
  42.4456220  78.3541387  51.9853678  43.8033686  75.1388988  51.0104168
  44.6259755  74.6649466  50.8883058  44.0471750  75.9179472  51.5102854
  42.4441920  78.1677247  41.3067070  43.1650283  78.5458499  40.8030786
  41.8207225  78.8866123  41.4102048  46.5873043  78.8722396  42.2425402
  46.8036658  79.7547033  41.9414230  46.1067111  78.4808609  41.5131044
  41.3272265  81.8308109  48.8196147  41.1816845  82.1448412  49.7120428
  40.8497468  82.4493009  48.2667045  43.1868648  78.8210657  48.8677036
  43.1730216  77.9251750  48.5309334  43.9041076  78.8281321  49.5015322
  45.0394778  79.2547997  50.9130164  44.7812556  80.1765068  50.9114494
  44.5079819  78.8578432  51.6030628  49.9840967  92.3598784  43.6920249
  50.1577845  91.7945207  42.9394101  50.4769858  93.1599679  43.5099739
  35.8017927  84.3713453  51.7583808  35.2571395  85.1473261  51.8904082
  36.6797277  84.7184258  51.6002929  42.5905544  77.7025037  44.1364606
  42.7121455  76.7741683  44.3355494  42.3007586  77.7163723  43.2242922
  45.4596734  75.3879947  47.2731326  45.4818431  75.4519281  46.3183306
  45.8764793  74.5484456  47.4671832  55.8380358  85.1235207  45.3110549
  56.2811504  84.3742532  44.9129672  54.9606869  85.1145343  44.9284281
  50.9716140  91.6765549  40.7917147  51.6667044  92.2972241  41.0104462
  51.3139290  90.8260900  41.0669525  36.5883949  83.4983349  54.6513965
  35.8465685  83.6465985  55.2378595  36.2676693  83.7591615  53.7880714
  52.8707563  89.1265254  42.3204478  53.3958887  89.4652527  41.5953798
  52.7829915  88.1912269  42.1367613  44.5327611  93.0399328  54.4494355
  44.8414738  92.7948474  55.3217054  45.3303093  93.2445966  53.9613225
  44.5548223  95.1937237  46.6799731  44.1153214  94.7013616  47.3732588
  45.3056340  94.6510205  46.4391806  37.0340562  91.3848778  46.6824359
  37.8598582  91.0852550  46.3023003  36.6834614  90.6156401  47.1314148
  42.0022096  90.7375246  48.7522033  41.3802105  90.0745951  48.4524261
  42.6726963  90.7636378  48.0695681  35.2349167  89.3035105  47.6413293
  34.3981076  88.8757279  47.4597294  35.2072813  89.4967548  48.5784084
  42.0746623  79.2157034  58.3454539  42.1234779  80.0919157  57.9632308
  42.6169137  78.6734427  57.7726182  52.5601469  89.7598158  57.6255676
  51.7697012  89.7422297  57.0860175  52.3234823  90.2986451  58.3804712
  52.6799344  86.6090624  54.9388404  52.7297349  86.4440631  55.8803927
  52.5713267  85.7417883  54.5486285  41.5635603  89.2879170  42.2280493
  41.7123723  89.9714634  41.5747166  42.3702046  89.2684260  42.7429949
  49.9703106  82.5921552  56.2547711  50.8712969  82.4528017  55.9631709
  50.0451081  82.7576007  57.1945889  44.3045912  79.9688407  55.1000897
  43.4349221  80.2621973  54.8283486  44.5405392  80.5528852  55.8208161
  54.1817541  89.0287566  55.1830426  53.8902349  89.3917546  56.0193887
  53.5689672  88.3154574  55.0043758  55.3813223  86.5940445  47.7032996
  56.2160114  87.0330249  47.8670557  55.5172352  86.1179099  46.8841242
  52.4304729  84.1520180  53.6510484  52.9058850  84.3447826  52.8429335
  51.5070294  84.2079366  53.4053868  39.3188235  85.3144347  43.2341562
  39.0734277  84.4106677  43.4321772  39.4884150  85.3161498  42.2921040
  47.0084945  76.1868024  52.6166318  47.5266889  76.9229051  52.2912806
  46.6540078  76.4932017  53.4513077  38.5883883  81.0472705  40.7327724
  37.8953128  81.1217060  40.0767760  38.3435635  80.2833049  41.2549241
  47.2597540  72.6068306  48.1367214  47.5399293  71.9391495  48.7627641
  48.0448146  72.7997402  47.6241878  45.0631008  91.7827300  39.6992241
  44.4904975  92.4017487  39.2462713  45.6363802  92.3326662  40.2332163
  51.1306398  81.0285940  51.8838790  52.0823821  81.1284038  51.9051014
  50.9609848  80.2364209  52.3936874  49.1520777  78.1141523  52.0698191
  48.5570709  78.3946536  51.3744679  48.8670474  78.6035424  52.8414932
  48.2828268  92.0664450  40.8300823  49.2158941  92.0010012  41.0333699
  48.1951481  92.9020717  40.3715356  50.9116284  91.3830321  37.7904771
  50.8329916  91.0490184  38.6840529  51.7325951  91.8752089  37.7896243
  53.6094476  84.2492060  50.9981089  53.5770796  83.3108061  51.1840773
  54.2195099  84.3276097  50.2646914  45.4477807  83.1188113  37.0408293
  46.3936911  82.9894321  37.1096711  45.0692051  82.3802775  37.5177721
  53.7588964  81.0403103  51.0439372  53.2428013  80.2561560  50.8569301
  54.6428913  80.7121820  51.2085892  51.4199691  74.7844119  47.0035185
  51.2224512  74.4759207  47.8878517  52.0299397  75.5105758  47.1333115
  59.4271026  85.3108067  50.1387126  60.1574414  85.0493355  50.6994829
  58.8177971  84.5736789  50.1789194  57.5086323  83.4515929  50.7361577
  56.7819486  83.3171894  50.1278069  57.0933610  83.7592758  51.5418295
  45.3316499  87.1705859  58.5008950  46.2519509  87.3484458  58.6948997
  45.2966082  86.2261904  58.3488650  43.6320724  81.0438089  36.9763178
  42.7252179  80.7471202  37.0525892  43.9096705  80.7467907  36.1097465
  34.5498664  82.3644453  47.4262225  34.2301448  81.5109761  47.1336599
  34.0032092  82.5793031  48.1820192  38.3278572  85.0806894  51.1431731
  38.5464581  86.0124002  51.1619765  38.7404345  84.7214868  51.9286535
  45.2482789  75.5874979  43.1307420  44.4383518  75.2422064  43.5062666
  45.9367206  75.2782523  43.7195031  47.1773338  74.6653026  44.7531716
  47.7304376  75.0848479  45.4121740  47.4143424  73.7388774  44.7954672
  43.2006437  80.6540099  60.5334480  43.1003164  81.6034456  60.4646571
  42.9827979  80.3258338  59.6610550  42.4019508  77.9025025  37.1175158
  43.2638672  78.2279923  37.3770975  42.5869852  77.1156520  36.6048223
  34.4186924  85.9847364  49.3955346  33.7250396  85.5701317  48.8825301
  35.1659915  86.0267901  48.7988765  50.5552145  76.7753551  44.2610381
  49.9750814  77.4338355  43.8788433  50.2888077  75.9530896  43.8497798
  49.0055711  76.1758609  46.4631701  49.5055490  76.2875143  45.6546020
  49.6491319  75.8719662  47.1032509  43.0637707  84.0837238  59.3499542
  42.5804789  84.8837598  59.5563431  43.1498646  84.0945183  58.3966986
  36.3323667  85.9165618  47.2721361  36.3094355  86.0153305  46.3203244
  36.6424303  86.7630769  47.5938527  38.9911044  87.9741773  51.3867976
  39.9454298  87.9425715  51.3197907  38.7923568  87.5132397  52.2018202
  39.5810427  86.5442889  53.9538773  40.4003316  87.0386968  53.9773611
  39.8547234  85.6274857  53.9256341  49.3377023  78.9353641  43.3166729
  48.4502878  79.2203292  43.0986924  49.7531012  78.7747405  42.4694006
  52.6891559  78.9600162  47.0321068  53.4651949  79.4496615  47.3045685
  51.9639693  79.3858217  47.4892938  55.1264118  79.6727782  48.0895009
  55.7208608  79.4323518  47.3788317  55.1990701  78.9534912  48.7168545
  37.3461273  93.5161393  48.4038174  37.2115741  92.7561793  47.8376172
  36.9293336  94.2402292  47.9366963  48.4820236  88.6998316  37.4114749
  49.1856086  88.9048319  38.0272405  47.7582885  89.2675078  37.6763832
  49.3118047  84.4508177  43.5317019  49.2553248  84.9076729  42.6924652
  49.8646389  83.6898862  43.3539862  53.1222852  80.2397909  44.3567139
  52.8659787  79.8394545  45.1875346  52.4975720  80.9541703  44.2317278
  57.4335190  82.9793982  46.8638430  56.8734748  83.0487172  47.6369992
  56.8278694  82.8034967  46.1437926  40.5030399  94.4130710  48.6156616
  40.3862783  95.3576142  48.5135307  39.6822845  94.1104271  49.0042415
  50.3906934  89.1380845  39.4613209  51.2252538  88.7062044  39.2790684
  50.2291277  88.9662859  40.3890103  50.0452826  85.6412959  40.8269548
  49.9901630  85.4757230  39.8857992  49.4198881  86.3488991  40.9831738
  34.8345341  80.8781023  54.6530970  35.4804204  80.3679977  55.1418196
  34.6262492  81.6149705  55.2274396  47.3598733  87.9461870  60.1523111
  48.2289893  88.1202523  59.7909746  46.8805485  88.7656287  60.0298840
  43.3548951  75.1421068  40.4054867  43.3427621  76.0862907  40.5623138
  44.2472373  74.9591213  40.1114328  41.5284913  95.0658971  51.8312545
  42.4312160  95.0982582  52.1479040  41.3022283  94.1359422  51.8458881
  43.2838515  93.8189958  48.4922623  42.3334146  93.8191820  48.3786996
  43.5871001  93.0722693  47.9758658  47.1701071  71.7363844  44.6600803
  46.4033467  71.1822331  44.8057486  47.5811776  71.8085713  45.5214955
  59.0191209  99.6550496  49.5568386  59.6569619  99.5357244  48.8531726
  58.9012052 100.6031340  49.6156338  55.8280915  99.6077924  49.4929910
  55.4899427  99.4918989  48.6050445  56.6970683  99.2069090  49.4730917
  51.6867731 101.4613401  45.4826801  51.1232596 101.3703338  44.7143089
  51.5720126 100.6413305  45.9629294  56.3100698 100.7612776  55.4516116
  56.2989339 100.3665574  54.5796620  56.4721338 100.0278849  56.0449887
  49.2332163 102.9564592  48.3211022  50.0253455 102.6155417  47.9057321
  49.4728813 103.0659568  49.2413175  57.2667289 105.1284369  40.7941266
  56.6155269 105.7138449  40.4075280  58.0611652 105.6590563  40.8536304
  51.1922917 102.2173506  41.1928401  51.9653793 101.6702493  41.0541276
  51.5448315 103.0817755  41.4042862  53.0307959 103.5449888  54.3995300
  52.7397825 104.4495519  54.2841966  53.6664944 103.5866416  55.1139369
  53.9564166 100.9226737  50.9896660  54.5527738 100.6982759  50.2753623
  54.0139138 100.1811482  51.5922107  53.5289194  98.3766172  38.8246851
  53.7814715  97.8547693  38.0630314  52.5913754  98.2132317  38.9273534
  58.5732477  97.3801950  46.6321594  59.3595566  96.9621373  46.2812011
  58.8371182  98.2848042  46.8003242  58.7442555 102.8174801  41.3310251
  58.1088388 102.8909427  42.0431155  58.4139961 103.4068399  40.6529330
  63.9740904  97.3177183  47.5354572  64.7066076  96.7476400  47.7692402
  63.2180260  96.9298784  47.9761078  53.2485483 100.2794278  41.0271226
  53.1321741  99.6039181  41.6952310  53.3587743  99.7926652  40.2103379
  55.5917024  99.7404425  44.7317915  55.2275231  99.2135046  45.4430836
  56.4484140  99.3502894  44.5584400  61.4966325  91.0298758  51.9949181
  61.1649650  91.8994168  51.7710396  60.9011938  90.7135042  52.6743211
  55.2322511  94.7694325  39.7279263  55.3996913  95.6374561  40.0949734
  55.0419680  94.9321606  38.8040553  57.9897844 103.2311304  51.3945094
  57.6898567 104.1336342  51.2860901  57.6448904 102.9643487  52.2466247
  51.4410326  99.6825100  47.4281798  50.5160822  99.5501314  47.6359490
  51.6894739 100.4619320  47.9251740  61.3894988  95.7493844  49.0742531
  60.4811865  95.6809252  48.7801292  61.3382584  96.2265789  49.9024356
  55.2111732  97.2251982  40.7125930  55.0911357  97.6709033  41.5511410
  54.5164320  97.5737300  40.1539468  48.8019137  99.3258374  48.2625587
  48.9311518  99.5792853  49.1764999  48.1216588  99.9186082  47.9430242
  52.9718624 109.9955624  44.3616061  52.8942654 110.9463449  44.4404542
  52.3680268 109.6501496  45.0190988  55.4635854  97.1683489  57.0177428
  54.6869188  97.7277409  57.0080293  56.1026417  97.6540272  57.5392298
  63.2556634  93.9510282  50.8520405  62.6131015  94.2442815  50.2060199
  62.7511563  93.8363202  51.6573602  60.9096798  97.6973455  41.5406264
  61.8214654  97.9300842  41.3653962  60.4006445  98.2810499  40.9781343
  53.7182226  99.9768943  56.5795395  54.4596911 100.5153987  56.3030219
  53.0119212 100.6035231  56.7366947  59.1937566 102.1198083  55.1767557
  59.6020922 101.6780494  54.4322189  58.4714827 101.5450711  55.4301750
  55.5468636  97.0570690  52.5501114  56.3929831  97.4810103  52.6935763
  55.4867274  96.4004314  53.2439677  59.5166380 102.6799274  48.9319846
  58.8875243 102.8444988  48.2295913  59.1292043 103.0940883  49.7030810
  63.3955612 103.6153712  46.2864209  62.7106650 103.9952613  45.7361243
  63.4799462 104.2249038  47.0196157  58.6968081  94.7175058  54.2082287
  58.4529013  95.4717119  53.6716563  58.9728012  95.0960406  55.0429534
  60.6506544 101.2613671  52.8859553  60.8623439 101.9045431  52.2093934
  60.6036292 100.4275987  52.4181483  58.2532773  93.8731491  49.7896125
  57.3917252  94.1712745  50.0812863  58.2795208  94.0901890  48.8577158
  55.0694342 102.4173682  46.1969931  55.5332688 102.6961385  45.4074553
  54.8051140 101.5157126  46.0143021  51.9618423 101.9645163  49.1349694
  52.5319780 102.3932432  48.4967178  52.5526535 101.6827748  49.8333880
  54.0063228  98.5396834  43.0059496  54.7087272  98.9917878  43.4733422
  53.6743857  97.8980653  43.6339389  52.4543590  97.1308591  57.3810705
  51.8242250  97.8124872  57.6146102  52.3479678  97.0191672  56.4363843
  47.7488562  96.7980387  48.3076629  46.9587616  97.0537915  47.8316740
  48.2399810  97.6128725  48.4128670  61.7652372 104.1385626  51.0581910
  62.5869816 103.7365813  50.7764592  61.7614775 104.0353860  52.0098026
  49.7003308  97.1624966  45.2660106  48.9034471  97.2743660  45.7843602
  49.4728900  97.5011618  44.4000997  55.5308975 103.6869669  53.2142621
  55.5953408 104.1490077  54.0500793  54.8219899 103.0567034  53.3424931
  46.0326265  97.0510877  50.7391620  46.2834304  97.9357887  51.0049196
  46.5685814  96.8715479  49.9666712  69.8558365 100.4824375  47.4066882
  69.1022073  99.9131773  47.2510886  69.9905906 100.4487039  48.3537516
  55.2456993 105.3537777  43.0821601  55.1102668 106.1989313  43.5106449
  55.7866805 105.5557054  42.3187535  51.7324333  91.4329357  59.7435956
  51.3391278  90.8795555  60.4183601  52.5490473  91.7439935  60.1342474
  48.6986390 102.8713215  43.6549526  49.2110911 103.6656465  43.8055091
  49.3509103 102.1739505  43.5883128  50.5081275 105.9878971  45.7372279
  50.6847903 106.9096936  45.5493263  51.3038109 105.6737390  46.1666659
  54.6492294  92.8487236  57.3356213  55.3902007  93.4494389  57.2560675
  54.8810216  92.1064874  56.7774255  49.7933632  98.0343603  55.6134443
  49.6787147  97.1328860  55.9141541  48.9378149  98.2807300  55.2619259
  56.8725469 105.9761343  57.2121943  56.4289324 105.1897722  56.8942848
  57.5342683 106.1640494  56.5465834  51.6312591 107.5057145  51.7382622
  52.1820016 107.3774208  50.9659616  50.7924066 107.8052034  51.3877514
  58.9706707 106.2564143  55.2403344  58.9525183 107.0773024  54.7483614
  59.8926627 106.1318218  55.4653486  55.4279762 103.7708273  56.0826853
  55.9608098 103.0096561  55.8526161  54.8993843 103.4781925  56.8251007
  58.5949457  88.8768339  51.6120495  58.2513726  89.7669980  51.5359605
  58.9628419  88.6869996  50.7490080  46.6635307 101.2001869  44.4309097
  47.5010529 101.6098878  44.2142804  46.8413575 100.2601311  44.4009291
  58.5599739  98.8676950  40.1192930  58.0446363  99.6381554  40.3581317
  58.2877048  98.1942086  40.7425991  56.1446850  93.7126651  45.1778168
  55.2888447  93.3233501  44.9983807  56.5573802  93.7918611  44.3177954
  57.6745997  91.2472994  49.5769728  57.1710793  91.2103129  48.7637533
  57.9676604  92.1565737  49.6366384  53.9188883  91.3311724  48.5835909
  54.7841880  91.1354532  48.2241799  53.9866392  91.1022075  49.5105266
  63.5334013 101.6209304  42.0546103  62.7563456 101.2820464  41.6101265
  64.2125494 101.6261928  41.3801068  58.3486042  96.7404042  41.9452711
  58.0436178  97.0550191  42.7962854  59.3016485  96.8185462  41.9880044
  56.7932474 102.8994265  43.5945665  56.2653836 102.1647025  43.2818902
  56.2919977 103.6768942  43.3485633  61.7725320 101.0943286  48.7112711
  61.1148995 101.7842547  48.7992840  62.5765720 101.4839718  49.0546697
  51.5251202  93.5613932  45.9552276  52.0994954  93.3389113  45.2225469
  52.1122184  93.6302626  46.7080878  60.5830779  99.4487658  46.7616653
  61.0962661 100.0817650  47.2638363  61.2332003  98.8488854  46.3960013
  51.8520789  95.5918393  39.9748162  51.0158101  95.9293079  40.2957436
  51.7125559  95.4567372  39.0375299  53.8273870  90.4355180  44.6827346
  53.1738282  90.1204198  44.0583961  53.7854344  89.8130921  45.4087169
  54.9385074 100.7174475  36.5980638  54.0312136 100.4863729  36.7971787
  55.4356106  99.9212095  36.7854619  57.8453153 109.4271983  39.5177324
  57.1714852 109.7303679  40.1262282  58.2318975 110.2301063  39.1682781
  57.0611610  96.9237114  49.0074993  56.1434171  97.1452061  48.8496681
  57.4771754  96.9983424  48.1486701  57.8446658  98.3228530  44.1377674
  58.5918477  98.8349927  43.8284796  58.1138247  98.0012582  44.9982067
  56.1173308 100.8187070  41.1204628  55.2084527 100.5346103  41.2177098
  56.1468392 101.2386149  40.2607935  61.3492575 104.4293660  44.8895795
  60.8954902 103.5884570  44.9460986  60.7186542 105.0655058  45.2270576
  60.2925495  95.3585646  46.1196463  59.5548252  94.8463032  46.4506705
  60.5452268  94.9186027  45.3079740  59.7925515 106.2670157  45.8245614
  60.0848489 106.8275214  45.1057979  60.3024135 106.5598718  46.5798773
  60.3937122  88.1361898  46.7138232  60.6995999  87.2759261  46.4264147
  61.1189727  88.7279518  46.5137226  46.6861478  98.5392584  45.1019830
  46.4885878  97.9461945  44.3770897  46.1308142  98.2344795  45.8195769
  54.6658202  98.4315691  47.2214423  54.7206812  97.4789527  47.1456900
  53.8549404  98.5875130  47.7055722  55.8149396 102.3595814  38.4592706
  55.3768826 101.6431673  37.9998344  56.5559837 102.5871929  37.8977798
  52.6050562  97.0492751  44.9804802  51.7918427  97.3486921  45.3869994
  53.1009556  96.6548439  45.6979284  54.7559140 107.0450508  46.9139067
  54.7135319 107.2711354  45.9847599  55.6721839 106.8113882  47.0624868
  58.2024774  97.5134575  53.8119696  58.5574161  97.7406048  54.6714162
  58.8496905  97.8452952  53.1896951  63.9322510 100.6353011  44.5169025
  63.7940409 100.8254607  43.5890214  63.5758729 101.3972394  44.9737076
  52.0964637  94.6211106  50.5966037  52.7364016  94.4799865  49.8989000
  51.2642167  94.3345620  50.2204639  63.9591890 102.7029538  49.5280297
  64.3928397 102.6104827  50.3763351  64.6723471 102.6787039  48.8900313
  52.8724941 103.9213537  46.7101030  53.6665539 103.4263857  46.5083604
  52.1616633 103.3931400  46.3468735  57.6919785 106.3031632  51.0613397
  57.7456807 106.8722568  51.8291113  56.8234566 106.4733517  50.6967434
  49.1807704  98.0656618  42.7860782  48.2505292  98.0041074  43.0030744
  49.2765176  97.5432571  41.9897423  49.0993253  94.5911431  45.3739024
  49.3600070  95.5056764  45.2648184  49.9210425  94.1235874  45.5235637
  50.5718178  96.0049188  52.5437848  51.2441232  95.7966551  51.8950497
  49.7447965  95.8071274  52.1043081  64.8207440 102.7453239  52.0613182
  65.0143330 103.6499049  52.3072457  64.7208058 102.2860658  52.8951767
  56.4743750  92.6311129  54.5603509  55.8271665  93.3301079  54.4667986
  57.2444766  93.0647273  54.9279757  59.8822548 102.8959981  57.6354063
  59.7308055 102.6670533  56.7184146  59.8727228 103.8530583  57.6485408
  56.6507885 100.4691894  52.6200329  57.5799945 100.6203054  52.4469296
  56.2298915 100.5575915  51.7648976  55.4496217 104.4942559  50.3898867
  55.3107302 104.1261343  51.2624805  54.6610813 105.0090198  50.2182824
  56.0444368 109.5951655  41.7324403  56.2196124 109.1239698  42.5470026
  55.3577157 110.2217421  41.9605664  57.0001432 103.8724161  47.7787704
  56.6651264 103.8324931  48.6745354  56.5005377 103.2068877  47.3058115
  50.9745676  99.2791791  53.3040286  50.8365474  98.5472030  53.9051825
  51.8850599  99.1900691  53.0224473  59.9360623 101.2180196  38.0524764
  59.3189794 100.4927024  37.9557817  59.4677112 101.9789556  37.7091838
  53.6027976  98.9911751  52.7923965  54.3127595  98.3504943  52.7510584
  53.5597284  99.2424646  53.7150146  61.5914755 105.9279104  55.7130544
  61.5327301 105.2438324  55.0461127  61.9934273 106.6698094  55.2611170
  52.3156910  95.9776969  54.6119605  51.7794267  95.5267707  55.2641201
  51.7273619  96.1122877  53.8690069  50.6105454 112.7441018  48.5064263
  50.8502052 113.3759542  49.1843282  49.7674650 112.3929058  48.7929623
  51.7259169  95.4365620  37.1746068  50.8488636  95.3154421  36.8108315
  52.2016922  94.6451698  36.9224957  61.5932162 103.8918688  53.9444524
  60.7058941 103.5544610  54.0670923  62.1630713 103.1601719  54.1813289
  43.2461309 100.2242780  47.2687575  43.9332349  99.9104510  46.6808591
  43.0909438 101.1284144  46.9954827  48.0496032  95.1132976  51.6972599
  47.9654220  94.5058646  50.9623009  47.2278738  95.6041995  51.6982096
  55.1233316 108.5520140  50.9105767  55.0503487 109.3575112  51.4225072
  54.6810709 108.7512106  50.0853789  54.9123095 107.7891910  44.4208589
  54.1290617 108.3313591  44.5146813  55.6115840 108.3065890  44.8202830
  58.2219745  93.5986540  47.0642794  58.7188445  92.8456502  46.7443864
  57.4506727  93.6350856  46.4986004  66.0749503  99.3026905  48.7061086
  66.0639379 100.1851621  48.3355019  65.2066882  98.9498456  48.5115623
  57.5831999 108.4506974  53.0663926  58.2959971 109.0854439  52.9939827
  57.0922028 108.5470840  52.2503928  59.3049526 102.3558227  44.6381218
  58.3705805 102.4759689  44.4685922  59.4826195 101.4530694  44.3741227
  54.8054714  95.7403923  46.7914479  54.4352502  95.1874963  47.4795384
  55.3013807  95.1362056  46.2389479  62.6922077  98.1975546  45.1731252
  63.1582530  99.0303538  45.0991554  63.1429578  97.7320528  45.8776510
  52.6343913 106.2001418  53.8869497  53.3353372 106.8337901  54.0398891
  52.1639028 106.5416149  53.1265136  60.7598309 104.5419368  42.1717404
  61.0358152 104.4275962  43.0811278  59.8902807 104.1436852  42.1329577
  60.6638740  90.5656133  49.2122153  59.7501820  90.7960360  49.3804360
  61.0931842  90.6494577  50.0636185  60.4345199  98.7546025  51.7122047
  59.7816649  99.0021933  51.0574500  60.8125579  97.9410163  51.3784524
  57.3952373 108.7905718  45.8150217  57.5774767 107.9727374  46.2777970
  58.2185359 109.0073411  45.3775107  57.7294538 107.7173904  43.0765266
  58.2582304 107.2066358  42.4635428  57.9922758 107.4016434  43.9410799
  56.4832772  99.4965836  58.1988084  55.8073409  99.3959966  58.8690459
  57.3060406  99.3405050  58.6624081  48.2311631 105.7337773  50.8200599
  48.8165068 104.9881461  50.9528504  48.0336469 106.0441730  51.7037263
  51.0850286 108.7689020  45.8363042  50.4160661 109.2535148  45.3527082
  50.9463156 109.0158241  46.7506420  42.8229285  98.3043373  49.5405043
  42.8613385  97.7706964  50.3342161  42.3169578  97.7778579  48.9216020
  55.2255555 110.8032764  52.4345700  55.7773863 110.9664385  53.1994785
  55.5661748 111.3937202  51.7625725  50.2020048  93.1507914  53.0367585
  50.2661374  94.0122744  52.6244983  50.1387168  92.5381915  52.3039943
  49.6772320  95.2231046  56.6840619  50.3044359  94.8408123  57.2978143
  48.8200239  95.0045248  57.0496312  60.0766429 105.6294021  58.2894355
  60.6206333 106.2423980  57.7949309  59.4953274 106.1873600  58.8061368
  46.4537863  97.0307475  42.6158974  46.7491304  96.1218154  42.5626028
  45.5525899  97.0095215  42.2939976  58.3623942 108.7514739  49.4209382
  58.2375081 107.9504479  48.9120328  59.0203033 109.2460933  48.9323352
  49.9832110  95.1063472  48.5986523  49.2618696  95.7199439  48.4593996
  50.7725366  95.6421237  48.5203169  60.4258850 106.5523759  51.0488932
  59.4789186 106.4329111  50.9767259  60.7741623 105.6646257  51.1315194
  52.7858424  92.4417898  54.8727174  53.3092825  92.6880195  55.6353484
  52.5670757  93.2737933  54.4530312  48.1825705  94.7121573  42.7398299
  47.8538411  93.8318952  42.5573405  48.5365075  94.6569242  43.6274688
  57.4305284 106.3476476  47.2493285  57.2830246 105.4193183  47.4300855
  58.2558777 106.3696566  46.7650360  51.2967528  94.9994543  43.1073777
  51.6363600  95.5280464  42.3852385  51.7439648  95.3374949  43.8832343
  61.0339405 107.1705034  48.3358157  61.9585953 106.9647896  48.1982609
  60.8654709 106.9221435  49.2447499  53.9910969  93.3831593  52.5576845
  53.6507789  92.5839406  52.9597525  53.2849975  93.6833304  51.9853678
  54.6427440  90.4680906  51.0104168  55.4653510  89.9941384  50.8883058
  54.8865504  91.2471390  51.5102854  53.2835675  93.4969164  41.3067070
  54.0044037  93.8750417  40.8030786  52.6600979  94.2158041  41.4102048
  57.4266798  94.2014313  42.2425402  57.6430412  95.0838951  41.9414230
  56.9460865  93.8100527  41.5131044  52.1666019  97.1600026  48.8196147
  52.0210600  97.4740330  49.7120428  51.6891223  97.7784927  48.2667045
  54.0262402  94.1502574  48.8677036  54.0123971  93.2543668  48.5309334
  54.7434830  94.1573238  49.5015322  55.8788533  94.5839915  50.9130164
  55.6206311  95.5056985  50.9114494  55.3473573  94.1870349  51.6030628
  60.8234722 107.6890702  43.6920249  60.9971599 107.1237124  42.9394101
  61.3163613 108.4891597  43.5099739  46.6411681  99.7005371  51.7583808
  46.0965149 100.4765179  51.8904082  47.5191031 100.0476175  51.6002929
  53.4299298  93.0316955  44.1364606  53.5515209  92.1033601  44.3355494
  53.1401340  93.0455641  43.2242922  56.2990488  90.7171865  47.2731326
  56.3212185  90.7811198  46.3183306  56.7158547  89.8776374  47.4671832
  66.6774113 100.4527125  45.3110549  67.1205259  99.7034450  44.9129672
  65.8000623 100.4437261  44.9284281  61.8109894 107.0057466  40.7917147
  62.5060799 107.6264159  41.0104462  62.1533044 106.1552817  41.0669525
  47.4277703  98.8275267  54.6513965  46.6859439  98.9757902  55.2378595
  47.1070448  99.0883533  53.7880714  63.7101317 104.4557172  42.3204478
  64.2352641 104.7944444  41.5953798  63.6223670 103.5204187  42.1367613
  55.3721366 108.3691245  54.4494355  55.6808492 108.1240392  55.3217054
  56.1696848 108.5737884  53.9613225  55.3941978 110.5229155  46.6799731
  54.9546968 110.0305534  47.3732588  56.1450095 109.9802123  46.4391806
  47.8734317 106.7140696  46.6824359  48.6992337 106.4144468  46.3023003
  47.5228369 105.9448318  47.1314148  52.8415850 106.0667164  48.7522033
  52.2195859 105.4037869  48.4524261  53.5120717 106.0928296  48.0695681
  46.0742922 104.6327022  47.6413293  45.2374830 104.2049197  47.4597294
  46.0466567 104.8259466  48.5784084  52.9140378  94.5448952  58.3454539
  52.9628533  95.4211075  57.9632308  53.4562892  94.0026345  57.7726182
  63.3995223 105.0890075  57.6255676  62.6090767 105.0714214  57.0860175
  63.1628578 105.6278369  58.3804712  63.5193098 101.9382542  54.9388404
  63.5691103 101.7732549  55.8803927  63.4107022 101.0709801  54.5486285
  52.4029357 104.6171087  42.2280493  52.5517477 105.3006552  41.5747166
  53.2095800 104.5976177  42.7429949  60.8096861  97.9213470  56.2547711
  61.7106723  97.7819935  55.9631709  60.8844835  98.0867925  57.1945889
  55.1439666  95.2980325  55.1000897  54.2742975  95.5913891  54.8283486
  55.3799146  95.8820769  55.8208161  65.0211295 104.3579483  55.1830426
  64.7296103 104.7209464  56.0193887  64.4083426 103.6446492  55.0043758
  66.2206977 101.9232363  47.7032996  67.0553869 102.3622167  47.8670557
  66.3566106 101.4471016  46.8841242  63.2698483  99.4812098  53.6510484
  63.7452605  99.6739744  52.8429335  62.3464049  99.5371284  53.4053868
  50.1581990 100.6436265  43.2341562  49.9128032  99.7398595  43.4321772
  50.3277905 100.6453415  42.2921040  57.8478700  91.5159941  52.6166318
  58.3660644  92.2520968  52.2912806  57.4933833  91.8223935  53.4513077
  49.4277638  96.3764623  40.7327724  48.7346882  96.4508978  40.0767760
  49.1829389  95.6124966  41.2549241  58.0991294  87.9360224  48.1367214
  58.3793048  87.2683413  48.7627641  58.8841901  88.1289320  47.6241878
  55.9024763 107.1119218  39.6992241  55.3298730 107.7309405  39.2462713
  56.4757556 107.6618580  40.2332163  61.9700152  96.3577858  51.8838790
  62.9217575  96.4575956  51.9051014  61.8003603  95.5656127  52.3936874
  59.9914532  93.4433441  52.0698191  59.3964464  93.7238454  51.3744679
  59.7064229  93.9327342  52.8414932  59.1222022 107.3956368  40.8300823
  60.0552695 107.3301930  41.0333699  59.0345235 108.2312635  40.3715356
  61.7510039 106.7122238  37.7904771  61.6723671 106.3782102  38.6840529
  62.5719706 107.2044006  37.7896243  64.4488230  99.5783978  50.9981089
  64.4164550  98.6399978  51.1840773  65.0588854  99.6568014  50.2646914
  56.2871561  98.4480031  37.0408293  57.2330666  98.3186239  37.1096711
  55.9085806  97.7094693  37.5177721  64.5982719  96.3695021  51.0439372
  64.0821767  95.5853478  50.8569301  65.4822667  96.0413738  51.2085892
  62.2593446  90.1136037  47.0035185  62.0618267  89.8051125  47.8878517
  62.8693151  90.8397676  47.1333115  70.2664780 100.6399984  50.1387126
  70.9968168 100.3785273  50.6994829  69.6571725  99.9028706  50.1789194
  68.3480077  98.7807847  50.7361577  67.6213241  98.6463812  50.1278069
  67.9327364  99.0884676  51.5418295  56.1710254 102.4997777  58.5008950
  57.0913263 102.6776376  58.6948997  56.1359837 101.5553822  58.3488650
  54.4714478  96.3730007  36.9763178  53.5645934  96.0763120  37.0525892
  54.7490459  96.0759825  36.1097465  45.3892419  97.6936370  47.4262225
  45.0695203  96.8401679  47.1336599  44.8425847  97.9084949  48.1820192
  49.1672326 100.4098811  51.1431731  49.3858336 101.3415919  51.1619765
  49.5798100 100.0506786  51.9286535  56.0876544  90.9166897  43.1307420
  55.2777272  90.5713982  43.5062666  56.7760961  90.6074440  43.7195031
  58.0167092  89.9944944  44.7531716  58.5698131  90.4140397  45.4121740
  58.2537179  89.0680692  44.7954672  54.0400191  95.9832017  60.5334480
  53.9396918  96.9326374  60.4646571  53.8221733  95.6550256  59.6610550
  53.2413263  93.2316942  37.1175158  54.1032427  93.5571841  37.3770975
  53.4263607  92.4448438  36.6048223  45.2580679 101.3139282  49.3955346
  44.5644150 100.8993235  48.8825301  46.0053670 101.3559818  48.7988765
  61.3945899  92.1045469  44.2610381  60.8144568  92.7630273  43.8788433
  61.1281832  91.2822813  43.8497798  59.8449466  91.5050526  46.4631701
  60.3449244  91.6167061  45.6546020  60.4885074  91.2011579  47.1032509
  53.9031461  99.4129156  59.3499542  53.4198543 100.2129516  59.5563431
  53.9892401  99.4237101  58.3966986  47.1717421 101.2457536  47.2721361
  47.1488109 101.3445223  46.3203244  47.4818058 102.0922686  47.5938527
  49.8304799 103.3033691  51.3867976  50.7848053 103.2717633  51.3197907
  49.6317323 102.8424314  52.2018202  50.4204181 101.8734807  53.9538773
  51.2397070 102.3678885  53.9773611  50.6940989 100.9566775  53.9256341
  60.1770777  94.2645559  43.3166729  59.2896632  94.5495210  43.0986924
  60.5924766  94.1039322  42.4694006  63.5285313  94.2892080  47.0321068
  64.3045704  94.7788532  47.3045685  62.8033448  94.7150134  47.4892938
  65.9657872  95.0019699  48.0895009  66.5602363  94.7615435  47.3788317
  66.0384456  94.2826830  48.7168545  48.1855028 108.8453310  48.4038174
  48.0509496 108.0853711  47.8376172  47.7687090 109.5694210  47.9366963
  59.3213991 104.0290234  37.4114749  60.0249841 104.2340236  38.0272405
  58.5976640 104.5966996  37.6763832  60.1511801  99.7800095  43.5317019
  60.0947002 100.2368646  42.6924652  60.7040144  99.0190780  43.3539862
  63.9616607  95.5689827  44.3567139  63.7053541  95.1686463  45.1875346
  63.3369475  96.2833621  44.2317278  68.2728945  98.3085900  46.8638430
  67.7128503  98.3779089  47.6369992  67.6672448  98.1326885  46.1437926
  51.3424154 109.7422627  48.6156616  51.2256538 110.6868060  48.5135307
  50.5216600 109.4396189  49.0042415  61.2300688 104.4672763  39.4613209
  62.0646292 104.0353961  39.2790684  61.0685031 104.2954777  40.3890103
  60.8846580 100.9704876  40.8269548  60.8295384 100.8049148  39.8857992
  60.2592636 101.6780909  40.9831738  45.6739095  96.2072941  54.6530970
  46.3197959  95.6971895  55.1418196  45.4656246  96.9441622  55.2274396
  58.1992488 103.2753788  60.1523111  59.0683647 103.4494440  59.7909746
  57.7199239 104.0948205  60.0298840  54.1942706  90.4712985  40.4054867
  54.1821376  91.4154825  40.5623138  55.0866128  90.2883131  40.1114328
  52.3678668 110.3950889  51.8312545  53.2705914 110.4274499  52.1479040
  52.1416038 109.4651340  51.8458881  54.1232270 109.1481876  48.4922623
  53.1727901 109.1483737  48.3786996  54.4264756 108.4014610  47.9758658
  58.0094825  87.0655762  44.6600803  57.2427221  86.5114249  44.8057486
  58.4205530  87.1377631  45.5214955  50.0136586  93.3540558  58.7505985
  50.8768048  92.9977363  58.9609309  49.4401997  93.0154453  59.4381389
  69.8584963 114.9842414  49.5568386  70.4963373 114.8649161  48.8531726
  69.7405806 115.9323258  49.6156338  66.6674670 114.9369842  49.4929910
  66.3293181 114.8210907  48.6050445  67.5364438 114.5361007  49.4730917
  62.5261485 116.7905319  45.4826801  61.9626350 116.6995256  44.7143089
  62.4113880 115.9705223  45.9629294  67.1494453 116.0904694  55.4516116
  67.1383093 115.6957492  54.5796620  67.3115092 115.3570766  56.0449887
  60.0725917 118.2856510  48.3211022  60.8647209 117.9447335  47.9057321
  60.3122567 118.3951485  49.2413175  68.1061044 120.4576286  40.7941266
  67.4549024 121.0430367  40.4075280  68.9005407 120.9882481  40.8536304
  62.0316671 117.5465423  41.1928401  62.8047547 116.9994410  41.0541276
  62.3842070 118.4109673  41.4042862  63.8701714 118.8741806  54.3995300
  63.5791580 119.7787437  54.2841966  64.5058698 118.9158333  55.1139369
  64.7957921 116.2518654  50.9896660  65.3921493 116.0274677  50.2753623
  64.8532892 115.5103400  51.5922107  64.3682949 113.7058090  38.8246851
  64.6208470 113.1839611  38.0630314  63.4307508 113.5424235  38.9273534
  69.4126232 112.7093868  46.6321594  70.1989321 112.2913291  46.2812011
  69.6764936 113.6139960  46.8003242  69.5836309 118.1466718  41.3310251
  68.9482142 118.2201345  42.0431155  69.2533716 118.7360317  40.6529330
  74.8134659 112.6469101  47.5354572  75.5459831 112.0768318  47.7692402
  74.0574015 112.2590702  47.9761078  64.0879238 115.6086195  41.0271226
  63.9715496 114.9331099  41.6952310  64.1981498 115.1218569  40.2103379
  66.4310779 115.0696343  44.7317915  66.0668986 114.5426964  45.4430836
  67.2877895 114.6794812  44.5584400  72.3360079 106.3590675  51.9949181
  72.0043404 107.2286086  51.7710396  71.7405693 106.0426959  52.6743211
  66.0716266 110.0986242  39.7279263  66.2390668 110.9666479  40.0949734
  65.8813435 110.2613524  38.8040553  68.8291599 118.5603221  51.3945094
  68.5292322 119.4628260  51.2860901  68.4842658 118.2935404  52.2466247
  62.2804080 115.0117018  47.4281798  61.3554577 114.8793232  47.6359490
  62.5288493 115.7911237  47.9251740  72.2288743 111.0785761  49.0742531
  71.3205620 111.0101170  48.7801292  72.1776338 111.5557706  49.9024356
  66.0505486 112.5543900  40.7125930  65.9305112 113.0000951  41.5511410
  65.3558075 112.9029217  40.1539468  59.6412891 114.6550292  48.2625587
  59.7705272 114.9084771  49.1764999  58.9610343 115.2478000  47.9430242
  63.8112379 125.3247542  44.3616061  63.7336408 126.2755367  44.4404542
  63.2074022 124.9793414  45.0190988  66.3029608 112.4975407  57.0177428
  65.5262942 113.0569327  57.0080293  66.9420171 112.9832190  57.5392298
  74.0950389 109.2802200  50.8520405  73.4524769 109.5734733  50.2060199
  73.5905317 109.1655120  51.6573602  71.7490553 113.0265373  41.5406264
  72.6608409 113.2592760  41.3653962  71.2400200 113.6102417  40.9781343
  64.5575981 115.3060860  56.5795395  65.2990665 115.8445904  56.3030219
  63.8512966 115.9327149  56.7366947  70.0331320 117.4490001  55.1767557
  70.4414676 117.0072411  54.4322189  69.3108582 116.8742628  55.4301750
  66.3862390 112.3862608  52.5501114  67.2323586 112.8102021  52.6935763
  66.3261028 111.7296232  53.2439677  70.3560135 118.0091191  48.9319846
  69.7268997 118.1736906  48.2295913  69.9685797 118.4232801  49.7030810
  74.2349367 118.9445629  46.2864209  73.5500405 119.3244531  45.7361243
  74.3193216 119.5540956  47.0196157  69.5361836 110.0466976  54.2082287
  69.2922768 110.8009036  53.6716563  69.8121766 110.4252324  55.0429534
  71.4900298 116.5905588  52.8859553  71.7017194 117.2337348  52.2093934
  71.4430047 115.7567905  52.4181483  69.0926527 109.2023409  49.7896125
  68.2311006 109.5004663  50.0812863  69.1188962 109.4193808  48.8577158
  65.9088097 117.7465600  46.1969931  66.3726442 118.0253302  45.4074553
  65.6444895 116.8449044  46.0143021  62.8012178 117.2937081  49.1349694
  63.3713535 117.7224349  48.4967178  63.3920290 117.0119666  49.8333880
  64.8456983 113.8688752  43.0059496  65.5481026 114.3209796  43.4733422
  64.5137611 113.2272571  43.6339389  63.2937344 112.4600509  57.3810705
  62.6636005 113.1416789  57.6146102  63.1873432 112.3483590  56.4363843
  58.5882317 112.1272305  48.3076629  57.7981371 112.3829833  47.8316740
  59.0793564 112.9420642  48.4128670  72.6046126 119.4677544  51.0581910
  73.4263570 119.0657731  50.7764592  72.6008529 119.3645778  52.0098026
  60.5397062 112.4916884  45.2660106  59.7428225 112.6035578  45.7843602
  60.3122654 112.8303536  44.4000997  66.3702730 119.0161587  53.2142621
  66.4347162 119.4781994  54.0500793  65.6613654 118.3858952  53.3424931
  56.8720020 112.3802795  50.7391620  57.1228058 113.2649805  51.0049196
  57.4079568 112.2007397  49.9666712  80.6952119 115.8116292  47.4066882
  79.9415828 115.2423690  47.2510886  80.8299661 115.7778957  48.3537516
  66.0850747 120.6829695  43.0821601  65.9496422 121.5281230  43.5106449
  66.6260560 120.8848972  42.3187535  62.5718087 106.7621274  59.7435956
  62.1785033 106.2087473  60.4183601  63.3884227 107.0731853  60.1342474
  59.5380145 118.2005133  43.6549526  60.0504665 118.9948383  43.8055091
  60.1902858 117.5031423  43.5883128  61.3475030 121.3170889  45.7372279
  61.5241658 122.2388854  45.5493263  62.1431863 121.0029308  46.1666659
  65.4886048 108.1779153  57.3356213  66.2295761 108.7786307  57.2560675
  65.7203971 107.4356791  56.7774255  60.6327386 113.3635521  55.6134443
  60.5180901 112.4620778  55.9141541  59.7771904 113.6099217  55.2619259
  67.7119224 121.3053261  57.2121943  67.2683078 120.5189640  56.8942848
  68.3736437 121.4932412  56.5465834  62.4706345 122.8349063  51.7382622
  63.0213770 122.7066126  50.9659616  61.6317821 123.1343952  51.3877514
  69.8100462 121.5856061  55.2403344  69.7918937 122.4064942  54.7483614
  70.7320382 121.4610136  55.4653486  66.2673516 119.1000190  56.0826853
  66.8001853 118.3388479  55.8526161  65.7387597 118.8073842  56.8251007
  69.4343211 104.2060256  51.6120495  69.0907480 105.0961898  51.5359605
  69.8022174 104.0161914  50.7490080  57.5029062 116.5293787  44.4309097
  58.3404284 116.9390795  44.2142804  57.6807329 115.5893229  44.4009291
  69.3993494 114.1968867  40.1192930  68.8840117 114.9673472  40.3581317
  69.1270802 113.5234004  40.7425991  66.9840605 109.0418568  45.1778168
  66.1282201 108.6525419  44.9983807  67.3967557 109.1210529  44.3177954
  68.5139751 106.5764912  49.5769728  68.0104547 106.5395047  48.7637533
  68.8070358 107.4857654  49.6366384  64.7582637 106.6603641  48.5835909
  65.6235634 106.4646450  48.2241799  64.8260146 106.4313993  49.5105266
  74.3727768 116.9501222  42.0546103  73.5957211 116.6112382  41.6101265
  75.0519249 116.9553845  41.3801068  69.1879797 112.0695960  41.9452711
  68.8829933 112.3842109  42.7962854  70.1410239 112.1477379  41.9880044
  67.6326229 118.2286183  43.5945665  67.1047590 117.4938942  43.2818902
  67.1313732 119.0060859  43.3485633  72.6119075 116.4235203  48.7112711
  71.9542749 117.1134465  48.7992840  73.4159474 116.8131635  49.0546697
  62.3644956 108.8905849  45.9552276  62.9388708 108.6681031  45.2225469
  62.9515939 108.9594544  46.7080878  71.4224534 114.7779576  46.7616653
  71.9356415 115.4109568  47.2638363  72.0725757 114.1780772  46.3960013
  62.6914543 110.9210310  39.9748162  61.8551856 111.2584997  40.2957436
  62.5519313 110.7859290  39.0375299  64.6667624 105.7647098  44.6827346
  64.0132036 105.4496115  44.0583961  64.6248098 105.1422839  45.4087169
  65.7778829 116.0466393  36.5980638  64.8705891 115.8155647  36.7971787
  66.2749861 115.2504012  36.7854619  68.6846908 124.7563900  39.5177324
  68.0108607 125.0595597  40.1262282  69.0712730 125.5592981  39.1682781
  67.9005364 112.2529032  49.0074993  66.9827926 112.4743979  48.8496681
  68.3165508 112.3275342  48.1486701  68.6840412 113.6520447  44.1377674
  69.4312231 114.1641845  43.8284796  68.9532002 113.3304500  44.9982067
  66.9567062 116.1478988  41.1204628  66.0478282 115.8638021  41.2177098
  66.9862146 116.5678067  40.2607935  72.1886330 119.7585578  44.8895795
  71.7348657 118.9176487  44.9460986  71.5580297 120.3946976  45.2270576
  71.1319249 110.6877564  46.1196463  70.3942006 110.1754950  46.4506705
  71.3846023 110.2477945  45.3079740  70.6319269 121.5962074  45.8245614
  70.9242243 122.1567131  45.1057979  71.1417890 121.8890635  46.5798773
  71.2330877 103.4653816  46.7138232  71.5389754 102.6051179  46.4264147
  71.9583482 104.0571436  46.5137226  57.5255233 113.8684502  45.1019830
  57.3279633 113.2753863  44.3770897  56.9701897 113.5636712  45.8195769
  65.5051956 113.7607609  47.2214423  65.5600566 112.8081445  47.1456900
  64.6943158 113.9167048  47.7055722  66.6543150 117.6887732  38.4592706
  66.2162580 116.9723591  37.9998344  67.3953591 117.9163847  37.8977798
  63.4444316 112.3784668  44.9804802  62.6312182 112.6778839  45.3869994
  63.9403311 111.9840357  45.6979284  65.5952894 122.3742425  46.9139067
  65.5529073 122.6003272  45.9847599  66.5115593 122.1405800  47.0624868
  69.0418528 112.8426493  53.8119696  69.3967916 113.0697966  54.6714162
  69.6890659 113.1744870  53.1896951  74.7716265 115.9644929  44.5169025
  74.6334164 116.1546525  43.5890214  74.4152484 116.7264312  44.9737076
  62.9358391 109.9503024  50.5966037  63.5757770 109.8091783  49.8989000
  62.1035922 109.6637537  50.2204639  74.7985645 118.0321456  49.5280297
  75.2322151 117.9396745  50.3763351  75.5117225 118.0078956  48.8900313
  63.7118695 119.2505454  46.7101030  64.5059294 118.7555774  46.5083604
  63.0010387 118.7223317  46.3468735  68.5313539 121.6323550  51.0613397
  68.5850562 122.2014486  51.8291113  67.6628321 121.8025435  50.6967434
  60.0201458 113.3948536  42.7860782  59.0899047 113.3332992  43.0030744
  60.1158930 112.8724489  41.9897423  59.9387008 109.9203349  45.3739024
  60.1993825 110.8348682  45.2648184  60.7604180 109.4527791  45.5235637
  61.4111933 111.3341106  52.5437848  62.0834986 111.1258468  51.8950497
  60.5841719 111.1363192  52.1043081  75.6601194 118.0745156  52.0613182
  75.8537084 118.9790967  52.3072457  75.5601812 117.6152575  52.8951767
  67.3137505 107.9603047  54.5603509  66.6665420 108.6592997  54.4667986
  68.0838520 108.3939191  54.9279757  70.7216303 118.2251899  57.6354063
  70.5701809 117.9962451  56.7184146  70.7120982 119.1822501  57.6485408
  67.4901639 115.7983812  52.6200329  68.4193699 115.9494972  52.4469296
  67.0692669 115.8867833  51.7648976  66.2889971 119.8234476  50.3898867
  66.1501057 119.4553261  51.2624805  65.5004567 120.3382116  50.2182824
  66.8838123 124.9243573  41.7324403  67.0589879 124.4531616  42.5470026
  66.1970911 125.5509339  41.9605664  67.8395186 119.2016079  47.7787704
  67.5045019 119.1616849  48.6745354  67.3399132 118.5360795  47.3058115
  61.8139430 114.6083709  53.3040286  61.6759228 113.8763948  53.9051825
  62.7244354 114.5192609  53.0224473  70.7754378 116.5472113  38.0524764
  70.1583548 115.8218942  37.9557817  70.3070866 117.3081474  37.7091838
  64.4421731 114.3203668  52.7923965  65.1521349 113.6796861  52.7510584
  64.3991039 114.5716563  53.7150146  72.4308509 121.2571022  55.7130544
  72.3721056 120.5730242  55.0461127  72.8328028 121.9990012  55.2611170
  63.1550665 111.3068886  54.6119605  62.6188022 110.8559625  55.2641201
  62.5667373 111.4414795  53.8690069  62.5652924 110.7657538  37.1746068
  61.6882390 110.6446338  36.8108315  63.0410677 109.9743616  36.9224957
  72.4325917 119.2210606  53.9444524  71.5452696 118.8836527  54.0670923
  73.0024468 118.4893637  54.1813289  54.0855064 115.5534697  47.2687575
  54.7726104 115.2396427  46.6808591  53.9303193 116.4576062  46.9954827
  58.8889786 110.4424894  51.6972599  58.8047975 109.8350563  50.9623009
  58.0672492 110.9333912  51.6982096  65.9627070 123.8812058  50.9105767
  65.8897242 124.6867029  51.4225072  65.5204463 124.0804024  50.0853789
  65.7516850 123.1183828  44.4208589  64.9684372 123.6605508  44.5146813
  66.4509595 123.6357808  44.8202830  69.0613500 108.9278457  47.0642794
  69.5582199 108.1748420  46.7443864  68.2900481 108.9642774  46.4986004
  76.9143257 114.6318823  48.7061086  76.9033134 115.5143538  48.3355019
  76.0460637 114.2790374  48.5115623  68.4225754 123.7798892  53.0663926
  69.1353726 124.4146357  52.9939827  67.9315782 123.8762758  52.2503928
  70.1443281 117.6850145  44.6381218  69.2099559 117.8051607  44.4685922
  70.3219949 116.7822611  44.3741227  65.6448469 111.0695840  46.7914479
  65.2746256 110.5166881  47.4795384  66.1407561 110.4653974  46.2389479
  73.5315832 113.5267464  45.1731252  73.9976284 114.3595456  45.0991554
  73.9823332 113.0612446  45.8776510  63.4737667 121.5293335  53.8869497
  64.1747127 122.1629818  54.0398891  63.0032782 121.8708067  53.1265136
  71.5992063 119.8711285  42.1717404  71.8751907 119.7567880  43.0811278
  70.7296562 119.4728770  42.1329577  71.5032495 105.8948051  49.2122153
  70.5895574 106.1252278  49.3804360  71.9325596 105.9786495  50.0636185
  71.2738953 114.0837943  51.7122047  70.6210403 114.3313850  51.0574500
  71.6519333 113.2702081  51.3784524  68.2346127 124.1197636  45.8150217
  68.4168522 123.3019292  46.2777970  69.0579113 124.3365328  45.3775107
  68.5688293 123.0465821  43.0765266  69.0976059 122.5358276  42.4635428
  68.8316512 122.7308351  43.9410799  67.3226526 114.8257754  58.1988084
  66.6467163 114.7251883  58.8690459  68.1454160 114.6696968  58.6624081
  59.0705385 121.0629691  50.8200599  59.6558822 120.3173378  50.9528504
  58.8730224 121.3733647  51.7037263  61.9244040 124.0980938  45.8363042
  61.2554416 124.5827066  45.3527082  61.7856910 124.3450158  46.7506420
  53.6623040 113.6335291  49.5405043  53.7007140 113.0998881  50.3342161
  53.1563333 113.1070496  48.9216020  66.0649309 126.1324681  52.4345700
  66.6167617 126.2956303  53.1994785  66.4055503 126.7229119  51.7625725
  61.0413802 108.4799831  53.0367585  61.1055129 109.3414662  52.6244983
  60.9780923 107.8673833  52.3039943  60.5166075 110.5522964  56.6840619
  61.1438114 110.1700041  57.2978143  59.6593994 110.3337166  57.0496312
  70.9160183 120.9585939  58.2894355  71.4600087 121.5715897  57.7949309
  70.3347028 121.5165517  58.8061368  57.2931618 112.3599393  42.6158974
  57.5885059 111.4510071  42.5626028  56.3919653 112.3387132  42.2939976
  69.2017696 124.0806657  49.4209382  69.0768836 123.2796397  48.9120328
  69.8596787 124.5752850  48.9323352  60.8225865 110.4355389  48.5986523
  60.1012450 111.0491357  48.4593996  61.6119120 110.9713154  48.5203169
  71.2652605 121.8815677  51.0488932  70.3182940 121.7621028  50.9767259
  71.6135378 120.9938175  51.1315194  63.6252178 107.7709816  54.8727174
  64.1486580 108.0172113  55.6353484  63.4064511 108.6029851  54.4530312
  59.0219459 110.0413491  42.7398299  58.6932165 109.1610869  42.5573405
  59.3758830 109.9861159  43.6274688  68.2699038 121.6768393  47.2493285
  68.1224000 120.7485101  47.4300855  69.0952532 121.6988484  46.7650360
  62.1361282 110.3286460  43.1073777  62.4757355 110.8572382  42.3852385
  62.5833403 110.6666866  43.8832343  71.8733160 122.4996952  48.3358157
  72.7979707 122.2939813  48.1982609  71.7048463 122.2513353  49.2447499
  64.8304723 108.7123511  52.5576845  64.4901543 107.9131324  52.9597525
  64.1243729 109.0125222  51.9853678  65.4821195 105.7972823  51.0104168
  66.3047264 105.3233302  50.8883058  65.7259258 106.5763307  51.5102854
  64.1229429 108.8261082  41.3067070  64.8437792 109.2042335  40.8030786
  63.4994734 109.5449959  41.4102048  68.2660552 109.5306231  42.2425402
  68.4824167 110.4130869  41.9414230  67.7854619 109.1392444  41.5131044
  63.0059774 112.4891944  48.8196147  62.8604354 112.8032247  49.7120428
  62.5284977 113.1076844  48.2667045  64.8656157 109.4794492  48.8677036
  64.8517725 108.5835585  48.5309334  65.5828585 109.4865156  49.5015322
  66.7182287 109.9131832  50.9130164  66.4600065 110.8348903  50.9114494
  66.1867328 109.5162267  51.6030628  71.6628476 123.0182619  43.6920249
  71.8365354 122.4529042  42.9394101  72.1557367 123.8183514  43.5099739
  57.4805436 115.0297289  51.7583808  56.9358904 115.8057096  51.8904082
  58.3584786 115.3768093  51.6002929  64.2693053 108.3608872  44.1364606
  64.3908964 107.4325519  44.3355494  63.9795095 108.3747558  43.2242922
  67.1384243 106.0463783  47.2731326  67.1605940 106.1103116  46.3183306
  67.5552302 105.2068291  47.4671832  77.5167867 115.7819042  45.3110549
  77.9599013 115.0326368  44.9129672  76.6394378 115.7729179  44.9284281
  72.6503649 122.3349384  40.7917147  73.3454553 122.9556077  41.0104462
  72.9926799 121.4844735  41.0669525  58.2671458 114.1567185  54.6513965
  57.5253194 114.3049820  55.2378595  57.9464202 114.4175450  53.7880714
  74.5495072 119.7849089  42.3204478  75.0746396 120.1236362  41.5953798
  74.4617424 118.8496105  42.1367613  66.2115120 123.6983163  54.4494355
  66.5202247 123.4532310  55.3217054  67.0090602 123.9029801  53.9613225
  66.2335732 125.8521073  46.6799731  65.7940723 125.3597451  47.3732588
  66.9843849 125.3094040  46.4391806  58.7128071 122.0432614  46.6824359
  59.5386091 121.7436385  46.3023003  58.3622123 121.2740236  47.1314148
  63.6809605 121.3959082  48.7522033  63.0589614 120.7329787  48.4524261
  64.3514471 121.4220214  48.0695681  56.9136676 119.9618940  47.6413293
  56.0768585 119.5341114  47.4597294  56.8860322 120.1551383  48.5784084
  63.7534132 109.8740870  58.3454539  63.8022288 110.7502993  57.9632308
  64.2956646 109.3318263  57.7726182  74.2388978 120.4181993  57.6255676
  73.4484521 120.4006132  57.0860175  74.0022332 120.9570287  58.3804712
  74.3586853 117.2674459  54.9388404  74.4084858 117.1024467  55.8803927
  74.2500776 116.4001718  54.5486285  63.2423111 119.9463005  42.2280493
  63.3911232 120.6298469  41.5747166  64.0489555 119.9268095  42.7429949
  71.6490615 113.2505387  56.2547711  72.5500478 113.1111852  55.9631709
  71.7238590 113.4159842  57.1945889  65.9833421 110.6272242  55.1000897
  65.1136730 110.9205808  54.8283486  66.2192901 111.2112687  55.8208161
  75.8605050 119.6871401  55.1830426  75.5689858 120.0501381  56.0193887
  75.2477181 118.9738409  55.0043758  77.0600732 117.2524281  47.7032996
  77.8947623 117.6914085  47.8670557  77.1959861 116.7762934  46.8841242
  74.1092238 114.8104016  53.6510484  74.5846359 115.0031662  52.8429335
  73.1857803 114.8663201  53.4053868  60.9975744 115.9728183  43.2341562
  60.7521786 115.0690513  43.4321772  61.1671659 115.9745333  42.2921040
  68.6872454 106.8451859  52.6166318  69.2054398 107.5812886  52.2912806
  68.3327587 107.1515852  53.4513077  60.2671392 111.7056540  40.7327724
  59.5740637 111.7800895  40.0767760  60.0223144 110.9416884  41.2549241
  68.9385049 103.2652142  48.1367214  69.2186802 102.5975331  48.7627641
  69.7235655 103.4581237  47.6241878  66.7418517 122.4411136  39.6992241
  66.1692484 123.0601323  39.2462713  67.3151311 122.9910497  40.2332163
  72.8093907 111.6869776  51.8838790  73.7611330 111.7867873  51.9051014
  72.6397357 110.8948044  52.3936874  70.8308286 108.7725359  52.0698191
  70.2358218 109.0530372  51.3744679  70.5457983 109.2619260  52.8414932
  69.9615777 122.7248286  40.8300823  70.8946450 122.6593847  41.0333699
  69.8738990 123.5604553  40.3715356  72.5903793 122.0414156  37.7904771
  72.5117425 121.7074020  38.6840529  73.4113460 122.5335924  37.7896243
  75.2881985 114.9075895  50.9981089  75.2558305 113.9691896  51.1840773
  75.8982608 114.9859932  50.2646914  67.1265316 113.7771948  37.0408293
  68.0724420 113.6478156  37.1096711  66.7479560 113.0386610  37.5177721
  75.4376473 111.6986939  51.0439372  74.9215522 110.9145395  50.8569301
  76.3216422 111.3705655  51.2085892  73.0987200 105.4427954  47.0035185
  72.9012021 105.1343043  47.8878517  73.7086906 106.1689593  47.1333115
  81.1058535 115.9691902  50.1387126  81.8361923 115.7077190  50.6994829
  80.4965480 115.2320624  50.1789194  79.1873832 114.1099765  50.7361577
  78.4606995 113.9755730  50.1278069  78.7721119 114.4176593  51.5418295
  67.0104008 117.8289694  58.5008950  67.9307018 118.0068293  58.6948997
  66.9753591 116.8845740  58.3488650  65.3108233 111.7021925  36.9763178
  64.4039688 111.4055037  37.0525892  65.5884214 111.4051743  36.1097465
  56.2286173 113.0228288  47.4262225  55.9088957 112.1693596  47.1336599
  55.6819601 113.2376866  48.1820192  60.0066081 115.7390729  51.1431731
  60.2252090 116.6707837  51.1619765  60.4191854 115.3798703  51.9286535
  66.9270298 106.2458814  43.1307420  66.1171027 105.9005899  43.5062666
  67.6154715 105.9366358  43.7195031  68.8560847 105.3236861  44.7531716
  69.4091885 105.7432315  45.4121740  69.0930933 104.3972609  44.7954672
  64.8793946 111.3123935  60.5334480  64.7790673 112.2618292  60.4646571
  64.6615488 110.9842174  59.6610550  64.0807017 108.5608860  37.1175158
  64.9426181 108.8863758  37.3770975  64.2657361 107.7740356  36.6048223
  56.0974433 116.6431200  49.3955346  55.4037904 116.2285152  48.8825301
  56.8447424 116.6851736  48.7988765  72.2339654 107.4337386  44.2610381
  71.6538323 108.0922190  43.8788433  71.9675586 106.6114731  43.8497798
  70.6843220 106.8342444  46.4631701  71.1842998 106.9458979  45.6546020
  71.3278828 106.5303497  47.1032509  64.7425216 114.7421074  59.3499542
  64.2592298 115.5421434  59.5563431  64.8286155 114.7529019  58.3966986
  58.0111176 116.5749453  47.2721361  57.9881864 116.6737141  46.3203244
  58.3211812 117.4214604  47.5938527  60.6698553 118.6325608  51.3867976
  61.6241807 118.6009551  51.3197907  60.4711077 118.1716232  52.2018202
  61.2597936 117.2026724  53.9538773  62.0790825 117.6970803  53.9773611
  61.5334743 116.2858693  53.9256341  71.0164532 109.5937477  43.3166729
  70.1290387 109.8787127  43.0986924  71.4318521 109.4331240  42.4694006
  74.3679068 109.6183998  47.0321068  75.1439458 110.1080450  47.3045685
  73.6427202 110.0442052  47.4892938  76.8051627 110.3311617  48.0895009
  77.3996117 110.0907353  47.3788317  76.8778210 109.6118748  48.7168545
  59.0248782 124.1745228  48.4038174  58.8903250 123.4145629  47.8376172
  58.6080845 124.8986128  47.9366963  70.1607745 119.3582151  37.4114749
  70.8643595 119.5632154  38.0272405  69.4370394 119.9258913  37.6763832
  70.9905556 115.1092013  43.5317019  70.9340757 115.5660564  42.6924652
  71.5433898 114.3482697  43.3539862  74.8010361 110.8981745  44.3567139
  74.5447296 110.4978380  45.1875346  74.1763229 111.6125538  44.2317278
  79.1122699 113.6377818  46.8638430  78.5522257 113.7071007  47.6369992
  78.5066203 113.4618802  46.1437926  62.1817908 125.0714545  48.6156616
  62.0650292 126.0159977  48.5135307  61.3610354 124.7688106  49.0042415
  72.0694443 119.7964681  39.4613209  72.9040047 119.3645879  39.2790684
  71.9078786 119.6246694  40.3890103  71.7240335 116.2996794  40.8269548
  71.6689139 116.1341065  39.8857992  71.0986390 117.0072827  40.9831738
  56.5132850 111.5364858  54.6530970  57.1591713 111.0263812  55.1418196
  56.3050001 112.2733540  55.2274396  69.0386242 118.6045706  60.1523111
  69.9077402 118.7786358  59.7909746  68.5592993 119.4240123  60.0298840
  65.0336460 105.8004903  40.4054867  65.0215130 106.7446743  40.5623138
  65.9259882 105.6175048  40.1114328  63.2072422 125.7242807  51.8312545
  64.1099669 125.7566417  52.1479040  62.9809792 124.7943258  51.8458881
  64.9626024 124.4773793  48.4922623  64.0121655 124.4775655  48.3786996
  65.2658510 123.7306528  47.9758658  68.8488580 102.3947680  44.6600803
  68.0820976 101.8406166  44.8057486  69.2599285 102.4669548  45.5214955
  60.8530341 108.6832475  58.7505985  61.7161802 108.3269280  58.9609309
  60.2795751 108.3446370  59.4381389  80.6978718 130.3134332  49.5568386
  81.3357128 130.1941079  48.8531726  80.5799561 131.2615176  49.6156338
  77.5068424 130.2661760  49.4929910  77.1686936 130.1502825  48.6050445
  78.3758192 129.8652925  49.4730917  77.9888207 131.4196612  55.4516116
  77.9776848 131.0249410  54.5796620  78.1508847 130.6862684  56.0449887
  75.2076703 129.0350007  38.8246851  75.4602224 128.5131528  38.0630314
  74.2701263 128.8716153  38.9273534  80.2519986 128.0385786  46.6321594
  81.0383075 127.6205209  46.2812011  80.5158691 128.9431878  46.8003242
  85.6528413 127.9761019  47.5354572  86.3853585 127.4060236  47.7692402
  84.8967769 127.5882619  47.9761078  77.2704533 130.3988260  44.7317915
  76.9062740 129.8718881  45.4430836  78.1271649 130.0086729  44.5584400
  83.1753834 121.6882593  51.9949181  82.8437159 122.5578004  51.7710396
  82.5799447 121.3718877  52.6743211  76.9110020 125.4278160  39.7279263
  77.0784422 126.2958396  40.0949734  76.7207189 125.5905442  38.8040553
  83.0682497 126.4077679  49.0742531  82.1599374 126.3393087  48.7801292
  83.0170093 126.8849624  49.9024356  76.8899241 127.8835817  40.7125930
  76.7698866 128.3292868  41.5511410  76.1951829 128.2321135  40.1539468
  77.1423363 127.8267325  57.0177428  76.3656697 128.3861245  57.0080293
  77.7813926 128.3124108  57.5392298  84.9344143 124.6094117  50.8520405
  84.2918524 124.9026651  50.2060199  84.4299072 124.4947038  51.6573602
  82.5884307 128.3557291  41.5406264  83.5002163 128.5884677  41.3653962
  82.0793954 128.9394335  40.9781343  80.8725075 132.7781918  55.1767557
  81.2808431 132.3364329  54.4322189  80.1502336 132.2034546  55.4301750
  77.2256145 127.7154525  52.5501114  78.0717340 128.1393939  52.6935763
  77.1654782 127.0588150  53.2439677  80.3755590 125.3758894  54.2082287
  80.1316522 126.1300954  53.6716563  80.6515521 125.7544241  55.0429534
  82.3294053 131.9197506  52.8859553  82.5410948 132.5629266  52.2093934
  82.2823801 131.0859823  52.4181483  79.9320282 124.5315327  49.7896125
  79.0704761 124.8296580  50.0812863  79.9582717 124.7485726  48.8577158
  75.6850737 129.1980670  43.0059496  76.3874781 129.6501713  43.4733422
  75.3531366 128.5564488  43.6339389  74.1331099 127.7892426  57.3810705
  73.5029759 128.4708707  57.6146102  74.0267187 127.6775508  56.4363843
  69.4276071 127.4564222  48.3076629  68.6375125 127.7121751  47.8316740
  69.9187319 128.2712560  48.4128670  71.3790817 127.8208801  45.2660106
  70.5821980 127.9327496  45.7843602  71.1516409 128.1595454  44.4000997
  73.4111842 122.0913192  59.7435956  73.0178787 121.5379391  60.4183601
  74.2277982 122.4023771  60.1342474  76.3279803 123.5071071  57.3356213
  77.0689516 124.1078224  57.2560675  76.5597725 122.7648709  56.7774255
  71.4721141 128.6927438  55.6134443  71.3574656 127.7912696  55.9141541
  70.6165658 128.9391135  55.2619259  80.2736966 119.5352174  51.6120495
  79.9301235 120.4253816  51.5359605  80.6415928 119.3453832  50.7490080
  80.2387248 129.5260785  40.1192930  79.7233872 130.2965390  40.3581317
  79.9664557 128.8525921  40.7425991  77.8234359 124.3710486  45.1778168
  76.9675956 123.9817336  44.9983807  78.2361311 124.4502447  44.3177954
  79.3533506 121.9056829  49.5769728  78.8498302 121.8686964  48.7637533
  79.6464113 122.8149572  49.6366384  75.5976392 121.9895559  48.5835909
  76.4629389 121.7938368  48.2241799  75.6653901 121.7605911  49.5105266
  80.0273551 127.3987877  41.9452711  79.7223687 127.7134026  42.7962854
  80.9803994 127.4769297  41.9880044  73.2038711 124.2197767  45.9552276
  73.7782463 123.9972948  45.2225469  73.7909693 124.2886461  46.7080878
  82.2618288 130.1071494  46.7616653  82.7750170 130.7401486  47.2638363
  82.9119512 129.5072689  46.3960013  73.5308298 126.2502228  39.9748162
  72.6945610 126.5876914  40.2957436  73.3913068 126.1151208  39.0375299
  75.5061379 121.0939016  44.6827346  74.8525791 120.7788033  44.0583961
  75.4641853 120.4714756  45.4087169  76.6172583 131.3758311  36.5980638
  75.7099645 131.1447564  36.7971787  77.1143615 130.5795930  36.7854619
  78.7399119 127.5820949  49.0074993  77.8221680 127.8035896  48.8496681
  79.1559263 127.6567260  48.1486701  79.5234167 128.9812365  44.1377674
  80.2705986 129.4933762  43.8284796  79.7925756 128.6596418  44.9982067
  77.7960817 131.4770906  41.1204628  76.8872036 131.1929939  41.2177098
  77.8255901 131.8969984  40.2607935  81.9713004 126.0169481  46.1196463
  81.2335761 125.5046867  46.4506705  82.2239777 125.5769863  45.3079740
  82.0724631 118.7945733  46.7138232  82.3783508 117.9343097  46.4264147
  82.7977236 119.3863353  46.5137226  76.3445711 129.0899526  47.2214423
  76.3994321 128.1373363  47.1456900  75.5336913 129.2458965  47.7055722
  74.2838071 127.7076586  44.9804802  73.4705936 128.0070757  45.3869994
  74.7797065 127.3132275  45.6979284  79.8812283 128.1718411  53.8119696
  80.2361670 128.3989884  54.6714162  80.5284414 128.5036787  53.1896951
  73.7752146 125.2794942  50.5966037  74.4151525 125.1383701  49.8989000
  72.9429676 124.9929455  50.2204639  70.8595213 128.7240454  42.7860782
  69.9292801 128.6624909  43.0030744  70.9552685 128.2016406  41.9897423
  70.7780762 125.2495267  45.3739024  71.0387579 126.1640600  45.2648184
  71.5997934 124.7819709  45.5235637  72.2505687 126.6633024  52.5437848
  72.9228741 126.4550386  51.8950497  71.4235474 126.4655110  52.1043081
  78.1531259 123.2894965  54.5603509  77.5059174 123.9884914  54.4667986
  78.9232275 123.7231109  54.9279757  78.3295394 131.1275730  52.6200329
  79.2587454 131.2786889  52.4469296  77.9086424 131.2159750  51.7648976
  72.6533185 129.9375627  53.3040286  72.5152983 129.2055866  53.9051825
  73.5638108 129.8484527  53.0224473  81.6148132 131.8764031  38.0524764
  80.9977303 131.1510859  37.9557817  81.1464621 132.6373391  37.7091838
  75.2815485 129.6495586  52.7923965  75.9915104 129.0088778  52.7510584
  75.2384793 129.9008481  53.7150146  73.9944419 126.6360804  54.6119605
  73.4581776 126.1851542  55.2641201  73.4061128 126.7706713  53.8690069
  73.4046678 126.0949455  37.1746068  72.5276145 125.9738256  36.8108315
  73.8804431 125.3035534  36.9224957  69.7283540 125.7716812  51.6972599
  69.6441729 125.1642481  50.9623009  68.9066247 126.2625830  51.6982096
  79.9007254 124.2570375  47.0642794  80.3975954 123.5040337  46.7443864
  79.1294236 124.2934692  46.4986004  76.4842223 126.3987758  46.7914479
  76.1140011 125.8458799  47.4795384  76.9801316 125.7945892  46.2389479
  84.3709586 128.8559382  45.1731252  84.8370039 129.6887373  45.0991554
  84.8217087 128.3904363  45.8776510  82.3426249 121.2239969  49.2122153
  81.4289329 121.4544195  49.3804360  82.7719351 121.3078413  50.0636185
  82.1132708 129.4129861  51.7122047  81.4604158 129.6605768  51.0574500
  82.4913088 128.5993999  51.3784524  78.1620281 130.1549672  58.1988084
  77.4860918 130.0543801  58.8690459  78.9847915 129.9988885  58.6624081
  71.8807557 123.8091749  53.0367585  71.9448883 124.6706580  52.6244983
  71.8174677 123.1965751  52.3039943  71.3559829 125.8814881  56.6840619
  71.9831868 125.4991959  57.2978143  70.4987748 125.6629083  57.0496312
  68.1325372 127.6891311  42.6158974  68.4278813 126.7801989  42.5626028
  67.2313408 127.6679050  42.2939976  71.6619619 125.7647307  48.5986523
  70.9406205 126.3783275  48.4593996  72.4512875 126.3005072  48.5203169
  74.4645933 123.1001734  54.8727174  74.9880334 123.3464030  55.6353484
  74.2458266 123.9321768  54.4530312  69.8613214 125.3705408  42.7398299
  69.5325920 124.4902787  42.5573405  70.2152584 125.3153077  43.6274688
  72.9755037 125.6578378  43.1073777  73.3151109 126.1864299  42.3852385
  73.4227157 125.9958784  43.8832343  75.6698478 124.0415429  52.5576845
  75.3295298 123.2423242  52.9597525  74.9637484 124.3417140  51.9853678
  76.3214949 121.1264741  51.0104168  77.1441019 120.6525219  50.8883058
  76.5653013 121.9055225  51.5102854  74.9623184 124.1553000  41.3067070
  75.6831546 124.5334252  40.8030786  74.3388488 124.8741876  41.4102048
  79.1054307 124.8598149  42.2425402  79.3217921 125.7422786  41.9414230
  78.6248374 124.4684362  41.5131044  73.8453528 127.8183862  48.8196147
  73.6998109 128.1324165  49.7120428  73.3678732 128.4368762  48.2667045
  75.7049911 124.8086410  48.8677036  75.6911480 123.9127503  48.5309334
  76.4222339 124.8157074  49.5015322  77.5576042 125.2423750  50.9130164
  77.2993820 126.1640821  50.9114494  77.0261082 124.8454185  51.6030628
  75.1086807 123.6900790  44.1364606  75.2302718 122.7617436  44.3355494
  74.8188849 123.7039476  43.2242922  77.9777997 121.3755701  47.2731326
  77.9999694 121.4395034  46.3183306  78.3946056 120.5360209  47.4671832
  74.5927887 125.2032787  58.3454539  74.6416042 126.0794910  57.9632308
  75.1350401 124.6610180  57.7726182  82.4884370 128.5797305  56.2547711
  83.3894232 128.4403770  55.9631709  82.5632344 128.7451760  57.1945889
  76.8227175 125.9564160  55.1000897  75.9530484 126.2497726  54.8283486
  77.0586655 126.5404605  55.8208161  84.9485992 130.1395933  53.6510484
  85.4240114 130.3323580  52.8429335  84.0251558 130.1955119  53.4053868
  79.5266209 122.1743777  52.6166318  80.0448153 122.9104804  52.2912806
  79.1721342 122.4807770  53.4513077  71.1065146 127.0348458  40.7327724
  70.4134391 127.1092813  40.0767760  70.8616898 126.2708802  41.2549241
  79.7778803 118.5944059  48.1367214  80.0580557 117.9267248  48.7627641
  80.5629410 118.7873155  47.6241878  83.6487661 127.0161693  51.8838790
  84.6005084 127.1159791  51.9051014  83.4791112 126.2239962  52.3936874
  81.6702041 124.1017277  52.0698191  81.0751973 124.3822289  51.3744679
  81.3851738 124.5911177  52.8414932  77.9659070 129.1063866  37.0408293
  78.9118175 128.9770074  37.1096711  77.5873315 128.3678528  37.5177721
  86.2770228 127.0278856  51.0439372  85.7609276 126.2437313  50.8569301
  87.1610176 126.6997573  51.2085892  83.9380955 120.7719872  47.0035185
  83.7405776 120.4634960  47.8878517  84.5480660 121.4981511  47.1333115
  76.1501987 127.0313842  36.9763178  75.2433443 126.7346955  37.0525892
  76.4277968 126.7343660  36.1097465  77.7664053 121.5750732  43.1307420
  76.9564781 121.2297817  43.5062666  78.4548470 121.2658276  43.7195031
  79.6954601 120.6528779  44.7531716  80.2485640 121.0724232  45.4121740
  79.9324688 119.7264527  44.7954672  75.7187700 126.6415853  60.5334480
  75.6184427 127.5910209  60.4646571  75.5009242 126.3134091  59.6610550
  74.9200772 123.8900778  37.1175158  75.7819936 124.2155676  37.3770975
  75.1051116 123.1032273  36.6048223  83.0733408 122.7629304  44.2610381
  82.4932077 123.4214108  43.8788433  82.8069341 121.9406649  43.8497798
  81.5236975 122.1634362  46.4631701  82.0236753 122.2750896  45.6546020
  82.1672583 121.8595415  47.1032509  75.5818970 130.0712991  59.3499542
  75.0986052 130.8713351  59.5563431  75.6679910 130.0820936  58.3966986
  81.8558286 124.9229394  43.3166729  80.9684141 125.2079045  43.0986924
  82.2712275 124.7623158  42.4694006  85.2072822 124.9475915  47.0321068
  85.9833213 125.4372368  47.3045685  84.4820957 125.3733970  47.4892938
  87.6445381 125.6603535  48.0895009  88.2389872 125.4199271  47.3788317
  87.7171965 124.9410665  48.7168545  81.8299310 130.4383930  43.5317019
  81.7734511 130.8952482  42.6924652  82.3827652 129.6774615  43.3539862
  85.6404116 126.2273662  44.3567139  85.3841050 125.8270298  45.1875346
  85.0156984 126.9417456  44.2317278  82.5634089 131.6288712  40.8269548
  82.5082893 131.4632983  39.8857992  81.9380145 132.3364745  40.9831738
  67.3526604 126.8656776  54.6530970  67.9985468 126.3555730  55.1418196
  67.1443755 127.6025458  55.2274396  75.8730215 121.1296821  40.4054867
  75.8608885 122.0738661  40.5623138  76.7653637 120.9466966  40.1114328
  79.6882334 117.7239597  44.6600803  78.9214730 117.1698084  44.8057486
  80.0993039 117.7961466  45.5214955  71.6924095 124.0124393  58.7505985
  72.5555557 123.6561198  58.9609309  71.1189506 123.6738288  59.4381389
  15.6616192  15.3444948  36.2813692  16.2994602  15.2251696  35.5777032
  15.5437035  16.2925792  36.3401645  12.4705898  15.2972376  36.2175217
  12.1324410  15.1813441  35.3295752  13.3395667  14.8963541  36.1976223
  12.9525681  16.4507228  42.1761423  12.9414322  16.0560026  41.3041926
  13.1146321  15.7173301  42.7695194   5.8757146  18.6459044  35.0456328
   6.6678438  18.3049869  34.6302628   6.1153796  18.7554019  35.9658482
   9.6732942  19.2344340  41.1240607   9.3822808  20.1389971  41.0087273
  10.3089927  19.2760868  41.8384676  10.5989149  16.6121188  37.7141966
  11.1952722  16.3877211  36.9998929  10.6564121  15.8705934  38.3167414
  20.6165888  13.0071635  34.2599879  21.3491060  12.4370852  34.4937708
  19.8605243  12.6193236  34.7006384  18.1391308   6.7193209  38.7194488
  17.8074633   7.5888620  38.4955703  17.5436921   6.4029493  39.3988518
  14.6322828  18.9205755  38.1190400  14.3323551  19.8230794  38.0106207
  14.2873887  18.6537939  38.9711553  18.0319971  11.4388296  35.7987838
  17.1236849  11.3703704  35.5046599  17.9807567  11.9160241  36.6269663
   9.6143607  25.6850076  31.0861368   9.5367637  26.6357901  31.1649849
   9.0105251  25.3395948  31.7436294  12.1060837  12.8577941  43.7422735
  11.3294171  13.4171861  43.7325599  12.7451400  13.3434724  44.2637605
  19.8981618   9.6404734  37.5765711  19.2555998   9.9337267  36.9305506
  19.3936546   9.5257654  38.3818908  10.3607209  15.6663395  43.3040702
  11.1021894  16.2048439  43.0275525   9.6544195  16.2929683  43.4612254
  15.8362549  17.8092535  41.9012863  16.2445905  17.3674946  41.1567496
  15.1139811  17.2345163  42.1547056  12.1893619  12.7465142  39.2746420
  13.0354814  13.1704555  39.4181069  12.1292257  12.0898766  39.9684983
  16.1591364  18.3693726  35.6565152  15.5300226  18.5339440  34.9541220
  15.7717026  18.7835335  36.4276116  20.0380596  19.3048163  33.0109516
  19.3531634  19.6847065  32.4606549  20.1224445  19.9143490  33.7441464
  15.3393064  10.4069510  40.9327594  15.0953996  11.1611571  40.3961870
  15.6152995  10.7854858  41.7674841  17.2931527  16.9508123  39.6104860
  17.5048422  17.5939882  38.9339241  17.2461275  16.1170439  39.1426790
  11.7119326  18.1068134  32.9215237  12.1757671  18.3855837  32.1319860
  11.4476124  17.2051578  32.7388328   8.6043407  17.6539615  35.8595001
   9.1744764  18.0826884  35.2212485   9.1951519  17.3722200  36.5579186
   9.0968573  12.8203043  44.1056012   8.4667234  13.5019324  44.3391409
   8.9904661  12.7086124  43.1609150  18.4077355  19.8280078  37.7827217
  19.2294799  19.4260265  37.5009898  18.4039758  19.7248312  38.7343333
  12.1733959  19.3764121  39.9387927  12.2378391  19.8384528  40.7746099
  11.4644883  18.7461486  40.0670237  26.4983348  16.1718826  34.1312188
  25.7447057  15.6026224  33.9756193  26.6330889  16.1381491  35.0782823
   7.1506258  21.6773423  32.4617586   7.3272887  22.5991388  32.2738570
   7.9463092  21.3631842  32.8911966  13.5150453  21.6655795  43.9367250
  13.0714307  20.8792174  43.6188154  14.1767666  21.8534946  43.2711141
   8.2737574  23.1951597  38.4627928   8.8244999  23.0668660  37.6904922
   7.4349050  23.4946486  38.1122821  15.6131691  21.9458595  41.9648651
  15.5950166  22.7667476  41.4728920  16.5351611  21.8212670  42.1898792
  12.0704745  19.4602725  42.8072159  12.6033082  18.6991013  42.5771467
  11.5418826  19.1676376  43.5496314  18.4150304  16.7837738  35.4358018
  17.7573978  17.4736999  35.5238146  19.2190703  17.1734170  35.7792004
  17.2255762  15.1382110  33.4861959  17.7387644  15.7712102  33.9883669
  17.8756986  14.5383306  33.1205319  13.7036593  12.6131566  35.7320300
  12.7859155  12.8346513  35.5741988  14.1196737  12.6877876  34.8732007
  17.9917559  20.1188112  31.6141102  17.5379886  19.2779022  31.6706293
  17.3611525  20.7549510  31.9515882  16.4350498  21.9564608  32.5490920
  16.7273472  22.5169666  31.8303286  16.9449118  22.2493169  33.3044079
  11.3984123  22.7344960  33.6384373  11.3560302  22.9605806  32.7092905
  12.3146822  22.5008334  33.7870175  14.8449757  13.2029027  40.5365003
  15.1999145  13.4300500  41.3959468  15.4921888  13.5347404  39.9142258
  20.5747494  16.3247463  31.2414332  20.4365392  16.5149059  30.3135521
  20.2183713  17.0866846  31.6982383  20.6016873  18.3923990  36.2525603
  21.0353380  18.2999279  37.1008657  21.3148454  18.3681490  35.6145619
   9.5149924  19.6107989  33.4346336  10.3090522  19.1158309  33.2328911
   8.8041616  19.0825852  33.0714042  14.3344768  21.9926084  37.7858704
  14.3881791  22.5617020  38.5536420  13.4659550  22.1627969  37.4212741
  21.4632423  18.4347691  38.7858489  21.6568313  19.3393501  39.0317764
  21.3633041  17.9755110  39.6197074  16.5247532  18.5854433  44.3599369
  16.3733038  18.3564985  43.4429453  16.5152211  19.5425035  44.3730714
  13.2932868  16.1586346  39.3445636  14.2224928  16.3097506  39.1714603
  12.8723898  16.2470367  38.4894282  12.0921200  20.1837011  37.1144173
  11.9532286  19.8155795  37.9870111  11.3035796  20.6984650  36.9428131
  12.6869352  25.2846107  28.4569710  12.8621107  24.8134150  29.2715332
  12.0002140  25.9111873  28.6850971  13.6426415  19.5618613  34.5033011
  13.3076248  19.5219383  35.3990661  13.1430361  18.8963329  34.0303421
   7.6170659  14.9686243  40.0285592   7.4790457  14.2366482  40.6297131
   8.5275582  14.8795143  39.7469780  10.2452960  14.6806203  39.5169272
  10.9552578  14.0399395  39.4755890  10.2022268  14.9319097  40.4395453
  18.2339738  21.6173556  42.4375851  18.1752284  20.9332776  41.7706434
  18.6359257  22.3592546  41.9856477   7.2530437  28.4335470  35.2309570
   7.4927035  29.0653994  35.9088589   6.4099634  28.0823510  35.5174929
  18.2357146  19.5813140  40.6689831  17.3483924  19.2439062  40.7916230
  18.8055697  18.8496171  40.9058596  11.7658299  24.2414592  37.6351074
  11.6928470  25.0469564  38.1470378  11.3235692  24.4406558  36.8099095
  11.5548079  23.4786362  31.1453895  10.7715600  24.0208042  31.2392120
  12.2540824  23.9960342  31.5448137  22.7174486  14.9921357  35.4306392
  22.7064362  15.8746073  35.0600325  21.8491866  14.6392908  35.2360929
  14.2256982  24.1401426  39.7909233  14.9384955  24.7748891  39.7185134
  13.7347011  24.2365292  38.9749234  15.9474509  18.0452679  31.3626524
  15.0130788  18.1654141  31.1931229  16.1251178  17.1425146  31.0986534
  19.3347061  13.8869998  31.8976558  19.8007513  14.7197990  31.8236861
  19.7854561  13.4214980  32.6021817   9.2768896  21.8895870  40.6114803
   9.9778355  22.5232353  40.7644198   8.8064011  22.2310601  39.8510443
  17.0770182  14.4440477  38.4367354  16.4241632  14.6916385  37.7819807
  17.4550562  13.6304615  38.1029831  14.0377356  24.4800170  32.5395524
  14.2199750  23.6621826  33.0023276  14.8610342  24.6967863  32.1020414
  14.3719521  23.4068355  29.8010573  14.9007288  22.8960810  29.1880735
  14.6347741  23.0910886  30.6656106  13.1257755  15.1860288  44.9233391
  12.4498392  15.0854418  45.5935766  13.9485389  15.0299502  45.3869388
   4.8736614  21.4232225  37.5445906   5.4590051  20.6775913  37.6773810
   4.6761453  21.7336181  38.4282570   7.7275269  24.4583472  32.5608348
   7.0585645  24.9429600  32.0772389   7.5888139  24.7052693  33.4751727
  11.8680538  26.4927216  39.1591007  12.4198846  26.6558837  39.9240092
  12.2086731  27.0831653  38.4871032  16.7191412  21.3188473  45.0139661
  17.2631316  21.9318431  44.5194616  16.1378257  21.8768052  45.5306674
  15.0048925  24.4409191  36.1454689  14.8800065  23.6398931  35.6365635
  15.6628016  24.9355385  35.6568659  17.0683834  22.2418211  37.7734239
  16.1214169  22.1223562  37.7012566  17.4166607  21.3540709  37.8560501
  14.0730267  22.0370927  33.9738591  13.9255229  21.1087635  34.1546161
  14.8983760  22.0591018  33.4895667  17.6764389  22.8599486  35.0603464
  18.6010936  22.6542348  34.9227915  17.5079692  22.6115887  35.9692806
  17.4659705  23.3785154  30.4165556  17.6396582  22.8131576  29.6639408
  17.9588596  24.1786049  30.2345045  23.3199096  16.1421577  32.0355855
  23.7630242  15.3928902  31.6374979  22.4425606  16.1331713  31.6529587
  18.4534877  22.6951918  27.5162454  19.1485782  23.3158611  27.7349768
  18.7958028  21.8447269  27.7914832  20.3526300  20.1451624  29.0449785
  20.8777625  20.4838896  28.3199105  20.2648653  19.2098639  28.8612919
  12.0146349  24.0585697  41.1739661  12.3233476  23.8134844  42.0462361
  12.8121831  24.2632336  40.6858531  12.0366961  26.2123607  33.4045038
  11.5971952  25.7199986  34.0977894  12.7875078  25.6696575  33.1637113
   4.5159300  22.4035148  33.4069666   5.3417320  22.1038920  33.0268309
   4.1653352  21.6342770  33.8559455   9.4840833  21.7561616  35.4767339
   8.8620843  21.0932321  35.1769567  10.1545700  21.7822748  34.7940987
  20.0420207  20.7784527  44.3500983  19.2515750  20.7608666  43.8105482
  19.8053561  21.3172821  45.1050019  20.1618082  17.6276994  41.6633711
  20.2116087  17.4627001  42.6049234  20.0532005  16.7604253  41.2731592
  17.4521844  13.6107922  42.9793018  18.3531707  13.4714386  42.6877016
  17.5269819  13.7762376  43.9191195  11.7864649  10.9874776  41.8246204
  10.9167959  11.2808342  41.5528793  12.0224130  11.5715221  42.5453468
  21.6636278  20.0473935  41.9075733  21.3721087  20.4103916  42.7439194
  21.0508410  19.3340943  41.7289065  22.8631961  17.6126815  34.4278303
  23.6978852  18.0516619  34.5915863  22.9991090  17.1365468  33.6086549
  19.9123467  15.1706550  40.3755791  20.3877588  15.3634196  39.5674642
  18.9889032  15.2265736  40.1299174  18.6125136  12.0472310  38.6084096
  19.5642559  12.1470408  38.6296320  18.4428586  11.2550578  39.1182181
  16.6339515   9.1327893  38.7943497  16.0389447   9.4132906  38.0989986
  16.3489212   9.6221794  39.5660238  21.0913213  15.2678430  37.7226396
  21.0589534  14.3294430  37.9086080  21.7013837  15.3462466  36.9892221
  21.2407702  12.0589473  37.7684679  20.7246751  11.2747930  37.5814608
  22.1247650  11.7308190  37.9331199  26.9089763  16.3294436  36.8632433
  27.6393152  16.0679725  37.4240136  26.2996709  15.5923158  36.9034501
  24.9905060  14.4702299  37.4606884  24.2638224  14.3358264  36.8523375
  24.5752347  14.7779128  38.2663602  12.8135237  18.1892229  45.2254257
  13.7338246  18.3670828  45.4194303  12.7784820  17.2448274  45.0733956
   5.8097309  16.0993263  37.8677038   6.0283319  17.0310371  37.8865072
   6.2223083  15.7401238  38.6531842  10.6825175  11.6726469  47.2579787
  10.5821902  12.6220826  47.1891878  10.4646717  11.3444708  46.3855857
  10.5456445  15.1023608  46.0744849  10.0623526  15.9023968  46.2808738
  10.6317384  15.1131553  45.1212293   6.4729782  18.9928143  38.1113282
   7.4273036  18.9612085  38.0443214   6.2742306  18.5318766  38.9263508
   7.0629164  17.5629259  40.6784080   7.8822053  18.0573337  40.7018917
   7.3365972  16.6461227  40.6501648  20.1710297   9.9786532  33.7566375
  20.9470687  10.4682984  34.0290992  19.4458431  10.4044586  34.2138244
  22.6082855  10.6914151  34.8140315  23.2027346  10.4509887  34.1033624
  22.6809439   9.9721282  35.4413852   4.8280011  24.5347762  35.1283480
   4.6934479  23.7748163  34.5621478   4.4112073  25.2588662  34.6612269
  24.9153928  13.9980352  33.5883737  24.3553486  14.0673541  34.3615299
  24.3097431  13.8221337  32.8683233   7.9849137  25.4317079  35.3401923
   7.8681521  26.3762512  35.2380613   7.1641583  25.1290641  35.7287722
  14.8417471  18.9648240  46.8768418  15.7108630  19.1388892  46.5155053
  14.3624222  19.7842657  46.7544147   9.0103651  26.0845341  38.5557851
   9.9130898  26.1168951  38.8724346   8.7841021  25.1545792  38.5704187
  10.7657253  24.8376328  35.2167930   9.8152884  24.8378189  35.1032302
  11.0689739  24.0909062  34.7003965  26.5009947  30.6736866  36.2813692
  27.1388357  30.5543613  35.5777032  26.3830789  31.6217710  36.3401645
  23.3099653  30.6264294  36.2175217  22.9718164  30.5105359  35.3295752
  24.1789421  30.2255459  36.1976223  19.1686469  32.4799770  32.2072108
  18.6051334  32.3889707  31.4388396  19.0538864  31.6599675  32.6874601
  23.7919436  31.7799146  42.1761423  23.7808077  31.3851944  41.3041926
  23.9540075  31.0465218  42.7695194  16.7150900  33.9750962  35.0456328
  17.5072192  33.6341787  34.6302628  16.9547551  34.0845937  35.9658482
  24.7486027  36.1470738  27.5186573  24.0974007  36.7324819  27.1320587
  25.5430390  36.6776933  27.5781610  18.6741654  33.2359875  27.9173707
  19.4472530  32.6888862  27.7786583  19.0267053  34.1004125  28.1288169
  20.5126697  34.5636258  41.1240607  20.2216563  35.4681888  41.0087273
  21.1483681  34.6052785  41.8384676  21.4382904  31.9413106  37.7141966
  22.0346476  31.7169128  36.9998929  21.4957875  31.1997852  38.3167414
  21.0107932  29.3952541  25.5492157  21.2633453  28.8734063  24.7875620
  20.0732491  29.2318687  25.6518841  26.0551215  28.3988320  33.3566900
  26.8414304  27.9807743  33.0057317  26.3189919  29.3034412  33.5248549
  26.2261292  33.8361170  28.0555557  25.5907125  33.9095797  28.7676462
  25.8958699  34.4254769  27.3774636  31.4559642  28.3363553  34.2599879
  32.1884814  27.7662770  34.4937708  30.6998998  27.9485153  34.7006384
  20.7304221  31.2980647  27.7516532  20.6140479  30.6225551  28.4197616
  20.8406481  30.8113021  26.9348685  23.0735762  30.7590794  31.4563221
  22.7093969  30.2321415  32.1676143  23.9302878  30.3689264  31.2829707
  28.9785063  22.0485127  38.7194488  28.6468387  22.9180538  38.4955703
  28.3830676  21.7321411  39.3988518  22.7141249  25.7880694  26.4524570
  22.8815651  26.6560931  26.8195041  22.5238418  25.9507976  25.5285859
  25.4716582  34.2497673  38.1190400  25.1717305  35.1522712  38.0106207
  25.1267642  33.9829856  38.9711553  18.9229064  30.7011470  34.1527105
  17.9979560  30.5687684  34.3604796  19.1713477  31.4805689  34.6497047
  28.8713726  26.7680213  35.7987838  27.9630603  26.6995622  35.5046599
  28.8201322  27.2452158  36.6269663  22.6930470  28.2438352  27.4371237
  22.5730095  28.6895402  28.2756717  21.9983058  28.5923669  26.8784775
  16.2837875  30.3444743  34.9870894  16.4130256  30.5979222  35.9010305
  15.6035326  30.9372451  34.6675549  20.4537362  41.0141993  31.0861368
  20.3761392  41.9649819  31.1649849  19.8499005  40.6687866  31.7436294
  22.9454592  28.1869859  43.7422735  22.1687926  28.7463779  43.7325599
  23.5845155  28.6726642  44.2637605  30.7375372  24.9696652  37.5765711
  30.0949752  25.2629185  36.9305506  30.2330301  24.8549572  38.3818908
  28.3915536  28.7159825  28.2651571  29.3033392  28.9487212  28.0899268
  27.8825183  29.2996869  27.7026649  21.2000964  30.9955312  43.3040702
  21.9415648  31.5340356  43.0275525  20.4937949  31.6221601  43.4612254
  26.6756304  33.1384453  41.9012863  27.0839660  32.6966863  41.1567496
  25.9533565  32.5637080  42.1547056  23.0287374  28.0757059  39.2746420
  23.8748569  28.4996473  39.4181069  22.9686011  27.4190684  39.9684983
  26.9985118  33.6985643  35.6565152  26.3693981  33.8631357  34.9541220
  26.6110780  34.1127253  36.4276116  30.8774350  34.6340081  33.0109516
  30.1925388  35.0138983  32.4606549  30.9618199  35.2435408  33.7441464
  26.1786819  25.7361428  40.9327594  25.9347751  26.4903488  40.3961870
  26.4546749  26.1146775  41.7674841  28.1325282  32.2800040  39.6104860
  28.3442177  32.9231800  38.9339241  28.0855030  31.4462357  39.1426790
  25.7351511  24.8917861  36.5141432  24.8735990  25.1899114  36.8058169
  25.7613945  25.1088260  35.5822464  22.5513080  33.4360051  32.9215237
  23.0151426  33.7147754  32.1319860  22.2869878  32.5343496  32.7388328
  19.4437161  32.9831533  35.8595001  20.0138518  33.4118801  35.2212485
  20.0345273  32.7014118  36.5579186  21.4881966  29.5583204  29.7304802
  22.1906009  30.0104247  30.1978729  21.1562595  28.9167023  30.3584696
  19.9362328  28.1494960  44.1056012  19.3060988  28.8311241  44.3391409
  19.8298416  28.0378042  43.1609150  15.2307300  27.8166756  35.0321936
  14.4406354  28.0724285  34.5562047  15.7218547  28.6315094  35.1373977
  29.2471110  35.1571996  37.7827217  30.0688553  34.7552183  37.5009898
  29.2433513  35.0540230  38.7343333  17.1822045  28.1811336  31.9905413
  16.3853209  28.2930030  32.5088908  16.9547638  28.5197988  31.1246303
  23.0127713  34.7056039  39.9387927  23.0772146  35.1676446  40.7746099
  22.3038637  34.0753404  40.0670237  13.5145003  28.0697247  37.4636927
  13.7653042  28.9544257  37.7294503  14.0504551  27.8901848  36.6912019
  37.3377103  31.5010744  34.1312188  36.5840811  30.9318142  33.9756193
  37.4724644  31.4673409  35.0782823  22.7275731  36.3724146  29.8066908
  22.5921406  37.2175682  30.2351755  23.2685543  36.5743424  29.0432841
  19.2143070  22.4515726  46.4681263  18.8210016  21.8981925  47.1428907
  20.0309211  22.7626305  46.8587780  16.1805128  33.8899584  30.3794833
  16.6929649  34.6842835  30.5300397  16.8327841  33.1925875  30.3128434
  17.9900013  37.0065341  32.4617586  18.1666641  37.9283305  32.2738570
  18.7856846  36.6923760  32.8911966  22.1311031  23.8673605  44.0601519
  22.8720745  24.4680758  43.9805982  22.3628954  23.1251243  43.5019562
  17.2752369  29.0529973  42.3379749  17.1605885  28.1515230  42.6386848
  16.4196887  29.2993669  41.9864566  24.3544207  36.9947713  43.9367250
  23.9108061  36.2084091  43.6188154  25.0161421  37.1826863  43.2711141
  19.1131328  38.5243514  38.4627928  19.6638753  38.3960578  37.6904922
  18.2742804  38.8238404  38.1122821  26.4525445  37.2750513  41.9648651
  26.4343921  38.0959394  41.4728920  27.3745365  37.1504588  42.1898792
  22.9098499  34.7894642  42.8072159  23.4426836  34.0282930  42.5771467
  22.3812580  34.4968294  43.5496314  26.0768194  19.8954708  38.3365801
  25.7332464  20.7856350  38.2604912  26.4447157  19.7056366  37.4735386
  14.1454045  32.2188239  31.1554403  14.9829267  32.6285247  30.9388111
  14.3232313  31.2787681  31.1254597  26.0418477  29.8863319  26.8438236
  25.5265100  30.6567924  27.0826624  25.7695786  29.2128456  27.4671298
  23.6265588  24.7313020  31.9023475  22.7707184  24.3419871  31.7229113
  24.0392540  24.8104981  31.0423260  25.1564735  22.2659363  36.3015034
  24.6529530  22.2289499  35.4882840  25.4495342  23.1752106  36.3611691
  21.4007621  22.3498093  35.3081216  22.2660617  22.1540902  34.9487106
  21.4685130  22.1208445  36.2350573  31.0152751  32.6395674  28.7791410
  30.2382194  32.3006834  28.3346572  31.6944232  32.6448297  28.1046375
  25.8304780  27.7590411  28.6698017  25.5254916  28.0736561  29.5208161
  26.7835222  27.8371831  28.7125350  24.2751212  33.9180635  30.3190971
  23.7472574  33.1833394  30.0064209  23.7738715  34.6955311  30.0730940
  29.2544058  32.1129655  35.4358018  28.5967733  32.8028917  35.5238146
  30.0584457  32.5026087  35.7792004  19.0069940  24.5800301  32.6797583
  19.5813692  24.3575483  31.9470776  19.5940922  24.6488996  33.4326184
  28.0649517  30.4674028  33.4861959  28.5781399  31.1004020  33.9883669
  28.7150741  29.8675223  33.1205319  19.3339527  26.6104762  26.6993468
  18.4976839  26.9479449  27.0202743  19.1944296  26.4753742  25.7620605
  21.3092607  21.4541550  31.4072652  20.6557020  21.1390567  30.7829267
  21.2673082  20.8317290  32.1332475  22.4203812  31.7360845  23.3225944
  21.5130874  31.5050099  23.5217093  22.9174844  30.9398464  23.5099926
  25.3271891  40.4458352  26.2422631  24.6533590  40.7490049  26.8507588
  25.7137713  41.2487433  25.8928088  24.5430348  27.9423484  35.7320300
  23.6252909  28.1638431  35.5741988  24.9590491  28.0169794  34.8732007
  25.3265396  29.3414899  30.8622980  26.0737214  29.8536296  30.5530102
  25.5956985  29.0198952  31.7227374  23.5992046  31.8373440  27.8449935
  22.6903265  31.5532473  27.9422404  23.6287130  32.2572518  26.9853241
  28.8311313  35.4480029  31.6141102  28.3773640  34.6070939  31.6706293
  28.2005280  36.0841428  31.9515882  27.7744233  26.3772015  32.8441770
  27.0366989  25.8649402  33.1752012  28.0271006  25.9372397  32.0325046
  27.2744252  37.2856526  32.5490920  27.5667227  37.8461583  31.8303286
  27.7842873  37.5785087  33.3044079  27.8755860  19.1548267  33.4383539
  28.1814737  18.2945631  33.1509454  28.6008465  19.7465888  33.2382533
  14.1680216  29.5578954  31.8265137  13.9704616  28.9648315  31.1016203
  13.6126880  29.2531164  32.5441076  22.1476940  29.4502061  33.9459730
  22.2025550  28.4975897  33.8702206  21.3368142  29.6061500  34.4301028
  23.2968134  33.3782184  25.1838013  22.8587563  32.6618043  24.7243650
  24.0378574  33.6058298  24.6223105  20.0869300  28.0679120  31.7050109
  19.2737165  28.3673291  32.1115301  20.5828294  27.6734809  32.4224591
  22.2377878  38.0636877  33.6384373  22.1954056  38.2897724  32.7092905
  23.1540576  37.8300252  33.7870175  25.6843511  28.5320945  40.5365003
  26.0392899  28.7592418  41.3959468  26.3315643  28.8639322  39.9142258
  31.4141248  31.6539381  31.2414332  31.2759147  31.8440977  30.3135521
  31.0577467  32.4158763  31.6982383  19.5783374  25.6397476  37.3211344
  20.2182754  25.4986235  36.6234307  18.7460905  25.3531989  36.9449946
  31.4410628  33.7215908  36.2525603  31.8747135  33.6291197  37.1008657
  32.1542209  33.6973408  35.6145619  20.3543678  34.9399906  33.4346336
  21.1484277  34.4450226  33.2328911  19.6435371  34.4117769  33.0714042
  25.1738523  37.3218002  37.7858704  25.2275545  37.8908938  38.5536420
  24.3053304  37.4919887  37.4212741  16.6626442  29.0842988  29.5106089
  15.7324030  29.0227443  29.7276051  16.7583914  28.5618941  28.7142730
  16.5811991  25.6097801  32.0984331  16.8418808  26.5243134  31.9893491
  17.4029163  25.1422243  32.2480943  18.0536916  27.0235558  39.2683155
  18.7259970  26.8152920  38.6195804  17.2266703  26.8257644  38.8288387
  32.3026177  33.7639608  38.7858489  32.4962068  34.6685419  39.0317764
  32.2026796  33.3047027  39.6197074  23.9562488  23.6497499  41.2848816
  23.3090403  24.3487449  41.1913292  24.7263504  24.0833643  41.6525064
  27.3641286  33.9146351  44.3599369  27.2126793  33.6856903  43.4429453
  27.3545966  34.8716952  44.3730714  24.1326623  31.4878264  39.3445636
  25.0618683  31.6389423  39.1714603  23.7117653  31.5762285  38.4894282
  22.9314954  35.5128928  37.1144173  22.7926040  35.1447713  37.9870111
  22.1429551  36.0276568  36.9428131  23.5263106  40.6138025  28.4569710
  23.7014862  40.1426068  29.2715332  22.8395894  41.2403791  28.6850971
  24.4820169  34.8910531  34.5033011  24.1470002  34.8511301  35.3990661
  23.9824115  34.2255247  34.0303421  18.4564413  30.2978161  40.0285592
  18.3184211  29.5658400  40.6297131  19.3669337  30.2087061  39.7469780
  27.4179361  32.2366565  24.7770071  26.8008532  31.5113393  24.6803123
  26.9495850  32.9975926  24.4337145  21.0846714  30.0098120  39.5169272
  21.7946333  29.3691312  39.4755890  21.0416022  30.2611015  40.4395453
  29.0733493  36.9465474  42.4375851  29.0146039  36.2624694  41.7706434
  29.4753011  37.6884464  41.9856477  19.7975648  26.9963338  41.3364911
  19.2613005  26.5454077  41.9886508  19.2092357  27.1309247  40.5935376
  18.0924192  43.7627387  35.2309570  18.3320790  44.3945912  35.9088589
  17.2493388  43.4115427  35.5174929  29.0750900  34.9105058  40.6689831
  28.1877679  34.5730979  40.7916230  29.6449451  34.1788089  40.9058596
  10.7280047  31.2429149  33.9932882  11.4151087  30.9290879  33.4053897
  10.5728176  32.1470514  33.7200134  15.5314769  26.1319346  38.4217906
  15.4472958  25.5245015  37.6868316  14.7097476  26.6228364  38.4227402
  22.6052053  39.5706510  37.6351074  22.5322225  40.3761481  38.1470378
  22.1629447  39.7698476  36.8099095  22.3941833  38.8078280  31.1453895
  21.6109355  39.3499960  31.2392120  23.0934578  39.3252260  31.5448137
  25.7038483  24.6172909  33.7888101  26.2007183  23.8642872  33.4689171
  24.9325465  24.6537226  33.2231310  33.5568241  30.3213275  35.4306392
  33.5458117  31.2037990  35.0600325  32.6885620  29.9684826  35.2360929
  25.0650737  39.4693344  39.7909233  25.7778709  40.1040809  39.7185134
  24.5740766  39.5657210  38.9749234  26.7868264  33.3744597  31.3626524
  25.8524543  33.4946059  31.1931229  26.9644932  32.4717063  31.0986534
  22.2873452  26.7590292  33.5159785  21.9171239  26.2061333  34.2040691
  22.7832544  26.1548426  32.9634786  30.1740815  29.2161916  31.8976558
  30.6401267  30.0489907  31.8236861  30.6248316  28.7506897  32.6021817
  20.1162650  37.2187787  40.6114803  20.8172110  37.8524270  40.7644198
  19.6457765  37.5602519  39.8510443  28.2417046  35.5605737  28.8962710
  28.5176890  35.4462332  29.8056585  27.3721545  35.1623222  28.8574884
  28.1457478  21.5842503  35.9367460  27.2320558  21.8146730  36.1049667
  28.5750579  21.6680947  36.7881492  27.9163936  29.7732395  38.4367354
  27.2635387  30.0208302  37.7819807  28.2944316  28.9596533  38.1029831
  24.8771110  39.8092088  32.5395524  25.0593505  38.9913744  33.0023276
  25.7004096  40.0259780  32.1020414  25.2113276  38.7360273  29.8010573
  25.7401042  38.2252728  29.1880735  25.4741495  38.4202803  30.6656106
  23.9651509  30.5152206  44.9233391  23.2892147  30.4146335  45.5935766
  24.7879143  30.3591420  45.3869388  15.7130369  36.7524142  37.5445906
  16.2983805  36.0067830  37.6773810  15.5155207  37.0628099  38.4282570
  18.5669024  39.7875390  32.5608348  17.8979399  40.2721517  32.0772389
  18.4281893  40.0344610  33.4751727  10.3048023  29.3229743  36.2650349
  10.3432123  28.7893333  37.0587467   9.7988316  28.7964948  35.6461326
  22.7074292  41.8219133  39.1591007  23.2592600  41.9850755  39.9240092
  23.0480486  42.4123571  38.4871032  17.6838786  24.1694283  39.7612892
  17.7480112  25.0309114  39.3490289  17.6205906  23.5568285  39.0285250
  17.1591058  26.2417416  43.4085926  17.7863097  25.8594493  44.0223450
  16.3018977  26.0231618  43.7741618  27.5585167  36.6480391  45.0139661
  28.1025071  37.2610349  44.5194616  26.9772012  37.2059969  45.5306674
  13.9356601  28.0493845  29.3404281  14.2310042  27.1404523  29.2871334
  13.0344637  28.0281584  29.0185283  25.8442680  39.7701109  36.1454689
  25.7193819  38.9690849  35.6365635  26.5021771  40.2647302  35.6568659
  17.4650848  26.1249841  35.3231829  16.7437434  26.7385809  35.1839303
  18.2544104  26.6607606  35.2448475  27.9077588  37.5710129  37.7734239
  26.9607924  37.4515480  37.7012566  28.2560361  36.6832627  37.8560501
  20.2677161  23.4604268  41.5972481  20.7911563  23.7066564  42.3598790
  20.0489495  24.2924303  41.1775618  15.6644442  25.7307942  29.4643606
  15.3357149  24.8505321  29.2818712  16.0183813  25.6755611  30.3519995
  24.9124021  37.3662845  33.9738591  24.7648984  36.4379553  34.1546161
  25.7377515  37.3882936  33.4895667  18.7786266  26.0180912  29.8319083
  19.1182338  26.5466833  29.1097692  19.2258386  26.3561318  30.6077650
  28.5158143  38.1891404  35.0603464  29.4404691  37.9834265  34.9227915
  28.3473447  37.9407805  35.9692806  21.4729706  24.4017963  39.2822152
  21.1326527  23.6025776  39.6842831  20.7668713  24.7019674  38.7098985
  22.1246178  21.4867275  37.7349475  22.9472248  21.0127754  37.6128365
  22.3684242  22.2657759  38.2348161  20.7654413  24.5155534  28.0312376
  21.4862775  24.8936787  27.5276093  20.1419717  25.2344411  28.1347354
  24.9085536  25.2200683  28.9670709  25.1249150  26.1025321  28.6659537
  24.4279603  24.8286896  28.2376351  19.6484757  28.1786396  35.5441453
  19.5029338  28.4926699  36.4365735  19.1709961  28.7971296  34.9912352
  21.5081140  25.1688944  35.5922343  21.4942709  24.2730037  35.2554641
  22.2253568  25.1759608  36.2260629  23.3607271  25.6026284  37.6375470
  23.1025048  26.5243355  37.6359801  22.8292311  25.2056719  38.3275934
  28.3053459  38.7077071  30.4165556  28.4790337  38.1423494  29.6639408
  28.7982351  39.5077966  30.2345045  14.1230419  30.7191740  38.4829114
  13.5783887  31.4951548  38.6149389  15.0009769  31.0662545  38.3248236
  20.9118036  24.0503324  30.8609913  21.0333947  23.1219970  31.0600800
  20.6220078  24.0642010  29.9488228  23.7809226  21.7358235  33.9976633
  23.8030923  21.7997568  33.0428612  24.1977285  20.8962743  34.1917139
  34.1592851  31.4713494  32.0355855  34.6023997  30.7220819  31.6374979
  33.2819361  31.4623631  31.6529587  29.2928632  38.0243836  27.5162454
  29.9879536  38.6450528  27.7349768  29.6351782  37.1739187  27.7914832
  14.9096441  29.8461637  41.3759271  14.1678177  29.9944272  41.9623902
  14.5889185  30.1069902  40.5126021  31.1920055  35.4743541  29.0449785
  31.7171379  35.8130814  28.3199105  31.1042408  34.5390557  28.8612919
  22.8540104  39.3877615  41.1739661  23.1627230  39.1426762  42.0462361
  23.6515586  39.5924253  40.6858531  22.8760716  41.5415525  33.4045038
  22.4365706  41.0491903  34.0977894  23.6268833  40.9988492  33.1637113
  15.3553055  37.7327065  33.4069666  16.1811075  37.4330837  33.0268309
  15.0047107  36.9634688  33.8559455  20.3234588  37.0853534  35.4767339
  19.7014597  36.4224239  35.1769567  20.9939455  37.1114666  34.7940987
  13.5561660  35.6513392  34.3658599  12.7193568  35.2235566  34.1842601
  13.5285305  35.8445835  35.3029391  20.3959115  25.5635322  45.0699845
  20.4447271  26.4397444  44.6877615  20.9381630  25.0212715  44.4971489
  30.8813961  36.1076445  44.3500983  30.0909505  36.0900584  43.8105482
  30.6447316  36.6464739  45.1050019  31.0011836  32.9568911  41.6633711
  31.0509841  32.7918919  42.6049234  30.8925759  32.0896170  41.2731592
  19.8848095  35.6357457  28.9525800  20.0336215  36.3192921  28.2992473
  20.6914538  35.6162547  29.4675256  28.2915598  28.9399839  42.9793018
  29.1925461  28.8006304  42.6877016  28.3663573  29.1054294  43.9191195
  22.6258404  26.3166694  41.8246204  21.7561713  26.6100260  41.5528793
  22.8617884  26.9007139  42.5453468  32.5030033  35.3765853  41.9075733
  32.2114841  35.7395833  42.7439194  31.8902164  34.6632861  41.7289065
  33.7025715  32.9418733  34.4278303  34.5372607  33.3808537  34.5915863
  33.8384844  32.4657386  33.6086549  30.7517221  30.4998467  40.3755791
  31.2271343  30.6926114  39.5674642  29.8282787  30.5557653  40.1299174
  17.6400728  31.6622635  29.9586869  17.3946770  30.7584965  30.1567079
  17.8096642  31.6639785  29.0166347  25.3297438  22.5346311  39.3411625
  25.8479382  23.2707338  39.0158113  24.9752570  22.8410304  40.1758384
  16.9096375  27.3950992  27.4573030  16.2165620  27.4695347  26.8013066
  16.6648127  26.6311336  27.9794547  25.5810032  18.9546594  34.8612521
  25.8611786  18.2869783  35.4872948  26.3660639  19.1475689  34.3487185
  23.3843500  38.1305587  26.4237547  22.8117467  38.7495775  25.9708019
  23.9576294  38.6804949  26.9577469  29.4518890  27.3764228  38.6084096
  30.4036313  27.4762325  38.6296320  29.2822341  26.5842496  39.1182181
  27.4733270  24.4619811  38.7943497  26.8783202  24.7424823  38.0989986
  27.1882966  24.9513712  39.5660238  26.6040760  38.4142738  27.5546130
  27.5371433  38.3488299  27.7579005  26.5163973  39.2499004  27.0960662
  29.2328777  37.7308608  24.5150077  29.1542408  37.3968472  25.4085835
  30.0538444  38.2230376  24.5141550  31.9306968  30.5970347  37.7226396
  31.8983288  29.6586348  37.9086080  32.5407592  30.6754384  36.9892221
  23.7690299  29.4666400  23.7653600  24.7149404  29.3372608  23.8342018
  23.3904544  28.7281062  24.2423028  32.0801456  27.3881391  37.7684679
  31.5640505  26.6039847  37.5814608  32.9641405  27.0600107  37.9331199
  29.7412183  21.1322406  33.7280492  29.5437004  20.8237494  34.6123824
  30.3511889  21.8584045  33.8578422  37.7483518  31.6586354  36.8632433
  38.4786906  31.3971642  37.4240136  37.1390463  30.9215076  36.9034501
  35.8298815  29.7994217  37.4606884  35.1031979  29.6650182  36.8523375
  35.4146102  30.1071045  38.2663602  23.6528991  33.5184146  45.2254257
  24.5732001  33.6962745  45.4194303  23.6178574  32.5740192  45.0733956
  21.9533216  27.3916377  23.7008485  21.0464671  27.0949489  23.7771199
  22.2309197  27.0946195  22.8342771  12.8711156  28.7122740  34.1507532
  12.5513941  27.8588048  33.8581906  12.3244585  28.9271318  34.9065499
  16.6491064  31.4285181  37.8677038  16.8677074  32.3602289  37.8865072
  17.0616838  31.0693155  38.6531842  23.5695282  21.9353266  29.8552726
  22.7596010  21.5900351  30.2307973  24.2579699  21.6260810  30.4440338
  25.4985830  21.0131313  31.4777023  26.0516869  21.4326767  32.1367046
  25.7355916  20.0867061  31.5199979  21.5218929  27.0018387  47.2579787
  21.4215656  27.9512744  47.1891878  21.3040471  26.6736626  46.3855857
  12.7399416  32.3325651  36.1200653  12.0462888  31.9179604  35.6070608
  13.4872407  32.3746188  35.5234072  28.8764637  23.1231838  30.9855687
  28.2963306  23.7816642  30.6033740  28.6100570  22.3009183  30.5743105
  27.3268203  22.5236896  33.1877008  27.8267982  22.6353430  32.3791326
  27.9703811  22.2197949  33.8277816  21.3850199  30.4315526  46.0744849
  20.9017281  31.2315886  46.2808738  21.4711138  30.4423470  45.1212293
  14.6536159  32.2643905  33.9966668  14.6306847  32.3631593  33.0448551
  14.9636795  33.1109056  34.3183834  17.3123537  34.3220060  38.1113282
  18.2666790  34.2904003  38.0443214  17.1136060  33.8610684  38.9263508
  17.9022919  32.8921176  40.6784080  18.7215808  33.3865255  40.7018917
  18.1759727  31.9753144  40.6501648  27.6589515  25.2831929  30.0412036
  26.7715370  25.5681579  29.8232230  28.0743504  25.1225692  29.1939312
  31.0104051  25.3078450  33.7566375  31.7864441  25.7974902  34.0290992
  30.2852185  25.7336504  34.2138244  33.4476610  26.0206069  34.8140315
  34.0421101  25.7801805  34.1033624  33.5203194  25.3013199  35.4413852
  15.6673766  39.8639680  35.1283480  15.5328233  39.1040081  34.5621478
  15.2505828  40.5880580  34.6612269  26.8032729  35.0476603  24.1360056
  27.5068579  35.2526606  24.7517711  26.0795377  35.6153365  24.4009139
  27.6330539  30.7986465  30.2562326  27.5765740  31.2555016  29.4169958
  28.1858881  30.0377149  30.0785169  31.4435345  26.5876196  31.0812445
  31.1872279  26.1872832  31.9120653  30.8188213  27.3019990  30.9562584
  35.7547683  29.3272270  33.5883737  35.1947241  29.3965459  34.3615299
  35.1491186  29.1513254  32.8683233  18.8242891  40.7608997  35.3401923
  18.7075276  41.7054429  35.2380613  18.0035338  40.4582558  35.7287722
  28.7119426  35.4859133  26.1858516  29.5465030  35.0540331  26.0035990
  28.5503769  35.3141146  27.1135410  28.3665318  31.9891246  27.5514855
  28.3114122  31.8235517  26.6103299  27.7411373  32.6967279  27.7077045
  13.1557833  27.2259310  41.3776277  13.8016697  26.7158264  41.8663502
  12.9474984  27.9627992  41.9519702  25.6811225  34.2940158  46.8768418
  26.5502385  34.4680810  46.5155053  25.2017977  35.1134574  46.7544147
  21.6761444  21.4899355  27.1300173  21.6640113  22.4341195  27.2868444
  22.5684865  21.3069500  26.8359635  19.8497406  41.4137259  38.5557851
  20.7524652  41.4460869  38.8724346  19.6234776  40.4837710  38.5704187
  21.6051008  40.1668245  35.2167930  20.6546639  40.1670107  35.1032302
  21.9083494  39.4200980  34.7003965  25.4913563  18.0842131  31.3846110
  24.7245959  17.5300618  31.5302792  25.9024268  18.1564000  32.2460262
  17.4955324  24.3726927  45.4751291  18.3586786  24.0163732  45.6854616
  16.9220735  24.0340822  46.1626696  37.3403701  46.0028784  36.2813692
  37.9782111  45.8835531  35.5777032  37.2224544  46.9509628  36.3401645
  34.1493407  45.9556212  36.2175217  33.8111919  45.8397276  35.3295752
  35.0183176  45.5547377  36.1976223  30.0080223  47.8091688  32.2072108
  29.4445088  47.7181625  31.4388396  29.8932618  46.9891593  32.6874601
  34.6313190  47.1091063  42.1761423  34.6201831  46.7143862  41.3041926
  34.7933830  46.3757136  42.7695194  27.5544655  49.3042880  35.0456328
  28.3465947  48.9633704  34.6302628  27.7941305  49.4137855  35.9658482
  35.5879782  51.4762656  27.5186573  34.9367762  52.0616736  27.1320587
  36.3824145  52.0068851  27.5781610  29.5135409  48.5651793  27.9173707
  30.2866285  48.0180780  27.7786583  29.8660808  49.4296042  28.1288169
  31.3520451  49.8928175  41.1240607  31.0610317  50.7973806  41.0087273
  31.9877436  49.9344703  41.8384676  32.2776658  47.2705024  37.7141966
  32.8740231  47.0461046  36.9998929  32.3351630  46.5289769  38.3167414
  31.8501687  44.7244459  25.5492157  32.1027207  44.2025980  24.7875620
  30.9126246  44.5610605  25.6518841  36.8944970  43.7280237  33.3566900
  37.6808059  43.3099661  33.0057317  37.1583674  44.6326330  33.5248549
  37.0655047  49.1653088  28.0555557  36.4300880  49.2387714  28.7676462
  36.7352453  49.7546687  27.3774636  42.2953397  43.6655471  34.2599879
  43.0278569  43.0954687  34.4937708  41.5392752  43.2777071  34.7006384
  31.5697975  46.6272565  27.7516532  31.4534234  45.9517468  28.4197616
  31.6800235  46.1404939  26.9348685  33.9129516  46.0882712  31.4563221
  33.5487724  45.5613333  32.1676143  34.7696632  45.6981181  31.2829707
  39.8178817  37.3777045  38.7194488  39.4862142  38.2472456  38.4955703
  39.2224430  37.0613329  39.3988518  33.5535003  41.1172612  26.4524570
  33.7209406  41.9852848  26.8195041  33.3632172  41.2799894  25.5285859
  36.3110337  49.5789591  38.1190400  36.0111060  50.4814630  38.0106207
  35.9661396  49.3121774  38.9711553  29.7622818  46.0303388  34.1527105
  28.8373315  45.8979602  34.3604796  30.0107231  46.8097607  34.6497047
  39.7107480  42.0972131  35.7987838  38.8024358  42.0287539  35.5046599
  39.6595076  42.5744076  36.6269663  33.5324224  43.5730269  27.4371237
  33.4123849  44.0187320  28.2756717  32.8376813  43.9215587  26.8784775
  27.1231629  45.6736661  34.9870894  27.2524010  45.9271140  35.9010305
  26.4429080  46.2664369  34.6675549  31.2931116  56.3433911  31.0861368
  31.2155146  57.2941736  31.1649849  30.6892760  55.9979784  31.7436294
  33.7848346  43.5161777  43.7422735  33.0081680  44.0755697  43.7325599
  34.4238909  44.0018560  44.2637605  41.5769127  40.2988569  37.5765711
  40.9343507  40.5921103  36.9305506  41.0724055  40.1841490  38.3818908
  39.2309290  44.0451743  28.2651571  40.1427147  44.2779129  28.0899268
  38.7218937  44.6288787  27.7026649  32.0394718  46.3247230  43.3040702
  32.7809403  46.8632274  43.0275525  31.3331704  46.9513519  43.4612254
  37.5150058  48.4676370  41.9012863  37.9233414  48.0258781  41.1567496
  36.7927320  47.8928998  42.1547056  33.8681128  43.4048977  39.2746420
  34.7142323  43.8288391  39.4181069  33.8079766  42.7482601  39.9684983
  37.8378873  49.0277561  35.6565152  37.2087735  49.1923275  34.9541220
  37.4504535  49.4419171  36.4276116  41.7168105  49.9631999  33.0109516
  41.0319143  50.3430900  32.4606549  41.8011954  50.5727325  33.7441464
  37.0180573  41.0653345  40.9327594  36.7741505  41.8195406  40.3961870
  37.2940504  41.4438693  41.7674841  38.9719036  47.6091958  39.6104860
  39.1835931  48.2523718  38.9339241  38.9248784  46.7754274  39.1426790
  36.5745265  40.2209779  36.5141432  35.7129744  40.5191032  36.8058169
  36.6007700  40.4380177  35.5822464  33.3906835  48.7651969  32.9215237
  33.8545180  49.0439672  32.1319860  33.1263633  47.8635414  32.7388328
  30.2830916  48.3123451  35.8595001  30.8532273  48.7410719  35.2212485
  30.8739027  48.0306035  36.5579186  32.3275721  44.8875121  29.7304802
  33.0299764  45.3396165  30.1978729  31.9956349  44.2458940  30.3584696
  30.7756082  43.4786878  44.1056012  30.1454743  44.1603159  44.3391409
  30.6692170  43.3669960  43.1609150  26.0701055  43.1458674  35.0321936
  25.2800109  43.4016203  34.5562047  26.5612302  43.9607012  35.1373977
  40.0864864  50.4863913  37.7827217  40.9082308  50.0844101  37.5009898
  40.0827267  50.3832147  38.7343333  28.0215800  43.5103253  31.9905413
  27.2246963  43.6221948  32.5088908  27.7941392  43.8489906  31.1246303
  33.8521468  50.0347957  39.9387927  33.9165900  50.4968364  40.7746099
  33.1432391  49.4045321  40.0670237  24.3538758  43.3989165  37.4636927
  24.6046796  44.2836174  37.7294503  24.8898306  43.2193766  36.6912019
  48.1770857  46.8302662  34.1312188  47.4234566  46.2610060  33.9756193
  48.3118398  46.7965326  35.0782823  33.5669485  51.7016064  29.8066908
  33.4315160  52.5467600  30.2351755  34.1079298  51.9035342  29.0432841
  30.0536825  37.7807644  46.4681263  29.6603770  37.2273842  47.1428907
  30.8702965  38.0918222  46.8587780  27.0198883  49.2191502  30.3794833
  27.5323403  50.0134752  30.5300397  27.6721595  48.5217793  30.3128434
  28.8293767  52.3357258  32.4617586  29.0060396  53.2575223  32.2738570
  29.6250601  52.0215678  32.8911966  32.9704786  39.1965523  44.0601519
  33.7114499  39.7972676  43.9805982  33.2022709  38.4543161  43.5019562
  28.1146124  44.3821890  42.3379749  27.9999639  43.4807148  42.6386848
  27.2590642  44.6285587  41.9864566  35.1937962  52.3239631  43.9367250
  34.7501816  51.5376009  43.6188154  35.8555175  52.5118781  43.2711141
  29.9525083  53.8535432  38.4627928  30.5032508  53.7252496  37.6904922
  29.1136559  54.1530321  38.1122821  37.2919200  52.6042431  41.9648651
  37.2737675  53.4251312  41.4728920  38.2139120  52.4796506  42.1898792
  33.7492254  50.1186560  42.8072159  34.2820591  49.3574848  42.5771467
  33.2206335  49.8260212  43.5496314  36.9161949  35.2246626  38.3365801
  36.5726218  36.1148268  38.2604912  37.2840911  35.0348284  37.4735386
  24.9847799  47.5480156  31.1554403  25.8223021  47.9577165  30.9388111
  25.1626067  46.6079599  31.1254597  36.8812232  45.2155237  26.8438236
  36.3658855  45.9859842  27.0826624  36.6089540  44.5420373  27.4671298
  34.4659343  40.0604938  31.9023475  33.6100939  39.6711788  31.7229113
  34.8786294  40.1396899  31.0423260  35.9958489  37.5951281  36.3015034
  35.4923285  37.5581416  35.4882840  36.2889096  38.5044024  36.3611691
  32.2401375  37.6790011  35.3081216  33.1054372  37.4832820  34.9487106
  32.3078884  37.4500363  36.2350573  41.8546506  47.9687592  28.7791410
  41.0775948  47.6298751  28.3346572  42.5337987  47.9740215  28.1046375
  36.6698535  43.0882329  28.6698017  36.3648670  43.4028478  29.5208161
  37.6228977  43.1663749  28.7125350  35.1144967  49.2472552  30.3190971
  34.5866328  48.5125312  30.0064209  34.6132469  50.0247229  30.0730940
  40.0937813  47.4421573  35.4358018  39.4361487  48.1320834  35.5238146
  40.8978212  47.8318005  35.7792004  29.8463694  39.9092219  32.6797583
  30.4207446  39.6867400  31.9470776  30.4334677  39.9780913  33.4326184
  38.9043271  45.7965946  33.4861959  39.4175153  46.4295937  33.9883669
  39.5544495  45.1967141  33.1205319  30.1733281  41.9396680  26.6993468
  29.3370594  42.2771366  27.0202743  30.0338051  41.8045660  25.7620605
  32.1486362  36.7833468  31.4072652  31.4950774  36.4682485  30.7829267
  32.1066836  36.1609208  32.1332475  33.2597567  47.0652763  23.3225944
  32.3524628  46.8342016  23.5217093  33.7568599  46.2690382  23.5099926
  36.1665646  55.7750270  26.2422631  35.4927344  56.0781967  26.8507588
  36.5531468  56.5779350  25.8928088  35.3824102  43.2715401  35.7320300
  34.4646664  43.4930348  35.5741988  35.7984246  43.3461712  34.8732007
  36.1659150  44.6706817  30.8622980  36.9130969  45.1828214  30.5530102
  36.4350740  44.3490870  31.7227374  34.4385800  47.1665358  27.8449935
  33.5297019  46.8824390  27.9422404  34.4680884  47.5864436  26.9853241
  39.6705068  50.7771947  31.6141102  39.2167395  49.9362857  31.6706293
  39.0399034  51.4133345  31.9515882  38.6137987  41.7063933  32.8441770
  37.8760744  41.1941319  33.1752012  38.8664761  41.2664315  32.0325046
  38.1138007  52.6148444  32.5490920  38.4060981  53.1753501  31.8303286
  38.6236627  52.9077005  33.3044079  38.7149614  34.4840185  33.4383539
  39.0208491  33.6237549  33.1509454  39.4402219  35.0757805  33.2382533
  25.0073971  44.8870872  31.8265137  24.8098370  44.2940232  31.1016203
  24.4520635  44.5823082  32.5441076  32.9870694  44.7793978  33.9459730
  33.0419304  43.8267815  33.8702206  32.1761896  44.9353417  34.4301028
  34.1361888  48.7074101  25.1838013  33.6981318  47.9909960  24.7243650
  34.8772329  48.9350216  24.6223105  30.9263054  43.3971038  31.7050109
  30.1130920  43.6965208  32.1115301  31.4222048  43.0026727  32.4224591
  33.0771632  53.3928795  33.6384373  33.0347811  53.6189641  32.7092905
  33.9934331  53.1592169  33.7870175  36.5237266  43.8612862  40.5365003
  36.8786654  44.0884336  41.3959468  37.1709397  44.1931239  39.9142258
  42.2535003  46.9831298  31.2414332  42.1152901  47.1732894  30.3135521
  41.8971222  47.7450681  31.6982383  30.4177129  40.9689393  37.3211344
  31.0576508  40.8278153  36.6234307  29.5854659  40.6823907  36.9449946
  42.2804382  49.0507825  36.2525603  42.7140889  48.9583114  37.1008657
  42.9935963  49.0265326  35.6145619  31.1937433  50.2691824  33.4346336
  31.9878031  49.7742144  33.2328911  30.4829125  49.7409687  33.0714042
  36.0132277  52.6509919  37.7858704  36.0669300  53.2200856  38.5536420
  35.1447059  52.8211804  37.4212741  27.5020196  44.4134906  29.5106089
  26.5717784  44.3519361  29.7276051  27.5977668  43.8910858  28.7142730
  27.4205745  40.9389718  32.0984331  27.6812563  41.8535052  31.9893491
  28.2422918  40.4714161  32.2480943  28.8930671  42.3527476  39.2683155
  29.5653724  42.1444838  38.6195804  28.0660457  42.1549562  38.8288387
  43.1419932  49.0931526  38.7858489  43.3355822  49.9977336  39.0317764
  43.0420550  48.6338945  39.6197074  34.7956243  38.9789417  41.2848816
  34.1484158  39.6779366  41.1913292  35.5657258  39.4125560  41.6525064
  38.2035041  49.2438269  44.3599369  38.0520547  49.0148820  43.4429453
  38.1939720  50.2008870  44.3730714  34.9720377  46.8170181  39.3445636
  35.9012437  46.9681341  39.1714603  34.5511407  46.9054202  38.4894282
  33.7708709  50.8420846  37.1144173  33.6319795  50.4739630  37.9870111
  32.9823305  51.3568485  36.9428131  34.3656861  55.9429942  28.4569710
  34.5408616  55.4717986  29.2715332  33.6789649  56.5695709  28.6850971
  35.3213924  50.2202449  34.5033011  34.9863757  50.1803219  35.3990661
  34.8217870  49.5547164  34.0303421  29.2958168  45.6270079  40.0285592
  29.1577966  44.8950317  40.6297131  30.2063091  45.5378979  39.7469780
  38.2573116  47.5658483  24.7770071  37.6402286  46.8405311  24.6803123
  37.7889604  48.3267843  24.4337145  31.9240469  45.3390038  39.5169272
  32.6340087  44.6983230  39.4755890  31.8809777  45.5902933  40.4395453
  39.9127247  52.2757391  42.4375851  39.8539793  51.5916611  41.7706434
  40.3146766  53.0176381  41.9856477  30.6369403  42.3255256  41.3364911
  30.1006760  41.8745994  41.9886508  30.0486111  42.4601165  40.5935376
  28.9317946  59.0919305  35.2309570  29.1714544  59.7237829  35.9088589
  28.0887143  58.7407345  35.5174929  30.0471662  41.7843907  23.8991375
  29.1701128  41.6632708  23.5353622  30.5229415  40.9929986  23.6470264
  39.9144655  50.2396975  40.6689831  39.0271433  49.9022897  40.7916230
  40.4843206  49.5080006  40.9058596  21.5673802  46.5721067  33.9932882
  22.2544841  46.2582797  33.4053897  21.4121930  47.4762432  33.7200134
  26.3708524  41.4611264  38.4217906  26.2866713  40.8536933  37.6868316
  25.5491230  41.9520282  38.4227402  33.4445808  54.8998428  37.6351074
  33.3715979  55.7053399  38.1470378  33.0023201  55.0990393  36.8099095
  33.2335588  54.1370198  31.1453895  32.4503109  54.6791878  31.2392120
  33.9328333  54.6544177  31.5448137  36.5432238  39.9464827  33.7888101
  37.0400937  39.1934789  33.4689171  35.7719219  39.9829144  33.2231310
  44.3961995  45.6505193  35.4306392  44.3851871  46.5329908  35.0600325
  43.5279375  45.2976743  35.2360929  35.9044491  54.7985262  39.7909233
  36.6172464  55.4332726  39.7185134  35.4134520  54.8949128  38.9749234
  37.6262018  48.7036514  31.3626524  36.6918297  48.8237977  31.1931229
  37.8038687  47.8008981  31.0986534  33.1267206  42.0882210  33.5159785
  32.7564994  41.5353250  34.2040691  33.6226299  41.4840344  32.9634786
  41.0134570  44.5453834  31.8976558  41.4795022  45.3781825  31.8236861
  41.4642070  44.0798815  32.6021817  30.9556405  52.5479705  40.6114803
  31.6565864  53.1816188  40.7644198  30.4851520  52.8894437  39.8510443
  39.0810801  50.8897655  28.8962710  39.3570645  50.7754249  29.8056585
  38.2115300  50.4915140  28.8574884  38.9851232  36.9134421  35.9367460
  38.0714312  37.1438647  36.1049667  39.4144334  36.9972865  36.7881492
  38.7557691  45.1024312  38.4367354  38.1029141  45.3500220  37.7819807
  39.1338071  44.2888451  38.1029831  35.7164865  55.1384006  32.5395524
  35.8987259  54.3205662  33.0023276  36.5397851  55.3551698  32.1020414
  36.0507030  54.0652191  29.8010573  36.5794797  53.5544645  29.1880735
  36.3135250  53.7494721  30.6656106  34.8045264  45.8444124  44.9233391
  34.1285901  45.7438253  45.5935766  35.6272898  45.6883337  45.3869388
  26.5524123  52.0816060  37.5445906  27.1377560  51.3359748  37.6773810
  26.3548961  52.3920017  38.4282570  29.4062778  55.1167307  32.5608348
  28.7373154  55.6013435  32.0772389  29.2675648  55.3636528  33.4751727
  21.1441778  44.6521660  36.2650349  21.1825877  44.1185251  37.0587467
  20.6382071  44.1256866  35.6461326  33.5468047  57.1511051  39.1591007
  34.0986355  57.3142673  39.9240092  33.8874240  57.7415489  38.4871032
  28.5232540  39.4986201  39.7612892  28.5873867  40.3601032  39.3490289
  28.4599660  38.8860202  39.0285250  27.9984813  41.5709333  43.4085926
  28.6256851  41.1886411  44.0223450  27.1412731  41.3523535  43.7741618
  38.3978921  51.9772309  45.0139661  38.9418825  52.5902267  44.5194616
  37.8165766  52.5351887  45.5306674  24.7750355  43.3785762  29.3404281
  25.0703796  42.4696441  29.2871334  23.8738391  43.3573502  29.0185283
  36.6836434  55.0993027  36.1454689  36.5587574  54.2982766  35.6365635
  37.3415525  55.5939220  35.6568659  28.3044602  41.4541759  35.3231829
  27.5831188  42.0677727  35.1839303  29.0937858  41.9899524  35.2448475
  38.7471343  52.9002047  37.7734239  37.8001678  52.7807398  37.7012566
  39.0954116  52.0124545  37.8560501  31.1070916  38.7896186  41.5972481
  31.6305318  39.0358482  42.3598790  30.8883249  39.6216220  41.1775618
  26.5038197  41.0599860  29.4643606  26.1750903  40.1797239  29.2818712
  26.8577568  41.0047529  30.3519995  35.7517776  52.6954763  33.9738591
  35.6042738  51.7671470  34.1546161  36.5771269  52.7174854  33.4895667
  29.6180020  41.3472830  29.8319083  29.9576093  41.8758751  29.1097692
  30.0652141  41.6853236  30.6077650  39.3551898  53.5183322  35.0603464
  40.2798445  53.3126183  34.9227915  39.1867201  53.2699723  35.9692806
  32.3123461  39.7309881  39.2822152  31.9720281  38.9317694  39.6842831
  31.6062467  40.0311591  38.7098985  32.9639933  36.8159193  37.7349475
  33.7866002  36.3419671  37.6128365  33.2077996  37.5949677  38.2348161
  31.6048167  39.8447452  28.0312376  32.3256530  40.2228704  27.5276093
  30.9813471  40.5636328  28.1347354  35.7479290  40.5492600  28.9670709
  35.9642905  41.4317238  28.6659537  35.2673357  40.1578814  28.2376351
  30.4878512  43.5078314  35.5441453  30.3423092  43.8218617  36.4365735
  30.0103715  44.1263214  34.9912352  32.3474894  40.4980862  35.5922343
  32.3336463  39.6021955  35.2554641  33.0647323  40.5051525  36.2260629
  34.2001025  40.9318202  37.6375470  33.9418803  41.8535273  37.6359801
  33.6686065  40.5348636  38.3275934  39.1447214  54.0368989  30.4165556
  39.3184091  53.4715411  29.6639408  39.6376105  54.8369884  30.2345045
  24.9624174  46.0483658  38.4829114  24.4177642  46.8243466  38.6149389
  25.8403524  46.3954463  38.3248236  31.7511790  39.3795242  30.8609913
  31.8727702  38.4511888  31.0600800  31.4613833  39.3933928  29.9488228
  34.6202981  37.0650152  33.9976633  34.6424678  37.1289485  33.0428612
  35.0371040  36.2254661  34.1917139  44.9986605  46.8005412  32.0355855
  45.4417751  46.0512737  31.6374979  44.1213115  46.7915548  31.6529587
  40.1322386  53.3535753  27.5162454  40.8273291  53.9742446  27.7349768
  40.4745536  52.5031105  27.7914832  25.7490196  45.1753554  41.3759271
  25.0071932  45.3236190  41.9623902  25.4282940  45.4361820  40.5126021
  42.0313809  50.8035459  29.0449785  42.5565134  51.1422732  28.3199105
  41.9436162  49.8682474  28.8612919  33.6933858  54.7169533  41.1739661
  34.0020985  54.4718679  42.0462361  34.4909340  54.9216171  40.6858531
  33.7154470  56.8707442  33.4045038  33.2759461  56.3783821  34.0977894
  34.4662587  56.3280410  33.1637113  26.1946809  53.0618983  33.4069666
  27.0204829  52.7622755  33.0268309  25.8440861  52.2926606  33.8559455
  31.1628342  52.4145451  35.4767339  30.5408352  51.7516156  35.1769567
  31.8333209  52.4406583  34.7940987  24.3955414  50.9805310  34.3658599
  23.5587323  50.5527484  34.1842601  24.3679060  51.1737753  35.3029391
  31.2352870  40.8927239  45.0699845  31.2841025  41.7689362  44.6877615
  31.7775384  40.3504632  44.4971489  41.7207716  51.4368363  44.3500983
  40.9303259  51.4192501  43.8105482  41.4841070  51.9756656  45.1050019
  41.8405591  48.2860829  41.6633711  41.8903596  48.1210836  42.6049234
  41.7319514  47.4188088  41.2731592  30.7241849  50.9649375  28.9525800
  30.8729970  51.6484839  28.2992473  31.5308293  50.9454465  29.4675256
  39.1309353  44.2691757  42.9793018  40.0319216  44.1298222  42.6877016
  39.2057327  44.4346212  43.9191195  33.4652158  41.6458612  41.8246204
  32.5955468  41.9392178  41.5528793  33.7011639  42.2299057  42.5453468
  43.3423787  50.7057770  41.9075733  43.0508596  51.0687751  42.7439194
  42.7295919  49.9924779  41.7289065  44.5419470  48.2710650  34.4278303
  45.3766361  48.7100454  34.5915863  44.6778599  47.7949303  33.6086549
  41.5910976  45.8290385  40.3755791  42.0665097  46.0218031  39.5674642
  40.6676541  45.8849571  40.1299174  28.4794482  46.9914552  29.9586869
  28.2340524  46.0876882  30.1567079  28.6490397  46.9931703  29.0166347
  36.1691192  37.8638229  39.3411625  36.6873136  38.5999256  39.0158113
  35.8146325  38.1702222  40.1758384  27.7490130  42.7242910  27.4573030
  27.0559375  42.7987265  26.8013066  27.5041882  41.9603254  27.9794547
  36.4203786  34.2838511  34.8612521  36.7005540  33.6161700  35.4872948
  37.2054393  34.4767607  34.3487185  34.2237255  53.4597505  26.4237547
  33.6511222  54.0787692  25.9708019  34.7970048  54.0096867  26.9577469
  40.2912645  42.7056145  38.6084096  41.2430068  42.8054243  38.6296320
  40.1216095  41.9134414  39.1182181  38.3127024  39.7911728  38.7943497
  37.7176956  40.0716741  38.0989986  38.0276721  40.2805629  39.5660238
  37.4434515  53.7434655  27.5546130  38.3765188  53.6780217  27.7579005
  37.3557727  54.5790922  27.0960662  40.0722531  53.0600526  24.5150077
  39.9936163  52.7260389  25.4085835  40.8932198  53.5522293  24.5141550
  42.7700722  45.9262265  37.7226396  42.7377043  44.9878266  37.9086080
  43.3801346  46.0046302  36.9892221  34.6084053  44.7958318  23.7653600
  35.5543158  44.6664526  23.8342018  34.2298298  44.0572980  24.2423028
  42.9195211  42.7173308  37.7684679  42.4034260  41.9331765  37.5814608
  43.8035159  42.3892025  37.9331199  40.5805938  36.4614324  33.7280492
  40.3830759  36.1529412  34.6123824  41.1905643  37.1875963  33.8578422
  48.5877272  46.9878272  36.8632433  49.3180661  46.7263560  37.4240136
  47.9784218  46.2506994  36.9034501  46.6692569  45.1286134  37.4606884
  45.9425733  44.9942099  36.8523375  46.2539856  45.4362963  38.2663602
  34.4922746  48.8476064  45.2254257  35.4125755  49.0254663  45.4194303
  34.4572329  47.9032109  45.0733956  32.7926970  42.7208294  23.7008485
  31.8858426  42.4241407  23.7771199  33.0702951  42.4238112  22.8342771
  23.7104911  44.0414658  34.1507532  23.3907695  43.1879966  33.8581906
  23.1638339  44.2563236  34.9065499  27.4884818  46.7577099  37.8677038
  27.7070828  47.6894206  37.8865072  27.9010592  46.3985073  38.6531842
  34.4089036  37.2645184  29.8552726  33.5989765  36.9192269  30.2307973
  35.0973453  36.9552728  30.4440338  36.3379584  36.3423231  31.4777023
  36.8910623  36.7618684  32.1367046  36.5749671  35.4158979  31.5199979
  32.3612684  42.3310304  47.2579787  32.2609411  43.2804661  47.1891878
  32.1434226  42.0028543  46.3855857  31.5625755  39.5795229  23.8420464
  32.4244919  39.9050128  24.1016282  31.7476099  38.7926725  23.3293530
  23.5793171  47.6617569  36.1200653  22.8856642  47.2471522  35.6070608
  24.3266162  47.7038106  35.5234072  39.7158392  38.4523756  30.9855687
  39.1357061  39.1108560  30.6033740  39.4494324  37.6301101  30.5743105
  38.1661958  37.8528814  33.1877008  38.6661736  37.9645348  32.3791326
  38.8097566  37.5489866  33.8277816  32.2243954  45.7607443  46.0744849
  31.7411035  46.5607803  46.2808738  32.3104893  45.7715388  45.1212293
  25.4929913  47.5935823  33.9966668  25.4700601  47.6923510  33.0448551
  25.8030550  48.4400974  34.3183834  28.1517291  49.6511978  38.1113282
  29.1060545  49.6195920  38.0443214  27.9529815  49.1902602  38.9263508
  28.7416673  48.2213094  40.6784080  29.5609562  48.7157173  40.7018917
  29.0153481  47.3045062  40.6501648  38.4983270  40.6123846  30.0412036
  37.6109125  40.8973497  29.8232230  38.9137259  40.4517610  29.1939312
  41.8497806  40.6370367  33.7566375  42.6258196  41.1266820  34.0290992
  41.1245940  41.0628421  34.2138244  44.2870364  41.3497987  34.8140315
  44.8814855  41.1093722  34.1033624  44.3596948  40.6305117  35.4413852
  26.5067520  55.1931597  35.1283480  26.3721988  54.4331998  34.5621478
  26.0899582  55.9172497  34.6612269  37.6426483  50.3768521  24.1360056
  38.3462333  50.5818523  24.7517711  36.9189132  50.9445283  24.4009139
  38.4724293  46.1278382  30.2562326  38.4159495  46.5846934  29.4169958
  39.0252636  45.3669067  30.0785169  42.2829099  41.9168114  31.0812445
  42.0266033  41.5164750  31.9120653  41.6581967  42.6311908  30.9562584
  46.5941437  44.6564187  33.5883737  46.0340995  44.7257377  34.3615299
  45.9884940  44.4805172  32.8683233  29.6636646  56.0900914  35.3401923
  29.5469030  57.0346347  35.2380613  28.8429092  55.7874476  35.7287722
  39.5513180  50.8151050  26.1858516  40.3858784  50.3832249  26.0035990
  39.3897523  50.6433064  27.1135410  39.2059073  47.3183163  27.5514855
  39.1507876  47.1527435  26.6103299  38.5805128  48.0259196  27.7077045
  23.9951588  42.5551228  41.3776277  24.6410451  42.0450182  41.8663502
  23.7868739  43.2919910  41.9519702  36.5204980  49.6232075  46.8768418
  37.3896139  49.7972728  46.5155053  36.0411731  50.4426492  46.7544147
  32.5155198  36.8191272  27.1300173  32.5033868  37.7633112  27.2868444
  33.4078620  36.6361418  26.8359635  30.6891160  56.7429176  38.5557851
  31.5918407  56.7752787  38.8724346  30.4628530  55.8129627  38.5704187
  32.4444762  55.4960163  35.2167930  31.4940393  55.4962025  35.1032302
  32.7477248  54.7492897  34.7003965  36.3307318  33.4134049  31.3846110
  35.5639713  32.8592536  31.5302792  36.7418023  33.4855918  32.2460262
  28.3349079  39.7018845  45.4751291  29.1980540  39.3455650  45.6854616
  27.7614489  39.3632740  46.1626696  48.1797456  61.3320701  36.2813692
  48.8175865  61.2127449  35.5777032  48.0618298  62.2801545  36.3401645
  44.9887162  61.2848129  36.2175217  44.6505673  61.1689194  35.3295752
  45.8576930  60.8839294  36.1976223  40.8473978  63.1383606  32.2072108
  40.2838843  63.0473543  31.4388396  40.7326373  62.3183510  32.6874601
  45.4706945  62.4382981  42.1761423  45.4595586  62.0435779  41.3041926
  45.6327584  61.7049054  42.7695194  38.3938409  64.6334797  35.0456328
  39.1859701  64.2925622  34.6302628  38.6335060  64.7429772  35.9658482
  46.4273536  66.8054574  27.5186573  45.7761516  67.3908654  27.1320587
  47.2217899  67.3360768  27.5781610  40.3529163  63.8943711  27.9173707
  41.1260039  63.3472698  27.7786583  40.7054562  64.7587960  28.1288169
  42.1914206  65.2220093  41.1240607  41.9004072  66.1265724  41.0087273
  42.8271190  65.2636621  41.8384676  43.1170413  62.5996941  37.7141966
  43.7133985  62.3752964  36.9998929  43.1745384  61.8581687  38.3167414
  42.6895441  60.0536377  25.5492157  42.9420962  59.5317898  24.7875620
  41.7520000  59.8902522  25.6518841  47.7338724  59.0572155  33.3566900
  48.5201813  58.6391578  33.0057317  47.9977428  59.9618247  33.5248549
  47.9048801  64.4945005  28.0555557  47.2694634  64.5679632  28.7676462
  47.5746208  65.0838604  27.3774636  53.1347151  58.9947388  34.2599879
  53.8672323  58.4246605  34.4937708  52.3786507  58.6068989  34.7006384
  42.4091730  61.9564483  27.7516532  42.2927988  61.2809386  28.4197616
  42.5193990  61.4696857  26.9348685  44.7523271  61.4174630  31.4563221
  44.3881478  60.8905251  32.1676143  45.6090387  61.0273099  31.2829707
  50.6572571  52.7068962  38.7194488  50.3255896  53.5764373  38.4955703
  50.0618185  52.3905246  39.3988518  44.3928758  56.4464530  26.4524570
  44.5603160  57.3144766  26.8195041  44.2025927  56.6091811  25.5285859
  47.1504091  64.9081508  38.1190400  46.8504814  65.8106547  38.0106207
  46.8055151  64.6413692  38.9711553  40.6016573  61.3595305  34.1527105
  39.6767069  61.2271519  34.3604796  40.8500986  62.1389525  34.6497047
  50.5501235  57.4264049  35.7987838  49.6418112  57.3579457  35.5046599
  50.4988831  57.9035994  36.6269663  44.3717979  58.9022187  27.4371237
  44.2517604  59.3479238  28.2756717  43.6770567  59.2507505  26.8784775
  37.9625384  61.0028579  34.9870894  38.0917765  61.2563058  35.9010305
  37.2822835  61.5956287  34.6675549  42.1324871  71.6725829  31.0861368
  42.0548901  72.6233654  31.1649849  41.5286514  71.3271701  31.7436294
  44.6242101  58.8453694  43.7422735  43.8475435  59.4047614  43.7325599
  45.2632664  59.3310477  44.2637605  52.4162881  55.6280487  37.5765711
  51.7737261  55.9213020  36.9305506  51.9117810  55.5133407  38.3818908
  50.0703045  59.3743660  28.2651571  50.9820901  59.6071047  28.0899268
  49.5612692  59.9580704  27.7026649  42.8788473  61.6539148  43.3040702
  43.6203157  62.1924192  43.0275525  42.1725458  62.2805436  43.4612254
  48.3543813  63.7968288  41.9012863  48.7627169  63.3550699  41.1567496
  47.6321074  63.2220916  42.1547056  44.7074883  58.7340895  39.2746420
  45.5536078  59.1580308  39.4181069  44.6473520  58.0774519  39.9684983
  48.6772627  64.3569479  35.6565152  48.0481490  64.5215193  34.9541220
  48.2898289  64.7711088  36.4276116  52.5561859  65.2923917  33.0109516
  51.8712897  65.6722818  32.4606549  52.6405708  65.9019243  33.7441464
  47.8574328  56.3945263  40.9327594  47.6135260  57.1487324  40.3961870
  48.1334258  56.7730611  41.7674841  49.8112791  62.9383876  39.6104860
  50.0229686  63.5815635  38.9339241  49.7642539  62.1046192  39.1426790
  47.4139020  55.5501696  36.5141432  46.5523499  55.8482950  36.8058169
  47.4401454  55.7672095  35.5822464  44.2300589  64.0943887  32.9215237
  44.6938935  64.3731590  32.1319860  43.9657387  63.1927331  32.7388328
  41.1224670  63.6415368  35.8595001  41.6926027  64.0702637  35.2212485
  41.7132782  63.3597953  36.5579186  43.1669475  60.2167039  29.7304802
  43.8693518  60.6688083  30.1978729  42.8350104  59.5750858  30.3584696
  41.6149837  58.8078796  44.1056012  40.9848497  59.4895077  44.3391409
  41.5085925  58.6961877  43.1609150  36.9094809  58.4750592  35.0321936
  36.1193863  58.7308120  34.5562047  37.4006056  59.2898930  35.1373977
  50.9258619  65.8155831  37.7827217  51.7476062  65.4136018  37.5009898
  50.9221022  65.7124065  38.7343333  38.8609554  58.8395171  31.9905413
  38.0640718  58.9513865  32.5088908  38.6335147  59.1781823  31.1246303
  44.6915222  65.3639874  39.9387927  44.7559655  65.8260281  40.7746099
  43.9826146  64.7337239  40.0670237  35.1932512  58.7281082  37.4636927
  35.4440550  59.6128092  37.7294503  35.7292060  58.5485684  36.6912019
  59.0164612  62.1594579  34.1312188  58.2628320  61.5901978  33.9756193
  59.1512153  62.1257244  35.0782823  44.4063240  67.0307982  29.8066908
  44.2708915  67.8759517  30.2351755  44.9473052  67.2327259  29.0432841
  40.8930579  53.1099562  46.4681263  40.4997525  52.5565760  47.1428907
  41.7096720  53.4210140  46.8587780  37.8592637  64.5483420  30.3794833
  38.3717158  65.3426670  30.5300397  38.5115350  63.8509710  30.3128434
  39.6687522  67.6649176  32.4617586  39.8454150  68.5867141  32.2738570
  40.4644355  67.3507595  32.8911966  43.8098540  54.5257441  44.0601519
  44.5508254  55.1264594  43.9805982  44.0416463  53.7835078  43.5019562
  38.9539878  59.7113808  42.3379749  38.8393394  58.8099065  42.6386848
  38.0984396  59.9577505  41.9864566  46.0331716  67.6531548  43.9367250
  45.5895570  66.8667927  43.6188154  46.6948930  67.8410699  43.2711141
  40.7918837  69.1827350  38.4627928  41.3426262  69.0544413  37.6904922
  39.9530313  69.4822239  38.1122821  48.1312954  67.9334348  41.9648651
  48.1131430  68.7543229  41.4728920  49.0532874  67.8088423  42.1898792
  44.5886008  65.4478478  42.8072159  45.1214345  64.6866766  42.5771467
  44.0600089  65.1552129  43.5496314  47.7555703  50.5538544  38.3365801
  47.4119973  51.4440185  38.2604912  48.1234666  50.3640201  37.4735386
  35.8241554  62.8772074  31.1554403  36.6616776  63.2869082  30.9388111
  36.0019822  61.9371516  31.1254597  47.7205986  60.5447155  26.8438236
  47.2052609  61.3151759  27.0826624  47.4483294  59.8712291  27.4671298
  45.3053097  55.3896856  31.9023475  44.4494693  55.0003706  31.7229113
  45.7180049  55.4688816  31.0423260  46.8352244  52.9243199  36.3015034
  46.3317039  52.8873334  35.4882840  47.1282851  53.8335941  36.3611691
  43.0795130  53.0081928  35.3081216  43.9448126  52.8124737  34.9487106
  43.1472638  52.7792280  36.2350573  52.6940260  63.2979509  28.7791410
  51.9169703  62.9590669  28.3346572  53.3731741  63.3032133  28.1046375
  47.5092289  58.4174247  28.6698017  47.2042425  58.7320396  29.5208161
  48.4622731  58.4955667  28.7125350  45.9538721  64.5764470  30.3190971
  45.4260083  63.8417230  30.0064209  45.4526224  65.3539146  30.0730940
  50.9331567  62.7713491  35.4358018  50.2755242  63.4612752  35.5238146
  51.7371966  63.1609923  35.7792004  40.6857449  55.2384136  32.6797583
  41.2601201  55.0159318  31.9470776  41.2728431  55.3072831  33.4326184
  49.7437026  61.1257863  33.4861959  50.2568908  61.7587855  33.9883669
  50.3938250  60.5259059  33.1205319  41.0127036  57.2688597  26.6993468
  40.1764348  57.6063284  27.0202743  40.8731805  57.1337577  25.7620605
  42.9880116  52.1125385  31.4072652  42.3344529  51.7974402  30.7829267
  42.9460591  51.4901126  32.1332475  44.0991321  62.3944680  23.3225944
  43.1918383  62.1633934  23.5217093  44.5962353  61.5982300  23.5099926
  47.0059400  71.1042188  26.2422631  46.3321099  71.4073884  26.8507588
  47.3925222  71.9071268  25.8928088  46.2217857  58.6007319  35.7320300
  45.3040418  58.8222266  35.5741988  46.6378000  58.6753629  34.8732007
  47.0052904  59.9998735  30.8622980  47.7524723  60.5120132  30.5530102
  47.2744494  59.6782787  31.7227374  45.2779555  62.4957275  27.8449935
  44.3690774  62.2116308  27.9422404  45.3074638  62.9156354  26.9853241
  50.5098822  66.1063865  31.6141102  50.0561149  65.2654775  31.6706293
  49.8792789  66.7425263  31.9515882  49.4531742  57.0355851  32.8441770
  48.7154498  56.5233237  33.1752012  49.7058515  56.5956232  32.0325046
  48.9531761  67.9440361  32.5490920  49.2454736  68.5045419  31.8303286
  49.4630382  68.2368922  33.3044079  49.5543369  49.8132103  33.4383539
  49.8602246  48.9529466  33.1509454  50.2795974  50.4049723  33.2382533
  35.8467725  60.2162789  31.8265137  35.6492125  59.6232150  31.1016203
  35.2914389  59.9115000  32.5441076  43.8264449  60.1085896  33.9459730
  43.8813058  59.1559732  33.8702206  43.0155651  60.2645335  34.4301028
  44.9755642  64.0366019  25.1838013  44.5375072  63.3201878  24.7243650
  45.7166083  64.2642134  24.6223105  41.7656809  58.7262956  31.7050109
  40.9524674  59.0257126  32.1115301  42.2615803  58.3318644  32.4224591
  43.9165387  68.7220713  33.6384373  43.8741565  68.9481559  32.7092905
  44.8328085  68.4884087  33.7870175  47.3631020  59.1904780  40.5365003
  47.7180408  59.4176253  41.3959468  48.0103152  59.5223157  39.9142258
  53.0928757  62.3123216  31.2414332  52.9546656  62.5024812  30.3135521
  52.7364976  63.0742599  31.6982383  41.2570883  56.2981311  37.3211344
  41.8970263  56.1570070  36.6234307  40.4248414  56.0115825  36.9449946
  53.1198137  64.3799743  36.2525603  53.5534644  64.2875032  37.1008657
  53.8329718  64.3557243  35.6145619  42.0331187  65.5983742  33.4346336
  42.8271786  65.1034062  33.2328911  41.3222880  65.0701605  33.0714042
  46.8526032  67.9801837  37.7858704  46.9063054  68.5492773  38.5536420
  45.9840813  68.1503722  37.4212741  38.3413951  59.7426823  29.5106089
  37.4111539  59.6811279  29.7276051  38.4371423  59.2202776  28.7142730
  38.2599500  56.2681636  32.0984331  38.5206317  57.1826969  31.9893491
  39.0816672  55.8006079  32.2480943  39.7324425  57.6819393  39.2683155
  40.4047479  57.4736755  38.6195804  38.9054212  57.4841479  38.8288387
  53.9813686  64.4223444  38.7858489  54.1749577  65.3269254  39.0317764
  53.8814305  63.9630863  39.6197074  45.6349997  54.3081334  41.2848816
  44.9877912  55.0071284  41.1913292  46.4051013  54.7417478  41.6525064
  49.0428795  64.5730186  44.3599369  48.8914302  64.3440738  43.4429453
  49.0333475  65.5300788  44.3730714  45.8114132  62.1462099  39.3445636
  46.7406192  62.2973259  39.1714603  45.3905162  62.2346120  38.4894282
  44.6102463  66.1712764  37.1144173  44.4713549  65.8031548  37.9870111
  43.8217060  66.6860403  36.9428131  45.2050615  71.2721860  28.4569710
  45.3802371  70.8009903  29.2715332  44.5183403  71.8987626  28.6850971
  46.1607678  65.5494366  34.5033011  45.8257511  65.5095136  35.3990661
  45.6611624  64.8839082  34.0303421  40.1351922  60.9561996  40.0285592
  39.9971720  60.2242235  40.6297131  41.0456846  60.8670896  39.7469780
  49.0966870  62.8950401  24.7770071  48.4796041  62.1697229  24.6803123
  48.6283359  63.6559761  24.4337145  42.7634223  60.6681956  39.5169272
  43.4733842  60.0275148  39.4755890  42.7203531  60.9194850  40.4395453
  50.7521002  67.6049309  42.4375851  50.6933548  66.9208529  41.7706434
  51.1540520  68.3468299  41.9856477  41.4763157  57.6547173  41.3364911
  40.9400514  57.2037912  41.9886508  40.8879866  57.7893082  40.5935376
  39.7711701  74.4211223  35.2309570  40.0108299  75.0529747  35.9088589
  38.9280897  74.0699263  35.5174929  40.8865416  57.1135825  23.8991375
  40.0094882  56.9924626  23.5353622  41.3623169  56.3221903  23.6470264
  50.7538409  65.5688893  40.6689831  49.8665188  65.2314815  40.7916230
  51.3236960  64.8371924  40.9058596  32.4067556  61.9012985  33.9932882
  33.0938596  61.5874715  33.4053897  32.2515685  62.8054349  33.7200134
  37.2102278  56.7903181  38.4217906  37.1260467  56.1828851  37.6868316
  36.3884985  57.2812199  38.4227402  44.2839562  70.2290345  37.6351074
  44.2109734  71.0345317  38.1470378  43.8416956  70.4282311  36.8099095
  44.0729342  69.4662115  31.1453895  43.2896864  70.0083795  31.2392120
  44.7722087  69.9836095  31.5448137  47.3825992  55.2756745  33.7888101
  47.8794692  54.5226707  33.4689171  46.6112974  55.3121061  33.2231310
  55.2355750  60.9797110  35.4306392  55.2245626  61.8621826  35.0600325
  54.3673129  60.6268661  35.2360929  46.7438246  70.1277179  39.7909233
  47.4566218  70.7624644  39.7185134  46.2528275  70.2241045  38.9749234
  48.4655773  64.0328432  31.3626524  47.5312052  64.1529894  31.1931229
  48.6432441  63.1300899  31.0986534  43.9660961  57.4174128  33.5159785
  43.5958748  56.8645168  34.2040691  44.4620053  56.8132261  32.9634786
  51.8528324  59.8745751  31.8976558  52.3188776  60.7073743  31.8236861
  52.3035825  59.4090733  32.6021817  41.7950159  67.8771623  40.6114803
  42.4959619  68.5108106  40.7644198  41.3245274  68.2186354  39.8510443
  49.9204555  66.2189573  28.8962710  50.1964399  66.1046167  29.8056585
  49.0509054  65.8207057  28.8574884  49.8244987  52.2426338  35.9367460
  48.9108067  52.4730565  36.1049667  50.2538088  52.3264782  36.7881492
  49.5951445  60.4316230  38.4367354  48.9422896  60.6792138  37.7819807
  49.9731825  59.6180368  38.1029831  46.5558619  70.4675923  32.5395524
  46.7381014  69.6497579  33.0023276  47.3791605  70.6843616  32.1020414
  46.8900785  69.3944108  29.8010573  47.4188551  68.8836563  29.1880735
  47.1529004  69.0786639  30.6656106  45.6439018  61.1736041  44.9233391
  44.9679655  61.0730171  45.5935766  46.4666652  61.0175255  45.3869388
  37.3917878  67.4107978  37.5445906  37.9771314  66.6651666  37.6773810
  37.1942716  67.7211934  38.4282570  40.2456533  70.4459225  32.5608348
  39.5766908  70.9305353  32.0772389  40.1069402  70.6928446  33.4751727
  31.9835532  59.9813578  36.2650349  32.0219632  59.4477169  37.0587467
  31.4775825  59.4548783  35.6461326  44.3861801  72.4802969  39.1591007
  44.9380109  72.6434590  39.9240092  44.7267995  73.0707407  38.4871032
  39.3626295  54.8278118  39.7612892  39.4267621  55.6892949  39.3490289
  39.2993415  54.2152120  39.0285250  38.8378567  56.9001251  43.4085926
  39.4650606  56.5178328  44.0223450  37.9806486  56.6815453  43.7741618
  49.2372676  67.3064226  45.0139661  49.7812580  67.9194184  44.5194616
  48.6559521  67.8643805  45.5306674  35.6144110  58.7077680  29.3404281
  35.9097551  57.7988359  29.2871334  34.7132146  58.6865420  29.0185283
  47.5230189  70.4284944  36.1454689  47.3981328  69.6274684  35.6365635
  48.1809280  70.9231138  35.6568659  39.1438357  56.7833677  35.3231829
  38.4224943  57.3969644  35.1839303  39.9331613  57.3191442  35.2448475
  49.5865097  68.2293964  37.7734239  48.6395433  68.1099315  37.7012566
  49.9347870  67.3416462  37.8560501  41.9464670  54.1188103  41.5972481
  42.4699072  54.3650400  42.3598790  41.7277004  54.9508138  41.1775618
  37.3431951  56.3891778  29.4643606  37.0144658  55.5089157  29.2818712
  37.6971322  56.3339446  30.3519995  46.5911530  68.0246681  33.9738591
  46.4436493  67.0963388  34.1546161  47.4165024  68.0466771  33.4895667
  40.4573775  56.6764748  29.8319083  40.7969847  57.2050669  29.1097692
  40.9045895  57.0145154  30.6077650  50.1945652  68.8475239  35.0603464
  51.1192200  68.6418101  34.9227915  50.0260956  68.5991640  35.9692806
  43.1517215  55.0601798  39.2822152  42.8114036  54.2609611  39.6842831
  42.4456222  55.3603509  38.7098985  43.8033687  52.1451111  37.7349475
  44.6259757  51.6711589  37.6128365  44.0471751  52.9241594  38.2348161
  42.4441922  55.1739369  28.0312376  43.1650284  55.5520622  27.5276093
  41.8207226  55.8928246  28.1347354  46.5873045  55.8784518  28.9670709
  46.8036659  56.7609156  28.6659537  46.1067112  55.4870732  28.2376351
  41.3272266  58.8370231  35.5441453  41.1816847  59.1510534  36.4365735
  40.8497470  59.4555132  34.9912352  43.1868649  55.8272779  35.5922343
  43.1730218  54.9313873  35.2554641  43.9041077  55.8343443  36.2260629
  45.0394780  56.2610120  37.6375470  44.7812557  57.1827190  37.6359801
  44.5079820  55.8640554  38.3275934  49.9840968  69.3660907  30.4165556
  50.1577846  68.8007329  29.6639408  50.4769860  70.1661802  30.2345045
  35.8017928  61.3775576  38.4829114  35.2571396  62.1535384  38.6149389
  36.6797278  61.7246380  38.3248236  42.5905545  54.7087160  30.8609913
  42.7121456  53.7803806  31.0600800  42.3007587  54.7225846  29.9488228
  45.4596735  52.3942070  33.9976633  45.4818432  52.4581403  33.0428612
  45.8764794  51.5546579  34.1917139  55.8380360  62.1297330  32.0355855
  56.2811506  61.3804655  31.6374979  54.9606870  62.1207466  31.6529587
  50.9716141  68.6827671  27.5162454  51.6667045  69.3034364  27.7349768
  51.3139291  67.8323022  27.7914832  36.5883950  60.5045472  41.3759271
  35.8465686  60.6528107  41.9623902  36.2676694  60.7653738  40.5126021
  52.8707564  66.1327377  29.0449785  53.3958888  66.4714649  28.3199105
  52.7829917  65.1974392  28.8612919  44.5327613  70.0461450  41.1739661
  44.8414739  69.8010597  42.0462361  45.3303095  70.2508089  40.6858531
  44.5548225  72.1999360  33.4045038  44.1153215  71.7075739  34.0977894
  45.3056342  71.6572328  33.1637113  37.0340564  68.3910901  33.4069666
  37.8598584  68.0914673  33.0268309  36.6834616  67.6218523  33.8559455
  42.0022097  67.7437369  35.4767339  41.3802106  67.0808074  35.1769567
  42.6726964  67.7698501  34.7940987  35.2349169  66.3097227  34.3658599
  34.3981077  65.8819402  34.1842601  35.2072814  66.5029671  35.3029391
  42.0746624  56.2219157  45.0699845  42.1234780  57.0981280  44.6877615
  42.6169139  55.6796550  44.4971489  52.5601470  66.7660280  44.3500983
  51.7697014  66.7484419  43.8105482  52.3234825  67.3048574  45.1050019
  52.6799345  63.6152747  41.6633711  52.7297350  63.4502754  42.6049234
  52.5713268  62.7480006  41.2731592  41.5635604  66.2941292  28.9525800
  41.7123724  66.9776757  28.2992473  42.3702047  66.2746382  29.4675256
  49.9703107  59.5983675  42.9793018  50.8712970  59.4590140  42.6877016
  50.0451082  59.7638129  43.9191195  44.3045913  56.9750529  41.8246204
  43.4349222  57.2684095  41.5528793  44.5405393  57.5590974  42.5453468
  54.1817542  66.0349688  41.9075733  53.8902350  66.3979669  42.7439194
  53.5689673  65.3216696  41.7289065  55.3813224  63.6002568  34.4278303
  56.2160116  64.0392372  34.5915863  55.5172353  63.1241221  33.6086549
  52.4304730  61.1582303  40.3755791  52.9058852  61.3509949  39.5674642
  51.5070296  61.2141489  40.1299174  39.3188237  62.3206470  29.9586869
  39.0734279  61.4168800  30.1567079  39.4884151  62.3223620  29.0166347
  47.0084947  53.1930146  39.3411625  47.5266890  53.9291173  39.0158113
  46.6540079  53.4994140  40.1758384  38.5883884  58.0534828  27.4573030
  37.8953129  58.1279183  26.8013066  38.3435636  57.2895171  27.9794547
  47.2597541  49.6130429  34.8612521  47.5399295  48.9453618  35.4872948
  48.0448148  49.8059524  34.3487185  45.0631009  68.7889423  26.4237547
  44.4904976  69.4079610  25.9708019  45.6363803  69.3388784  26.9577469
  51.1306399  58.0348063  38.6084096  52.0823822  58.1346161  38.6296320
  50.9609850  57.2426331  39.1182181  49.1520779  55.1203646  38.7943497
  48.5570711  55.4008659  38.0989986  48.8670475  55.6097547  39.5660238
  48.2828269  69.0726573  27.5546130  49.2158942  69.0072135  27.7579005
  48.1951482  69.9082840  27.0960662  50.9116286  68.3892443  24.5150077
  50.8329917  68.0552307  25.4085835  51.7325953  68.8814211  24.5141550
  53.6094477  61.2554183  37.7226396  53.5770797  60.3170183  37.9086080
  54.2195101  61.3338219  36.9892221  45.4477808  60.1250236  23.7653600
  46.3936913  59.9956444  23.8342018  45.0692053  59.3864897  24.2423028
  53.7588965  58.0465226  37.7684679  53.2428014  57.2623683  37.5814608
  54.6428914  57.7183943  37.9331199  51.4199692  51.7906242  33.7280492
  51.2224513  51.4821330  34.6123824  52.0299398  52.5167880  33.8578422
  59.4271027  62.3170189  36.8632433  60.1574415  62.0555478  37.4240136
  58.8177972  61.5798911  36.9034501  57.5086324  60.4578052  37.4606884
  56.7819487  60.3234017  36.8523375  57.0933611  60.7654881  38.2663602
  45.3316500  64.1767982  45.2254257  46.2519510  64.3546581  45.4194303
  45.2966083  63.2324027  45.0733956  43.6320725  58.0500212  23.7008485
  42.7252180  57.7533325  23.7771199  43.9096706  57.7530030  22.8342771
  34.5498665  59.3706575  34.1507532  34.2301450  58.5171884  33.8581906
  34.0032094  59.5855153  34.9065499  38.3278573  62.0869016  37.8677038
  38.5464583  63.0186124  37.8865072  38.7404347  61.7276991  38.6531842
  45.2482791  52.5937102  29.8552726  44.4383519  52.2484187  30.2307973
  45.9367208  52.2844645  30.4440338  47.1773339  51.6715148  31.4777023
  47.7304378  52.0910602  32.1367046  47.4143425  50.7450897  31.5199979
  43.2006438  57.6602222  47.2579787  43.1003165  58.6096579  47.1891878
  42.9827980  57.3320461  46.3855857  42.4019510  54.9087147  23.8420464
  43.2638674  55.2342045  24.1016282  42.5869854  54.1218643  23.3293530
  34.4186925  62.9909487  36.1200653  33.7250397  62.5763440  35.6070608
  35.1659916  63.0330023  35.5234072  50.5552146  53.7815674  30.9855687
  49.9750815  54.4400478  30.6033740  50.2888079  52.9593018  30.5743105
  49.0055712  53.1820731  33.1877008  49.5055491  53.2937266  32.3791326
  49.6491320  52.8781784  33.8277816  43.0637708  61.0899361  46.0744849
  42.5804790  61.8899721  46.2808738  43.1498647  61.1007306  45.1212293
  36.3323668  62.9227741  33.9966668  36.3094356  63.0215428  33.0448551
  36.6424304  63.7692891  34.3183834  38.9911046  64.9803896  38.1113282
  39.9454299  64.9487838  38.0443214  38.7923569  64.5194519  38.9263508
  39.5810428  63.5505012  40.6784080  40.4003317  64.0449090  40.7018917
  39.8547236  62.6336980  40.6501648  49.3377024  55.9415764  30.0412036
  48.4502879  56.2265415  29.8232230  49.7531013  55.7809527  29.1939312
  52.6891560  55.9662285  33.7566375  53.4651950  56.4558737  34.0290992
  51.9639694  56.3920339  34.2138244  55.1264119  56.6789904  34.8140315
  55.7208610  56.4385640  34.1033624  55.1990703  55.9597035  35.4413852
  37.3461275  70.5223515  35.1283480  37.2115742  69.7623916  34.5621478
  36.9293337  71.2464415  34.6612269  48.4820238  65.7060439  24.1360056
  49.1856088  65.9110441  24.7517711  47.7582886  66.2737201  24.4009139
  49.3118048  61.4570300  30.2562326  49.2553249  61.9138851  29.4169958
  49.8646390  60.6960985  30.0785169  53.1222854  57.2460032  31.0812445
  52.8659788  56.8456667  31.9120653  52.4975722  57.9603826  30.9562584
  57.4335192  59.9856105  33.5883737  56.8734750  60.0549294  34.3615299
  56.8278695  59.8097090  32.8683233  40.5030400  71.4192832  35.3401923
  40.3862785  72.3638265  35.2380613  39.6822847  71.1166394  35.7287722
  50.3906935  66.1442968  26.1858516  51.2252539  65.7124166  26.0035990
  50.2291278  65.9724982  27.1135410  50.0452827  62.6475081  27.5514855
  49.9901631  62.4819353  26.6103299  49.4198882  63.3551114  27.7077045
  34.8345342  57.8843146  41.3776277  35.4804206  57.3742100  41.8663502
  34.6262493  58.6211827  41.9519702  47.3598734  64.9523993  46.8768418
  48.2289894  65.1264645  46.5155053  46.8805486  65.7718410  46.7544147
  43.3548953  52.1483190  27.1300173  43.3427622  53.0925030  27.2868444
  44.2472374  51.9653336  26.8359635  41.5284915  72.0721094  38.5557851
  42.4312161  72.1044704  38.8724346  41.3022285  71.1421545  38.5704187
  43.2838517  70.8252081  35.2167930  42.3334148  70.8253942  35.1032302
  43.5871003  70.0784815  34.7003965  47.1701072  48.7425967  31.3846110
  46.4033468  48.1884454  31.5302792  47.5811777  48.8147836  32.2460262
  39.1742833  55.0310763  45.4751291  40.0374295  54.6747567  45.6854616
  38.6008244  54.6924657  46.1626696  59.0191210  76.6612619  36.2813692
  59.6569620  76.5419366  35.5777032  58.9012053  77.6093463  36.3401645
  55.8280916  76.6140047  36.2175217  55.4899428  76.4981112  35.3295752
  56.6970685  76.2131212  36.1976223  51.6867732  78.4675523  32.2072108
  51.1232597  78.3765460  31.4388396  51.5720127  77.6475428  32.6874601
  56.3100699  77.7674899  42.1761423  56.2989340  77.3727697  41.3041926
  56.4721339  77.0340971  42.7695194  49.2332164  79.9626715  35.0456328
  50.0253456  79.6217540  34.6302628  49.4728814  80.0721690  35.9658482
  57.2667291  82.1346491  27.5186573  56.6155270  82.7200572  27.1320587
  58.0611654  82.6652686  27.5781610  51.1922918  79.2235628  27.9173707
  51.9653794  78.6764615  27.7786583  51.5448317  80.0879878  28.1288169
  53.0307960  80.5512011  41.1240607  52.7397826  81.4557641  41.0087273
  53.6664945  80.5928538  41.8384676  53.9564167  77.9288859  37.7141966
  54.5527740  77.7044882  36.9998929  54.0139139  77.1873605  38.3167414
  53.5289196  75.3828294  25.5492157  53.7814716  74.8609816  24.7875620
  52.5913755  75.2194440  25.6518841  58.5732479  74.3864073  33.3566900
  59.3595568  73.9683496  33.0057317  58.8371183  75.2910165  33.5248549
  58.7442556  79.8236923  28.0555557  58.1088389  79.8971550  28.7676462
  58.4139962  80.4130522  27.3774636  63.9740906  74.3239306  34.2599879
  64.7066078  73.7538523  34.4937708  63.2180261  73.9360906  34.7006384
  53.2485484  77.2856400  27.7516532  53.1321743  76.6101304  28.4197616
  53.3587744  76.7988774  26.9348685  55.5917025  76.7466548  31.4563221
  55.2275233  76.2197168  32.1676143  56.4484141  76.3565017  31.2829707
  61.4966326  68.0360880  38.7194488  61.1649651  68.9056291  38.4955703
  60.9011939  67.7197164  39.3988518  55.2322512  71.7756447  26.4524570
  55.3996915  72.6436684  26.8195041  55.0419681  71.9383729  25.5285859
  57.9897846  80.2373426  38.1190400  57.6898569  81.1398465  38.0106207
  57.6448905  79.9705609  38.9711553  51.4410327  76.6887223  34.1527105
  50.5160823  76.5563437  34.3604796  51.6894740  77.4681442  34.6497047
  61.3894989  72.7555966  35.7987838  60.4811867  72.6871375  35.5046599
  61.3382585  73.2327911  36.6269663  55.2111733  74.2314105  27.4371237
  55.0911358  74.6771155  28.2756717  54.5164322  74.5799422  26.8784775
  48.8019138  76.3320497  34.9870894  48.9311519  76.5854975  35.9010305
  48.1216589  76.9248205  34.6675549  52.9718625  87.0017746  31.0861368
  52.8942655  87.9525572  31.1649849  52.3680269  86.6563619  31.7436294
  55.4635855  74.1745612  43.7422735  54.6869189  74.7339532  43.7325599
  56.1026418  74.6602395  44.2637605  63.2556636  70.9572405  37.5765711
  62.6131016  71.2504938  36.9305506  62.7511564  70.8425325  38.3818908
  60.9096799  74.7035578  28.2651571  61.8214655  74.9362965  28.0899268
  60.4006446  75.2872622  27.7026649  53.7182227  76.9831065  43.3040702
  54.4596912  77.5216109  43.0275525  53.0119213  77.6097354  43.4612254
  59.1937567  79.1260206  41.9012863  59.6020923  78.6842616  41.1567496
  58.4714829  78.5512833  42.1547056  55.5468637  74.0632812  39.2746420
  56.3929832  74.4872226  39.4181069  55.4867275  73.4066437  39.9684983
  59.5166382  79.6861396  35.6565152  58.8875244  79.8507110  34.9541220
  59.1292044  80.1003006  36.4276116  63.3955614  80.6215834  33.0109516
  62.7106652  81.0014736  32.4606549  63.4799463  81.2311161  33.7441464
  58.6968082  71.7237181  40.9327594  58.4529014  72.4779241  40.3961870
  58.9728013  72.1022528  41.7674841  60.6506545  78.2675793  39.6104860
  60.8623440  78.9107553  38.9339241  60.6036293  77.4338110  39.1426790
  58.2532774  70.8793614  36.5141432  57.3917253  71.1774867  36.8058169
  58.2795209  71.0964013  35.5822464  55.0694344  79.4235804  32.9215237
  55.5332689  79.7023507  32.1319860  54.8051142  78.5219249  32.7388328
  51.9618425  78.9707286  35.8595001  52.5319782  79.3994554  35.2212485
  52.5526536  78.6889871  36.5579186  54.0063230  75.5458957  29.7304802
  54.7087273  75.9980000  30.1978729  53.6743858  74.9042776  30.3584696
  52.4543591  74.1370713  44.1056012  51.8242252  74.8186994  44.3391409
  52.3479679  74.0253795  43.1609150  47.7488564  73.8042509  35.0321936
  46.9587618  74.0600038  34.5562047  48.2399811  74.6190847  35.1373977
  61.7652373  81.1447749  37.7827217  62.5869817  80.7427936  37.5009898
  61.7614776  81.0415983  38.7343333  49.7003309  74.1687089  31.9905413
  48.9034472  74.2805783  32.5088908  49.4728901  74.5073741  31.1246303
  55.5308977  80.6931792  39.9387927  55.5953409  81.1552199  40.7746099
  54.8219900  80.0629157  40.0670237  46.0326267  74.0573000  37.4636927
  46.2834305  74.9420010  37.7294503  46.5685815  73.8777601  36.6912019
  69.8558366  77.4886497  34.1312188  69.1022075  76.9193895  33.9756193
  69.9905907  77.4549162  35.0782823  55.2456994  82.3599899  29.8066908
  55.1102669  83.2051435  30.2351755  55.7866807  82.5619177  29.0432841
  51.7324334  68.4391479  46.4681263  51.3391279  67.8857678  47.1428907
  52.5490474  68.7502058  46.8587780  48.6986392  79.8775337  30.3794833
  49.2110912  80.6718588  30.5300397  49.3509104  79.1801628  30.3128434
  50.5081276  82.9941094  32.4617586  50.6847905  83.9159058  32.2738570
  51.3038110  82.6799513  32.8911966  54.6492295  69.8549358  44.0601519
  55.3902008  70.4556511  43.9805982  54.8810218  69.1126996  43.5019562
  49.7933633  75.0405726  42.3379749  49.6787148  74.1390983  42.6386848
  48.9378151  75.2869422  41.9864566  56.8725471  82.9823466  43.9367250
  56.4289325  82.1959844  43.6188154  57.5342684  83.1702616  43.2711141
  51.6312592  84.5119268  38.4627928  52.1820017  84.3836331  37.6904922
  50.7924068  84.8114157  38.1122821  58.9706709  83.2626266  41.9648651
  58.9525184  84.0835147  41.4728920  59.8926629  83.1380341  42.1898792
  55.4279763  80.7770395  42.8072159  55.9608100  80.0158684  42.5771467
  54.8993844  80.4844047  43.5496314  58.5949458  65.8830461  38.3365801
  58.2513727  66.7732103  38.2604912  58.9628420  65.6932119  37.4735386
  46.6635308  78.2063992  31.1554403  47.5010530  78.6161000  30.9388111
  46.8413576  77.2663434  31.1254597  58.5599741  75.8739072  26.8438236
  58.0446364  76.6443677  27.0826624  58.2877049  75.2004209  27.4671298
  56.1446852  70.7188773  31.9023475  55.2888448  70.3295624  31.7229113
  56.5573803  70.7980734  31.0423260  57.6745998  68.2535116  36.3015034
  57.1710794  68.2165252  35.4882840  57.9676605  69.1627859  36.3611691
  53.9188884  68.3373846  35.3081216  54.7841881  68.1416655  34.9487106
  53.9866393  68.1084198  36.2350573  63.5334015  78.6271427  28.7791410
  62.7563457  78.2882587  28.3346572  64.2125496  78.6324050  28.1046375
  58.3486044  73.7466165  28.6698017  58.0436179  74.0612314  29.5208161
  59.3016486  73.8247584  28.7125350  56.7932476  79.9056388  30.3190971
  56.2653837  79.1709147  30.0064209  56.2919978  80.6831064  30.0730940
  61.7725322  78.1005408  35.4358018  61.1148996  78.7904670  35.5238146
  62.5765721  78.4901840  35.7792004  51.5251203  70.5676054  32.6797583
  52.0994955  70.3451236  31.9470776  52.1122186  70.6364749  33.4326184
  60.5830780  76.4549781  33.4861959  61.0962662  77.0879773  33.9883669
  61.2332004  75.8550977  33.1205319  51.8520790  72.5980515  26.6993468
  51.0158103  72.9355202  27.0202743  51.7125560  72.4629495  25.7620605
  53.8273871  67.4417303  31.4072652  53.1738283  67.1266320  30.7829267
  53.7854345  66.8193043  32.1332475  54.9385076  77.7236598  23.3225944
  54.0312137  77.4925852  23.5217093  55.4356108  76.9274217  23.5099926
  57.8453155  86.4334105  26.2422631  57.1714853  86.7365802  26.8507588
  58.2318977  87.2363186  25.8928088  57.0611611  73.9299237  35.7320300
  56.1434173  74.1514184  35.5741988  57.4771755  74.0045547  34.8732007
  57.8446659  75.3290652  30.8622980  58.5918478  75.8412049  30.5530102
  58.1138249  75.0074705  31.7227374  56.1173309  77.8249193  27.8449935
  55.2084528  77.5408226  27.9422404  56.1468393  78.2448272  26.9853241
  61.3492577  81.4355782  31.6141102  60.8954904  80.5946692  31.6706293
  60.7186543  82.0717181  31.9515882  60.2925496  72.3647768  32.8441770
  59.5548253  71.8525155  33.1752012  60.5452270  71.9248150  32.0325046
  59.7925516  83.2732279  32.5490920  60.0848490  83.8337336  31.8303286
  60.3024136  83.5660840  33.3044079  60.3937123  65.1424020  33.4383539
  60.6996000  64.2821384  33.1509454  61.1189728  65.7341641  33.2382533
  46.6861480  75.5454707  31.8265137  46.4885879  74.9524068  31.1016203
  46.1308144  75.2406917  32.5441076  54.6658203  75.4377814  33.9459730
  54.7206813  74.4851650  33.8702206  53.8549405  75.5937253  34.4301028
  55.8149397  79.3657937  25.1838013  55.3768827  78.6493796  24.7243650
  56.5559838  79.5934051  24.6223105  52.6050563  74.0554873  31.7050109
  51.7918429  74.3549044  32.1115301  53.1009557  73.6610562  32.4224591
  54.7559141  84.0512630  33.6384373  54.7135320  84.2773477  32.7092905
  55.6721840  83.8176005  33.7870175  58.2024775  74.5196698  40.5365003
  58.5574163  74.7468171  41.3959468  58.8496906  74.8515075  39.9142258
  63.9322512  77.6415134  31.2414332  63.7940410  77.8316730  30.3135521
  63.5758731  78.4034516  31.6982383  52.0964638  71.6273229  37.3211344
  52.7364017  71.4861988  36.6234307  51.2642168  71.3407742  36.9449946
  63.9591891  79.7091661  36.2525603  64.3928398  79.6166950  37.1008657
  64.6723472  79.6849161  35.6145619  52.8724942  80.9275659  33.4346336
  53.6665540  80.4325979  33.2328911  52.1616634  80.3993522  33.0714042
  57.6919786  83.3093755  37.7858704  57.7456809  83.8784691  38.5536420
  56.8234568  83.4795640  37.4212741  49.1807705  75.0718741  29.5106089
  48.2505293  75.0103196  29.7276051  49.2765177  74.5494694  28.7142730
  49.0993254  71.5973554  32.0984331  49.3600072  72.5118887  31.9893491
  49.9210427  71.1297996  32.2480943  50.5718180  73.0111311  39.2683155
  51.2441233  72.8028673  38.6195804  49.7447966  72.8133397  38.8288387
  64.8207441  79.7515361  38.7858489  65.0143331  80.6561172  39.0317764
  64.7208059  79.2922780  39.6197074  56.4743752  69.6373252  41.2848816
  55.8271667  70.3363202  41.1913292  57.2444767  70.0709396  41.6525064
  59.8822550  79.9022104  44.3599369  59.7308056  79.6732656  43.4429453
  59.8727229  80.8592705  44.3730714  56.6507886  77.4754017  39.3445636
  57.5799946  77.6265176  39.1714603  56.2298916  77.5638038  38.4894282
  55.4496218  81.5004681  37.1144173  55.3107303  81.1323466  37.9870111
  54.6610814  82.0152321  36.9428131  56.0444370  86.6013778  28.4569710
  56.2196125  86.1301821  29.2715332  55.3577158  87.2279544  28.6850971
  57.0001433  80.8786284  34.5033011  56.6651266  80.8387054  35.3990661
  56.5005379  80.2131000  34.0303421  50.9745677  76.2853914  40.0285592
  50.8365475  75.5534153  40.6297131  51.8850600  76.1962814  39.7469780
  59.9360625  78.2242318  24.7770071  59.3189795  77.4989146  24.6803123
  59.4677113  78.9851679  24.4337145  53.6027978  75.9973873  39.5169272
  54.3127596  75.3567065  39.4755890  53.5597286  76.2486768  40.4395453
  61.5914756  82.9341227  42.4375851  61.5327302  82.2500447  41.7706434
  61.9934275  83.6760217  41.9856477  52.3156912  72.9839091  41.3364911
  51.7794269  72.5329830  41.9886508  51.7273620  73.1185000  40.5935376
  50.6105455  89.7503140  35.2309570  50.8502053  90.3821665  35.9088589
  49.7674652  89.3991180  35.5174929  51.7259170  72.4427743  23.8991375
  50.8488637  72.3216543  23.5353622  52.2016924  71.6513821  23.6470264
  61.5932164  80.8980811  40.6689831  60.7058942  80.5606732  40.7916230
  62.1630715  80.1663842  40.9058596  43.2461311  77.2304902  33.9932882
  43.9332350  76.9166632  33.4053897  43.0909439  78.1346267  33.7200134
  48.0496033  72.1195099  38.4217906  47.9654222  71.5120768  37.6868316
  47.2278739  72.6104117  38.4227402  55.1233317  85.5582263  37.6351074
  55.0503488  86.3637234  38.1470378  54.6810710  85.7574229  36.8099095
  54.9123097  84.7954033  31.1453895  54.1290618  85.3375713  31.2392120
  55.6115842  85.3128013  31.5448137  58.2219747  70.6048662  33.7888101
  58.7188446  69.8518625  33.4689171  57.4506728  70.6412979  33.2231310
  66.0749504  76.3089028  35.4306392  66.0639380  77.1913743  35.0600325
  65.2066883  75.9560579  35.2360929  57.5832000  85.4569097  39.7909233
  58.2959973  86.0916562  39.7185134  57.0922029  85.5532963  38.9749234
  59.3049527  79.3620350  31.3626524  58.3705806  79.4821812  31.1931229
  59.4826196  78.4592816  31.0986534  54.8054715  72.7466045  33.5159785
  54.4352503  72.1937086  34.2040691  55.3013808  72.1424179  32.9634786
  62.6922079  75.2037669  31.8976558  63.1582531  76.0365660  31.8236861
  63.1429579  74.7382650  32.6021817  52.6343914  83.2063540  40.6114803
  53.3353373  83.8400023  40.7644198  52.1639029  83.5478272  39.8510443
  60.7598310  81.5481490  28.8962710  61.0358154  81.4338085  29.8056585
  59.8902809  81.1498975  28.8574884  60.6638741  67.5718256  35.9367460
  59.7501821  67.8022483  36.1049667  61.0931843  67.6556700  36.7881492
  60.4345200  75.7608148  38.4367354  59.7816650  76.0084055  37.7819807
  60.8125580  74.9472286  38.1029831  57.3952374  85.7967841  32.5395524
  57.5774768  84.9789497  33.0023276  58.2185360  86.0135533  32.1020414
  57.7294539  84.7236026  29.8010573  58.2582306  84.2128481  29.1880735
  57.9922759  84.4078556  30.6656106  56.4832773  76.5027959  44.9233391
  55.8073410  76.4022088  45.5935766  57.3060407  76.3467173  45.3869388
  48.2311632  82.7399895  37.5445906  48.8165069  81.9943583  37.6773810
  48.0336470  83.0503852  38.4282570  51.0850287  85.7751143  32.5608348
  50.4160663  86.2597270  32.0772389  50.9463157  86.0220363  33.4751727
  42.8229287  75.3105496  36.2650349  42.8613386  74.7769086  37.0587467
  42.3169580  74.7840701  35.6461326  55.2255556  87.8094886  39.1591007
  55.7773864  87.9726508  39.9240092  55.5661749  88.3999324  38.4871032
  50.2020049  70.1570036  39.7612892  50.2661376  71.0184867  39.3490289
  50.1387169  69.5444038  39.0285250  49.6772322  72.2293169  43.4085926
  50.3044360  71.8470246  44.0223450  48.8200240  72.0107371  43.7741618
  60.0766430  82.6356144  45.0139661  60.6206334  83.2486102  44.5194616
  59.4953275  83.1935722  45.5306674  46.4537864  74.0369598  29.3404281
  46.7491305  73.1280276  29.2871334  45.5525900  74.0157337  29.0185283
  58.3623943  85.7576862  36.1454689  58.2375083  84.9566602  35.6365635
  59.0203034  86.2523055  35.6568659  49.9832111  72.1125594  35.3231829
  49.2618697  72.7261562  35.1839303  50.7725367  72.6483359  35.2448475
  60.4258851  83.5585882  37.7734239  59.4789187  83.4391233  37.7012566
  60.7741625  82.6708380  37.8560501  52.7858425  69.4480021  41.5972481
  53.3092827  69.6942317  42.3598790  52.5670758  70.2800056  41.1775618
  48.1825706  71.7183695  29.4643606  47.8538412  70.8381074  29.2818712
  48.5365077  71.6631364  30.3519995  57.4305285  83.3538598  33.9738591
  57.2830247  82.4255306  34.1546161  58.2558778  83.3758689  33.4895667
  51.2967529  72.0056665  29.8319083  51.6363602  72.5342587  29.1097692
  51.7439650  72.3437071  30.6077650  61.0339407  84.1767157  35.0603464
  61.9585954  83.9710018  34.9227915  60.8654710  83.9283558  35.9692806
  53.9910970  70.3893716  39.2822152  53.6507790  69.5901529  39.6842831
  53.2849976  70.6895427  38.7098985  54.6427442  67.4743028  37.7349475
  55.4653511  67.0003507  37.6128365  54.8865505  68.2533512  38.2348161
  53.2835676  70.5031287  28.0312376  54.0044039  70.8812540  27.5276093
  52.6600980  71.2220164  28.1347354  57.4266799  71.2076436  28.9670709
  57.6430413  72.0901074  28.6659537  56.9460866  70.8162649  28.2376351
  52.1666020  74.1662149  35.5441453  52.0210601  74.4802452  36.4365735
  51.6891224  74.7847049  34.9912352  54.0262403  71.1564697  35.5922343
  54.0123972  70.2605790  35.2554641  54.7434831  71.1635361  36.2260629
  55.8788534  71.5902037  37.6375470  55.6206312  72.5119108  37.6359801
  55.3473574  71.1932472  38.3275934  60.8234723  84.6952824  30.4165556
  60.9971600  84.1299247  29.6639408  61.3163614  85.4953719  30.2345045
  46.6411683  76.7067493  38.4829114  46.0965151  77.4827301  38.6149389
  47.5191033  77.0538298  38.3248236  53.4299299  70.0379077  30.8609913
  53.5515210  69.1095723  31.0600800  53.1401342  70.0517763  29.9488228
  56.2990490  67.7233988  33.9976633  56.3212187  67.7873321  33.0428612
  56.7158549  66.8838496  34.1917139  66.6774114  77.4589247  32.0355855
  67.1205260  76.7096573  31.6374979  65.8000624  77.4499384  31.6529587
  61.8109895  84.0119589  27.5162454  62.5060800  84.6326281  27.7349768
  62.1533045  83.1614940  27.7914832  47.4277705  75.8337390  41.3759271
  46.6859441  75.9820025  41.9623902  47.1070449  76.0945655  40.5126021
  63.7101318  81.4619294  29.0449785  64.2352643  81.8006567  28.3199105
  63.6223671  80.5266310  28.8612919  55.3721367  85.3753368  41.1739661
  55.6808494  85.1302515  42.0462361  56.1696849  85.5800006  40.6858531
  55.3941979  87.5291278  33.4045038  54.9546969  87.0367656  34.0977894
  56.1450096  86.9864245  33.1637113  47.8734318  83.7202818  33.4069666
  48.6992338  83.4206590  33.0268309  47.5228370  82.9510441  33.8559455
  52.8415851  83.0729287  35.4767339  52.2195861  82.4099992  35.1769567
  53.5120718  83.0990419  34.7940987  46.0742923  81.6389145  34.3658599
  45.2374832  81.2111319  34.1842601  46.0466569  81.8321588  35.3029391
  52.9140379  71.5511075  45.0699845  52.9628534  72.4273197  44.6877615
  53.4562893  71.0088468  44.4971489  63.3995225  82.0952198  44.3500983
  62.6090768  82.0776337  43.8105482  63.1628579  82.6340492  45.1050019
  63.5193100  78.9444664  41.6633711  63.5691104  78.7794672  42.6049234
  63.4107023  78.0771923  41.2731592  52.4029358  81.6233210  28.9525800
  52.5517479  82.3068674  28.2992473  53.2095802  81.6038300  29.4675256
  60.8096862  74.9275592  42.9793018  61.7106725  74.7882057  42.6877016
  60.8844836  75.0930047  43.9191195  55.1439667  72.3042447  41.8246204
  54.2742977  72.5976013  41.5528793  55.3799148  72.8882892  42.5453468
  65.0211296  81.3641606  41.9075733  64.7296105  81.7271586  42.7439194
  64.4083428  80.6508614  41.7289065  66.2206979  78.9294486  34.4278303
  67.0553870  79.3684290  34.5915863  66.3566108  78.4533139  33.6086549
  63.2698485  76.4874220  40.3755791  63.7452606  76.6801867  39.5674642
  62.3464050  76.5433406  40.1299174  50.1581991  77.6498388  29.9586869
  49.9128033  76.7460718  30.1567079  50.3277906  77.6515538  29.0166347
  57.8478701  68.5222064  39.3411625  58.3660645  69.2583091  39.0158113
  57.4933834  68.8286057  40.1758384  49.4277639  73.3826745  27.4573030
  48.7346884  73.4571100  26.8013066  49.1829391  72.6187089  27.9794547
  58.0991295  64.9422347  34.8612521  58.3793049  64.2745536  35.4872948
  58.8841902  65.1351442  34.3487185  55.9024764  84.1181340  26.4237547
  55.3298731  84.7371528  25.9708019  56.4757557  84.6680702  26.9577469
  61.9700154  73.3639981  38.6084096  62.9217577  73.4638078  38.6296320
  61.8003604  72.5718249  39.1182181  59.9914533  70.4495564  38.7943497
  59.3964465  70.7300576  38.0989986  59.7064230  70.9389465  39.5660238
  59.1222024  84.4018491  27.5546130  60.0552697  84.3364052  27.7579005
  59.0345236  85.2374757  27.0960662  61.7510040  83.7184361  24.5150077
  61.6723672  83.3844225  25.4085835  62.5719707  84.2106129  24.5141550
  64.4488231  76.5846100  37.7226396  64.4164552  75.6462101  37.9086080
  65.0588855  76.6630137  36.9892221  56.2871562  75.4542153  23.7653600
  57.2330667  75.3248361  23.8342018  55.9085807  74.7156815  24.2423028
  64.5982720  73.3757144  37.7684679  64.0821769  72.5915600  37.5814608
  65.4822668  73.0475860  37.9331199  62.2593447  67.1198159  33.7280492
  62.0618268  66.8113247  34.6123824  62.8693152  67.8459798  33.8578422
  70.2664781  77.6462107  36.8632433  70.9968170  77.3847395  37.4240136
  69.6571727  76.9090829  36.9034501  68.3480078  75.7869970  37.4606884
  67.6213242  75.6525935  36.8523375  67.9327365  76.0946798  38.2663602
  56.1710255  79.5059899  45.2254257  57.0913264  79.6838498  45.4194303
  56.1359838  78.5615945  45.0733956  54.4714479  73.3792130  23.7008485
  53.5645935  73.0825242  23.7771199  54.7490460  73.0821948  22.8342771
  45.3892420  74.6998493  34.1507532  45.0695204  73.8463801  33.8581906
  44.8425848  74.9147071  34.9065499  49.1672327  77.4160934  37.8677038
  49.3858337  78.3478042  37.8865072  49.5798101  77.0568908  38.6531842
  56.0876545  67.9229019  29.8552726  55.2777273  67.5776104  30.2307973
  56.7760962  67.6136563  30.4440338  58.0167093  67.0007066  31.4777023
  58.5698132  67.4202520  32.1367046  58.2537180  66.0742814  31.5199979
  54.0400193  72.9894140  47.2579787  53.9396920  73.9388497  47.1891878
  53.8221735  72.6612379  46.3855857  53.2413264  70.2379065  23.8420464
  54.1032428  70.5633963  24.1016282  53.4263608  69.4510561  23.3293530
  45.2580680  78.3201404  36.1200653  44.5644151  77.9055357  35.6070608
  46.0053671  78.3621941  35.5234072  61.3945901  69.1107591  30.9855687
  60.8144570  69.7692395  30.6033740  61.1281833  68.2884936  30.5743105
  59.8449467  68.5112649  33.1877008  60.3449245  68.6229184  32.3791326
  60.4885075  68.2073702  33.8277816  53.9031463  76.4191279  46.0744849
  53.4198544  77.2191639  46.2808738  53.9892402  76.4299223  45.1212293
  47.1717422  78.2519658  33.9966668  47.1488110  78.3507346  33.0448551
  47.4818059  79.0984809  34.3183834  49.8304800  80.3095813  38.1113282
  50.7848054  80.2779756  38.0443214  49.6317324  79.8486437  38.9263508
  50.4204182  78.8796929  40.6784080  51.2397071  79.3741008  40.7018917
  50.6940990  77.9628897  40.6501648  60.1770779  71.2707682  30.0412036
  59.2896634  71.5557332  29.8232230  60.5924768  71.1101445  29.1939312
  63.5285315  71.2954203  33.7566375  64.3045705  71.7850655  34.0290992
  62.8033449  71.7212257  34.2138244  65.9657873  72.0081822  34.8140315
  66.5602364  71.7677558  34.1033624  66.0384457  71.2888952  35.4413852
  48.1855029  85.8515433  35.1283480  48.0509497  85.0915834  34.5621478
  47.7687091  86.5756333  34.6612269  59.3213992  81.0352356  24.1360056
  60.0249842  81.2402359  24.7517711  58.5976641  81.6029118  24.4009139
  60.1511802  76.7862218  30.2562326  60.0947004  77.2430769  29.4169958
  60.7040145  76.0252902  30.0785169  63.9616608  72.5751949  31.0812445
  63.7053542  72.1748585  31.9120653  63.3369476  73.2895743  30.9562584
  68.2728946  75.3148023  33.5883737  67.7128504  75.3841212  34.3615299
  67.6672449  75.1389007  32.8683233  51.3424155  86.7484750  35.3401923
  51.2256539  87.6930182  35.2380613  50.5216601  86.4458311  35.7287722
  61.2300689  81.4734886  26.1858516  62.0646293  81.0416084  26.0035990
  61.0685032  81.3016899  27.1135410  60.8846582  77.9766999  27.5514855
  60.8295385  77.8111270  26.6103299  60.2592637  78.6843032  27.7077045
  45.6739097  73.2135063  41.3776277  46.3197960  72.7034017  41.8663502
  45.4656248  73.9503745  41.9519702  58.1992489  80.2815911  46.8768418
  59.0683648  80.4556563  46.5155053  57.7199240  81.1010328  46.7544147
  54.1942707  67.4775108  27.1300173  54.1821377  68.4216948  27.2868444
  55.0866129  67.2945253  26.8359635  52.3678669  87.4013012  38.5557851
  53.2705916  87.4336622  38.8724346  52.1416039  86.4713463  38.5704187
  54.1232271  86.1543998  35.2167930  53.1727902  86.1545860  35.1032302
  54.4264757  85.4076733  34.7003965  58.0094827  64.0717884  31.3846110
  57.2427222  63.5176371  31.5302792  58.4205531  64.1439753  32.2460262
  50.0136588  70.3602680  45.4751291  50.8768049  70.0039485  45.6854616
  49.4401998  70.0216575  46.1626696  69.8584965  91.9904537  36.2813692
  70.4963374  91.8711284  35.5777032  69.7405807  92.9385381  36.3401645
  66.6674671  91.9431965  36.2175217  66.3293182  91.8273029  35.3295752
  67.5364439  91.5423130  36.1976223  62.5261486  93.7967441  32.2072108
  61.9626352  93.7057378  31.4388396  62.4113882  92.9767346  32.6874601
  67.1494454  93.0966816  42.1761423  67.1383095  92.7019615  41.3041926
  67.3115093  92.3632889  42.7695194  60.0725918  95.2918633  35.0456328
  60.8647210  94.9509457  34.6302628  60.3122569  95.4013608  35.9658482
  68.1061045  97.4638409  27.5186573  67.4549025  98.0492489  27.1320587
  68.9005408  97.9944604  27.5781610  62.0316672  94.5527546  27.9173707
  62.8047548  94.0056533  27.7786583  62.3842071  95.4171795  28.1288169
  63.8701715  95.8803928  41.1240607  63.5791581  96.7849559  41.0087273
  64.5058699  95.9220456  41.8384676  64.7957922  93.2580777  37.7141966
  65.3921494  93.0336799  36.9998929  64.8532893  92.5165522  38.3167414
  64.3682950  90.7120212  25.5492157  64.6208471  90.1901733  24.7875620
  63.4307509  90.5486358  25.6518841  69.4126233  89.7155990  33.3566900
  70.1989322  89.2975414  33.0057317  69.6764937  90.6202083  33.5248549
  69.5836310  95.1528841  28.0555557  68.9482143  95.2263467  28.7676462
  69.2533717  95.7422440  27.3774636  74.8134660  89.6531224  34.2599879
  75.5459832  89.0830440  34.4937708  74.0574016  89.2652824  34.7006384
  64.0879239  92.6148318  27.7516532  63.9715497  91.9393221  28.4197616
  64.1981499  92.1280692  26.9348685  66.4310780  92.0758465  31.4563221
  66.0668987  91.5489086  32.1676143  67.2877896  91.6856934  31.2829707
  72.3360080  83.3652798  38.7194488  72.0043405  84.2348209  38.4955703
  71.7405694  83.0489082  39.3988518  66.0716267  87.1048365  26.4524570
  66.2390669  87.9728601  26.8195041  65.8813436  87.2675647  25.5285859
  68.8291600  95.5665344  38.1190400  68.5292323  96.4690383  38.0106207
  68.4842660  95.2997527  38.9711553  62.2804081  92.0179141  34.1527105
  61.3554578  91.8855355  34.3604796  62.5288495  92.7973360  34.6497047
  72.2288744  88.0847884  35.7987838  71.3205621  88.0163292  35.5046599
  72.1776340  88.5619829  36.6269663  66.0505488  89.5606022  27.4371237
  65.9305113  90.0063073  28.2756717  65.3558076  89.9091340  26.8784775
  59.6412893  91.6612414  34.9870894  59.7705274  91.9146893  35.9010305
  58.9610344  92.2540122  34.6675549  63.8112380 102.3309664  31.0861368
  63.7336410 103.2817489  31.1649849  63.2074023 101.9855537  31.7436294
  66.3029610  89.5037530  43.7422735  65.5262944  90.0631450  43.7325599
  66.9420173  89.9894313  44.2637605  74.0950390  86.2864322  37.5765711
  73.4524770  86.5796856  36.9305506  73.5905319  86.1717243  38.3818908
  71.7490554  90.0327496  28.2651571  72.6608410  90.2654882  28.0899268
  71.2400201  90.6164540  27.7026649  64.5575982  92.3122983  43.3040702
  65.2990666  92.8508027  43.0275525  63.8512967  92.9389272  43.4612254
  70.0331322  94.4552123  41.9012863  70.4414678  94.0134534  41.1567496
  69.3108583  93.8804751  42.1547056  66.3862392  89.3924730  39.2746420
  67.2323587  89.8164144  39.4181069  66.3261029  88.7358354  39.9684983
  70.3560136  95.0153314  35.6565152  69.7268999  95.1799028  34.9541220
  69.9685798  95.4294924  36.4276116  74.2349368  95.9507752  33.0109516
  73.5500406  96.3306653  32.4606549  74.3193217  96.5603079  33.7441464
  69.5361837  87.0529099  40.9327594  69.2922769  87.8071159  40.3961870
  69.8121767  87.4314446  41.7674841  71.4900300  93.5967711  39.6104860
  71.7017195  94.2399471  38.9339241  71.4430048  92.7630027  39.1426790
  69.0926529  86.2085532  36.5141432  68.2311008  86.5066785  36.8058169
  69.1188963  86.4255930  35.5822464  65.9088098  94.7527722  32.9215237
  66.3726444  95.0315425  32.1319860  65.6444896  93.8511167  32.7388328
  62.8012179  94.2999204  35.8595001  63.3713536  94.7286472  35.2212485
  63.3920291  94.0181788  36.5579186  64.8456984  90.8750874  29.7304802
  65.5481027  91.3271918  30.1978729  64.5137613  90.2334693  30.3584696
  63.2937346  89.4662631  44.1056012  62.6636006  90.1478912  44.3391409
  63.1873434  89.3545713  43.1609150  58.5882318  89.1334427  35.0321936
  57.7981372  89.3891956  34.5562047  59.0793565  89.9482765  35.1373977
  72.6046128  96.4739666  37.7827217  73.4263571  96.0719854  37.5009898
  72.6008530  96.3707900  38.7343333  60.5397063  89.4979006  31.9905413
  59.7428227  89.6097701  32.5088908  60.3122656  89.8365659  31.1246303
  66.3702731  96.0223710  39.9387927  66.4347164  96.4844117  40.7746099
  65.6613655  95.3921075  40.0670237  56.8720021  89.3864918  37.4636927
  57.1228059  90.2711927  37.7294503  57.4079569  89.2069519  36.6912019
  80.6952121  92.8178415  34.1312188  79.9415829  92.2485813  33.9756193
  80.8299662  92.7841079  35.0782823  66.0850749  97.6891817  29.8066908
  65.9496424  98.5343353  30.2351755  66.6260561  97.8911095  29.0432841
  62.5718088  83.7683397  46.4681263  62.1785034  83.2149595  47.1428907
  63.3884229  84.0793975  46.8587780  59.5380146  95.2067255  30.3794833
  60.0504667  96.0010505  30.5300397  60.1902859  94.5093546  30.3128434
  61.3475031  98.3233011  32.4617586  61.5241659  99.2450976  32.2738570
  62.1431864  98.0091431  32.8911966  65.4886049  85.1841276  44.0601519
  66.2295763  85.7848429  43.9805982  65.7203972  84.4418914  43.5019562
  60.6327387  90.3697643  42.3379749  60.5180903  89.4682901  42.6386848
  59.7771905  90.6161340  41.9864566  67.7119225  98.3115384  43.9367250
  67.2683079  97.5251762  43.6188154  68.3736439  98.4994534  43.2711141
  62.4706346  99.8411185  38.4627928  63.0213771  99.7128249  37.6904922
  61.6317822 100.1406074  38.1122821  69.8100463  98.5918184  41.9648651
  69.7918939  99.4127065  41.4728920  70.7320383  98.4672259  42.1898792
  66.2673517  96.1062313  42.8072159  66.8001854  95.3450601  42.5771467
  65.7387598  95.8135965  43.5496314  69.4343212  81.2122379  38.3365801
  69.0907482  82.1024021  38.2604912  69.8022175  81.0224037  37.4735386
  57.5029063  93.5355909  31.1554403  58.3404285  93.9452918  30.9388111
  57.6807331  92.5955352  31.1254597  69.3993495  91.2030990  26.8438236
  68.8840118  91.9735595  27.0826624  69.1270803  90.5296126  27.4671298
  66.9840606  86.0480691  31.9023475  66.1282202  85.6587541  31.7229113
  67.3967558  86.1272652  31.0423260  68.5139753  83.5827034  36.3015034
  68.0104548  83.5457169  35.4882840  68.8070360  84.4919777  36.3611691
  64.7582639  83.6665764  35.3081216  65.6235635  83.4708573  34.9487106
  64.8260147  83.4376116  36.2350573  74.3727769  93.9563345  28.7791410
  73.5957212  93.6174504  28.3346572  75.0519250  93.9615968  28.1046375
  69.1879798  89.0758082  28.6698017  68.8829934  89.3904231  29.5208161
  70.1410240  89.1539502  28.7125350  67.6326230  95.2348305  30.3190971
  67.1047592  94.5001065  30.0064209  67.1313733  96.0122982  30.0730940
  72.6119076  93.4297326  35.4358018  71.9542750  94.1196587  35.5238146
  73.4159475  93.8193758  35.7792004  62.3644958  85.8967972  32.6797583
  62.9388710  85.6743153  31.9470776  62.9515940  85.9656666  33.4326184
  71.4224535  91.7841699  33.4861959  71.9356417  92.4171691  33.9883669
  72.0725759  91.1842894  33.1205319  62.6914545  87.9272433  26.6993468
  61.8551857  88.2647119  27.0202743  62.5519314  87.7921413  25.7620605
  64.6667625  82.7709221  31.4072652  64.0132038  82.4558238  30.7829267
  64.6248100  82.1484961  32.1332475  65.7778830  93.0528516  23.3225944
  64.8705892  92.8217769  23.5217093  66.2749862  92.2566135  23.5099926
  68.6846909 101.7626023  26.2422631  68.0108608 102.0657720  26.8507588
  69.0712731 102.5655103  25.8928088  67.9005366  89.2591154  35.7320300
  66.9827927  89.4806101  35.5741988  68.3165509  89.3337465  34.8732007
  68.6840413  90.6582570  30.8622980  69.4312232  91.1703967  30.5530102
  68.9532003  90.3366623  31.7227374  66.9567064  93.1541111  27.8449935
  66.0478283  92.8700143  27.9422404  66.9862147  93.5740189  26.9853241
  72.1886331  96.7647700  31.6141102  71.7348658  95.9238610  31.6706293
  71.5580298  97.4009098  31.9515882  71.1319251  87.6939686  32.8441770
  70.3942007  87.1817072  33.1752012  71.3846024  87.2540068  32.0325046
  70.6319270  98.6024197  32.5490920  70.9242245  99.1629254  31.8303286
  71.1417891  98.8952758  33.3044079  71.2330878  80.4715938  33.4383539
  71.5389755  79.6113302  33.1509454  71.9583483  81.0633558  33.2382533
  57.5255234  90.8746625  31.8265137  57.3279634  90.2815985  31.1016203
  56.9701898  90.5698835  32.5441076  65.5051958  90.7669731  33.9459730
  65.5600567  89.8143568  33.8702206  64.6943160  90.9229170  34.4301028
  66.6543151  94.6949854  25.1838013  66.2162581  93.9785713  24.7243650
  67.3953592  94.9225969  24.6223105  63.4444318  89.3846791  31.7050109
  62.6312183  89.6840962  32.1115301  63.9403312  88.9902480  32.4224591
  65.5952896  99.3804548  33.6384373  65.5529074  99.6065394  32.7092905
  66.5115594  99.1467922  33.7870175  69.0418529  89.8488615  40.5365003
  69.3967917  90.0760089  41.3959468  69.6890661  90.1806992  39.9142258
  74.7716266  92.9707051  31.2414332  74.6334165  93.1608647  30.3135521
  74.4152485  93.7326434  31.6982383  62.9358392  86.9565146  37.3211344
  63.5757772  86.8153906  36.6234307  62.1035923  86.6699660  36.9449946
  74.7985646  95.0383578  36.2525603  75.2322153  94.9458867  37.1008657
  75.5117227  95.0141079  35.6145619  63.7118696  96.2567577  33.4346336
  64.5059295  95.7617897  33.2328911  63.0010389  95.7285440  33.0714042
  68.5313541  98.6385672  37.7858704  68.5850563  99.2076609  38.5536420
  67.6628322  98.8087557  37.4212741  60.0201460  90.4010659  29.5106089
  59.0899048  90.3395114  29.7276051  60.1158932  89.8786611  28.7142730
  59.9387009  86.9265471  32.0984331  60.1993826  87.8410805  31.9893491
  60.7604181  86.4589914  32.2480943  61.4111934  88.3403229  39.2683155
  62.0834988  88.1320591  38.6195804  60.5841721  88.1425315  38.8288387
  75.6601195  95.0807279  38.7858489  75.8537085  95.9853089  39.0317764
  75.5601814  94.6214698  39.6197074  67.3137506  84.9665170  41.2848816
  66.6665421  85.6655119  41.1913292  68.0838522  85.4001313  41.6525064
  70.7216304  95.2314022  44.3599369  70.5701810  95.0024573  43.4429453
  70.7120984  96.1884623  44.3730714  67.4901640  92.8045934  39.3445636
  68.4193700  92.9557094  39.1714603  67.0692671  92.8929955  38.4894282
  66.2889972  96.8296599  37.1144173  66.1501058  96.4615383  37.9870111
  65.5004569  97.3444238  36.9428131  66.8838124 101.9305695  28.4569710
  67.0589880 101.4593739  29.2715332  66.1970912 102.5571462  28.6850971
  67.8395187  96.2078202  34.5033011  67.5045020  96.1678972  35.3990661
  67.3399133  95.5422918  34.0303421  61.8139431  91.6145832  40.0285592
  61.6759229  90.8826070  40.6297131  62.7244355  91.5254732  39.7469780
  70.7754379  93.5534236  24.7770071  70.1583550  92.8281064  24.6803123
  70.3070868  94.3143596  24.4337145  64.4421732  91.3265791  39.5169272
  65.1521351  90.6858983  39.4755890  64.3991040  91.5778686  40.4395453
  72.4308511  98.2633144  42.4375851  72.3721057  97.5792364  41.7706434
  72.8328029  99.0052134  41.9856477  63.1550666  88.3131009  41.3364911
  62.6188023  87.8621747  41.9886508  62.5667374  88.4476918  40.5935376
  61.4499210 105.0795058  35.2309570  61.6895808 105.7113582  35.9088589
  60.6068406 104.7283098  35.5174929  62.5652925  87.7719660  23.8991375
  61.6882391  87.6508461  23.5353622  63.0410678  86.9805739  23.6470264
  72.4325918  96.2272728  40.6689831  71.5452697  95.8898650  40.7916230
  73.0024469  95.4955759  40.9058596  54.0855065  92.5596820  33.9932882
  54.7726105  92.2458550  33.4053897  53.9303194  93.4638185  33.7200134
  58.8889787  87.4487017  38.4217906  58.8047976  86.8412686  37.6868316
  58.0672494  87.9396035  38.4227402  65.9627071 100.8874181  37.6351074
  65.8897243 101.6929152  38.1470378  65.5204465 101.0866146  36.8099095
  65.7516851 100.1245951  31.1453895  64.9684373 100.6667631  31.2392120
  66.4509596 100.6419930  31.5448137  69.0613501  85.9340580  33.7888101
  69.5582201  85.1810542  33.4689171  68.2900483  85.9704897  33.2231310
  76.9143259  91.6380946  35.4306392  76.9033135  92.5205661  35.0600325
  76.0460638  91.2852496  35.2360929  68.4225755 100.7861015  39.7909233
  69.1353727 101.4208479  39.7185134  67.9315784 100.8824881  38.9749234
  70.1443282  94.6912267  31.3626524  69.2099561  94.8113730  31.1931229
  70.3219950  93.7884734  31.0986534  65.6448470  88.0757963  33.5159785
  65.2746257  87.5229003  34.2040691  66.1407562  87.4716097  32.9634786
  73.5315833  90.5329587  31.8976558  73.9976285  91.3657578  31.8236861
  73.9823334  90.0674568  32.6021817  63.4737668  98.5355458  40.6114803
  64.1747128  99.1691941  40.7644198  63.0032783  98.8770190  39.8510443
  71.5992064  96.8773408  28.8962710  71.8751908  96.7630002  29.8056585
  70.7296563  96.4790893  28.8574884  71.5032496  82.9010174  35.9367460
  70.5895576  83.1314400  36.1049667  71.9325597  82.9848618  36.7881492
  71.2738954  91.0900066  38.4367354  70.6210405  91.3375973  37.7819807
  71.6519334  90.2764204  38.1029831  68.2346128 101.1259759  32.5395524
  68.4168523 100.3081415  33.0023276  69.0579114 101.3427451  32.1020414
  68.5688294 100.0527944  29.8010573  69.0976060  99.5420398  29.1880735
  68.8316513  99.7370474  30.6656106  67.3226527  91.8319877  44.9233391
  66.6467164  91.7314006  45.5935766  68.1454161  91.6759090  45.3869388
  59.0705387  98.0691813  37.5445906  59.6558823  97.3235501  37.6773810
  58.8730225  98.3795770  38.4282570  61.9244042 101.1043061  32.5608348
  61.2554417 101.5889188  32.0772389  61.7856911 101.3512281  33.4751727
  53.6623041  90.6397413  36.2650349  53.7007141  90.1061004  37.0587467
  53.1563334  90.1132619  35.6461326  66.0649310 103.1386804  39.1591007
  66.6167618 103.3018426  39.9240092  66.4055504 103.7291242  38.4871032
  61.0413804  85.4861954  39.7612892  61.1055130  86.3476785  39.3490289
  60.9780924  84.8735955  39.0285250  60.5166076  87.5585086  43.4085926
  61.1438115  87.1762164  44.0223450  59.6593995  87.3399288  43.7741618
  70.9160185  97.9648062  45.0139661  71.4600089  98.5778020  44.5194616
  70.3347029  98.5227640  45.5306674  57.2931619  89.3661515  29.3404281
  57.5885060  88.4572194  29.2871334  56.3919655  89.3449255  29.0185283
  69.2017698 101.0868780  36.1454689  69.0768837 100.2858519  35.6365635
  69.8596789 101.5814973  35.6568659  60.8225866  87.4417512  35.3231829
  60.1012452  88.0553480  35.1839303  61.6119122  87.9775277  35.2448475
  71.2652606  98.8877800  37.7734239  70.3182942  98.7683151  37.7012566
  71.6135379  98.0000298  37.8560501  63.6252179  84.7771939  41.5972481
  64.1486581  85.0234235  42.3598790  63.4064513  85.6091973  41.1775618
  59.0219460  87.0475613  29.4643606  58.6932167  86.1672992  29.2818712
  59.3758831  86.9923282  30.3519995  68.2699039  98.6830516  33.9738591
  68.1224002  97.7547223  34.1546161  69.0952533  98.7050607  33.4895667
  62.1361284  87.3348583  29.8319083  62.4757356  87.8634504  29.1097692
  62.5833404  87.6728989  30.6077650  71.8733161  99.5059075  35.0603464
  72.7979709  99.3001936  34.9227915  71.7048464  99.2575476  35.9692806
  64.8304724  85.7185634  39.2822152  64.4901545  84.9193447  39.6842831
  64.1243731  86.0187345  38.7098985  65.4821196  82.8034946  37.7349475
  66.3047266  82.3295424  37.6128365  65.7259260  83.5825430  38.2348161
  64.1229431  85.8323205  28.0312376  64.8437793  86.2104457  27.5276093
  63.4994735  86.5512081  28.1347354  68.2660554  86.5368354  28.9670709
  68.4824168  87.4192991  28.6659537  67.7854621  86.1454567  28.2376351
  63.0059775  89.4954067  35.5441453  62.8604356  89.8094370  36.4365735
  62.5284979  90.1138967  34.9912352  64.8656158  86.4856615  35.5922343
  64.8517727  85.5897708  35.2554641  65.5828586  86.4927278  36.2260629
  66.7182289  86.9193955  37.6375470  66.4600066  87.8411026  37.6359801
  66.1867329  86.5224389  38.3275934  71.6628477 100.0244742  30.4165556
  71.8365355  99.4591165  29.6639408  72.1557369 100.8245637  30.2345045
  57.4805437  92.0359411  38.4829114  56.9358905  92.8119219  38.6149389
  58.3584787  92.3830216  38.3248236  64.2693054  85.3670995  30.8609913
  64.3908965  84.4387641  31.0600800  63.9795096  85.3809681  29.9488228
  67.1384244  83.0525905  33.9976633  67.1605941  83.1165239  33.0428612
  67.5552303  82.2130414  34.1917139  77.5167869  92.7881165  32.0355855
  77.9599015  92.0388490  31.6374979  76.6394379  92.7791301  31.6529587
  72.6503650  99.3411506  27.5162454  73.3454554  99.9618199  27.7349768
  72.9926800  98.4906858  27.7914832  58.2671459  91.1629307  41.3759271
  57.5253195  91.3111943  41.9623902  57.9464203  91.4237573  40.5126021
  74.5495073  96.7911212  29.0449785  75.0746397  97.1298485  28.3199105
  74.4617426  95.8558227  28.8612919  66.2115122 100.7045286  41.1739661
  66.5202248 100.4594432  42.0462361  67.0090604 100.9091924  40.6858531
  66.2335734 102.8583195  33.4045038  65.7940724 102.3659574  34.0977894
  66.9843851 102.3156163  33.1637113  58.7128073  99.0494736  33.4069666
  59.5386093  98.7498508  33.0268309  58.3622125  98.2802359  33.8559455
  63.6809606  98.4021204  35.4767339  63.0589615  97.7391909  35.1769567
  64.3514473  98.4282336  34.7940987  56.9136678  96.9681063  34.3658599
  56.0768586  96.5403237  34.1842601  56.8860323  97.1613506  35.3029391
  63.7534133  86.8802992  45.0699845  63.8022289  87.7565115  44.6877615
  64.2956648  86.3380385  44.4971489  74.2388979  97.4244116  44.3500983
  73.4484523  97.4068254  43.8105482  74.0022334  97.9632409  45.1050019
  74.3586854  94.2736582  41.6633711  74.4084859  94.1086589  42.6049234
  74.2500777  93.4063841  41.2731592  63.2423113  96.9525128  28.9525800
  63.3911233  97.6360592  28.2992473  64.0489556  96.9330218  29.4675256
  71.6490616  90.2567510  42.9793018  72.5500479  90.1173975  42.6877016
  71.7238591  90.4221965  43.9191195  65.9833422  87.6334365  41.8246204
  65.1136731  87.9267931  41.5528793  66.2192902  88.2174810  42.5453468
  75.8605051  96.6933524  41.9075733  75.5689859  97.0563504  42.7439194
  75.2477182  95.9800532  41.7289065  77.0600733  94.2586403  34.4278303
  77.8947625  94.6976207  34.5915863  77.1959862  93.7825056  33.6086549
  74.1092239  91.8166138  40.3755791  74.5846361  92.0093784  39.5674642
  73.1857805  91.8725324  40.1299174  60.9975746  92.9790305  29.9586869
  60.7521788  92.0752635  30.1567079  61.1671660  92.9807456  29.0166347
  68.6872456  83.8513982  39.3411625  69.2054399  84.5875009  39.0158113
  68.3327588  84.1577975  40.1758384  60.2671393  88.7118663  27.4573030
  59.5740638  88.7863018  26.8013066  60.0223145  87.9479007  27.9794547
  68.9385050  80.2714264  34.8612521  69.2186804  79.6037453  35.4872948
  69.7235657  80.4643360  34.3487185  66.7418518  99.4473258  26.4237547
  66.1692485 100.0663445  25.9708019  67.3151312  99.9972620  26.9577469
  72.8093908  88.6931898  38.6084096  73.7611331  88.7929996  38.6296320
  72.6397359  87.9010167  39.1182181  70.8308288  85.7787481  38.7943497
  70.2358220  86.0592494  38.0989986  70.5457984  86.2681382  39.5660238
  69.9615778  99.7310408  27.5546130  70.8946451  99.6655970  27.7579005
  69.8738991 100.5666675  27.0960662  72.5903795  99.0476279  24.5150077
  72.5117426  98.7136142  25.4085835  73.4113462  99.5398047  24.5141550
  75.2881986  91.9138018  37.7226396  75.2558306  90.9754019  37.9086080
  75.8982610  91.9922055  36.9892221  67.1265317  90.7834071  23.7653600
  68.0724422  90.6540279  23.8342018  66.7479562  90.0448733  24.2423028
  75.4376474  88.7049061  37.7684679  74.9215523  87.9207518  37.5814608
  76.3216423  88.3767778  37.9331199  73.0987201  82.4490077  33.7280492
  72.9012022  82.1405165  34.6123824  73.7086907  83.1751716  33.8578422
  81.1058536  92.9754025  36.8632433  81.8361924  92.7139313  37.4240136
  80.4965481  92.2382747  36.9034501  79.1873833  91.1161887  37.4606884
  78.4606996  90.9817852  36.8523375  78.7721120  91.4238716  38.2663602
  67.0104009  94.8351817  45.2254257  67.9307019  95.0130416  45.4194303
  66.9753592  93.8907862  45.0733956  65.3108234  88.7084047  23.7008485
  64.4039689  88.4117160  23.7771199  65.5884215  88.4113865  22.8342771
  56.2286174  90.0290411  34.1507532  55.9088959  89.1755719  33.8581906
  55.6819602  90.2438989  34.9065499  60.0066082  92.7452852  37.8677038
  60.2252092  93.6769959  37.8865072  60.4191856  92.3860826  38.6531842
  66.9270300  83.2520937  29.8552726  66.1171028  82.9068022  30.2307973
  67.6154717  82.9428481  30.4440338  68.8560848  82.3298984  31.4777023
  69.4091887  82.7494437  32.1367046  69.0930934  81.4034732  31.5199979
  64.8793947  88.3186057  47.2579787  64.7790674  89.2680414  47.1891878
  64.6615489  87.9904296  46.3855857  64.0807019  85.5670982  23.8420464
  64.9426183  85.8925881  24.1016282  64.2657363  84.7802478  23.3293530
  56.0974434  93.6493322  36.1200653  55.4037906  93.2347275  35.6070608
  56.8447425  93.6913859  35.5234072  72.2339655  84.4399509  30.9855687
  71.6538324  85.0984313  30.6033740  71.9675588  83.6176854  30.5743105
  70.6843221  83.8404567  33.1877008  71.1843000  83.9521101  32.3791326
  71.3278829  83.5365620  33.8277816  64.7425217  91.7483196  46.0744849
  64.2592299  92.5483556  46.2808738  64.8286156  91.7591141  45.1212293
  58.0111177  93.5811576  33.9966668  57.9881865  93.6799263  33.0448551
  58.3211813  94.4276727  34.3183834  60.6698555  95.6387731  38.1113282
  61.6241808  95.6071673  38.0443214  60.4711078  95.1778355  38.9263508
  61.2597937  94.2088847  40.6784080  62.0790826  94.7032926  40.7018917
  61.5334745  93.2920815  40.6501648  71.0164533  86.5999599  30.0412036
  70.1290388  86.8849250  29.8232230  71.4318522  86.4393363  29.1939312
  74.3679069  86.6246120  33.7566375  75.1439459  87.1142573  34.0290992
  73.6427203  87.0504175  34.2138244  76.8051628  87.3373740  34.8140315
  77.3996119  87.0969475  34.1033624  76.8778212  86.6180870  35.4413852
  59.0248784 101.1807350  35.1283480  58.8903251 100.4207751  34.5621478
  58.6080846 101.9048250  34.6612269  70.1607747  96.3644274  24.1360056
  70.8643597  96.5694277  24.7517711  69.4370395  96.9321036  24.4009139
  70.9905557  92.1154135  30.2562326  70.9340758  92.5722687  29.4169958
  71.5433899  91.3544820  30.0785169  74.8010363  87.9043867  31.0812445
  74.5447297  87.5040503  31.9120653  74.1763231  88.6187661  30.9562584
  79.1122701  90.6439940  33.5883737  78.5522259  90.7133130  34.3615299
  78.5066204  90.4680925  32.8683233  62.1817909 102.0776667  35.3401923
  62.0650294 103.0222100  35.2380613  61.3610356 101.7750229  35.7287722
  72.0694444  96.8026803  26.1858516  72.9040048  96.3708002  26.0035990
  71.9078787  96.6308817  27.1135410  71.7240336  93.3058917  27.5514855
  71.6689140  93.1403188  26.6103299  71.0986391  94.0134949  27.7077045
  56.5132851  88.5426981  41.3776277  57.1591715  88.0325935  41.8663502
  56.3050002  89.2795663  41.9519702  69.0386243  95.6107828  46.8768418
  69.9077403  95.7848481  46.5155053  68.5592995  96.4302245  46.7544147
  65.0336462  82.8067026  27.1300173  65.0215131  83.7508865  27.2868444
  65.9259883  82.6237171  26.8359635  63.2072424 102.7304929  38.5557851
  64.1099670 102.7628540  38.8724346  62.9809794 101.8005380  38.5704187
  64.9626026 101.4835916  35.2167930  64.0121657 101.4837778  35.1032302
  65.2658512 100.7368650  34.7003965  68.8488581  79.4009802  31.3846110
  68.0820977  78.8468289  31.5302792  69.2599286  79.4731671  32.2460262
  60.8530342  85.6894598  45.4751291  61.7161804  85.3331403  45.6854616
  60.2795753  85.3508493  46.1626696  80.6978719 107.3196454  36.2813692
  81.3357129 107.2003202  35.5777032  80.5799562 108.2677298  36.3401645
  77.5068425 107.2723882  36.2175217  77.1686937 107.1564947  35.3295752
  78.3758193 106.8715048  36.1976223  73.3655241 109.1259359  32.2072108
  72.8020106 109.0349296  31.4388396  73.2507636 108.3059263  32.6874601
  77.9888208 108.4258734  42.1761423  77.9776849 108.0311532  41.3041926
  78.1508848 107.6924807  42.7695194  70.9119673 110.6210550  35.0456328
  71.7040965 110.2801375  34.6302628  71.1516323 110.7305525  35.9658482
  78.9454800 112.7930327  27.5186573  78.2942779 113.3784407  27.1320587
  79.7399163 113.3236521  27.5781610  72.8710427 109.8819464  27.9173707
  73.6441303 109.3348451  27.7786583  73.2235826 110.7463713  28.1288169
  74.7095469 111.2095846  41.1240607  74.4185335 112.1141477  41.0087273
  75.3452454 111.2512374  41.8384676  75.6351676 108.5872694  37.7141966
  76.2315249 108.3628717  36.9998929  75.6926648 107.8457440  38.3167414
  75.2076705 106.0412130  25.5492157  75.4602225 105.5193651  24.7875620
  74.2701264 105.8778275  25.6518841  80.2519987 105.0447908  33.3566900
  81.0383077 104.6267331  33.0057317  80.5158692 105.9494000  33.5248549
  80.4230065 110.4820758  28.0555557  79.7875898 110.5555385  28.7676462
  80.0927471 111.0714357  27.3774636  85.6528415 104.9823141  34.2599879
  86.3853587 104.4122358  34.4937708  84.8967770 104.5944742  34.7006384
  74.9272993 107.9440236  27.7516532  74.8109252 107.2685139  28.4197616
  75.0375253 107.4572610  26.9348685  77.2704534 107.4050383  31.4563221
  76.9062742 106.8781004  32.1676143  78.1271650 107.0148852  31.2829707
  83.1753835  98.6944715  38.7194488  82.8437160  99.5640126  38.4955703
  82.5799448  98.3780999  39.3988518  76.9110021 102.4340283  26.4524570
  77.0784424 103.3020519  26.8195041  76.7207190 102.5967564  25.5285859
  79.6685355 110.8957261  38.1190400  79.3686078 111.7982300  38.0106207
  79.3236414 110.6289445  38.9711553  73.1197836 107.3471058  34.1527105
  72.1948332 107.2147272  34.3604796  73.3682249 108.1265278  34.6497047
  83.0682498 103.4139802  35.7987838  82.1599376 103.3455210  35.5046599
  83.0170094 103.8911747  36.6269663  76.8899242 104.8897940  27.4371237
  76.7698867 105.3354991  28.2756717  76.1951831 105.2383258  26.8784775
  70.4806647 106.9904332  34.9870894  70.6099028 107.2438811  35.9010305
  69.8004098 107.5832040  34.6675549  74.6506134 117.6601582  31.0861368
  74.5730164 118.6109407  31.1649849  74.0467778 117.3147454  31.7436294
  77.1423364 104.8329447  43.7422735  76.3656698 105.3923367  43.7325599
  77.7813927 105.3186230  44.2637605  84.9344145 101.6156240  37.5765711
  84.2918525 101.9088773  36.9305506  84.4299073 101.5009160  38.3818908
  82.5884308 105.3619413  28.2651571  83.5002164 105.5946800  28.0899268
  82.0793955 105.9456457  27.7026649  75.3969736 107.6414901  43.3040702
  76.1384421 108.1799945  43.0275525  74.6906722 108.2681189  43.4612254
  80.8725076 109.7844041  41.9012863  81.2808432 109.3426452  41.1567496
  80.1502338 109.2096669  42.1547056  77.2256146 104.7216648  39.2746420
  78.0717341 105.1456061  39.4181069  77.1654784 104.0650272  39.9684983
  81.1953891 110.3445232  35.6565152  80.5662753 110.5090946  34.9541220
  80.8079553 110.7586841  36.4276116  85.0743123 111.2799670  33.0109516
  84.3894161 111.6598571  32.4606549  85.1586972 111.8894996  33.7441464
  80.3755591 102.3821016  40.9327594  80.1316523 103.1363077  40.3961870
  80.6515522 102.7606364  41.7674841  82.3294054 108.9259629  39.6104860
  82.5410949 109.5691388  38.9339241  82.2823802 108.0921945  39.1426790
  79.9320283 101.5377449  36.5141432  79.0704762 101.8358703  36.8058169
  79.9582718 101.7547848  35.5822464  76.7481853 110.0819640  32.9215237
  77.2120198 110.3607343  32.1319860  76.4838651 109.1803084  32.7388328
  73.6405934 109.6291121  35.8595001  74.2107291 110.0578390  35.2212485
  74.2314045 109.3473706  36.5579186  75.6850739 106.2042792  29.7304802
  76.3874782 106.6563836  30.1978729  75.3531367 105.5626611  30.3584696
  74.1331100 104.7954549  44.1056012  73.5029761 105.4770830  44.3391409
  74.0267188 104.6837630  43.1609150  69.4276073 104.4626345  35.0321936
  68.6375127 104.7183873  34.5562047  69.9187320 105.2774683  35.1373977
  83.4439882 111.8031584  37.7827217  84.2657326 111.4011771  37.5009898
  83.4402285 111.6999818  38.7343333  71.3790818 104.8270924  31.9905413
  70.5821981 104.9389618  32.5088908  71.1516410 105.1657576  31.1246303
  77.2096486 111.3515627  39.9387927  77.2740918 111.8136035  40.7746099
  76.5007409 110.7212992  40.0670237  67.7113776 104.7156835  37.4636927
  67.9621814 105.6003845  37.7294503  68.2473324 104.5361437  36.6912019
  91.5345875 108.1470332  34.1312188  90.7809584 107.5777731  33.9756193
  91.6693416 108.1132997  35.0782823  76.9244503 113.0183735  29.8066908
  76.7890178 113.8635270  30.2351755  77.4654316 113.2203012  29.0432841
  73.4111843  99.0975315  46.4681263  73.0178788  98.5441513  47.1428907
  74.2277983  99.4085893  46.8587780  70.3773901 110.5359173  30.3794833
  70.8898421 111.3302423  30.5300397  71.0296613 109.8385463  30.3128434
  72.1868785 113.6524929  32.4617586  72.3635414 114.5742894  32.2738570
  72.9825619 113.3383348  32.8911966  76.3279804 100.5133194  44.0601519
  77.0689517 101.1140347  43.9805982  76.5597727  99.7710832  43.5019562
  71.4721142 105.6989561  42.3379749  71.3574657 104.7974818  42.6386848
  70.6165660 105.9453258  41.9864566  78.5512980 113.6407301  43.9367250
  78.1076834 112.8543680  43.6188154  79.2130193 113.8286452  43.2711141
  73.3100101 115.1703103  38.4627928  73.8607526 115.0420166  37.6904922
  72.4711577 115.4697992  38.1122821  80.6494218 113.9210101  41.9648651
  80.6312693 114.7418982  41.4728920  81.5714138 113.7964176  42.1898792
  77.1067272 111.4354231  42.8072159  77.6395609 110.6742519  42.5771467
  76.5781353 111.1427883  43.5496314  80.2736967  96.5414297  38.3365801
  79.9301236  97.4315938  38.2604912  80.6415929  96.3515954  37.4735386
  68.3422817 108.8647827  31.1554403  69.1798039 109.2744835  30.9388111
  68.5201085 107.9247269  31.1254597  80.2387250 106.5322908  26.8438236
  79.7233873 107.3027512  27.0826624  79.9664558 105.8588044  27.4671298
  77.8234361 101.3772609  31.9023475  76.9675957 100.9879459  31.7229113
  78.2361312 101.4564569  31.0423260  79.3533507  98.9118952  36.3015034
  78.8498303  98.8749087  35.4882840  79.6464114  99.8211695  36.3611691
  75.5976393  98.9957682  35.3081216  76.4629390  98.8000490  34.9487106
  75.6653902  98.7668033  36.2350573  85.2121524 109.2855262  28.7791410
  84.4350966 108.9466422  28.3346572  85.8913005 109.2907886  28.1046375
  80.0273553 104.4050000  28.6698017  79.7223688 104.7196149  29.5208161
  80.9803995 104.4831420  28.7125350  78.4719985 110.5640223  30.3190971
  77.9441346 109.8292983  30.0064209  77.9707487 111.3414900  30.0730940
  83.4512831 108.7589244  35.4358018  82.7936505 109.4488505  35.5238146
  84.2553230 109.1485676  35.7792004  73.2038712 101.2259889  32.6797583
  73.7782464 101.0035071  31.9470776  73.7909695 101.2948584  33.4326184
  82.2618289 107.1133616  33.4861959  82.7750171 107.7463608  33.9883669
  82.9119513 106.5134812  33.1205319  73.5308299 103.2564350  26.6993468
  72.6945612 103.5939037  27.0202743  73.3913069 103.1213330  25.7620605
  75.5061380  98.1001138  31.4072652  74.8525792  97.7850156  30.7829267
  75.4641854  97.4776879  32.1332475  76.6172585 108.3820433  23.3225944
  75.7099646 108.1509687  23.5217093  77.1143617 107.5858053  23.5099926
  78.7399120 104.5883072  35.7320300  77.8221682 104.8098019  35.5741988
  79.1559264 104.6629382  34.8732007  79.5234168 105.9874488  30.8622980
  80.2705987 106.4995885  30.5530102  79.7925758 105.6658540  31.7227374
  77.7960818 108.4833028  27.8449935  76.8872037 108.1992061  27.9422404
  77.8255902 108.9032107  26.9853241  83.0280086 112.0939618  31.6141102
  82.5742413 111.2530528  31.6706293  82.3974052 112.7301016  31.9515882
  81.9713005 103.0231604  32.8441770  81.2335762 102.5108990  33.1752012
  82.2239779 102.5831985  32.0325046  81.4713025 113.9316114  32.5490920
  81.7635999 114.4921172  31.8303286  81.9811645 114.2244675  33.3044079
  82.0724632  95.8007856  33.4383539  82.3783509  94.9405219  33.1509454
  82.7977237  96.3925476  33.2382533  68.3648989 106.2038542  31.8265137
  68.1673388 105.6107903  31.1016203  67.8095653 105.8990753  32.5441076
  76.3445712 106.0961649  33.9459730  76.3994322 105.1435485  33.8702206
  75.5336914 106.2521088  34.4301028  77.4936906 110.0241772  25.1838013
  77.0556336 109.3077631  24.7243650  78.2347347 110.2517887  24.6223105
  74.2838072 104.7138709  31.7050109  73.4705938 105.0132879  32.1115301
  74.7797066 104.3194397  32.4224591  76.4346650 114.7096466  33.6384373
  76.3922829 114.9357312  32.7092905  77.3509349 114.4759840  33.7870175
  79.8812284 105.1780533  40.5365003  80.2361672 105.4052006  41.3959468
  80.5284415 105.5098910  39.9142258  85.6110021 108.2998969  31.2414332
  85.4727919 108.4900565  30.3135521  85.2546240 109.0618352  31.6982383
  73.7752147 102.2857064  37.3211344  74.4151526 102.1445823  36.6234307
  72.9429677 101.9991578  36.9449946  85.6379400 110.3675496  36.2525603
  86.0715907 110.2750785  37.1008657  86.3510981 110.3432996  35.6145619
  74.5512451 111.5859495  33.4346336  75.3453049 111.0909815  33.2328911
  73.8404143 111.0577358  33.0714042  79.3707295 113.9677590  37.7858704
  79.4244318 114.5368526  38.5536420  78.5022077 114.1379475  37.4212741
  70.8595214 105.7302576  29.5106089  69.9292802 105.6687032  29.7276051
  70.9552686 105.2078529  28.7142730  70.7780763 102.2557389  32.0984331
  71.0387581 103.1702722  31.9893491  71.5997936 101.7881832  32.2480943
  72.2505689 103.6695146  39.2683155  72.9228742 103.4612508  38.6195804
  71.4235475 103.4717232  38.8288387  86.4994950 110.4099197  38.7858489
  86.6930840 111.3145007  39.0317764  86.3995568 109.9506616  39.6197074
  78.1531261 100.2957087  41.2848816  77.5059176 100.9947037  41.1913292
  78.9232276 100.7293231  41.6525064  81.5610059 110.5605939  44.3599369
  81.4095565 110.3316491  43.4429453  81.5514738 111.5176541  44.3730714
  78.3295395 108.1337852  39.3445636  79.2587455 108.2849012  39.1714603
  77.9086425 108.2221873  38.4894282  77.1283727 112.1588517  37.1144173
  76.9894812 111.7907301  37.9870111  76.3398323 112.6736156  36.9428131
  77.7231879 117.2597613  28.4569710  77.8983634 116.7885656  29.2715332
  77.0364667 117.8863379  28.6850971  78.6788942 111.5370119  34.5033011
  78.3438775 111.4970889  35.3990661  78.1792888 110.8714835  34.0303421
  72.6533186 106.9437749  40.0285592  72.5152984 106.2117988  40.6297131
  73.5638109 106.8546649  39.7469780  81.6148134 108.8826154  24.7770071
  80.9977304 108.1572982  24.6803123  81.1464622 109.6435514  24.4337145
  75.2815487 106.6557709  39.5169272  75.9915105 106.0150901  39.4755890
  75.2384795 106.9070603  40.4395453  83.2702265 113.5925062  42.4375851
  83.2114811 112.9084282  41.7706434  83.6721784 114.3344052  41.9856477
  73.9944421 103.6422927  41.3364911  73.4581778 103.1913665  41.9886508
  73.4061129 103.7768835  40.5935376  72.2892964 120.4086976  35.2309570
  72.5289562 121.0405500  35.9088589  71.4462161 120.0575016  35.5174929
  73.4046679 103.1011578  23.8991375  72.5276146 102.9800379  23.5353622
  73.8804433 102.3097656  23.6470264  83.2719672 111.5564646  40.6689831
  82.3846451 111.2190568  40.7916230  83.8418224 110.8247677  40.9058596
  64.9248820 107.8888738  33.9932882  65.6119859 107.5750468  33.4053897
  64.7696948 108.7930102  33.7200134  69.7283542 102.7778934  38.4217906
  69.6441730 102.1704604  37.6868316  68.9066248 103.2687953  38.4227402
  76.8020826 116.2166098  37.6351074  76.7290997 117.0221070  38.1470378
  76.3598219 116.4158064  36.8099095  76.5910606 115.4537868  31.1453895
  75.8078127 115.9959548  31.2392120  77.2903351 115.9711848  31.5448137
  79.9007256 101.2632498  33.7888101  80.3975955 100.5102460  33.4689171
  79.1294237 101.2996814  33.2231310  87.7537013 106.9672863  35.4306392
  87.7426889 107.8497579  35.0600325  86.8854392 106.6144414  35.2360929
  79.2619509 116.1152932  39.7909233  79.9747482 116.7500397  39.7185134
  78.7709538 116.2116798  38.9749234  80.9837036 110.0204185  31.3626524
  80.0493315 110.1405647  31.1931229  81.1613705 109.1176652  31.0986534
  76.4842224 103.4049881  33.5159785  76.1140012 102.8520921  34.2040691
  76.9801317 102.8008014  32.9634786  84.3709588 105.8621504  31.8976558
  84.8370040 106.6949496  31.8236861  84.8217088 105.3966486  32.6021817
  74.3131423 113.8647376  40.6114803  75.0140882 114.4983859  40.7644198
  73.8426538 114.2062107  39.8510443  82.4385819 112.2065326  28.8962710
  82.7145663 112.0921920  29.8056585  81.5690318 111.8082810  28.8574884
  82.3426250  98.2302091  35.9367460  81.4289330  98.4606318  36.1049667
  82.7719352  98.3140535  36.7881492  82.1132709 106.4191983  38.4367354
  81.4604159 106.6667891  37.7819807  82.4913089 105.6056121  38.1029831
  79.0739883 116.4551676  32.5395524  79.2562277 115.6373332  33.0023276
  79.8972869 116.6719369  32.1020414  79.4082048 115.3819862  29.8010573
  79.9369815 114.8712316  29.1880735  79.6710268 115.0662392  30.6656106
  78.1620282 107.1611794  44.9233391  77.4860919 107.0605924  45.5935766
  78.9847916 107.0051008  45.3869388  69.9099141 113.3983731  37.5445906
  70.4952578 112.6527419  37.6773810  69.7123979 113.7087688  38.4282570
  72.7637796 116.4334978  32.5608348  72.0948171 116.9181106  32.0772389
  72.6250666 116.6804199  33.4751727  64.5016796 105.9689331  36.2650349
  64.5400895 105.4352922  37.0587467  63.9957089 105.4424537  35.6461326
  76.9043065 118.4678722  39.1591007  77.4561373 118.6310343  39.9240092
  77.2449258 119.0583160  38.4871032  71.8807558 100.8153872  39.7612892
  71.9448885 101.6768702  39.3490289  71.8174678 100.2027873  39.0285250
  71.3559831 102.8877004  43.4085926  71.9831869 102.5054081  44.0223450
  70.4987749 102.6691206  43.7741618  81.7553939 113.2939979  45.0139661
  82.2993843 113.9069937  44.5194616  81.1740784 113.8519558  45.5306674
  68.1325373 104.6953433  29.3404281  68.4278814 103.7864112  29.2871334
  67.2313409 104.6741173  29.0185283  80.0411452 116.4160697  36.1454689
  79.9162592 115.6150437  35.6365635  80.6990543 116.9106891  35.6568659
  71.6619620 102.7709430  35.3231829  70.9406206 103.3845397  35.1839303
  72.4512876 103.3067195  35.2448475  82.1046360 114.2169717  37.7734239
  81.1576696 114.0975069  37.7012566  82.4529134 113.3292215  37.8560501
  74.4645934 100.1063856  41.5972481  74.9880336 100.3526153  42.3598790
  74.2458267 100.9383891  41.1775618  69.8613215 102.3767531  29.4643606
  69.5325921 101.4964910  29.2818712  70.2152586 102.3215200  30.3519995
  79.1092794 114.0122434  33.9738591  78.9617756 113.0839141  34.1546161
  79.9346287 114.0342524  33.4895667  72.9755038 102.6640501  29.8319083
  73.3151111 103.1926422  29.1097692  73.4227159 103.0020907  30.6077650
  82.7126916 114.8350992  35.0603464  83.6373463 114.6293854  34.9227915
  82.5442219 114.5867393  35.9692806  75.6698479 101.0477551  39.2822152
  75.3295299 100.2485364  39.6842831  74.9637485 101.3479262  38.7098985
  76.3214951  98.1326864  37.7349475  77.1441020  97.6587342  37.6128365
  76.5653014  98.9117348  38.2348161  74.9623185 101.1615122  28.0312376
  75.6831548 101.5396375  27.5276093  74.3388489 101.8803999  28.1347354
  79.1054308 101.8660271  28.9670709  79.3217922 102.7484909  28.6659537
  78.6248375 101.4746485  28.2376351  73.8453529 104.8245984  35.5441453
  73.6998110 105.1386287  36.4365735  73.3678733 105.4430885  34.9912352
  75.7049912 101.8148532  35.5922343  75.6911481 100.9189626  35.2554641
  76.4222340 101.8219196  36.2260629  77.5576043 102.2485873  37.6375470
  77.2993821 103.1702943  37.6359801  77.0261083 101.8516307  38.3275934
  82.5022232 115.3536660  30.4165556  82.6759109 114.7883082  29.6639408
  82.9951123 116.1537555  30.2345045  68.3199192 107.3651329  38.4829114
  67.7752660 108.1411137  38.6149389  69.1978541 107.7122133  38.3248236
  75.1086808 100.6962913  30.8609913  75.2302719  99.7679559  31.0600800
  74.8188851 100.7101599  29.9488228  77.9777999  98.3817823  33.9976633
  77.9999695  98.4457156  33.0428612  78.3946058  97.5422332  34.1917139
  88.3561623 108.1173083  32.0355855  88.7992769 107.3680408  31.6374979
  87.4788133 108.1083219  31.6529587  83.4897404 114.6703424  27.5162454
  84.1848309 115.2910117  27.7349768  83.8320554 113.8198775  27.7914832
  69.1065213 106.4921225  41.3759271  68.3646950 106.6403860  41.9623902
  68.7857958 106.7529491  40.5126021  85.3888827 112.1203130  29.0449785
  85.9140152 112.4590402  28.3199105  85.3011180 111.1850145  28.8612919
  77.0508876 116.0337203  41.1739661  77.3596003 115.7886350  42.0462361
  77.8484358 116.2383842  40.6858531  77.0729488 118.1875113  33.4045038
  76.6334478 117.6951492  34.0977894  77.8237605 117.6448081  33.1637113
  69.5521827 114.3786654  33.4069666  70.3779847 114.0790426  33.0268309
  69.2015879 113.6094276  33.8559455  74.5203360 113.7313122  35.4767339
  73.8983370 113.0683827  35.1769567  75.1908227 113.7574254  34.7940987
  67.7530432 112.2972980  34.3658599  66.9162341 111.8695155  34.1842601
  67.7254078 112.4905424  35.3029391  74.5927888 102.2094910  45.0699845
  74.6416043 103.0857033  44.6877615  75.1350402 101.6672303  44.4971489
  85.0782734 112.7536033  44.3500983  84.2878277 112.7360172  43.8105482
  84.8416088 113.2924327  45.1050019  85.1980609 109.6028500  41.6633711
  85.2478613 109.4378507  42.6049234  85.0894532 108.7355759  41.2731592
  74.0816867 112.2817045  28.9525800  74.2304988 112.9652510  28.2992473
  74.8883311 112.2622135  29.4675256  82.4884371 105.5859428  42.9793018
  83.3894234 105.4465893  42.6877016  82.5632345 105.7513883  43.9191195
  76.8227176 102.9626282  41.8246204  75.9530486 103.2559849  41.5528793
  77.0586657 103.5466727  42.5453468  86.6998805 112.0225441  41.9075733
  86.4083614 112.3855422  42.7439194  86.0870937 111.3092449  41.7289065
  87.8994488 109.5878321  34.4278303  88.7341379 110.0268125  34.5915863
  88.0353616 109.1116974  33.6086549  84.9485994 107.1458056  40.3755791
  85.4240115 107.3385702  39.5674642  84.0251559 107.2017242  40.1299174
  71.8369500 108.3082223  29.9586869  71.5915542 107.4044553  30.1567079
  72.0065415 108.3099373  29.0166347  79.5266210  99.1805899  39.3411625
  80.0448154  99.9166926  39.0158113  79.1721343  99.4869893  40.1758384
  71.1065148 104.0410581  27.4573030  70.4134393 104.1154936  26.8013066
  70.8616900 103.2770924  27.9794547  79.7778804  95.6006182  34.8612521
  80.0580558  94.9329371  35.4872948  80.5629411  95.7935278  34.3487185
  77.5812273 114.7765176  26.4237547  77.0086240 115.3955363  25.9708019
  78.1545066 115.3264537  26.9577469  83.6487663 104.0223816  38.6084096
  84.6005086 104.1221914  38.6296320  83.4791113 103.2302084  39.1182181
  81.6702042 101.1079399  38.7943497  81.0751974 101.3884412  38.0989986
  81.3851739 101.5973300  39.5660238  80.8009533 115.0602326  27.5546130
  81.7340206 114.9947888  27.7579005  80.7132745 115.8958593  27.0960662
  86.1275740 107.2429936  37.7226396  86.0952061 106.3045936  37.9086080
  86.7376364 107.3213972  36.9892221  77.9659071 106.1125989  23.7653600
  78.9118176 105.9832197  23.8342018  77.5873316 105.3740650  24.2423028
  86.2770229 104.0340979  37.7684679  85.7609278 103.2499436  37.5814608
  87.1610177 103.7059696  37.9331199  83.9380956  97.7781995  33.7280492
  83.7405777  97.4697083  34.6123824  84.5480661  98.5043633  33.8578422
  91.9452290 108.3045942  36.8632433  92.6755679 108.0431231  37.4240136
  91.3359236 107.5674664  36.9034501  90.0267587 106.4453805  37.4606884
  89.3000751 106.3109770  36.8523375  89.6114874 106.7530634  38.2663602
  77.8497764 110.1643735  45.2254257  78.7700773 110.3422334  45.4194303
  77.8147347 109.2199780  45.0733956  76.1501988 104.0375965  23.7008485
  75.2433444 103.7409078  23.7771199  76.4277969 103.7405783  22.8342771
  67.0679929 105.3582328  34.1507532  66.7482713 104.5047637  33.8581906
  66.5213357 105.5730907  34.9065499  70.8459836 108.0744769  37.8677038
  71.0645846 109.0061877  37.8865072  71.2585610 107.7152744  38.6531842
  77.7664054  98.5812855  29.8552726  76.9564782  98.2359940  30.2307973
  78.4548471  98.2720398  30.4440338  79.6954602  97.6590901  31.4777023
  80.2485641  98.0786355  32.1367046  79.9324689  96.7326650  31.5199979
  75.7187702 103.6477975  47.2579787  75.6184429 104.5972332  47.1891878
  75.5009244 103.3196214  46.3855857  74.9200773 100.8962900  23.8420464
  75.7819937 101.2217798  24.1016282  75.1051117 100.1094396  23.3293530
  66.9368189 108.9785240  36.1200653  66.2431660 108.5639193  35.6070608
  67.6841180 109.0205776  35.5234072  83.0733410  99.7691427  30.9855687
  82.4932079 100.4276231  30.6033740  82.8069342  98.9468771  30.5743105
  81.5236976  99.1696484  33.1877008  82.0236754  99.2813019  32.3791326
  82.1672584  98.8657537  33.8277816  75.5818972 107.0775114  46.0744849
  75.0986053 107.8775474  46.2808738  75.6679911 107.0883059  45.1212293
  68.8504931 108.9103494  33.9966668  68.8275619 109.0091181  33.0448551
  69.1605568 109.7568644  34.3183834  71.5092309 110.9679649  38.1113282
  72.4635563 110.9363591  38.0443214  71.3104833 110.5070272  38.9263508
  72.0991691 109.5380765  40.6784080  72.9184580 110.0324843  40.7018917
  72.3728499 108.6212733  40.6501648  81.8558288 101.9291517  30.0412036
  80.9684143 102.2141168  29.8232230  82.2712277 101.7685280  29.1939312
  85.2072824 101.9538038  33.7566375  85.9833214 102.4434490  34.0290992
  84.4820958 102.3796092  34.2138244  87.6445382 102.6665657  34.8140315
  88.2389873 102.4261393  34.1033624  87.7171966 101.9472788  35.4413852
  69.8642538 116.5099268  35.1283480  69.7297006 115.7499669  34.5621478
  69.4474600 117.2340168  34.6612269  81.0001501 111.6936192  24.1360056
  81.7037351 111.8986194  24.7517711  80.2764150 112.2612954  24.4009139
  81.8299311 107.4446053  30.2562326  81.7734513 107.9014604  29.4169958
  82.3827654 106.6836738  30.0785169  85.6404117 103.2335785  31.0812445
  85.3841051 102.8332420  31.9120653  85.0156985 103.9479579  30.9562584
  89.9516455 105.9731858  33.5883737  89.3916013 106.0425047  34.3615299
  89.3459958 105.7972843  32.8683233  73.0211664 117.4068585  35.3401923
  72.9044048 118.3514018  35.2380613  72.2004110 117.1042147  35.7287722
  82.9088198 112.1318721  26.1858516  83.7433802 111.6999919  26.0035990
  82.7472541 111.9600735  27.1135410  82.5634091 108.6350834  27.5514855
  82.5082894 108.4695106  26.6103299  81.9380146 109.3426867  27.7077045
  67.3526606 103.8718899  41.3776277  67.9985469 103.3617853  41.8663502
  67.1443757 104.6087580  41.9519702  79.8779998 110.9399746  46.8768418
  80.7471157 111.1140398  46.5155053  79.3986749 111.7594163  46.7544147
  75.8730216  98.1358943  27.1300173  75.8608886  99.0800783  27.2868444
  76.7653638  97.9529089  26.8359635  74.0466178 118.0596847  38.5557851
  74.9493425 118.0920457  38.8724346  73.8203548 117.1297298  38.5704187
  75.8019780 116.8127834  35.2167930  74.8515411 116.8129695  35.1032302
  76.1052266 116.0660568  34.7003965  79.6882336  94.7301720  31.3846110
  78.9214731  94.1760207  31.5302792  80.0993040  94.8023589  32.2460262
  71.6924097 101.0186516  45.4751291  72.5555558 100.6623320  45.6854616
  71.1189507 100.6800410  46.1626696  91.5372473 122.6488372  36.2813692
  92.1750883 122.5295119  35.5777032  91.4193316 123.5969216  36.3401645
  88.3462180 122.6015800  36.2175217  88.0080691 122.4856865  35.3295752
  89.2151948 122.2006965  36.1976223  88.8281963 123.7550652  42.1761423
  88.8170604 123.3603450  41.3041926  88.9902602 123.0216724  42.7695194
  81.7513427 125.9502468  35.0456328  82.5434719 125.6093293  34.6302628
  81.9910078 126.0597443  35.9658482  85.5489224 126.5387764  41.1240607
  85.2579090 127.4433394  41.0087273  86.1846208 126.5804291  41.8384676
  86.4745431 123.9164612  37.7141966  87.0709003 123.6920635  36.9998929
  86.5320402 123.1749358  38.3167414  91.0913742 120.3739826  33.3566900
  91.8776831 119.9559249  33.0057317  91.3552446 121.2785918  33.5248549
  94.0147589 114.0236633  38.7194488  93.6830914 114.8932044  38.4955703
  93.4193203 113.7072917  39.3988518  90.5079109 126.2249179  38.1190400
  90.2079832 127.1274218  38.0106207  90.1630169 125.9581362  38.9711553
  83.9591590 122.6762976  34.1527105  83.0342087 122.5439190  34.3604796
  84.2076004 123.4557195  34.6497047  93.9076253 118.7431719  35.7987838
  92.9993130 118.6747128  35.5046599  93.8563849 119.2203664  36.6269663
  81.3200402 122.3196250  34.9870894  81.4492783 122.5730728  35.9010305
  80.6397853 122.9123958  34.6675549  87.9817119 120.1621365  43.7422735
  87.2050453 120.7215285  43.7325599  88.6207682 120.6478148  44.2637605
  95.7737899 116.9448158  37.5765711  95.1312279 117.2380691  36.9305506
  95.2692828 116.8301078  38.3818908  86.2363491 122.9706818  43.3040702
  86.9778175 123.5091862  43.0275525  85.5300476 123.5973107  43.4612254
  91.7118831 125.1135959  41.9012863  92.1202187 124.6718369  41.1567496
  90.9896092 124.5388586  42.1547056  88.0649901 120.0508566  39.2746420
  88.9111096 120.4747979  39.4181069  88.0048538 119.3942190  39.9684983
  91.2149346 117.7112934  40.9327594  90.9710278 118.4654994  40.3961870
  91.4909276 118.0898281  41.7674841  93.1687809 124.2551546  39.6104860
  93.3804704 124.8983306  38.9339241  93.1217557 123.4213863  39.1426790
  90.7714038 116.8669367  36.5141432  89.9098517 117.1650620  36.8058169
  90.7976472 117.0839766  35.5822464  84.4799688 124.9583039  35.8595001
  85.0501045 125.3870307  35.2212485  85.0707800 124.6765624  36.5579186
  84.9724855 120.1246466  44.1056012  84.3423515 120.8062747  44.3391409
  84.8660943 120.0129548  43.1609150  80.2669827 119.7918262  35.0321936
  79.4768881 120.0475791  34.5562047  80.7581074 120.6066600  35.1373977
  82.2184572 120.1562842  31.9905413  81.4215736 120.2681536  32.5088908
  81.9910165 120.4949494  31.1246303  88.0490240 126.6807545  39.9387927
  88.1134673 127.1427952  40.7746099  87.3401164 126.0504910  40.0670237
  78.5507530 120.0448753  37.4636927  78.8015568 120.9295763  37.7294503
  79.0867078 119.8653354  36.6912019  84.2505597 114.4267232  46.4681263
  83.8572543 113.8733431  47.1428907  85.0671738 114.7377811  46.8587780
  87.1673558 115.8425111  44.0601519  87.9083272 116.4432265  43.9805982
  87.3991481 115.1002749  43.5019562  82.3114896 121.0281479  42.3379749
  82.1968411 120.1266736  42.6386848  81.4559414 121.2745175  41.9864566
  84.1493855 130.4995021  38.4627928  84.7001280 130.3712084  37.6904922
  83.3105331 130.7989910  38.1122821  87.9461026 126.7646148  42.8072159
  88.4789363 126.0034437  42.5771467  87.4175107 126.4719800  43.5496314
  91.1130721 111.8706214  38.3365801  90.7694991 112.7607856  38.2604912
  91.4809684 111.6807872  37.4735386  79.1816572 124.1939745  31.1554403
  80.0191794 124.6036753  30.9388111  79.3594840 123.2539187  31.1254597
  88.6628115 116.7064526  31.9023475  87.8069711 116.3171377  31.7229113
  89.0755067 116.7856487  31.0423260  90.1927262 114.2410869  36.3015034
  89.6892057 114.2041005  35.4882840  90.4857869 115.1503612  36.3611691
  86.4370148 114.3249599  35.3081216  87.3023144 114.1292408  34.9487106
  86.5047656 114.0959951  36.2350573  84.0432467 116.5551807  32.6797583
  84.6176219 116.3326989  31.9470776  84.6303449 116.6240502  33.4326184
  86.3455134 113.4293056  31.4072652  85.6919547 113.1142073  30.7829267
  86.3035608 112.8068796  32.1332475  89.5792875 119.9174990  35.7320300
  88.6615436 120.1389937  35.5741988  89.9953018 119.9921300  34.8732007
  92.9118387 111.1299774  33.4383539  93.2177264 110.2697137  33.1509454
  93.6370992 111.7217394  33.2382533  79.2042743 121.5330460  31.8265137
  79.0067143 120.9399821  31.1016203  78.6489407 121.2282670  32.5441076
  87.1839467 121.4253567  33.9459730  87.2388076 120.4727403  33.8702206
  86.3730669 121.5813006  34.4301028  85.1231827 120.0430626  31.7050109
  84.3099692 120.3424797  32.1115301  85.6190821 119.6486315  32.4224591
  90.7206038 120.5072451  40.5365003  91.0755426 120.7343924  41.3959468
  91.3678170 120.8390828  39.9142258  84.6145901 117.6148982  37.3211344
  85.2545281 117.4737741  36.6234307  83.7823432 117.3283495  36.9449946
  81.6174518 117.5849307  32.0984331  81.8781335 118.4994640  31.9893491
  82.4391690 117.1173749  32.2480943  83.0899443 118.9987064  39.2683155
  83.7622497 118.7904426  38.6195804  82.2629230 118.8009150  38.8288387
  88.9925015 115.6249005  41.2848816  88.3452930 116.3238955  41.1913292
  89.7626031 116.0585149  41.6525064  89.1689149 123.4629770  39.3445636
  90.0981209 123.6140929  39.1714603  88.7480179 123.5513791  38.4894282
  87.9677481 127.4880434  37.1144173  87.8288567 127.1199219  37.9870111
  87.1792077 128.0028074  36.9428131  83.4926940 122.2729667  40.0285592
  83.3546738 121.5409906  40.6297131  84.4031864 122.1838567  39.7469780
  86.1209241 121.9849626  39.5169272  86.8308860 121.3442819  39.4755890
  86.0778549 122.2362521  40.4395453  84.8338175 118.9714844  41.3364911
  84.2975532 118.5205583  41.9886508  84.2454883 119.1060753  40.5935376
  75.7642574 123.2180655  33.9932882  76.4513614 122.9042385  33.4053897
  75.6090703 124.1222020  33.7200134  80.5677296 118.1070852  38.4217906
  80.4835485 117.4996521  37.6868316  79.7460003 118.5979870  38.4227402
  90.7401010 116.5924415  33.7888101  91.2369710 115.8394378  33.4689171
  89.9687992 116.6288732  33.2231310  87.3235979 118.7341798  33.5159785
  86.9533766 118.1812839  34.2040691  87.8195071 118.1299932  32.9634786
  85.1525177 129.1939293  40.6114803  85.8534637 129.8275776  40.7644198
  84.6820292 129.5354025  39.8510443  93.1820005 113.5594009  35.9367460
  92.2683085 113.7898236  36.1049667  93.6113106 113.6432453  36.7881492
  92.9526463 121.7483901  38.4367354  92.2997914 121.9959808  37.7819807
  93.3306843 120.9348039  38.1029831  89.0014036 122.4903712  44.9233391
  88.3254673 122.3897841  45.5935766  89.8241670 122.3342926  45.3869388
  80.7492895 128.7275648  37.5445906  81.3346332 127.9819336  37.6773810
  80.5517734 129.0379605  38.4282570  75.3410550 121.2981249  36.2650349
  75.3794650 120.7644839  37.0587467  74.8350843 120.7716454  35.6461326
  82.7201313 116.1445789  39.7612892  82.7842639 117.0060620  39.3490289
  82.6568433 115.5319791  39.0285250  82.1953585 118.2168922  43.4085926
  82.8225624 117.8345999  44.0223450  81.3381504 117.9983124  43.7741618
  78.9719128 120.0245351  29.3404281  79.2672569 119.1156029  29.2871334
  78.0707164 120.0033090  29.0185283  82.5013375 118.1001347  35.3231829
  81.7799961 118.7137315  35.1839303  83.2906631 118.6359112  35.2448475
  85.3039688 115.4355774  41.5972481  85.8274090 115.6818070  42.3598790
  85.0852022 116.2675809  41.1775618  80.7006969 117.7059448  29.4643606
  80.3719676 116.8256827  29.2818712  81.0546340 117.6507117  30.3519995
  83.8148793 117.9932418  29.8319083  84.1544865 118.5218340  29.1097692
  84.2620913 118.3312824  30.6077650  86.5092233 116.3769469  39.2822152
  86.1689054 115.5777282  39.6842831  85.8031240 116.6771180  38.7098985
  87.1608705 113.4618781  37.7349475  87.9834775 112.9879260  37.6128365
  87.4046769 114.2409265  38.2348161  84.6847284 120.1537902  35.5441453
  84.5391865 120.4678205  36.4365735  84.2072488 120.7722802  34.9912352
  86.5443667 117.1440450  35.5922343  86.5305236 116.2481543  35.2554641
  87.2616095 117.1511114  36.2260629  88.3969798 117.5777790  37.6375470
  88.1387575 118.4994861  37.6359801  87.8654838 117.1808225  38.3275934
  79.1592946 122.6943246  38.4829114  78.6146414 123.4703054  38.6149389
  80.0372296 123.0414051  38.3248236  85.9480563 116.0254830  30.8609913
  86.0696474 115.0971477  31.0600800  85.6582605 116.0393516  29.9488228
  88.8171753 113.7109741  33.9976633  88.8393450 113.7749074  33.0428612
  89.2339812 112.8714249  34.1917139  79.9458968 121.8213143  41.3759271
  79.2040704 121.9695778  41.9623902  79.6251712 122.0821408  40.5126021
  78.5924187 127.6264898  34.3658599  77.7556095 127.1987072  34.1842601
  78.5647832 127.8197341  35.3029391  85.4321642 117.5386828  45.0699845
  85.4809798 118.4148951  44.6877615  85.9744157 116.9964221  44.4971489
  93.3278125 120.9151345  42.9793018  94.2287988 120.7757810  42.6877016
  93.4026100 121.0805800  43.9191195  87.6620931 118.2918200  41.8246204
  86.7924240 118.5851766  41.5528793  87.8980411 118.8758645  42.5453468
  95.7879748 122.4749973  40.3755791  96.2633870 122.6677620  39.5674642
  94.8645313 122.5309159  40.1299174  90.3659965 114.5097817  39.3411625
  90.8841908 115.2458844  39.0158113  90.0115097 114.8161810  40.1758384
  90.6172559 110.9298100  34.8612521  90.8974313 110.2621289  35.4872948
  91.4023166 111.1227195  34.3487185  94.4881417 119.3515734  38.6084096
  95.4398840 119.4513831  38.6296320  94.3184868 118.5594002  39.1182181
  92.5095797 116.4371317  38.7943497  91.9145729 116.7176330  38.0989986
  92.2245493 116.9265218  39.5660238  97.1163983 119.3632897  37.7684679
  96.6003032 118.5791353  37.5814608  98.0003932 119.0351613  37.9331199
  94.7774710 113.1073912  33.7280492  94.5799531 112.7989000  34.6123824
  95.3874416 113.8335551  33.8578422  88.6891518 125.4935652  45.2254257
  89.6094528 125.6714251  45.4194303  88.6541101 124.5491698  45.0733956
  77.9073683 120.6874246  34.1507532  77.5876468 119.8339554  33.8581906
  77.3607111 120.9022824  34.9065499  81.6853591 123.4036687  37.8677038
  81.9039601 124.3353795  37.8865072  82.0979365 123.0444661  38.6531842
  88.6057809 113.9104772  29.8552726  87.7958537 113.5651857  30.2307973
  89.2942226 113.6012316  30.4440338  90.5348357 112.9882819  31.4777023
  91.0879396 113.4078273  32.1367046  90.7718443 112.0618567  31.5199979
  86.5581456 118.9769893  47.2579787  86.4578183 119.9264250  47.1891878
  86.3402998 118.6488132  46.3855857  77.7761943 124.3077158  36.1200653
  77.0825415 123.8931110  35.6070608  78.5234934 124.3497694  35.5234072
  92.3630730 114.4988402  33.1877008  92.8630509 114.6104937  32.3791326
  93.0066338 114.1949455  33.8277816  86.4212726 122.4067032  46.0744849
  85.9379808 123.2067392  46.2808738  86.5073665 122.4174976  45.1212293
  79.6898686 124.2395411  33.9966668  79.6669374 124.3383099  33.0448551
  79.9999322 125.0860562  34.3183834  82.3486064 126.2971566  38.1113282
  83.3029317 126.2655509  38.0443214  82.1498587 125.8362190  38.9263508
  82.9385446 124.8672682  40.6784080  83.7578335 125.3616761  40.7018917
  83.2122254 123.9504651  40.6501648  96.0466578 117.2829956  33.7566375
  96.8226968 117.7726408  34.0290992  95.3214712 117.7088010  34.2138244
  78.1920360 119.2010816  41.3776277  78.8379224 118.6909770  41.8663502
  77.9837511 119.9379498  41.9519702  90.5276090 110.0593638  31.3846110
  89.7608486 109.5052124  31.5302792  90.9386795 110.1315506  32.2460262
  82.5317851 116.3478433  45.4751291  83.3949313 115.9915238  45.6854616
  81.9583262 116.0092328  46.1626696  24.3544208  14.0009835  30.6612556
  23.9108063  13.2146214  30.3433461  25.0161422  14.1888986  29.9956447
  26.4525446  14.2812635  28.6893958  26.4343922  15.1021516  28.1974227
  27.3745367  14.1566711  28.9144099  27.3641287  10.9208474  31.0844676
  27.2126794  10.6919025  30.1674760  27.3545967  11.8779075  31.0976021
  29.0733494  13.9527596  29.1621158  29.0146040  13.2686816  28.4951741
  29.4753012  14.6946586  28.7101784  27.5585168  13.6542513  31.7384968
  28.1025072  14.2672472  31.2439923  26.9772013  14.2122092  32.2551981
  30.8813962  13.1138568  31.0746289  30.0909506  13.0962706  30.5350789
  30.6447317  13.6526861  31.8295326  32.5030034  12.3827975  28.6321039
  32.2114842  12.7457956  29.4684500  31.8902165  11.6694984  28.4534371
  25.6811227  11.3002280  33.6013724  26.5502386  11.4742933  33.2400359
  25.2017978  12.1196697  33.4789454  37.3403702  23.0090906  23.0058999
  37.9782112  22.8897654  22.3022339  37.2224545  23.9571750  23.0646951
  34.1493409  22.9618334  22.9420524  33.8111920  22.8459399  22.0541059
  35.0183177  22.5609499  22.9221530  34.6313192  24.1153186  28.9006729
  34.6201832  23.7205984  28.0287233  34.7933831  23.3819259  29.4940501
  27.5544656  26.3105002  21.7701635  28.3465948  25.9695827  21.3547934
  27.7941306  26.4199977  22.6903788  31.3520453  26.8990298  27.8485913
  31.0610319  27.8035929  27.7332580  31.9877437  26.9406825  28.5629983
  32.2776660  24.2767146  24.4387273  32.8740232  24.0523169  23.7244236
  32.3351631  23.5351892  25.0412721  42.2953398  20.6717593  20.9845186
  43.0278570  20.1016810  21.2183015  41.5392754  20.2839194  21.4251691
  39.8178818  14.3839167  25.4439794  39.4862143  15.2534578  25.2201009
  39.2224432  14.0675451  26.1233825  36.3110338  26.5851713  24.8435707
  36.0111061  27.4876752  24.7351514  35.9661397  26.3183897  25.6956860
  39.7107482  19.1034254  22.5233144  38.8024359  19.0349662  22.2291905
  39.6595077  19.5806198  23.3514970  31.2931118  33.3496034  17.8106675
  31.2155147  34.3003859  17.8895155  30.6892761  33.0041906  18.4681601
  33.7848347  20.5223899  30.4668041  33.0081681  21.0817819  30.4570906
  34.4238910  21.0080682  30.9882912  41.5769128  17.3050692  24.3011018
  40.9343508  17.5983225  23.6550813  41.0724057  17.1903612  25.1064215
  32.0394720  23.3309352  30.0286008  32.7809404  23.8694396  29.7520832
  31.3331705  23.9575641  30.1857560  37.5150059  25.4738493  28.6258170
  37.9233415  25.0320903  27.8812802  36.7927321  24.8991120  28.8792363
  33.8681129  20.4111100  25.9991727  34.7142325  20.8350513  26.1426376
  33.8079767  19.7544724  26.6930290  37.8378874  26.0339684  22.3810459
  37.2087736  26.1985398  21.6786527  37.4504536  26.4481293  23.1521423
  41.7168106  26.9694121  19.7354823  41.0319144  27.3493023  19.1851856
  41.8011955  27.5789448  20.4686770  37.0180575  18.0715468  27.6572901
  36.7741507  18.8257529  27.1207176  37.2940505  18.4500816  28.4920148
  38.9719037  24.6154080  26.3350166  39.1835933  25.2585840  25.6584547
  38.9248786  23.7816397  25.8672096  33.3906836  25.7714092  19.6460544
  33.8545181  26.0501795  18.8565166  33.1263634  24.8697536  19.4633635
  30.2830917  25.3185573  22.5840307  30.8532274  25.7472842  21.9457792
  30.8739029  25.0368158  23.2824493  30.7756083  20.4849001  30.8301318
  30.1454744  21.1665282  31.0636715  30.6692171  20.3732082  29.8854457
  40.0864865  27.4926036  24.5072523  40.9082309  27.0906223  24.2255205
  40.0827268  27.3894270  25.4588639  33.8521469  27.0410079  26.6633234
  33.9165901  27.5030486  27.4991406  33.1432393  26.4107444  26.7915544
  48.1770858  23.8364784  20.8557495  47.4234567  23.2672182  20.7001499
  48.3118400  23.8027449  21.8028130  30.0536826  14.7869767  33.1926570
  29.6603772  14.2335965  33.8674214  30.8702966  15.0980345  33.5833087
  28.8293769  29.3419381  19.1862893  29.0060397  30.2637346  18.9983876
  29.6250602  29.0277800  19.6157272  32.9704787  16.2027646  30.7846826
  33.7114501  16.8034799  30.7051289  33.2022710  15.4605283  30.2264869
  28.1146125  21.3884013  29.0625056  27.9999640  20.4869270  29.3632155
  27.2590643  21.6347710  28.7109872  35.1937963  29.3301753  30.6612556
  34.7501817  28.5438132  30.3433461  35.8555176  29.5180904  29.9956447
  29.9525084  30.8597555  25.1873235  30.5032509  30.7314618  24.4150229
  29.1136560  31.1592444  24.8368128  37.2919201  29.6104553  28.6893958
  37.2737676  30.4313434  28.1974227  38.2139121  29.4858628  28.9144099
  33.7492255  27.1248683  29.5317466  34.2820592  26.3636971  29.3016774
  33.2206336  26.8322334  30.2741621  40.0937814  24.4483696  22.1603324
  39.4361488  25.1382957  22.2483453  40.8978213  24.8380127  22.5037311
  38.9043273  22.8028068  20.2107266  39.4175154  23.4358060  20.7128976
  39.5544497  22.2029264  19.8450626  35.3824104  20.2777524  22.4565607
  34.4646665  20.4992471  22.2987295  35.7984247  20.3523834  21.5977314
  39.6705069  27.7834070  18.3386409  39.2167396  26.9424980  18.3951599
  39.0399036  28.4195468  18.6761189  38.1138008  29.6210566  19.2736227
  38.4060982  30.1815623  18.5548593  38.6236629  29.9139127  20.0289386
  33.0771633  30.3990917  20.3629680  33.0347812  30.6251764  19.4338212
  33.9934332  30.1654292  20.5115481  36.5237267  20.8674985  27.2610309
  36.8786655  21.0946458  28.1204775  37.1709398  21.1993362  26.6387565
  42.2535004  23.9893421  17.9659638  42.1152903  24.1795017  17.0380828
  41.8971223  24.7512804  18.4227689  42.2804384  26.0569948  22.9770910
  42.7140890  25.9645237  23.8253964  42.9935964  26.0327448  22.3390926
  31.1937434  27.2753946  20.1591643  31.9878033  26.7804267  19.9574218
  30.4829126  26.7471810  19.7959348  36.0132279  29.6572042  24.5104010
  36.0669301  30.2262978  25.2781726  35.1447060  29.8273927  24.1458048
  28.8930672  19.3589598  25.9928462  29.5653725  19.1506960  25.3441111
  28.0660458  19.1611684  25.5533694  43.1419933  26.0993649  25.5103795
  43.3355823  27.0039459  25.7563070  43.0420551  25.6401068  26.3442380
  34.7956244  15.9851539  28.0094123  34.1484159  16.6841489  27.9158599
  35.5657259  16.4187683  28.3770371  38.2035042  26.2500391  31.0844676
  38.0520548  26.0210943  30.1674760  38.1939721  27.2070993  31.0976021
  34.9720378  23.8232304  26.0690942  35.9012438  23.9743464  25.8959910
  34.5511408  23.9116325  25.2139589  33.7708710  27.8482968  23.8389480
  33.6319796  27.4801753  24.7115418  32.9823306  28.3630608  23.6673438
  34.3656862  32.9492065  15.1815016  34.5408618  32.4780108  15.9960639
  33.6789650  33.5757831  15.4096277  35.3213925  27.2264571  21.2278318
  34.9863758  27.1865341  22.1235968  34.8217871  26.5609287  20.7548728
  29.2958169  22.6332201  26.7530899  29.1577967  21.9012440  27.3542438
  30.2063093  22.5441101  26.4715087  31.9240470  22.3452161  26.2414579
  32.6340088  21.7045353  26.2001197  31.8809778  22.5965055  27.1640759
  39.9127249  29.2819514  29.1621158  39.8539795  28.5978734  28.4951741
  40.3146767  30.0238504  28.7101784  30.6369404  19.3317378  28.0610218
  30.1006761  18.8808117  28.7131814  30.0486112  19.4663287  27.3180682
  28.9317947  36.0981428  21.9554877  29.1714546  36.7299952  22.6333895
  28.0887144  35.7469468  22.2420236  39.9144656  27.2459098  27.3935137
  39.0271435  26.9085020  27.5161536  40.4843207  26.5142129  27.6303903
  33.4445809  31.9060550  24.3596381  33.3715981  32.7115522  24.8715685
  33.0023202  32.1052516  23.5344402  33.2335589  31.1432320  17.8699202
  32.4503111  31.6854000  17.9637427  33.9328334  31.6606300  18.2693443
  44.3961996  22.6567315  22.1551699  44.3851873  23.5392031  21.7845632
  43.5279376  22.3038866  21.9606236  35.9044493  31.8047384  26.5154539
  36.6172465  32.4394849  26.4430441  35.4134521  31.9011250  25.6994541
  37.6262020  25.7098637  18.0871831  36.6918298  25.8300099  17.9176535
  37.8038688  24.8071104  17.8231841  41.0134571  21.5515956  18.6221865
  41.4795023  22.3843948  18.5482168  41.4642071  21.0860938  19.3267124
  30.9556406  29.5541828  27.3360110  31.6565866  30.1878311  27.4889504
  30.4851521  29.8956559  26.5755749  38.7557692  22.1086435  25.1612660
  38.1029142  22.3562343  24.5065113  39.1338072  21.2950573  24.8275138
  35.7164866  32.1446128  19.2640831  35.8987261  31.3267784  19.7268583
  36.5397852  32.3613821  18.8265721  36.0507032  31.0714313  16.5255879
  36.5794798  30.5606768  15.9126041  36.3135251  30.7556844  17.3901412
  34.8045265  22.8506246  31.6478698  34.1285902  22.7500375  32.3181073
  35.6272899  22.6945460  32.1114695  26.5524124  29.0878183  24.2691213
  27.1377561  28.3421871  24.4019117  26.3548963  29.3982139  25.1527877
  29.4062780  32.1229430  19.2853655  28.7373155  32.6075558  18.8017695
  29.2675649  32.3698651  20.1997034  33.5468048  34.1573174  25.8836313
  34.0986356  34.3204795  26.6485399  33.8874242  34.7477611  25.2116338
  27.9984814  18.5771456  30.1331232  28.6256853  18.1948533  30.7468757
  27.1412733  18.3585658  30.4986925  38.3978922  28.9834431  31.7384968
  38.9418826  29.5964389  31.2439923  37.8165767  29.5414010  32.2551981
  36.6836435  32.1055149  22.8699996  36.5587575  31.3044889  22.3610941
  37.3415526  32.6001342  22.3813966  38.7471344  29.9064169  24.4979546
  37.8001679  29.7869520  24.4257872  39.0954117  29.0186667  24.5805807
  31.1070917  15.7958308  28.3217788  31.6305319  16.0420605  29.0844097
  30.8883250  16.6278343  27.9020925  35.7517777  29.7016885  20.6983898
  35.6042739  28.7733593  20.8791468  36.5771271  29.7236976  20.2140973
  39.3551899  30.5245444  21.7848771  40.2798446  30.3188305  21.6473222
  39.1867202  30.2761845  22.6938112  32.3123462  16.7372003  26.0067458
  31.9720283  15.9379816  26.4088138  31.6062468  17.0373714  25.4344291
  34.2001026  17.9380324  24.3620777  33.9418804  18.8597395  24.3605107
  33.6686067  17.5410759  25.0521241  39.1447215  31.0431112  17.1410862
  39.3184093  30.4777534  16.3884715  39.6376106  31.8432006  16.9590352
  24.9624175  23.0545781  25.2074421  24.4177643  23.8305589  25.3394695
  25.8403525  23.4016585  25.0493542  44.9986606  23.8067535  18.7601162
  45.4417752  23.0574860  18.3620285  44.1213117  23.7977671  18.3774894
  40.1322388  30.3597876  14.2407760  40.8273292  30.9804569  14.4595075
  40.4745538  29.5093227  14.5160138  25.7490197  22.1815677  28.1004578
  25.0071933  22.3298312  28.6869208  25.4282941  22.4423943  27.2371327
  42.0313811  27.8097582  15.7695091  42.5565135  28.1484854  15.0444411
  41.9436163  26.8744597  15.5858226  33.6933859  31.7231655  27.8984968
  34.0020986  31.4780802  28.7707667  34.4909341  31.9278294  27.4103838
  33.7154471  33.8769565  20.1290344  33.2759462  33.3845944  20.8223201
  34.4662588  33.3342532  19.8882420  26.1946810  30.0681106  20.1314972
  27.0204830  29.7684878  19.7513616  25.8440862  29.2988728  20.5804761
  31.1628344  29.4207574  22.2012646  30.5408353  28.7578279  21.9014874
  31.8333211  29.4468706  21.5186294  31.2352871  17.8989362  31.7945152
  31.2841027  18.7751485  31.4122922  31.7775385  17.3566755  31.2216795
  41.7207717  28.4430485  31.0746289  40.9303261  28.4254624  30.5350789
  41.4841071  28.9818779  31.8295326  41.8405592  25.2922952  28.3879018
  41.8903597  25.1272959  29.3294541  41.7319515  24.4250211  27.9976898
  39.1309354  21.2753880  29.7038324  40.0319217  21.1360344  29.4122322
  39.2057329  21.4408334  30.6436502  33.4652160  18.6520734  28.5491511
  32.5955469  18.9454300  28.2774099  33.7011640  19.2361179  29.2698774
  43.3423789  27.7119893  28.6321039  43.0508597  28.0749874  29.4684500
  42.7295920  26.9986901  28.4534371  44.5419471  25.2772773  21.1523609
  45.3766362  25.7162577  21.3161170  44.6778600  24.8011426  20.3331855
  41.5910977  22.8352508  27.1001097  42.0665099  23.0280154  26.2919949
  40.6676542  22.8911694  26.8544481  36.1691193  14.8700351  26.0656931
  36.6873137  15.6061378  25.7403420  35.8146326  15.1764345  26.9003690
  40.2912646  19.7118268  25.3329403  41.2430069  19.8116365  25.3541627
  40.1216096  18.9196536  25.8427487  38.3127025  16.7973851  25.5188804
  37.7176957  17.0778864  24.8235292  38.0276722  17.2867752  26.2905545
  42.7700724  22.9324387  24.4471702  42.7377044  21.9940388  24.6331386
  43.3801347  23.0108424  23.7137527  42.9195212  19.7235431  24.4929986
  42.4034261  18.9393888  24.3059915  43.8035161  19.3954148  24.6576505
  48.5877274  23.9940394  23.5877739  49.3180662  23.7325682  24.1485443
  47.9784219  23.2569116  23.6279807  46.6692571  22.1348257  24.1852190
  45.9425734  22.0004222  23.5768682  46.2539858  22.4425086  24.9908909
  34.4922747  25.8538187  31.9499564  35.4125757  26.0316786  32.1439610
  34.4572330  24.9094232  31.7979263  27.4884820  23.7639221  24.5922345
  27.7070829  24.6956329  24.6110378  27.9010593  23.4047196  25.3777149
  32.3612685  19.3372427  33.9825094  32.2609412  20.2866784  33.9137185
  32.1434227  19.0090666  33.1101164  32.2243955  22.7669566  32.7990155
  31.7411037  23.5669926  33.0054044  32.3104894  22.7777511  31.8457599
  28.1517293  26.6574101  24.8358589  29.1060546  26.6258043  24.7688521
  27.9529816  26.1964724  25.6508815  28.7416675  25.2275217  27.4029387
  29.5609564  25.7219295  27.4264224  29.0153482  24.3107185  27.3746954
  41.8497807  17.6432490  20.4811681  42.6258197  18.1328942  20.7536298
  41.1245941  18.0690544  20.9383551  44.2870366  18.3560109  21.5385622
  44.8814856  18.1155845  20.8278930  44.3596949  17.6367240  22.1659158
  26.5067521  32.1993720  21.8528787  26.3721989  31.4394121  21.2866785
  26.0899584  32.9234620  21.3857576  46.5941438  21.6626310  20.3129043
  46.0340996  21.7319499  21.0860605  45.9884942  21.4867295  19.5928540
  29.6636647  33.0963037  22.0647230  29.5469031  34.0408470  21.9625920
  28.8429093  32.7936599  22.4533029  23.9951589  19.5613350  28.1021584
  24.6410452  19.0512304  28.5908809  23.7868740  20.2982032  28.6765009
  36.5204981  26.6294198  33.6013724  37.3896141  26.8034850  33.2400359
  36.0411733  27.4488615  33.4789454  30.6891161  33.7491299  25.2803158
  31.5918408  33.7814909  25.5969653  30.4628531  32.8191750  25.2949494
  32.4444763  32.5022285  21.9413237  31.4940394  32.5024147  21.8277609
  32.7477249  31.7555020  21.4249271  28.3349080  16.7080968  32.1996598
  29.1980541  16.3517772  32.4099923  27.7614491  16.3694862  32.8872002
  48.1797457  38.3382824  23.0058999  48.8175867  38.2189571  22.3022339
  48.0618300  39.2863668  23.0646951  44.9887163  38.2910252  22.9420524
  44.6505675  38.1751317  22.0541059  45.8576931  37.8901417  22.9221530
  40.8473979  40.1445728  18.9317415  40.2838844  40.0535665  18.1633702
  40.7326374  39.3245633  19.4119907  45.4706946  39.4445104  28.9006729
  45.4595587  39.0497902  28.0287233  45.6327586  38.7111176  29.4940501
  38.3938411  41.6396920  21.7701635  39.1859703  41.2987745  21.3547934
  38.6335061  41.7491895  22.6903788  46.4273538  43.8116696  14.2431880
  45.7761517  44.3970777  13.8565893  47.2217900  44.3422891  14.3026917
  40.3529165  40.9005833  14.6419014  41.1260041  40.3534820  14.5031890
  40.7054564  41.7650083  14.8533475  42.1914207  42.2282216  27.8485913
  41.9004073  43.1327846  27.7332580  42.8271192  42.2698743  28.5629983
  43.1170414  39.6059064  24.4387273  43.7133986  39.3815086  23.7244236
  43.1745386  38.8643810  25.0412721  42.6895442  37.0598499  12.2737464
  42.9420963  36.5380021  11.5120927  41.7520002  36.8964645  12.3764147
  47.7338725  36.0634278  20.0812207  48.5201815  35.6453701  19.7302624
  47.9977430  36.9680370  20.2493855  47.9048803  41.5007128  14.7800864
  47.2694636  41.5741755  15.4921768  47.5746209  42.0900727  14.1019943
  53.1347152  36.0009511  20.9845186  53.8672324  35.4308728  21.2183015
  52.3786508  35.6131111  21.4251691  42.4091731  38.9626605  14.4761839
  42.2927989  38.2871509  15.1442923  42.5193991  38.4758979  13.6593992
  44.7523272  38.4236752  18.1808528  44.3881479  37.8967373  18.8921449
  45.6090388  38.0335221  18.0075013  50.6572573  29.7131085  25.4439794
  50.3255898  30.5826496  25.2201009  50.0618186  29.3967369  26.1233825
  44.3928759  33.4526652  13.1769877  44.5603161  34.3206889  13.5440348
  44.2025928  33.6153934  12.2531166  47.1504092  41.9143631  24.8435707
  46.8504815  42.8168670  24.7351514  46.8055152  41.6475814  25.6956860
  40.6016574  38.3657428  20.8772411  39.6767070  38.2333642  21.0850103
  40.8500987  39.1451647  21.3742354  50.5501236  34.4326171  22.5233144
  49.6418113  34.3641580  22.2291905  50.4988832  34.9098116  23.3514970
  44.3717980  35.9084310  14.1616543  44.2517605  36.3541360  15.0002024
  43.6770568  36.2569627  13.6030081  37.9625385  38.0090701  21.7116200
  38.0917766  38.2625180  22.6255612  37.2822836  38.6018409  21.3920855
  42.1324872  48.6787951  17.8106675  42.0548902  49.6295776  17.8895155
  41.5286516  48.3333824  18.4681601  44.6242102  35.8515817  30.4668041
  43.8475436  36.4109737  30.4570906  45.2632665  36.3372600  30.9882912
  52.4162882  32.6342610  24.3011018  51.7737263  32.9275143  23.6550813
  51.9117811  32.5195530  25.1064215  50.0703046  36.3805783  14.9896877
  50.9820902  36.6133170  14.8144575  49.5612693  36.9642827  14.4271956
  42.8788474  38.6601270  30.0286008  43.6203159  39.1986314  29.7520832
  42.1725460  39.2867559  30.1857560  48.3543814  40.8030411  28.6258170
  48.7627170  40.3612821  27.8812802  47.6321075  40.2283038  28.8792363
  44.7074884  35.7403017  25.9991727  45.5536079  36.1642431  26.1426376
  44.6473522  35.0836642  26.6930290  48.6772628  41.3631601  22.3810459
  48.0481491  41.5277315  21.6786527  48.2898291  41.7773211  23.1521423
  52.5561860  42.2986039  19.7354823  51.8712899  42.6784940  19.1851856
  52.6405710  42.9081366  20.4686770  47.8574329  33.4007386  27.6572901
  47.6135261  34.1549446  27.1207176  48.1334260  33.7792733  28.4920148
  49.8112792  39.9445998  26.3350166  50.0229687  40.5877758  25.6584547
  49.7642540  39.1108315  25.8672096  47.4139021  32.5563819  23.2386738
  46.5523500  32.8545072  23.5303476  47.4401456  32.7734218  22.3067771
  44.2300590  41.1006009  19.6460544  44.6938936  41.3793712  18.8565166
  43.9657388  40.1989454  19.4633635  41.1224671  40.6477491  22.5840307
  41.6926028  41.0764759  21.9457792  41.7132783  40.3660076  23.2824493
  43.1669476  37.2229162  16.4550109  43.8693520  37.6750205  16.9224035
  42.8350105  36.5812981  17.0830002  41.6149838  35.8140918  30.8301318
  40.9848498  36.4957199  31.0636715  41.5085926  35.7024000  29.8854457
  36.9094810  35.4812714  21.7567243  36.1193864  35.7370243  21.2807353
  37.4006058  36.2961052  21.8619283  50.9258620  42.8217954  24.5072523
  51.7476064  42.4198141  24.2255205  50.9221023  42.7186188  25.4588639
  38.8609556  35.8457294  18.7150719  38.0640719  35.9575988  19.2334215
  38.6335148  36.1843946  17.8491610  44.6915223  42.3701997  26.6633234
  44.7559656  42.8322404  27.4991406  43.9826147  41.7399362  26.7915544
  35.1932513  35.7343205  24.1882233  35.4440552  36.6190215  24.4539809
  35.7292062  35.5547806  23.4157325  59.0164613  39.1656702  20.8557495
  58.2628321  38.5964100  20.7001499  59.1512154  39.1319367  21.8028130
  44.4063241  44.0370104  16.5312214  44.2708916  44.8821640  16.9597062
  44.9473054  44.2389382  15.7678148  40.8930581  30.1161684  33.1926570
  40.4997526  29.5627883  33.8674214  41.7096721  30.4272263  33.5833087
  37.8592638  41.5545542  17.1040139  38.3717159  42.3488793  17.2545704
  38.5115351  40.8571833  17.0373741  39.6687523  44.6711299  19.1862893
  39.8454151  45.5929263  18.9983876  40.4644357  44.3569718  19.6157272
  43.8098542  31.5319563  30.7846826  44.5508255  32.1326716  30.7051289
  44.0416464  30.7897201  30.2264869  38.9539880  36.7175931  29.0625056
  38.8393395  35.8161188  29.3632155  38.0984397  36.9639627  28.7109872
  46.0331717  44.6593671  30.6612556  45.5895572  43.8730049  30.3433461
  46.6948931  44.8472821  29.9956447  40.7918839  46.1889472  25.1873235
  41.3426264  46.0606536  24.4150229  39.9530314  46.4884361  24.8368128
  48.1312955  44.9396471  28.6893958  48.1131431  45.7605352  28.1974227
  49.0532876  44.8150546  28.9144099  44.5886010  42.4540600  29.5317466
  45.1214346  41.6928888  29.3016774  44.0600091  42.1614252  30.2741621
  47.7555705  27.5600666  25.0611108  47.4119974  28.4502308  24.9850218
  48.1234667  27.3702324  24.1980693  35.8241555  39.8834197  17.8799710
  36.6616777  40.2931205  17.6633418  36.0019823  38.9433639  17.8499904
  47.7205987  37.5509277  13.5683543  47.2052611  38.3213882  13.8071930
  47.4483296  36.8774413  14.1916604  45.3053098  32.3958978  18.6268781
  44.4494695  32.0065828  18.4474420  45.7180050  32.4750939  17.7668567
  46.8352245  29.9305321  23.0260341  46.3317041  29.8935457  22.2128146
  47.1282852  30.8398064  23.0856998  43.0795131  30.0144051  22.0326523
  43.9448128  29.8186860  21.6732412  43.1472640  29.7854403  22.9595880
  52.6940261  40.3041632  15.5036716  51.9169704  39.9652791  15.0591878
  53.3731742  40.3094255  14.8291681  47.5092290  35.4236369  15.3943324
  47.2042426  35.7382519  16.2453467  48.4622733  35.5017789  15.4370657
  45.9538722  41.5826593  17.0436278  45.4260084  40.8479352  16.7309516
  45.4526225  42.3601269  16.7976246  50.9331568  39.7775613  22.1603324
  50.2755243  40.4674875  22.2483453  51.7371968  40.1672045  22.5037311
  40.6857450  32.2446259  19.4042890  41.2601202  32.0221441  18.6716083
  41.2728432  32.3134954  20.1571491  49.7437027  38.1319986  20.2107266
  50.2568909  38.7649978  20.7128976  50.3938251  37.5321181  19.8450626
  41.0127037  34.2750720  13.4238775  40.1764349  34.6125407  13.7448050
  40.8731807  34.1399700  12.4865912  42.9880118  29.1187508  18.1317959
  42.3344530  28.8036525  17.5074574  42.9460592  28.4963248  18.8577782
  44.0991322  39.4006803  10.0471251  43.1918384  39.1696056  10.2462400
  44.5962354  38.6044422  10.2345233  47.0059401  48.1104310  12.9667937
  46.3321100  48.4136007  13.5752895  47.3925223  48.9133391  12.6173394
  46.2217858  35.6069441  22.4565607  45.3040419  35.8284388  22.2987295
  46.6378002  35.6815752  21.5977314  47.0052906  37.0060857  17.5868287
  47.7524725  37.5182254  17.2775409  47.2744495  36.6844910  18.4472680
  45.2779556  39.5019398  14.5695241  44.3690775  39.2178431  14.6667711
  45.3074640  39.9218476  13.7098548  50.5098823  43.1125987  18.3386409
  50.0561150  42.2716897  18.3951599  49.8792790  43.7487386  18.6761189
  49.4531743  34.0417973  19.5687076  48.7154500  33.5295360  19.8997319
  49.7058516  33.6018355  18.7570353  48.9531763  44.9502484  19.2736227
  49.2454737  45.5107541  18.5548593  49.4630383  45.2431045  20.0289386
  49.5543370  26.8194225  20.1628845  49.8602247  25.9591589  19.8754761
  50.2795975  27.4111846  19.9627839  35.8467726  37.2224912  18.5510443
  35.6492126  36.6294273  17.8261510  35.2914390  36.9177122  19.2686382
  43.8264450  37.1148018  20.6705037  43.8813060  36.1621855  20.5947513
  43.0155652  37.2707458  21.1546335  44.9755644  41.0428142  11.9083320
  44.5375074  40.3264000  11.4488957  45.7166085  41.2704256  11.3468411
  41.7656810  35.7325078  18.4295415  40.9524675  36.0319249  18.8360608
  42.2615804  35.3380767  19.1469898  43.9165388  45.7282835  20.3629680
  43.8741567  45.9543681  19.4338212  44.8328087  45.4946210  20.5115481
  47.3631022  36.1966903  27.2610309  47.7180409  36.4238376  28.1204775
  48.0103153  36.5285279  26.6387565  53.0928759  39.3185339  17.9659638
  52.9546657  39.5086935  17.0380828  52.7364977  40.0804721  18.4227689
  41.2570885  33.3043434  24.0456650  41.8970264  33.1632193  23.3479614
  40.4248415  33.0177947  23.6695252  53.1198138  41.3861866  22.9770910
  53.5534645  41.2937155  23.8253964  53.8329719  41.3619366  22.3390926
  42.0331189  42.6045864  20.1591643  42.8271787  42.1096184  19.9574218
  41.3222881  42.0763727  19.7959348  46.8526033  44.9863960  24.5104010
  46.9063055  45.5554896  25.2781726  45.9840814  45.1565845  24.1458048
  38.3413952  36.7488946  16.2351395  37.4111540  36.6873401  16.4521358
  38.4371424  36.2264899  15.4388037  38.2599501  33.2743759  18.8229637
  38.5206318  34.1889092  18.7138798  39.0816673  32.8068201  18.9726250
  39.7324426  34.6881516  25.9928462  40.4047480  34.4798878  25.3441111
  38.9054213  34.4903602  25.5533694  53.9813688  41.4285566  25.5103795
  54.1749578  42.3331377  25.7563070  53.8814306  40.9692985  26.3442380
  45.6349998  31.3143457  28.0094123  44.9877913  32.0133406  27.9158599
  46.4051014  31.7479601  28.3770371  49.0428796  41.5792309  31.0844676
  48.8914303  41.3502861  30.1674760  49.0333476  42.5362910  31.0976021
  45.8114133  39.1524222  26.0690942  46.7406193  39.3035381  25.8959910
  45.3905163  39.2408243  25.2139589  44.6102465  43.1774886  23.8389480
  44.4713550  42.8093671  24.7115418  43.8217061  43.6922526  23.6673438
  45.2050617  48.2783983  15.1815016  45.3802372  47.8072026  15.9960639
  44.5183405  48.9049749  15.4096277  46.1607680  42.5556489  21.2278318
  45.8257512  42.5157259  22.1235968  45.6611625  41.8901205  20.7548728
  40.1351924  37.9624119  26.7530899  39.9971722  37.2304358  27.3542438
  41.0456847  37.8733019  26.4715087  49.0966871  39.9012523  11.5015377
  48.4796042  39.1759351  11.4048430  48.6283360  40.6621883  11.1582452
  42.7634224  37.6744078  26.2414579  43.4733843  37.0337270  26.2001197
  42.7203532  37.9256973  27.1640759  50.7521003  44.6111432  29.1621158
  50.6933549  43.9270652  28.4951741  51.1540521  45.3530422  28.7101784
  41.4763158  34.6609296  28.0610218  40.9400515  34.2100035  28.7131814
  40.8879867  34.7955205  27.3180682  39.7711702  51.4273345  21.9554877
  40.0108300  52.0591870  22.6333895  38.9280898  51.0761385  22.2420236
  50.7538410  42.5751015  27.3935137  49.8665189  42.2376937  27.5161536
  51.3236961  41.8434047  27.6303903  32.4067557  38.9075107  20.7178189
  33.0938597  38.5936837  20.1299204  32.2515686  39.8116472  20.4445440
  37.2102280  33.7965304  25.1463212  37.1260468  33.1890973  24.4113622
  36.3884986  34.2874322  25.1472709  44.2839564  47.2352468  24.3596381
  44.2109735  48.0407439  24.8715685  43.8416957  47.4344434  23.5344402
  44.0729343  46.4724238  17.8699202  43.2896865  47.0145918  17.9637427
  44.7722088  46.9898217  18.2693443  47.3825993  32.2818867  20.5133408
  47.8794693  31.5288830  20.1934478  46.6112975  32.3183184  19.9476617
  55.2355751  37.9859233  22.1551699  55.2245627  38.8683948  21.7845632
  54.3673130  37.6330784  21.9606236  46.7438247  47.1339302  26.5154539
  47.4566219  47.7686767  26.4430441  46.2528276  47.2303168  25.6994541
  48.4655774  41.0390555  18.0871831  47.5312053  41.1592017  17.9176535
  48.6432443  40.1363021  17.8231841  43.9660962  34.4236250  20.2405092
  43.5958750  33.8707291  20.9285998  44.4620055  33.8194384  19.6880092
  51.8528325  36.8807874  18.6221865  52.3188778  37.7135865  18.5482168
  52.3035826  36.4152855  19.3267124  41.7950161  44.8833745  27.3360110
  42.4959620  45.5170228  27.4889504  41.3245276  45.2248477  26.5755749
  49.9204557  43.2251695  15.6208017  50.1964400  43.1108290  16.5301891
  49.0509055  42.8269180  15.5820190  49.8244988  29.2488461  22.6612766
  48.9108068  29.4792688  22.8294973  50.2538090  29.3326905  23.5126799
  49.5951447  37.4378353  25.1612660  48.9422897  37.6854260  24.5065113
  49.9731827  36.6242491  24.8275138  46.5558621  47.4738046  19.2640831
  46.7381015  46.6559702  19.7268583  47.3791607  47.6905738  18.8265721
  46.8900786  46.4006231  16.5255879  47.4188552  45.8898686  15.9126041
  47.1529006  46.0848761  17.3901412  45.6439020  38.1798164  31.6478698
  44.9679657  38.0792293  32.3181073  46.4666654  38.0237378  32.1114695
  37.3917879  44.4170100  24.2691213  37.9771316  43.6713788  24.4019117
  37.1942717  44.7274057  25.1527877  40.2456534  47.4521348  19.2853655
  39.5766909  47.9367475  18.8017695  40.1069404  47.6990568  20.1997034
  31.9835534  36.9875701  22.9895656  32.0219633  36.4539291  23.7832774
  31.4775826  36.4610906  22.3706633  44.3861803  49.4865091  25.8836313
  44.9380111  49.6496713  26.6485399  44.7267996  50.0769529  25.2116338
  39.3626296  31.8340241  26.4858198  39.4267622  32.6955072  26.0735596
  39.2993416  31.2214243  25.7530557  38.8378568  33.9063374  30.1331232
  39.4650607  33.5240451  30.7468757  37.9806487  33.6877576  30.4986925
  49.2372677  44.3126349  31.7384968  49.7812581  44.9256307  31.2439923
  48.6559522  44.8705927  32.2551981  35.6144111  35.7139803  16.0649587
  35.9097552  34.8050481  16.0116641  34.7132147  35.6927542  15.7430590
  47.5230190  47.4347067  22.8699996  47.3981329  46.6336807  22.3610941
  48.1809281  47.9293260  22.3813966  39.1438358  33.7895799  22.0477136
  38.4224944  34.4031767  21.9084609  39.9331614  34.3253564  21.9693782
  49.5865098  45.2356087  24.4979546  48.6395434  45.1161438  24.4257872
  49.9347871  44.3478585  24.5805807  41.9464672  31.1250226  28.3217788
  42.4699073  31.3712522  29.0844097  41.7277005  31.9570261  27.9020925
  37.3431953  33.3953900  16.1888912  37.0144659  32.5151279  16.0064018
  37.6971323  33.3401569  17.0765302  46.5911532  45.0308803  20.6983898
  46.4436494  44.1025511  20.8791468  47.4165025  45.0528894  20.2140973
  40.4573776  33.6826870  16.5564390  40.7969848  34.2112791  15.8342998
  40.9045896  34.0207276  17.3322957  50.1945653  45.8537362  21.7848771
  51.1192201  45.6480223  21.6473222  50.0260957  45.6053763  22.6938112
  43.1517217  32.0663921  26.0067458  42.8114037  31.2671734  26.4088138
  42.4456223  32.3665632  25.4344291  43.8033688  29.1513233  24.4594781
  44.6259758  28.6773712  24.3373672  44.0471752  29.9303717  24.9593467
  42.4441923  32.1801492  14.7557683  43.1650285  32.5582745  14.2521400
  41.8207227  32.8990369  14.8592661  46.5873046  32.8846641  15.6916015
  46.8036660  33.7671279  15.3904843  46.1067113  32.4932854  14.9621657
  41.3272267  35.8432354  22.2686760  41.1816848  36.1572657  23.1611041
  40.8497471  36.4617254  21.7157658  43.1868650  32.8334902  22.3167649
  43.1730219  31.9375995  21.9799947  43.9041078  32.8405566  22.9505935
  45.0394781  33.2672242  24.3620777  44.7812559  34.1889313  24.3605107
  44.5079821  32.8702677  25.0521241  49.9840970  46.3723029  17.1410862
  50.1577847  45.8069452  16.3884715  50.4769861  47.1723924  16.9590352
  35.8017929  38.3837698  25.2074421  35.2571397  39.1597506  25.3394695
  36.6797279  38.7308503  25.0493542  42.5905546  31.7149282  17.5855219
  42.7121457  30.7865928  17.7846107  42.3007588  31.7287968  16.6733535
  45.4596736  29.4004193  20.7221939  45.4818433  29.4643526  19.7673919
  45.8764795  28.5608701  20.9162445  55.8380361  39.1359452  18.7601162
  56.2811507  38.3866777  18.3620285  54.9606871  39.1269589  18.3774894
  50.9716142  45.6889794  14.2407760  51.6667047  46.3096486  14.4595075
  51.3139292  44.8385145  14.5160138  36.5883951  37.5107595  28.1004578
  35.8465687  37.6590230  28.6869208  36.2676696  37.7715860  27.2371327
  52.8707565  43.1389499  15.7695091  53.3958889  43.4776772  15.0444411
  52.7829918  42.2036515  15.5858226  44.5327614  47.0523573  27.8984968
  44.8414740  46.8072720  28.7707667  45.3303096  47.2570211  27.4103838
  44.5548226  49.2061482  20.1290344  44.1153216  48.7137861  20.8223201
  45.3056343  48.6634450  19.8882420  37.0340565  45.3973023  20.1314972
  37.8598585  45.0976795  19.7513616  36.6834617  44.6280646  20.5804761
  42.0022098  44.7499492  22.2012646  41.3802107  44.0870197  21.9014874
  42.6726965  44.7760623  21.5186294  35.2349170  43.3159350  21.0903906
  34.3981078  42.8881524  20.9087907  35.2072815  43.5091793  22.0274697
  42.0746626  33.2281280  31.7945152  42.1234781  34.1043402  31.4122922
  42.6169140  32.6858673  31.2216795  52.5601471  43.7722403  31.0746289
  51.7697015  43.7546542  30.5350789  52.3234826  44.3110697  31.8295326
  52.6799346  40.6214869  28.3879018  52.7297351  40.4564877  29.3294541
  52.5713270  39.7542128  27.9976898  41.5635605  43.3003415  15.6771107
  41.7123725  43.9838879  15.0237779  42.3702048  43.2808505  16.1920562
  49.9703109  36.6045797  29.7038324  50.8712971  36.4652262  29.4122322
  50.0451083  36.7700252  30.6436502  44.3045914  33.9812652  28.5491511
  43.4349223  34.2746218  28.2774099  44.5405394  34.5653097  29.2698774
  54.1817543  43.0411811  28.6321039  53.8902351  43.4041791  29.4684500
  53.5689674  42.3278819  28.4534371  55.3813225  40.6064691  21.1523609
  56.2160117  41.0454495  21.3161170  55.5172354  40.1303344  20.3331855
  52.4304731  38.1644425  27.1001097  52.9058853  38.3572072  26.2919949
  51.5070297  38.2203611  26.8544481  39.3188238  39.3268593  16.6832176
  39.0734280  38.4230923  16.8812386  39.4884153  39.3285743  15.7411654
  47.0084948  30.1992269  26.0656931  47.5266892  30.9353296  25.7403420
  46.6540081  30.5056262  26.9003690  38.5883886  35.0596950  14.1818337
  37.8953130  35.1341305  13.5258373  38.3435637  34.2957294  14.7039854
  47.2597542  26.6192551  21.5857828  47.5399296  25.9515741  22.2118254
  48.0448149  26.8121647  21.0732492  45.0631011  45.7951545  13.1482854
  44.4904978  46.4141733  12.6953326  45.6363804  46.3450907  13.6822776
  51.1306400  35.0410185  25.3329403  52.0823823  35.1408283  25.3541627
  50.9609851  34.2488454  25.8427487  49.1520780  32.1265769  25.5188804
  48.5570712  32.4070781  24.8235292  48.8670477  32.6159670  26.2905545
  48.2828270  46.0788696  14.2791436  49.2158943  46.0134257  14.4824312
  48.1951483  46.9144962  13.8205969  50.9116287  45.3954566  11.2395384
  50.8329919  45.0614429  12.1331142  51.7325954  45.8876334  11.2386856
  53.6094478  38.2616305  24.4471702  53.5770798  37.3232306  24.6331386
  54.2195102  38.3400342  23.7137527  45.4477809  37.1312358  10.4898907
  46.3936914  37.0018566  10.5587325  45.0692054  36.3927020  10.9668335
  53.7588967  35.0527349  24.4929986  53.2428015  34.2685805  24.3059915
  54.6428915  34.7246065  24.6576505  51.4199694  28.7968364  20.4525798
  51.2224515  28.4883452  21.3369130  52.0299399  29.5230003  20.5823728
  59.4271028  39.3232312  23.5877739  60.1574417  39.0617600  24.1485443
  58.8177974  38.5861034  23.6279807  57.5086325  37.4640175  24.1852190
  56.7819489  37.3296140  23.5768682  57.0933612  37.7717003  24.9908909
  45.3316502  41.1830104  31.9499564  46.2519511  41.3608703  32.1439610
  45.2966085  40.2386150  31.7979263  43.6320726  35.0562335  10.4253792
  42.7252182  34.7595447  10.5016505  43.9096707  34.7592153   9.5588078
  34.5498667  36.3768698  20.8752838  34.2301451  35.5234006  20.5827212
  34.0032095  36.5917276  21.6310805  38.3278574  39.0931139  24.5922345
  38.5464584  40.0248247  24.6110378  38.7404348  38.7339113  25.3777149
  45.2482792  29.5999224  16.5798033  44.4383520  29.2546309  16.9553279
  45.9367209  29.2906768  17.1685645  47.1773340  28.6777271  18.2022330
  47.7304379  29.0972724  18.8612353  47.4143427  27.7513019  18.2445286
  43.2006439  34.6664345  33.9825094  43.1003166  35.6158702  33.9137185
  42.9827981  34.3382584  33.1101164  34.4186927  39.9971609  22.8445960
  33.7250398  39.5825562  22.3315914  35.1659918  40.0392146  22.2479379
  50.5552147  30.7877796  17.7100994  49.9750816  31.4462600  17.3279046
  50.2888080  29.9655141  17.2988411  49.0055714  30.1882854  19.9122314
  49.5055492  30.2999388  19.1036633  49.6491322  29.8843907  20.5523123
  43.0637710  38.0961484  32.7990155  42.5804791  38.8961844  33.0054044
  43.1498649  38.1069428  31.8457599  36.3323669  39.9289863  20.7211975
  36.3094357  40.0277550  19.7693858  36.6424306  40.7755014  21.0429141
  38.9911047  41.9866018  24.8358589  39.9454301  41.9549961  24.7688521
  38.7923571  41.5256642  25.6508815  39.5810429  40.5567134  27.4029387
  40.4003318  41.0511213  27.4264224  39.8547237  39.6399102  27.3746954
  49.3377025  32.9477887  16.7657342  48.4502880  33.2327537  16.5477537
  49.7531014  32.7871650  15.9184619  52.6891561  32.9724408  20.4811681
  53.4651952  33.4620860  20.7536298  51.9639696  33.3982462  20.9383551
  55.1264120  33.6852027  21.5385622  55.7208611  33.4447763  20.8278930
  55.1990704  32.9659157  22.1659158  37.3461276  47.5285638  21.8528787
  37.2115744  46.7686039  21.2866785  36.9293338  48.2526538  21.3857576
  48.4820239  42.7122561  10.8605362  49.1856089  42.9172564  11.4763018
  47.7582888  43.2799323  11.1254446  49.3118049  38.4632423  16.9807632
  49.2553250  38.9200974  16.1415265  49.8646392  37.7023107  16.8030475
  53.1222855  34.2522154  17.8057752  52.8659789  33.8518790  18.6365960
  52.4975723  34.9665948  17.6807891  57.4335193  36.9918228  20.3129043
  56.8734751  37.0611417  21.0860605  56.8278696  36.8159212  19.5928540
  40.5030402  48.4254955  22.0647230  40.3862786  49.3700387  21.9625920
  39.6822848  48.1228516  22.4533029  50.3906936  43.1505090  12.9103822
  51.2252540  42.7186289  12.7281297  50.2291279  42.9787104  13.8380717
  50.0452828  39.6537204  14.2760162  49.9901632  39.4881475  13.3348606
  49.4198884  40.3613237  14.4322351  34.8345343  34.8905268  28.1021584
  35.4804207  34.3804222  28.5908809  34.6262494  35.6273950  28.6765009
  47.3598736  41.9586116  33.6013724  48.2289895  42.1326768  33.2400359
  46.8805487  42.7780532  33.4789454  43.3548954  29.1545313  13.8545480
  43.3427624  30.0987153  14.0113751  44.2472376  28.9715458  13.5604941
  41.5284916  49.0783217  25.2803158  42.4312162  49.1106827  25.5969653
  41.3022286  48.1483668  25.2949494  43.2838518  47.8314203  21.9413237
  42.3334149  47.8316065  21.8277609  43.5871004  47.0846938  21.4249271
  47.1701073  25.7488089  18.1091417  46.4033469  25.1946576  18.2548099
  47.5811778  25.8209958  18.9705568  39.1742834  32.0372885  32.1996598
  40.0374296  31.6809690  32.4099923  38.6008245  31.6986780  32.8872002
  59.0191211  53.6674742  23.0058999  59.6569621  53.5481489  22.3022339
  58.9012054  54.6155586  23.0646951  55.8280918  53.6202170  22.9420524
  55.4899429  53.5043234  22.0541059  56.6970686  53.2193335  22.9221530
  51.6867733  55.4737646  18.9317415  51.1232598  55.3827583  18.1633702
  51.5720128  54.6537551  19.4119907  56.3100701  54.7737021  28.9006729
  56.2989341  54.3789820  28.0287233  56.4721340  54.0403094  29.4940501
  49.2332165  56.9688838  21.7701635  50.0253457  56.6279662  21.3547934
  49.4728815  57.0783813  22.6903788  57.2667292  59.1408614  14.2431880
  56.6155272  59.7262694  13.8565893  58.0611655  59.6714809  14.3026917
  51.1922919  56.2297751  14.6419014  51.9653795  55.6826738  14.5031890
  51.5448318  57.0942000  14.8533475  53.0307962  57.5574133  27.8485913
  52.7397828  58.4619764  27.7332580  53.6664946  57.5990661  28.5629983
  53.9564169  54.9350982  24.4387273  54.5527741  54.7107004  23.7244236
  54.0139140  54.1935727  25.0412721  53.5289197  52.3890417  12.2737464
  53.7814718  51.8671938  11.5120927  52.5913756  52.2256562  12.3764147
  58.5732480  51.3926195  20.0812207  59.3595569  50.9745619  19.7302624
  58.8371184  52.2972288  20.2493855  58.7442557  56.8299046  14.7800864
  58.1088390  56.9033672  15.4921768  58.4139964  57.4192645  14.1019943
  63.9740907  51.3301429  20.9845186  64.7066079  50.7600645  21.2183015
  63.2180263  50.9423029  21.4251691  53.2485486  54.2918523  14.4761839
  53.1321744  53.6163426  15.1442923  53.3587746  53.8050897  13.6593992
  55.5917027  53.7528670  18.1808528  55.2275234  53.2259291  18.8921449
  56.4484143  53.3627139  18.0075013  61.4966327  45.0423003  25.4439794
  61.1649652  45.9118414  25.2201009  60.9011941  44.7259287  26.1233825
  55.2322514  48.7818570  13.1769877  55.3996916  49.6498806  13.5440348
  55.0419683  48.9445852  12.2531166  57.9897847  57.2435549  24.8435707
  57.6898570  58.1460588  24.7351514  57.6448906  56.9767732  25.6956860
  51.4410328  53.6949346  20.8772411  50.5160825  53.5625560  21.0850103
  51.6894741  54.4743565  21.3742354  61.3894991  49.7618089  22.5233144
  60.4811868  49.6933497  22.2291905  61.3382586  50.2390034  23.3514970
  55.2111734  51.2376227  14.1616543  55.0911360  51.6833278  15.0002024
  54.5164323  51.5861545  13.6030081  48.8019139  53.3382619  21.7116200
  48.9311520  53.5917098  22.6255612  48.1216591  53.9310327  21.3920855
  52.9718627  64.0079869  17.8106675  52.8942656  64.9587694  17.8895155
  52.3680270  63.6625742  18.4681601  55.4635856  51.1807734  30.4668041
  54.6869190  51.7401655  30.4570906  56.1026419  51.6664517  30.9882912
  63.2556637  47.9634527  24.3011018  62.6131017  48.2567060  23.6550813
  62.7511566  47.8487448  25.1064215  60.9096801  51.7097700  14.9896877
  61.8214657  51.9425087  14.8144575  60.4006448  52.2934745  14.4271956
  53.7182229  53.9893188  30.0286008  54.4596913  54.5278232  29.7520832
  53.0119214  54.6159477  30.1857560  59.1937568  56.1322328  28.6258170
  59.6020924  55.6904739  27.8812802  58.4714830  55.5574956  28.8792363
  55.5468638  51.0694935  25.9991727  56.3929834  51.4934349  26.1426376
  55.4867276  50.4128559  26.6930290  59.5166383  56.6923519  22.3810459
  58.8875245  56.8569233  21.6786527  59.1292045  57.1065128  23.1521423
  63.3955615  57.6277957  19.7354823  62.7106653  58.0076858  19.1851856
  63.4799464  58.2373283  20.4686770  58.6968084  48.7299303  27.6572901
  58.4529016  49.4841364  27.1207176  58.9728014  49.1084651  28.4920148
  60.6506546  55.2737916  26.3350166  60.8623442  55.9169676  25.6584547
  60.6036295  54.4400232  25.8672096  58.2532775  47.8855736  23.2386738
  57.3917254  48.1836990  23.5303476  58.2795210  48.1026135  22.3067771
  55.0694345  56.4297927  19.6460544  55.5332690  56.7085630  18.8565166
  54.8051143  55.5281372  19.4633635  51.9618426  55.9769409  22.5840307
  52.5319783  56.4056677  21.9457792  52.5526538  55.6951993  23.2824493
  54.0063231  52.5521079  16.4550109  54.7087274  53.0042123  16.9224035
  53.6743859  51.9104898  17.0830002  52.4543592  51.1432836  30.8301318
  51.8242253  51.8249117  31.0636715  52.3479680  51.0315918  29.8854457
  47.7488565  50.8104632  21.7567243  46.9587619  51.0662161  21.2807353
  48.2399812  51.6252970  21.8619283  61.7652374  58.1509871  24.5072523
  62.5869818  57.7490059  24.2255205  61.7614777  58.0478105  25.4588639
  49.7003310  51.1749211  18.7150719  48.9034473  51.2867906  19.2334215
  49.4728902  51.5135864  17.8491610  55.5308978  57.6993915  26.6633234
  55.5953410  58.1614322  27.4991406  54.8219902  57.0691279  26.7915544
  46.0326268  51.0635122  24.1882233  46.2834306  51.9482132  24.4539809
  46.5685816  50.8839724  23.4157325  69.8558367  54.4948620  20.8557495
  69.1022076  53.9256018  20.7001499  69.9905909  54.4611284  21.8028130
  55.2456995  59.3662022  16.5312214  55.1102670  60.2113558  16.9597062
  55.7866808  59.5681300  15.7678148  51.7324335  45.4453602  33.1926570
  51.3391281  44.8919800  33.8674214  52.5490475  45.7564180  33.5833087
  48.6986393  56.8837460  17.1040139  49.2110913  57.6780710  17.2545704
  49.3509106  56.1863751  17.0373741  50.5081278  60.0003216  19.1862893
  50.6847906  60.9221181  18.9983876  51.3038111  59.6861636  19.6157272
  54.6492296  46.8611481  30.7846826  55.3902009  47.4618634  30.7051289
  54.8810219  46.1189119  30.2264869  49.7933634  52.0467848  29.0625056
  49.6787149  51.1453105  29.3632155  48.9378152  52.2931545  28.7109872
  56.8725472  59.9885589  30.6612556  56.4289326  59.2021967  30.3433461
  57.5342685  60.1764739  29.9956447  51.6312593  61.5181390  25.1873235
  52.1820018  61.3898453  24.4150229  50.7924069  61.8176279  24.8368128
  58.9706710  60.2688388  28.6893958  58.9525185  61.0897269  28.1974227
  59.8926630  60.1442464  28.9144099  55.4279764  57.7832518  29.5317466
  55.9608101  57.0220806  29.3016774  54.8993845  57.4906170  30.2741621
  58.5949459  42.8892584  25.0611108  58.2513728  43.7794226  24.9850218
  58.9628422  42.6994242  24.1980693  46.6635310  55.2126114  17.8799710
  47.5010532  55.6223123  17.6633418  46.8413577  54.2725557  17.8499904
  58.5599742  52.8801195  13.5683543  58.0446365  53.6505800  13.8071930
  58.2877050  52.2066331  14.1916604  56.1446853  47.7250896  18.6268781
  55.2888449  47.3357746  18.4474420  56.5573805  47.8042857  17.7668567
  57.6745999  45.2597239  23.0260341  57.1710795  45.2227374  22.2128146
  57.9676606  46.1689982  23.0856998  53.9188885  45.3435969  22.0326523
  54.7841882  45.1478777  21.6732412  53.9866394  45.1146321  22.9595880
  63.5334016  55.6333550  15.5036716  62.7563459  55.2944709  15.0591878
  64.2125497  55.6386173  14.8291681  58.3486045  50.7528287  15.3943324
  58.0436181  51.0674436  16.2453467  59.3016487  50.8309707  15.4370657
  56.7932477  56.9118510  17.0436278  56.2653838  56.1771270  16.7309516
  56.2919980  57.6893187  16.7976246  61.7725323  55.1067531  22.1603324
  61.1148997  55.7966792  22.2483453  62.5765722  55.4963963  22.5037311
  51.5251204  47.5738177  19.4042890  52.0994956  47.3513358  18.6716083
  52.1122187  47.6426871  20.1571491  60.5830782  53.4611904  20.2107266
  61.0962663  54.0941895  20.7128976  61.2332006  52.8613099  19.8450626
  51.8520792  49.6042638  13.4238775  51.0158104  49.9417324  13.7448050
  51.7125561  49.4691618  12.4865912  53.8273872  44.4479426  18.1317959
  53.1738284  44.1328443  17.5074574  53.7854346  43.8255166  18.8577782
  54.9385077  54.7298721  10.0471251  54.0312139  54.4987974  10.2462400
  55.4356109  53.9336340  10.2345233  57.8453156  63.4396228  12.9667937
  57.1714855  63.7427925  13.5752895  58.2318978  64.2425308  12.6173394
  57.0611612  50.9361359  22.4565607  56.1434174  51.1576306  22.2987295
  57.4771756  51.0107670  21.5977314  57.8446660  52.3352775  17.5868287
  58.5918479  52.8474172  17.2775409  58.1138250  52.0136828  18.4472680
  56.1173310  54.8311316  14.5695241  55.2084530  54.5470348  14.6667711
  56.1468394  55.2510394  13.7098548  61.3492578  58.4417905  18.3386409
  60.8954905  57.6008815  18.3951599  60.7186545  59.0779303  18.6761189
  60.2925497  49.3709891  19.5687076  59.5548254  48.8587277  19.8997319
  60.5452271  48.9310273  18.7570353  59.7925517  60.2794402  19.2736227
  60.0848491  60.8399459  18.5548593  60.3024138  60.5722963  20.0289386
  60.3937125  42.1486143  20.1628845  60.6996002  41.2883507  19.8754761
  61.1189730  42.7403763  19.9627839  46.6861481  52.5516830  18.5510443
  46.4885881  51.9586190  17.8261510  46.1308145  52.2469040  19.2686382
  54.6658204  52.4439936  20.6705037  54.7206814  51.4913773  20.5947513
  53.8549406  52.5999375  21.1546335  55.8149398  56.3720059  11.9083320
  55.3768828  55.6555918  11.4488957  56.5559839  56.5996174  11.3468411
  52.6050564  51.0616996  18.4295415  51.7918430  51.3611166  18.8360608
  53.1009559  50.6672685  19.1469898  54.7559142  61.0574753  20.3629680
  54.7135321  61.2835599  19.4338212  55.6721841  60.8238127  20.5115481
  58.2024776  51.5258820  27.2610309  58.5574164  51.7530294  28.1204775
  58.8496907  51.8577197  26.6387565  63.9322513  54.6477256  17.9659638
  63.7940412  54.8378852  17.0380828  63.5758732  55.4096639  18.4227689
  52.0964639  48.6335351  24.0456650  52.7364018  48.4924111  23.3479614
  51.2642170  48.3469865  23.6695252  63.9591893  56.7153783  22.9770910
  64.3928399  56.6229072  23.8253964  64.6723473  56.6911284  22.3390926
  52.8724943  57.9337782  20.1591643  53.6665542  57.4388102  19.9574218
  52.1616635  57.4055645  19.7959348  57.6919788  60.3155877  24.5104010
  57.7456810  60.8846814  25.2781726  56.8234569  60.4857762  24.1458048
  49.1807707  52.0780864  16.2351395  48.2505295  52.0165319  16.4521358
  49.2765179  51.5556816  15.4388037  49.0993256  48.6035676  18.8229637
  49.3600073  49.5181010  18.7138798  49.9210428  48.1360119  18.9726250
  50.5718181  50.0173434  25.9928462  51.2441234  49.8090796  25.3441111
  49.7447967  49.8195520  25.5533694  64.8207442  56.7577484  25.5103795
  65.0143332  57.6623294  25.7563070  64.7208060  56.2984903  26.3442380
  56.4743753  46.6435374  28.0094123  55.8271668  47.3425324  27.9158599
  57.2444768  47.0771518  28.3770371  59.8822551  56.9084227  31.0844676
  59.7308057  56.6794778  30.1674760  59.8727230  57.8654828  31.0976021
  56.6507887  54.4816139  26.0690942  57.5799947  54.6327299  25.8959910
  56.2298917  54.5700160  25.2139589  55.4496219  58.5066804  23.8389480
  55.3107305  58.1385588  24.7115418  54.6610815  59.0214443  23.6673438
  56.0444371  63.6075900  15.1815016  56.2196127  63.1363943  15.9960639
  55.3577159  64.2341666  15.4096277  57.0001434  57.8848407  21.2278318
  56.6651267  57.8449176  22.1235968  56.5005380  57.2193122  20.7548728
  50.9745678  53.2916037  26.7530899  50.8365476  52.5596275  27.3542438
  51.8850602  53.2024937  26.4715087  59.9360626  55.2304441  11.5015377
  59.3189796  54.5051269  11.4048430  59.4677114  55.9913801  11.1582452
  53.6027979  53.0035996  26.2414579  54.3127597  52.3629188  26.2001197
  53.5597287  53.2548891  27.1640759  61.5914757  59.9403349  29.1621158
  61.5327304  59.2562569  28.4951741  61.9934276  60.6822339  28.7101784
  52.3156913  49.9901214  28.0610218  51.7794270  49.5391952  28.7131814
  51.7273621  50.1247123  27.3180682  50.6105456  66.7565263  21.9554877
  50.8502055  67.3883787  22.6333895  49.7674653  66.4053303  22.2420236
  51.7259172  49.4489865  10.6236682  50.8488638  49.3278666  10.2598928
  52.2016925  48.6575943  10.3715570  61.5932165  57.9042933  27.3935137
  60.7058944  57.5668855  27.5161536  62.1630716  57.1725964  27.6303903
  43.2461312  54.2367025  20.7178189  43.9332352  53.9228755  20.1299204
  43.0909441  55.1408390  20.4445440  48.0496034  49.1257221  25.1463212
  47.9654223  48.5182891  24.4113622  47.2278740  49.6166240  25.1472709
  55.1233318  62.5644385  24.3596381  55.0503490  63.3699357  24.8715685
  54.6810711  62.7636351  23.5344402  54.9123098  61.8016156  17.8699202
  54.1290620  62.3437836  17.9637427  55.6115843  62.3190135  18.2693443
  58.2219748  47.6110785  20.5133408  58.7188447  46.8580747  20.1934478
  57.4506729  47.6475102  19.9476617  66.0749505  53.3151151  22.1551699
  66.0639382  54.1975866  21.7845632  65.2066885  52.9622701  21.9606236
  57.5832002  62.4631220  26.5154539  58.2959974  63.0978684  26.4430441
  57.0922030  62.5595086  25.6994541  59.3049529  56.3682472  18.0871831
  58.3705807  56.4883935  17.9176535  59.4826197  55.4654939  17.8231841
  54.8054717  49.7528168  20.2405092  54.4352504  49.1999208  20.9285998
  55.3013809  49.1486301  19.6880092  62.6922080  52.2099791  18.6221865
  63.1582532  53.0427783  18.5482168  63.1429580  51.7444773  19.3267124
  52.6343915  60.2125663  27.3360110  53.3353375  60.8462146  27.4889504
  52.1639030  60.5540395  26.5755749  60.7598311  58.5543613  15.6208017
  61.0358155  58.4400207  16.5301891  59.8902810  58.1561098  15.5820190
  60.6638743  44.5780378  22.6612766  59.7501822  44.8084605  22.8294973
  61.0931844  44.6618823  23.5126799  60.4345201  52.7670270  25.1612660
  59.7816651  53.0146178  24.5065113  60.8125581  51.9534409  24.8275138
  57.3952375  62.8029964  19.2640831  57.5774770  61.9851620  19.7268583
  58.2185361  63.0197656  18.8265721  57.7294541  61.7298149  16.5255879
  58.2582307  61.2190603  15.9126041  57.9922760  61.4140679  17.3901412
  56.4832774  53.5090081  31.6478698  55.8073411  53.4084211  32.3181073
  57.3060408  53.3529295  32.1114695  48.2311633  59.7462018  24.2691213
  48.8165070  59.0005706  24.4019117  48.0336472  60.0565975  25.1527877
  51.0850288  62.7813265  19.2853655  50.4160664  63.2659393  18.8017695
  50.9463158  63.0282486  20.1997034  42.8229288  52.3167618  22.9895656
  42.8613388  51.7831209  23.7832774  42.3169581  51.7902824  22.3706633
  55.2255557  64.8157009  25.8836313  55.7773865  64.9788630  26.6485399
  55.5661751  65.4061447  25.2116338  50.2020050  47.1632159  26.4858198
  50.2661377  48.0246990  26.0735596  50.1387171  46.5506160  25.7530557
  49.6772323  49.2355291  30.1331232  50.3044362  48.8532369  30.7468757
  48.8200242  49.0169493  30.4986925  60.0766431  59.6418266  31.7384968
  60.6206335  60.2548225  31.2439923  59.4953276  60.1997845  32.2551981
  46.4537866  51.0431720  16.0649587  46.7491307  50.1342399  16.0116641
  45.5525901  51.0219460  15.7430590  58.3623944  62.7638984  22.8699996
  58.2375084  61.9628724  22.3610941  59.0203035  63.2585178  22.3813966
  49.9832113  49.1187717  22.0477136  49.2618698  49.7323685  21.9084609
  50.7725368  49.6545482  21.9693782  60.4258853  60.5648005  24.4979546
  59.4789188  60.4453356  24.4257872  60.7741626  59.6770503  24.5805807
  52.7858426  46.4542143  28.3217788  53.3092828  46.7004440  29.0844097
  52.5670759  47.2862178  27.9020925  48.1825707  48.7245818  16.1888912
  47.8538413  47.8443197  16.0064018  48.5365078  48.6693487  17.0765302
  57.4305286  60.3600721  20.6983898  57.2830248  59.4317428  20.8791468
  58.2558780  60.3820811  20.2140973  51.2967530  49.0118788  16.5564390
  51.6363603  49.5404709  15.8342998  51.7439651  49.3499194  17.3322957
  61.0339408  61.1829280  21.7848771  61.9585955  60.9772141  21.6473222
  60.8654711  60.9345681  22.6938112  53.9910971  47.3955839  26.0067458
  53.6507792  46.5963652  26.4088138  53.2849977  47.6957549  25.4344291
  54.6427443  44.4805151  24.4594781  55.4653512  44.0065629  24.3373672
  54.8865507  45.2595635  24.9593467  53.2835677  47.5093409  14.7557683
  54.0044040  47.8874662  14.2521400  52.6600982  48.2282286  14.8592661
  57.4266800  48.2138558  15.6916015  57.6430415  49.0963196  15.3904843
  56.9460868  47.8224772  14.9621657  52.1666022  51.1724272  22.2686760
  52.0210602  51.4864575  23.1611041  51.6891225  51.7909172  21.7157658
  54.0262405  48.1626820  22.3167649  54.0123973  47.2667913  21.9799947
  54.7434833  48.1697483  22.9505935  55.8788535  48.5964160  24.3620777
  55.6206313  49.5181230  24.3605107  55.3473576  48.1994594  25.0521241
  60.8234724  61.7014947  17.1410862  60.9971602  61.1361369  16.3884715
  61.3163615  62.5015842  16.9590352  46.6411684  53.7129616  25.2074421
  46.0965152  54.4889424  25.3394695  47.5191034  54.0600421  25.0493542
  53.4299301  47.0441200  17.5855219  53.5515212  46.1157846  17.7846107
  53.1401343  47.0579886  16.6733535  56.2990491  44.7296110  20.7221939
  56.3212188  44.7935443  19.7673919  56.7158550  43.8900619  20.9162445
  66.6774115  54.4651370  18.7601162  67.1205261  53.7158695  18.3620285
  65.8000626  54.4561506  18.3774894  61.8109897  61.0181711  14.2407760
  62.5060801  61.6388404  14.4595075  62.1533047  60.1677063  14.5160138
  47.4277706  52.8399512  28.1004578  46.6859442  52.9882148  28.6869208
  47.1070450  53.1007778  27.2371327  63.7101320  58.4681417  15.7695091
  64.2352644  58.8068690  15.0444411  63.6223672  57.5328432  15.5858226
  55.3721368  62.3815491  27.8984968  55.6808495  62.1364637  28.7707667
  56.1696850  62.5862129  27.4103838  55.3941980  64.5353400  20.1290344
  54.9546971  64.0429779  20.8223201  56.1450097  63.9926368  19.8882420
  47.8734319  60.7264941  20.1314972  48.6992339  60.4268713  19.7513616
  47.5228371  59.9572563  20.5804761  52.8415853  60.0791409  22.2012646
  52.2195862  59.4162114  21.9014874  53.5120720  60.1052541  21.5186294
  46.0742924  58.6451267  21.0903906  45.2374833  58.2173442  20.9087907
  46.0466570  58.8383711  22.0274697  52.9140380  48.5573197  31.7945152
  52.9628536  49.4335320  31.4122922  53.4562894  48.0150590  31.2216795
  63.3995226  59.1014321  31.0746289  62.6090769  59.0838459  30.5350789
  63.1628580  59.6402614  31.8295326  63.5193101  55.9506787  28.3879018
  63.5691106  55.7856794  29.3294541  63.4107024  55.0834046  27.9976898
  52.4029360  58.6295333  15.6771107  52.5517480  59.3130797  15.0237779
  53.2095803  58.6100423  16.1920562  60.8096863  51.9337715  29.7038324
  61.7106726  51.7944180  29.4122322  60.8844838  52.0992170  30.6436502
  55.1439669  49.3104570  28.5491511  54.2742978  49.6038136  28.2774099
  55.3799149  49.8945015  29.2698774  65.0211298  58.3703728  28.6321039
  64.7296106  58.7333709  29.4684500  64.4083429  57.6570737  28.4534371
  66.2206980  55.9356608  21.1523609  67.0553871  56.3746412  21.3161170
  66.3566109  55.4595261  20.3331855  63.2698486  53.4936343  27.1001097
  63.7452607  53.6863989  26.2919949  62.3464051  53.5495529  26.8544481
  50.1581992  54.6560510  16.6832176  49.9128034  53.7522840  16.8812386
  50.3277907  54.6577661  15.7411654  57.8478702  45.5284187  26.0656931
  58.3660646  46.2645214  25.7403420  57.4933835  45.8348180  26.9003690
  49.4277640  50.3888868  14.1818337  48.7346885  50.4633223  13.5258373
  49.1829392  49.6249211  14.7039854  58.0991297  41.9484469  21.5857828
  58.3793050  41.2807658  22.2118254  58.8841903  42.1413565  21.0732492
  55.9024765  61.1243463  13.1482854  55.3298732  61.7433650  12.6953326
  56.4757559  61.6742825  13.6822776  61.9700155  50.3702103  25.3329403
  62.9217578  50.4700201  25.3541627  61.8003605  49.5780372  25.8427487
  59.9914534  47.4557686  25.5188804  59.3964466  47.7362699  24.8235292
  59.7064231  47.9451587  26.2905545  59.1222025  61.4080613  14.2791436
  60.0552698  61.3426175  14.4824312  59.0345238  62.2436880  13.8205969
  61.7510041  60.7246484  11.2395384  61.6723673  60.3906347  12.1331142
  62.5719708  61.2168251  11.2386856  64.4488233  53.5908223  24.4471702
  64.4164553  52.6524224  24.6331386  65.0588856  53.6692260  23.7137527
  56.2871564  52.4604276  10.4898907  57.2330668  52.3310484  10.5587325
  55.9085808  51.7218938  10.9668335  64.5982721  50.3819266  24.4929986
  64.0821770  49.5977723  24.3059915  65.4822670  50.0537983  24.6576505
  62.2593448  44.1260282  20.4525798  62.0618269  43.8175370  21.3369130
  62.8693154  44.8521921  20.5823728  70.2664783  54.6524230  23.5877739
  70.9968171  54.3909518  24.1485443  69.6571728  53.9152952  23.6279807
  68.3480080  52.7932092  24.1852190  67.6213243  52.6588057  23.5768682
  67.9327367  53.1008921  24.9908909  56.1710256  56.5122022  31.9499564
  57.0913266  56.6900621  32.1439610  56.1359839  55.5678067  31.7979263
  54.4714481  50.3854252  10.4253792  53.5645936  50.0887365  10.5016505
  54.7490462  50.0884070   9.5588078  45.3892421  51.7060616  20.8752838
  45.0695205  50.8525924  20.5827212  44.8425849  51.9209194  21.6310805
  49.1672329  54.4223057  24.5922345  49.3858338  55.3540164  24.6110378
  49.5798102  54.0631031  25.3777149  56.0876546  44.9291142  16.5798033
  55.2777275  44.5838227  16.9553279  56.7760963  44.6198686  17.1685645
  58.0167095  44.0069189  18.2022330  58.5698133  44.4264642  18.8612353
  58.2537181  43.0804937  18.2445286  54.0400194  49.9956262  33.9825094
  53.9396921  50.9450619  33.9137185  53.8221736  49.6674501  33.1101164
  53.2413265  47.2441187  10.5665771  54.1032429  47.5696086  10.8261588
  53.4263609  46.4572683  10.0538837  45.2580681  55.3263527  22.8445960
  44.5644153  54.9117480  22.3315914  46.0053672  55.3684064  22.2479379
  61.3945902  46.1169714  17.7100994  60.8144571  46.7754518  17.3279046
  61.1281834  45.2947058  17.2988411  59.8449468  45.5174772  19.9122314
  60.3449247  45.6291306  19.1036633  60.4885076  45.2135824  20.5523123
  53.9031464  53.4253401  32.7990155  53.4198546  54.2253761  33.0054044
  53.9892403  53.4361346  31.8457599  47.1717424  55.2581781  20.7211975
  47.1488112  55.3569468  19.7693858  47.4818060  56.1046932  21.0429141
  49.8304801  57.3157936  24.8358589  50.7848055  57.2841878  24.7688521
  49.6317325  56.8548560  25.6508815  50.4204184  55.8859052  27.4029387
  51.2397073  56.3803131  27.4264224  50.6940991  54.9691020  27.3746954
  60.1770780  48.2769804  16.7657342  59.2896635  48.5619455  16.5477537
  60.5924769  48.1163568  15.9184619  63.5285316  48.3016325  20.4811681
  64.3045706  48.7912778  20.7536298  62.8033450  48.7274379  20.9383551
  65.9657875  49.0143944  21.5385622  66.5602365  48.7739680  20.8278930
  66.0384458  48.2951075  22.1659158  48.1855030  62.8577555  21.8528787
  48.0509498  62.0977956  21.2866785  47.7687093  63.5818455  21.3857576
  59.3213993  58.0414479  10.8605362  60.0249843  58.2464481  11.4763018
  58.5976642  58.6091241  11.1254446  60.1511804  53.7924340  16.9807632
  60.0947005  54.2492892  16.1415265  60.7040146  53.0315025  16.8030475
  63.9616609  49.5814072  17.8057752  63.7053544  49.1810708  18.6365960
  63.3369478  50.2957866  17.6807891  68.2728947  52.3210145  20.3129043
  67.7128505  52.3903335  21.0860605  67.6672451  52.1451130  19.5928540
  51.3424156  63.7546872  22.0647230  51.2256540  64.6992305  21.9625920
  50.5216602  63.4520434  22.4533029  61.2300691  58.4797008  12.9103822
  62.0646295  58.0478207  12.7281297  61.0685034  58.3079022  13.8380717
  60.8846583  54.9829121  14.2760162  60.8295387  54.8173393  13.3348606
  60.2592638  55.6905154  14.4322351  45.6739098  50.2197186  28.1021584
  46.3197961  49.7096140  28.5908809  45.4656249  50.9565867  28.6765009
  58.1992490  57.2878033  33.6013724  59.0683650  57.4618686  33.2400359
  57.7199242  58.1072450  33.4789454  54.1942708  44.4837230  13.8545480
  54.1821378  45.4279070  14.0113751  55.0866130  44.3007376  13.5604941
  52.3678670  64.4075134  25.2803158  53.2705917  64.4398745  25.5969653
  52.1416040  63.4775585  25.2949494  54.1232272  63.1606121  21.9413237
  53.1727903  63.1607982  21.8277609  54.4264758  62.4138855  21.4249271
  58.0094828  41.0780007  18.1091417  57.2427224  40.5238494  18.2548099
  58.4205533  41.1501876  18.9705568  50.0136589  47.3664803  32.1996598
  50.8768050  47.0101608  32.4099923  49.4402000  47.0278698  32.8872002
  69.8584966  68.9966659  23.0058999  70.4963376  68.8773407  22.3022339
  69.7405809  69.9447503  23.0646951  66.6674672  68.9494087  22.9420524
  66.3293184  68.8335152  22.0541059  67.5364440  68.5485252  22.9221530
  62.5261488  70.8029564  18.9317415  61.9626353  70.7119501  18.1633702
  62.4113883  69.9829468  19.4119907  67.1494455  70.1028939  28.9006729
  67.1383096  69.7081737  28.0287233  67.3115095  69.3695012  29.4940501
  60.0725920  72.2980755  21.7701635  60.8647212  71.9571580  21.3547934
  60.3122570  72.4075730  22.6903788  68.1061046  74.4700531  14.2431880
  67.4549026  75.0554612  13.8565893  68.9005409  75.0006726  14.3026917
  62.0316674  71.5589669  14.6419014  62.8047550  71.0118656  14.5031890
  62.3842072  72.4233918  14.8533475  63.8701716  72.8866051  27.8485913
  63.5791582  73.7911682  27.7332580  64.5058701  72.9282578  28.5629983
  64.7957923  70.2642899  24.4387273  65.3921495  70.0398922  23.7244236
  64.8532895  69.5227645  25.0412721  64.3682951  67.7182335  12.2737464
  64.6208472  67.1963856  11.5120927  63.4307511  67.5548480  12.3764147
  69.4126234  66.7218113  20.0812207  70.1989323  66.3037536  19.7302624
  69.6764939  67.6264205  20.2493855  69.5836312  72.1590963  14.7800864
  68.9482145  72.2325590  15.4921768  69.2533718  72.7484562  14.1019943
  74.8134661  66.6593346  20.9845186  75.5459833  66.0892563  21.2183015
  74.0574017  66.2714947  21.4251691  64.0879240  69.6210441  14.4761839
  63.9715498  68.9455344  15.1442923  64.1981500  69.1342815  13.6593992
  66.4310781  69.0820588  18.1808528  66.0668988  68.5551209  18.8921449
  67.2877897  68.6919057  18.0075013  72.3360082  60.3714920  25.4439794
  72.0043407  61.2410331  25.2201009  71.7405695  60.0551204  26.1233825
  66.0716268  64.1110487  13.1769877  66.2390670  64.9790724  13.5440348
  65.8813437  64.2737769  12.2531166  68.8291601  72.5727466  24.8435707
  68.5292324  73.4752505  24.7351514  68.4842661  72.3059650  25.6956860
  62.2804083  69.0241263  20.8772411  61.3554579  68.8917477  21.0850103
  62.5288496  69.8035482  21.3742354  72.2288745  65.0910007  22.5233144
  71.3205622  65.0225415  22.2291905  72.1776341  65.5681952  23.3514970
  66.0505489  66.5668145  14.1616543  65.9305114  67.0125196  15.0002024
  65.3558077  66.9153463  13.6030081  59.6412894  68.6674537  21.7116200
  59.7705275  68.9209016  22.6255612  58.9610345  69.2602245  21.3920855
  63.8112381  79.3371787  17.8106675  63.7336411  80.2879612  17.8895155
  63.2074025  78.9917659  18.4681601  66.3029611  66.5099652  30.4668041
  65.5262945  67.0693572  30.4570906  66.9420174  66.9956435  30.9882912
  74.0950391  63.2926445  24.3011018  73.4524772  63.5858978  23.6550813
  73.5905320  63.1779365  25.1064215  71.7490555  67.0389618  14.9896877
  72.6608411  67.2717005  14.8144575  71.2400202  67.6226662  14.4271956
  64.5575983  69.3185106  30.0286008  65.2990668  69.8570149  29.7520832
  63.8512969  69.9451394  30.1857560  70.0331323  71.4614246  28.6258170
  70.4414679  71.0196657  27.8812802  69.3108584  70.8866873  28.8792363
  66.3862393  66.3986853  25.9991727  67.2323588  66.8226266  26.1426376
  66.3261031  65.7420477  26.6930290  70.3560137  72.0215437  22.3810459
  69.7269000  72.1861151  21.6786527  69.9685800  72.4357046  23.1521423
  74.2349369  72.9569874  19.7354823  73.5500407  73.3368776  19.1851856
  74.3193219  73.5665201  20.4686770  69.5361838  64.0591221  27.6572901
  69.2922770  64.8133282  27.1207176  69.8121769  64.4376569  28.4920148
  71.4900301  70.6029833  26.3350166  71.7017196  71.2461593  25.6584547
  71.4430049  69.7692150  25.8672096  69.0926530  63.2147654  23.2386738
  68.2311009  63.5128908  23.5303476  69.1188965  63.4318053  22.3067771
  65.9088099  71.7589845  19.6460544  66.3726445  72.0377548  18.8565166
  65.6444897  70.8573289  19.4633635  62.8012180  71.3061326  22.5840307
  63.3713537  71.7348595  21.9457792  63.3920292  71.0243911  23.2824493
  64.8456985  67.8812997  16.4550109  65.5481029  68.3334041  16.9224035
  64.5137614  67.2396816  17.0830002  63.2937347  66.4724754  30.8301318
  62.6636007  67.1541035  31.0636715  63.1873435  66.3607835  29.8854457
  58.5882319  66.1396550  21.7567243  57.7981373  66.3954078  21.2807353
  59.0793567  66.9544888  21.8619283  72.6046129  73.4801789  24.5072523
  73.4263573  73.0781976  24.2255205  72.6008532  73.3770023  25.4588639
  60.5397065  66.5041129  18.7150719  59.7428228  66.6159823  19.2334215
  60.3122657  66.8427781  17.8491610  66.3702732  73.0285832  26.6633234
  66.4347165  73.4906239  27.4991406  65.6613656  72.3983197  26.7915544
  56.8720022  66.3927040  24.1882233  57.1228061  67.2774050  24.4539809
  57.4079571  66.2131642  23.4157325  80.6952122  69.8240537  20.8557495
  79.9415830  69.2547935  20.7001499  80.8299663  69.7903202  21.8028130
  66.0850750  74.6953940  16.5312214  65.9496425  75.5405475  16.9597062
  66.6260562  74.8973217  15.7678148  62.5718090  60.7745520  33.1926570
  62.1785035  60.2211718  33.8674214  63.3884230  61.0856098  33.5833087
  59.5380147  72.2129378  17.1040139  60.0504668  73.0072628  17.2545704
  60.1902860  71.5155668  17.0373741  61.3475032  75.3295134  19.1862893
  61.5241660  76.2513099  18.9983876  62.1431866  75.0153553  19.6157272
  65.4886051  62.1903399  30.7846826  66.2295764  62.7910552  30.7051289
  65.7203973  61.4481036  30.2264869  60.6327389  67.3759766  29.0625056
  60.5180904  66.4745023  29.3632155  59.7771906  67.6223463  28.7109872
  67.7119226  75.3177506  30.6612556  67.2683081  74.5313885  30.3433461
  68.3736440  75.5056657  29.9956447  62.4706348  76.8473308  25.1873235
  63.0213773  76.7190371  24.4150229  61.6317823  77.1468197  24.8368128
  69.8100464  75.5980306  28.6893958  69.7918940  76.4189187  28.1974227
  70.7320384  75.4734381  28.9144099  66.2673519  73.1124436  29.5317466
  66.8001855  72.3512724  29.3016774  65.7387600  72.8198087  30.2741621
  69.4343214  58.2184502  25.0611108  69.0907483  59.1086143  24.9850218
  69.8022176  58.0286159  24.1980693  57.5029064  70.5418032  17.8799710
  58.3404286  70.9515040  17.6633418  57.6807332  69.6017474  17.8499904
  69.3993496  68.2093113  13.5683543  68.8840120  68.9797717  13.8071930
  69.1270805  67.5358249  14.1916604  66.9840607  63.0542813  18.6268781
  66.1282204  62.6649664  18.4474420  67.3967559  63.1334774  17.7668567
  68.5139754  60.5889157  23.0260341  68.0104550  60.5519292  22.2128146
  68.8070361  61.4981899  23.0856998  64.7582640  60.6727886  22.0326523
  65.6235637  60.4770695  21.6732412  64.8260149  60.4438238  22.9595880
  74.3727770  70.9625467  15.5036716  73.5957213  70.6236627  15.0591878
  75.0519251  70.9678090  14.8291681  69.1879799  66.0820205  15.3943324
  68.8829935  66.3966354  16.2453467  70.1410242  66.1601625  15.4370657
  67.6326231  72.2410428  17.0436278  67.1047593  71.5063188  16.7309516
  67.1313734  73.0185104  16.7976246  72.6119077  70.4359449  22.1603324
  71.9542752  71.1258710  22.2483453  73.4159477  70.8255881  22.5037311
  62.3644959  62.9030094  19.4042890  62.9388711  62.6805276  18.6716083
  62.9515941  62.9718789  20.1571491  71.4224536  68.7903821  20.2107266
  71.9356418  69.4233813  20.7128976  72.0725760  68.1905017  19.8450626
  62.6914546  64.9334555  13.4238775  61.8551858  65.2709242  13.7448050
  62.5519316  64.7983535  12.4865912  64.6667627  59.7771343  18.1317959
  64.0132039  59.4620360  17.5074574  64.6248101  59.1547084  18.8577782
  65.7778831  70.0590638  10.0471251  64.8705893  69.8279892  10.2462400
  66.2749863  69.2628258  10.2345233  68.6846910  78.7688146  12.9667937
  68.0108609  79.0719842  13.5752895  69.0712732  79.5717226  12.6173394
  67.9005367  66.2653277  22.4565607  66.9827928  66.4868224  22.2987295
  68.3165511  66.3399587  21.5977314  68.6840415  67.6644692  17.5868287
  69.4312234  68.1766090  17.2775409  68.9532004  67.3428745  18.4472680
  66.9567065  70.1603233  14.5695241  66.0478284  69.8762266  14.6667711
  66.9862149  70.5802312  13.7098548  72.1886332  73.7709823  18.3386409
  71.7348659  72.9300733  18.3951599  71.5580299  74.4071221  18.6761189
  71.1319252  64.7001809  19.5687076  70.3942009  64.1879195  19.8997319
  71.3846025  64.2602190  18.7570353  70.6319272  75.6086319  19.2736227
  70.9242246  76.1691377  18.5548593  71.1417892  75.9014880  20.0289386
  71.2330879  57.4778061  20.1628845  71.5389756  56.6175424  19.8754761
  71.9583484  58.0695681  19.9627839  57.5255235  67.8808747  18.5510443
  57.3279635  67.2878108  17.8261510  56.9701899  67.5760958  19.2686382
  65.5051959  67.7731854  20.6705037  65.5600569  66.8205690  20.5947513
  64.6943161  67.9291293  21.1546335  66.6543153  71.7011977  11.9083320
  66.2162583  70.9847836  11.4488957  67.3953594  71.9288092  11.3468411
  63.4444319  66.3908914  18.4295415  62.6312184  66.6903084  18.8360608
  63.9403313  65.9964602  19.1469898  65.5952897  76.3866670  20.3629680
  65.5529076  76.6127517  19.4338212  66.5115596  76.1530045  20.5115481
  69.0418531  66.8550738  27.2610309  69.3967918  67.0822211  28.1204775
  69.6890662  67.1869115  26.6387565  74.7716267  69.9769174  17.9659638
  74.6334166  70.1670770  17.0380828  74.4152486  70.7388557  18.4227689
  62.9358394  63.9627269  24.0456650  63.5757773  63.8216028  23.3479614
  62.1035924  63.6761782  23.6695252  74.7985647  72.0445701  22.9770910
  75.2322154  71.9520990  23.8253964  75.5117228  72.0203201  22.3390926
  63.7118698  73.2629700  20.1591643  64.5059296  72.7680020  19.9574218
  63.0010390  72.7347563  19.7959348  68.5313542  75.6447795  24.5104010
  68.5850564  76.2138731  25.2781726  67.6628323  75.8149680  24.1458048
  60.0201461  67.4072781  16.2351395  59.0899049  67.3457237  16.4521358
  60.1158933  66.8848734  15.4388037  59.9387010  63.9327594  18.8229637
  60.1993827  64.8472927  18.7138798  60.7604182  63.4652037  18.9726250
  61.4111935  65.3465351  25.9928462  62.0834989  65.1382713  25.3441111
  60.5841722  65.1487437  25.5533694  75.6601197  72.0869402  25.5103795
  75.8537087  72.9915212  25.7563070  75.5601815  71.6276821  26.3442380
  67.3137507  61.9727292  28.0094123  66.6665422  62.6717242  27.9158599
  68.0838523  62.4063436  28.3770371  70.7216305  72.2376144  31.0844676
  70.5701812  72.0086696  30.1674760  70.7120985  73.1946746  31.0976021
  67.4901642  69.8108057  26.0690942  68.4193702  69.9619217  25.8959910
  67.0692672  69.8992078  25.2139589  66.2889974  73.8358721  23.8389480
  66.1501059  73.4677506  24.7115418  65.5004570  74.3506361  23.6673438
  66.8838126  78.9367818  15.1815016  67.0589881  78.4655861  15.9960639
  66.1970914  79.5633584  15.4096277  67.8395189  73.2140324  21.2278318
  67.5045021  73.1741094  22.1235968  67.3399134  72.5485040  20.7548728
  61.8139433  68.6207954  26.7530899  61.6759231  67.8888193  27.3542438
  62.7244356  68.5316854  26.4715087  70.7754380  70.5596359  11.5015377
  70.1583551  69.8343187  11.4048430  70.3070869  71.3205719  11.1582452
  64.4421733  68.3327914  26.2414579  65.1521352  67.6921106  26.2001197
  64.3991041  68.5840808  27.1640759  72.4308512  75.2695267  29.1621158
  72.3721058  74.5854487  28.4951741  72.8328030  76.0114257  28.7101784
  63.1550667  65.3193131  28.0610218  62.6188024  64.8683870  28.7131814
  62.5667376  65.4539040  27.3180682  61.4499211  82.0857181  21.9554877
  61.6895809  82.7175705  22.6333895  60.6068407  81.7345221  22.2420236
  62.5652926  64.7781783  10.6236682  61.6882393  64.6570584  10.2598928
  63.0410679  63.9867861  10.3715570  72.4325919  73.2334851  27.3935137
  71.5452698  72.8960773  27.5161536  73.0024470  72.5017882  27.6303903
  54.0855066  69.5658943  20.7178189  54.7726106  69.2520673  20.1299204
  53.9303195  70.4700307  20.4445440  58.8889789  64.4549139  25.1463212
  58.8047977  63.8474809  24.4113622  58.0672495  64.9458157  25.1472709
  65.9627073  77.8936303  24.3596381  65.8897244  78.6991275  24.8715685
  65.5204466  78.0928269  23.5344402  65.7516852  77.1308073  17.8699202
  64.9684374  77.6729753  17.9637427  66.4509597  77.6482053  18.2693443
  69.0613502  62.9402703  20.5133408  69.5582202  62.1872665  20.1934478
  68.2900484  62.9767019  19.9476617  76.9143260  68.6443068  22.1551699
  76.9033136  69.5267784  21.7845632  76.0460639  68.2914619  21.9606236
  68.4225756  77.7923137  26.5154539  69.1353728  78.4270602  26.4430441
  67.9315785  77.8887003  25.6994541  70.1443283  71.6974390  18.0871831
  69.2099562  71.8175852  17.9176535  70.3219952  70.7946857  17.8231841
  65.6448471  65.0820086  20.2405092  65.2746259  64.5291126  20.9285998
  66.1407564  64.4778219  19.6880092  73.5315834  67.5391709  18.6221865
  73.9976287  68.3719701  18.5482168  73.9823335  67.0736691  19.3267124
  63.4737670  75.5417581  27.3360110  64.1747129  76.1754064  27.4889504
  63.0032785  75.8832312  26.5755749  71.5992066  73.8835530  15.6208017
  71.8751909  73.7692125  16.5301891  70.7296564  73.4853015  15.5820190
  71.5032497  59.9072296  22.6612766  70.5895577  60.1376523  22.8294973
  71.9325599  59.9910740  23.5126799  71.2738956  68.0962188  25.1612660
  70.6210406  68.3438096  24.5065113  71.6519336  67.2826326  24.8275138
  68.2346130  78.1321881  19.2640831  68.4168524  77.3143537  19.7268583
  69.0579116  78.3489574  18.8265721  68.5688295  77.0590066  16.5255879
  69.0976061  76.5482521  15.9126041  68.8316515  76.7432597  17.3901412
  67.3226529  68.8381999  31.6478698  66.6467166  68.7376129  32.3181073
  68.1454163  68.6821213  32.1114695  59.0705388  75.0753936  24.2691213
  59.6558825  74.3297624  24.4019117  58.8730226  75.3857892  25.1527877
  61.9244043  78.1105183  19.2853655  61.2554418  78.5951311  18.8017695
  61.7856913  78.3574404  20.1997034  53.6623043  67.6459536  22.9895656
  53.7007142  67.1123127  23.7832774  53.1563335  67.1194741  22.3706633
  66.0649312  80.1448927  25.8836313  66.6167620  80.3080548  26.6485399
  66.4055505  80.7353364  25.2116338  61.0413805  62.4924076  26.4858198
  61.1055131  63.3538907  26.0735596  60.9780925  61.8798078  25.7530557
  60.5166077  64.5647209  30.1331232  61.1438116  64.1824286  30.7468757
  59.6593996  64.3461411  30.4986925  70.9160186  74.9710184  31.7384968
  71.4600090  75.5840142  31.2439923  70.3347031  75.5289763  32.2551981
  57.2931620  66.3723638  16.0649587  57.5885061  65.4634316  16.0116641
  56.3919656  66.3511378  15.7430590  69.2017699  78.0930902  22.8699996
  69.0768838  77.2920642  22.3610941  69.8596790  78.5877096  22.3813966
  60.8225867  64.4479635  22.0477136  60.1012453  65.0615602  21.9084609
  61.6119123  64.9837399  21.9693782  71.2652607  75.8939922  24.4979546
  70.3182943  75.7745273  24.4257872  71.6135380  75.0062420  24.5805807
  63.6252181  61.7834061  28.3217788  64.1486582  62.0296358  29.0844097
  63.4064514  62.6154096  27.9020925  59.0219462  64.0537736  16.1888912
  58.6932168  63.1735115  16.0064018  59.3758832  63.9985404  17.0765302
  68.2699041  75.6892638  20.6983898  68.1224003  74.7609346  20.8791468
  69.0952534  75.7112729  20.2140973  62.1361285  64.3410706  16.5564390
  62.4757357  64.8696627  15.8342998  62.5833405  64.6791112  17.3322957
  71.8733162  76.5121197  21.7848771  72.7979710  76.3064059  21.6473222
  71.7048466  76.2637598  22.6938112  64.8304726  62.7247756  26.0067458
  64.4901546  61.9255569  26.4088138  64.1243732  63.0249467  25.4344291
  65.4821197  59.8097069  24.4594781  66.3047267  59.3357547  24.3373672
  65.7259261  60.5887552  24.9593467  64.1229432  62.8385327  14.7557683
  64.8437794  63.2166580  14.2521400  63.4994736  63.5574204  14.8592661
  68.2660555  63.5430476  15.6916015  68.4824169  64.4255114  15.3904843
  67.7854622  63.1516690  14.9621657  63.0059776  66.5016189  22.2686760
  62.8604357  66.8156492  23.1611041  62.5284980  67.1201090  21.7157658
  64.8656159  63.4918737  22.3167649  64.8517728  62.5959831  21.9799947
  65.5828587  63.4989401  22.9505935  66.7182290  63.9256078  24.3620777
  66.4600068  64.8473148  24.3605107  66.1867330  63.5286512  25.0521241
  71.6628479  77.0306865  17.1410862  71.8365356  76.4653287  16.3884715
  72.1557370  77.8307760  16.9590352  57.4805438  69.0421534  25.2074421
  56.9358906  69.8181342  25.3394695  58.3584788  69.3892338  25.0493542
  64.2693055  62.3733118  17.5855219  64.3908966  61.4449764  17.7846107
  63.9795097  62.3871804  16.6733535  67.1384245  60.0588028  20.7221939
  67.1605942  60.1227361  19.7673919  67.5552304  59.2192537  20.9162445
  77.5167870  69.7943288  18.7601162  77.9599016  69.0450613  18.3620285
  76.6394380  69.7853424  18.3774894  72.6503651  76.3473629  14.2407760
  73.3454556  76.9680322  14.4595075  72.9926801  75.4968980  14.5160138
  58.2671460  68.1691430  28.1004578  57.5253196  68.3174065  28.6869208
  57.9464205  68.4299696  27.2371327  74.5495074  73.7973335  15.7695091
  75.0746398  74.1360607  15.0444411  74.4617427  72.8620350  15.5858226
  66.2115123  77.7107408  27.8984968  66.5202249  77.4656555  28.7707667
  67.0090605  77.9154047  27.4103838  66.2335735  79.8645318  20.1290344
  65.7940725  79.3721697  20.8223201  66.9843852  79.3218286  19.8882420
  58.7128074  76.0556859  20.1314972  59.5386094  75.7560631  19.7513616
  58.3622126  75.2864481  20.5804761  63.6809607  75.4083327  22.2012646
  63.0589616  74.7454032  21.9014874  64.3514474  75.4344459  21.5186294
  56.9136679  73.9743185  21.0903906  56.0768587  73.5465360  20.9087907
  56.8860324  74.1675629  22.0274697  63.7534135  63.8865115  31.7945152
  63.8022290  64.7627238  31.4122922  64.2956649  63.3442508  31.2216795
  74.2388980  74.4306238  31.0746289  73.4484524  74.4130377  30.5350789
  74.0022335  74.9694532  31.8295326  63.2423114  73.9587250  15.6771107
  63.3911234  74.6422715  15.0237779  64.0489557  73.9392340  16.1920562
  71.6490618  67.2629633  29.7038324  72.5500480  67.1236097  29.4122322
  71.7238592  67.4284087  30.6436502  65.9833423  64.6396487  28.5491511
  65.1136732  64.9330053  28.2774099  66.2192903  65.2236932  29.2698774
  75.8605052  73.6995646  28.6321039  75.5689860  74.0625627  29.4684500
  75.2477183  72.9862654  28.4534371  77.0600734  71.2648526  21.1523609
  77.8947626  71.7038330  21.3161170  77.1959863  70.7887179  20.3331855
  74.1092240  68.8228261  27.1001097  74.5846362  69.0155907  26.2919949
  73.1857806  68.8787447  26.8544481  60.9975747  69.9852428  16.6832176
  60.7521789  69.0814758  16.8812386  61.1671662  69.9869578  15.7411654
  68.6872457  60.8576104  26.0656931  69.2054401  61.5937131  25.7403420
  68.3327590  61.1640098  26.9003690  60.2671395  65.7180785  14.1818337
  59.5740639  65.7925140  13.5258373  60.0223146  64.9541129  14.7039854
  68.9385051  57.2776387  21.5857828  69.2186805  56.6099576  22.2118254
  69.7235658  57.4705482  21.0732492  66.7418520  76.4535381  13.1482854
  66.1692487  77.0725568  12.6953326  67.3151313  77.0034742  13.6822776
  72.8093909  65.6994021  25.3329403  73.7611332  65.7992118  25.3541627
  72.6397360  64.9072289  25.8427487  70.8308289  62.7849604  25.5188804
  70.2358221  63.0654617  24.8235292  70.5457986  63.2743505  26.2905545
  69.9615779  76.7372531  14.2791436  70.8946452  76.6718093  14.4824312
  69.8738992  77.5728798  13.8205969  72.5903796  76.0538401  11.2395384
  72.5117428  75.7198265  12.1331142  73.4113463  76.5460169  11.2386856
  75.2881987  68.9200141  24.4471702  75.2558307  67.9816141  24.6331386
  75.8982611  68.9984177  23.7137527  67.1265318  67.7896193  10.4898907
  68.0724423  67.6602402  10.5587325  66.7479563  67.0510855  10.9668335
  75.4376476  65.7111184  24.4929986  74.9215524  64.9269641  24.3059915
  76.3216424  65.3829901  24.6576505  73.0987203  59.4552200  20.4525798
  72.9012024  59.1467288  21.3369130  73.7086908  60.1813838  20.5823728
  81.1058537  69.9816147  23.5877739  81.8361925  69.7201435  24.1485443
  80.4965482  69.2444869  23.6279807  79.1873834  68.1224010  24.1852190
  78.4606998  67.9879975  23.5768682  78.7721121  68.4300839  24.9908909
  67.0104011  71.8413940  31.9499564  67.9307020  72.0192539  32.1439610
  66.9753594  70.8969985  31.7979263  65.3108235  65.7146170  10.4253792
  64.4039691  65.4179283  10.5016505  65.5884216  65.4175988   9.5588078
  56.2286176  67.0352533  20.8752838  55.9088960  66.1817841  20.5827212
  55.6819604  67.2501111  21.6310805  60.0066083  69.7514974  24.5922345
  60.2252093  70.6832082  24.6110378  60.4191857  69.3922949  25.3777149
  66.9270301  60.2583060  16.5798033  66.1171029  59.9130145  16.9553279
  67.6154718  59.9490603  17.1685645  68.8560849  59.3361106  18.2022330
  69.4091888  59.7556560  18.8612353  69.0930936  58.4096855  18.2445286
  64.8793948  65.3248180  33.9825094  64.7790675  66.2742537  33.9137185
  64.6615490  64.9966419  33.1101164  64.0807020  62.5733105  10.5665771
  64.9426184  62.8988003  10.8261588  64.2657364  61.7864601  10.0538837
  56.0974436  70.6555445  22.8445960  55.4037907  70.2409398  22.3315914
  56.8447427  70.6975981  22.2479379  72.2339656  61.4461632  17.7100994
  71.6538325  62.1046436  17.3279046  71.9675589  60.6238976  17.2988411
  70.6843223  60.8466689  19.9122314  71.1843001  60.9583224  19.1036633
  71.3278831  60.5427742  20.5523123  64.7425218  68.7545319  32.7990155
  64.2592300  69.5545679  33.0054044  64.8286158  68.7653264  31.8457599
  58.0111178  70.5873699  20.7211975  57.9881866  70.6861386  19.7693858
  58.3211815  71.4338849  21.0429141  60.6698556  72.6449854  24.8358589
  61.6241810  72.6133796  24.7688521  60.4711080  72.1840477  25.6508815
  61.2597938  71.2150970  27.4029387  62.0790827  71.7095048  27.4264224
  61.5334746  70.2982938  27.3746954  71.0164534  63.6061722  16.7657342
  70.1290389  63.8911373  16.5477537  71.4318523  63.4455485  15.9184619
  74.3679070  63.6308243  20.4811681  75.1439461  64.1204695  20.7536298
  73.6427205  64.0566297  20.9383551  76.8051629  64.3435862  21.5385622
  77.3996120  64.1031598  20.8278930  76.8778213  63.6242993  22.1659158
  59.0248785  78.1869473  21.8528787  58.8903253  77.4269874  21.2866785
  58.6080847  78.9110373  21.3857576  70.1607748  73.3706397  10.8605362
  70.8643598  73.5756399  11.4763018  69.4370397  73.9383158  11.1254446
  70.9905558  69.1216258  16.9807632  70.9340759  69.5784809  16.1415265
  71.5433901  68.3606942  16.8030475  74.8010364  64.9105990  17.8057752
  74.5447298  64.5102625  18.6365960  74.1763232  65.6249784  17.6807891
  79.1122702  67.6502063  20.3129043  78.5522260  67.7195252  21.0860605
  78.5066205  67.4743048  19.5928540  62.1817911  79.0838790  22.0647230
  62.0650295  80.0284223  21.9625920  61.3610357  78.7812352  22.4533029
  72.0694445  73.8088926  12.9103822  72.9040049  73.3770124  12.7281297
  71.9078788  73.6370939  13.8380717  71.7240337  70.3121039  14.2760162
  71.6689141  70.1465311  13.3348606  71.0986393  71.0197072  14.4322351
  56.5132852  65.5489103  28.1021584  57.1591716  65.0388057  28.5908809
  56.3050003  66.2857785  28.6765009  69.0386245  72.6169951  33.6013724
  69.9077404  72.7910603  33.2400359  68.5592996  73.4364368  33.4789454
  65.0336463  59.8129148  13.8545480  65.0215133  60.7570988  14.0113751
  65.9259885  59.6299294  13.5604941  63.2072425  79.7367052  25.2803158
  64.1099671  79.7690662  25.5969653  62.9809795  78.8067503  25.2949494
  64.9626027  78.4898039  21.9413237  64.0121658  78.4899900  21.8277609
  65.2658513  77.7430773  21.4249271  68.8488582  56.4071925  18.1091417
  68.0820978  55.8530411  18.2548099  69.2599287  56.4793794  18.9705568
  60.8530343  62.6956721  32.1996598  61.7161805  62.3393525  32.4099923
  60.2795754  62.3570615  32.8872002  80.6978720  84.3258577  23.0058999
  81.3357130  84.2065324  22.3022339  80.5799563  85.2739421  23.0646951
  77.5068427  84.2786005  22.9420524  77.1686938  84.1627070  22.0541059
  78.3758195  83.8777170  22.9221530  73.3655242  86.1321481  18.9317415
  72.8020107  86.0411418  18.1633702  73.2507637  85.3121386  19.4119907
  77.9888210  85.4320857  28.9006729  77.9776850  85.0373655  28.0287233
  78.1508849  84.6986929  29.4940501  70.9119674  87.6272673  21.7701635
  71.7040966  87.2863498  21.3547934  71.1516324  87.7367648  22.6903788
  78.9454801  89.7992449  14.2431880  78.2942781  90.3846530  13.8565893
  79.7399164  90.3298644  14.3026917  72.8710428  86.8881586  14.6419014
  73.6441304  86.3410573  14.5031890  73.2235827  87.7525836  14.8533475
  74.7095471  88.2157969  27.8485913  74.4185337  89.1203599  27.7332580
  75.3452455  88.2574496  28.5629983  75.6351678  85.5934817  24.4387273
  76.2315250  85.3690839  23.7244236  75.6926649  84.8519563  25.0412721
  75.2076706  83.0474252  12.2737464  75.4602227  82.5255774  11.5120927
  74.2701265  82.8840398  12.3764147  80.2519989  82.0510031  20.0812207
  81.0383078  81.6329454  19.7302624  80.5158693  82.9556123  20.2493855
  80.4230066  87.4882881  14.7800864  79.7875899  87.5617508  15.4921768
  80.0927473  88.0776480  14.1019943  85.6528416  81.9885264  20.9845186
  86.3853588  81.4184481  21.2183015  84.8967772  81.6006864  21.4251691
  74.9272995  84.9502358  14.4761839  74.8109253  84.2747262  15.1442923
  75.0375255  84.4634732  13.6593992  77.2704536  84.4112505  18.1808528
  76.9062743  83.8843126  18.8921449  78.1271652  84.0210975  18.0075013
  83.1753836  75.7006838  25.4439794  82.8437161  76.5702249  25.2201009
  82.5799450  75.3843122  26.1233825  76.9110023  79.4402405  13.1769877
  77.0784425  80.3082642  13.5440348  76.7207192  79.6029687  12.2531166
  79.6685356  87.9019384  24.8435707  79.3686079  88.8044423  24.7351514
  79.3236415  87.6351567  25.6956860  73.1197837  84.3533181  20.8772411
  72.1948334  84.2209395  21.0850103  73.3682250  85.1327400  21.3742354
  83.0682500  80.4201924  22.5233144  82.1599377  80.3517333  22.2291905
  83.0170095  80.8973869  23.3514970  76.8899243  81.8960063  14.1616543
  76.7698869  82.3417113  15.0002024  76.1951832  82.2445380  13.6030081
  70.4806648  83.9966454  21.7116200  70.6099029  84.2500933  22.6255612
  69.8004100  84.5894162  21.3920855  74.6506136  94.6663704  17.8106675
  74.5730165  95.6171529  17.8895155  74.0467779  94.3209577  18.4681601
  77.1423365  81.8391570  30.4668041  76.3656699  82.3985490  30.4570906
  77.7813928  82.3248353  30.9882912  84.9344146  78.6218363  24.3011018
  84.2918526  78.9150896  23.6550813  84.4299074  78.5071283  25.1064215
  82.5884310  82.3681536  14.9896877  83.5002166  82.6008923  14.8144575
  82.0793957  82.9518580  14.4271956  75.3969738  84.6477023  30.0286008
  76.1384422  85.1862067  29.7520832  74.6906723  85.2743312  30.1857560
  80.8725077  86.7906164  28.6258170  81.2808433  86.3488574  27.8812802
  80.1502339  86.2158791  28.8792363  77.2256147  81.7278770  25.9991727
  78.0717343  82.1518184  26.1426376  77.1654785  81.0712395  26.6930290
  81.1953892  87.3507354  22.3810459  80.5662754  87.5153068  21.6786527
  80.8079554  87.7648964  23.1521423  85.0743124  88.2861792  19.7354823
  84.3894162  88.6660693  19.1851856  85.1586973  88.8957119  20.4686770
  80.3755593  79.3883139  27.6572901  80.1316525  80.1425199  27.1207176
  80.6515523  79.7668486  28.4920148  82.3294055  85.9321751  26.3350166
  82.5410951  86.5753511  25.6584547  82.2823804  85.0984068  25.8672096
  79.9320284  78.5439572  23.2386738  79.0704763  78.8420825  23.5303476
  79.9582719  78.7609971  22.3067771  76.7481854  87.0881762  19.6460544
  77.2120199  87.3669465  18.8565166  76.4838652  86.1865207  19.4633635
  73.6405935  86.6353244  22.5840307  74.2107292  87.0640512  21.9457792
  74.2314047  86.3535829  23.2824493  75.6850740  83.2104915  16.4550109
  76.3874783  83.6625958  16.9224035  75.3531368  82.5688734  17.0830002
  74.1331101  81.8016671  30.8301318  73.5029762  82.4832952  31.0636715
  74.0267189  81.6899753  29.8854457  69.4276074  81.4688467  21.7567243
  68.6375128  81.7245996  21.2807353  69.9187321  82.2836805  21.8619283
  83.4439883  88.8093707  24.5072523  84.2657327  88.4073894  24.2255205
  83.4402286  88.7061941  25.4588639  71.3790819  81.8333047  18.7150719
  70.5821982  81.9451741  19.2334215  71.1516411  82.1719699  17.8491610
  77.2096487  88.3577750  26.6633234  77.2740919  88.8198157  27.4991406
  76.5007411  87.7275115  26.7915544  67.7113777  81.7218958  24.1882233
  67.9621815  82.6065968  24.4539809  68.2473325  81.5423559  23.4157325
  91.5345876  85.1532455  20.8557495  90.7809585  84.5839853  20.7001499
  91.6693418  85.1195120  21.8028130  76.9244504  90.0245857  16.5312214
  76.7890179  90.8697393  16.9597062  77.4654317  90.2265135  15.7678148
  73.4111844  76.1037437  33.1926570  73.0178790  75.5503636  33.8674214
  74.2277984  76.4148016  33.5833087  70.3773902  87.5421295  17.1040139
  70.8898422  88.3364546  17.2545704  71.0296615  86.8447586  17.0373741
  72.1868787  90.6587052  19.1862893  72.3635415  91.5805016  18.9983876
  72.9825620  90.3445471  19.6157272  76.3279805  77.5195316  30.7846826
  77.0689518  78.1202469  30.7051289  76.5597728  76.7772954  30.2264869
  71.4721143  82.7051684  29.0625056  71.3574658  81.8036941  29.3632155
  70.6165661  82.9515380  28.7109872  78.5512981  90.6469424  30.6612556
  78.1076835  89.8605802  30.3433461  79.2130194  90.8348574  29.9956447
  73.3100102  92.1765225  25.1873235  73.8607527  92.0482289  24.4150229
  72.4711578  92.4760114  24.8368128  80.6494219  90.9272224  28.6893958
  80.6312694  91.7481105  28.1974227  81.5714139  90.8026299  28.9144099
  77.1067273  88.4416353  29.5317466  77.6395610  87.6804641  29.3016774
  76.5781354  88.1490005  30.2741621  80.2736968  73.5476419  25.0611108
  79.9301237  74.4378061  24.9850218  80.6415931  73.3578077  24.1980693
  68.3422819  85.8709950  17.8799710  69.1798041  86.2806958  17.6633418
  68.5201086  84.9309392  17.8499904  80.2387251  83.5385030  13.5683543
  79.7233874  84.3089635  13.8071930  79.9664559  82.8650167  14.1916604
  77.8234362  78.3834731  18.6268781  76.9675958  77.9941582  18.4474420
  78.2361314  78.4626692  17.7668567  79.3533508  75.9181074  23.0260341
  78.8498304  75.8811210  22.2128146  79.6464115  76.8273817  23.0856998
  75.5976394  76.0019804  22.0326523  76.4629391  75.8062613  21.6732412
  75.6653903  75.7730156  22.9595880  85.2121525  86.2917385  15.5036716
  84.4350968  85.9528544  15.0591878  85.8913006  86.2970008  14.8291681
  80.0273554  81.4112122  15.3943324  79.7223690  81.7258272  16.2453467
  80.9803996  81.4893542  15.4370657  78.4719986  87.5702346  17.0436278
  77.9441347  86.8355105  16.7309516  77.9707489  88.3477022  16.7976246
  83.4512832  85.7651366  22.1603324  82.7936506  86.4550628  22.2483453
  84.2553231  86.1547798  22.5037311  73.2038713  78.2322012  19.4042890
  73.7782465  78.0097194  18.6716083  73.7909696  78.3010707  20.1571491
  82.2618291  84.1195739  20.2107266  82.7750172  84.7525731  20.7128976
  82.9119514  83.5196934  19.8450626  73.5308301  80.2626473  13.4238775
  72.6945613  80.6001160  13.7448050  73.3913070  80.1275453  12.4865912
  75.5061381  75.1063261  18.1317959  74.8525793  74.7912278  17.5074574
  75.4641855  74.4839001  18.8577782  76.6172586  85.3882556  10.0471251
  75.7099648  85.1571809  10.2462400  77.1143618  84.5920175  10.2345233
  78.7399121  81.5945194  22.4565607  77.8221683  81.8160141  22.2987295
  79.1559265  81.6691505  21.5977314  79.5234169  82.9936610  17.5868287
  80.2705988  83.5058007  17.2775409  79.7925759  82.6720663  18.4472680
  77.7960819  85.4895151  14.5695241  76.8872039  85.2054184  14.6667711
  77.8255903  85.9094229  13.7098548  83.0280087  89.1001740  18.3386409
  82.5742414  88.2592650  18.3951599  82.3974054  89.7363139  18.6761189
  81.9713006  80.0293726  19.5687076  81.2335763  79.5171113  19.8997319
  82.2239780  79.5894108  18.7570353  81.4713026  90.9378237  19.2736227
  81.7636000  91.4983294  18.5548593  81.9811647  91.2306798  20.0289386
  82.0724634  72.8069978  20.1628845  82.3783511  71.9467342  19.8754761
  82.7977239  73.3987599  19.9627839  68.3648990  83.2100665  18.5510443
  68.1673390  82.6170026  17.8261510  67.8095654  82.9052875  19.2686382
  76.3445713  83.1023771  20.6705037  76.3994323  82.1497608  20.5947513
  75.5336915  83.2583211  21.1546335  77.4936907  87.0303895  11.9083320
  77.0556337  86.3139753  11.4488957  78.2347348  87.2580009  11.3468411
  74.2838073  81.7200831  18.4295415  73.4705939  82.0195002  18.8360608
  74.7797068  81.3256520  19.1469898  76.4346651  91.7158588  20.3629680
  76.3922830  91.9419434  19.4338212  77.3509350  91.4821963  20.5115481
  79.8812285  82.1842656  27.2610309  80.2361673  82.4114129  28.1204775
  80.5284416  82.5161033  26.6387565  85.6110022  85.3061092  17.9659638
  85.4727921  85.4962688  17.0380828  85.2546241  86.0680474  18.4227689
  73.7752148  79.2919187  24.0456650  74.4151527  79.1507946  23.3479614
  72.9429679  79.0053700  23.6695252  85.6379402  87.3737619  22.9770910
  86.0715908  87.2812908  23.8253964  86.3510982  87.3495119  22.3390926
  74.5512452  88.5921617  20.1591643  75.3453051  88.0971937  19.9574218
  73.8404144  88.0639480  19.7959348  79.3707297  90.9739713  24.5104010
  79.4244319  91.5430649  25.2781726  78.5022078  91.1441598  24.1458048
  70.8595215  82.7364699  16.2351395  69.9292804  82.6749154  16.4521358
  70.9552687  82.2140652  15.4388037  70.7780765  79.2619512  18.8229637
  71.0387582  80.1764845  18.7138798  71.5997937  78.7943954  18.9726250
  72.2505690  80.6757269  25.9928462  72.9228743  80.4674631  25.3441111
  71.4235476  80.4779355  25.5533694  86.4994951  87.4161319  25.5103795
  86.6930841  88.3207130  25.7563070  86.3995569  86.9568738  26.3442380
  78.1531262  77.3019210  28.0094123  77.5059177  78.0009160  27.9158599
  78.9232277  77.7355354  28.3770371  81.5610060  87.5668062  31.0844676
  81.4095566  87.3378614  30.1674760  81.5514739  88.5238663  31.0976021
  78.3295396  85.1399975  26.0690942  79.2587456  85.2911134  25.8959910
  77.9086426  85.2283996  25.2139589  77.1283728  89.1650639  23.8389480
  76.9894814  88.7969424  24.7115418  76.3398324  89.6798279  23.6673438
  77.7231880  94.2659736  15.1815016  77.8983636  93.7947779  15.9960639
  77.0364668  94.8925502  15.4096277  78.6788943  88.5432242  21.2278318
  78.3438776  88.5033012  22.1235968  78.1792889  87.8776958  20.7548728
  72.6533187  83.9499872  26.7530899  72.5152985  83.2180111  27.3542438
  73.5638111  83.8608772  26.4715087  81.6148135  85.8888276  11.5015377
  80.9977305  85.1635104  11.4048430  81.1464623  86.6497636  11.1582452
  75.2815488  83.6619831  26.2414579  75.9915106  83.0213023  26.2001197
  75.2384796  83.9132726  27.1640759  83.2702266  90.5987185  29.1621158
  83.2114813  89.9146405  28.4951741  83.6721785  91.3406175  28.7101784
  73.9944422  80.6485049  28.0610218  73.4581779  80.1975788  28.7131814
  73.4061130  80.7830958  27.3180682  72.2892965  97.4149098  21.9554877
  72.5289564  98.0467623  22.6333895  71.4462162  97.0637138  22.2420236
  73.4046681  80.1073701  10.6236682  72.5276147  79.9862501  10.2598928
  73.8804434  79.3159779  10.3715570  83.2719674  88.5626769  27.3935137
  82.3846453  88.2252690  27.5161536  83.8418225  87.8309800  27.6303903
  64.9248821  84.8950860  20.7178189  65.6119861  84.5812590  20.1299204
  64.7696950  85.7992225  20.4445440  69.7283543  79.7841057  25.1463212
  69.6441732  79.1766726  24.4113622  68.9066249  80.2750075  25.1472709
  76.8020827  93.2228221  24.3596381  76.7290999  94.0283192  24.8715685
  76.3598220  93.4220187  23.5344402  76.5910607  92.4599991  17.8699202
  75.8078129  93.0021671  17.9637427  77.2903352  92.9773971  18.2693443
  79.9007257  78.2694620  20.5133408  80.3975956  77.5164583  20.1934478
  79.1294238  78.3058937  19.9476617  87.7537014  83.9734986  22.1551699
  87.7426891  84.8559701  21.7845632  86.8854394  83.6206537  21.9606236
  79.2619511  93.1215055  26.5154539  79.9747483  93.7562520  26.4430441
  78.7709539  93.2178921  25.6994541  80.9837038  87.0266308  18.0871831
  80.0493316  87.1467770  17.9176535  81.1613706  86.1238774  17.8231841
  76.4842226  80.4112003  20.2405092  76.1140013  79.8583044  20.9285998
  76.9801318  79.8070137  19.6880092  84.3709589  82.8683627  18.6221865
  84.8370041  83.7011618  18.5482168  84.8217089  82.4028608  19.3267124
  74.3131424  90.8709498  27.3360110  75.0140884  91.5045981  27.4889504
  73.8426539  91.2124230  26.5755749  82.4385820  89.2127448  15.6208017
  82.7145664  89.0984043  16.5301891  81.5690319  88.8144933  15.5820190
  82.3426252  75.2364214  22.6612766  81.4289331  75.4668441  22.8294973
  82.7719353  75.3202658  23.5126799  82.1132710  83.4254106  25.1612660
  81.4604160  83.6730013  24.5065113  82.4913090  82.6118244  24.8275138
  79.0739884  93.4613799  19.2640831  79.2562279  92.6435455  19.7268583
  79.8972870  93.6781491  18.8265721  79.4082050  92.3881984  16.5255879
  79.9369816  91.8774439  15.9126041  79.6710269  92.0724514  17.3901412
  78.1620283  84.1673917  31.6478698  77.4860920  84.0668046  32.3181073
  78.9847917  84.0113131  32.1114695  69.9099142  90.4045853  24.2691213
  70.4952579  89.6589541  24.4019117  69.7123981  90.7149810  25.1527877
  72.7637797  93.4397101  19.2853655  72.0948173  93.9243228  18.8017695
  72.6250667  93.6866321  20.1997034  64.5016797  82.9751454  22.9895656
  64.5400897  82.4415044  23.7832774  63.9957090  82.4486659  22.3706633
  76.9043066  95.4740844  25.8836313  77.4561374  95.6372466  26.6485399
  77.2449260  96.0645282  25.2116338  71.8807559  77.8215994  26.4858198
  71.9448886  78.6830825  26.0735596  71.8174680  77.2089996  25.7530557
  71.3559832  79.8939127  30.1331232  71.9831871  79.5116204  30.7468757
  70.4987751  79.6753329  30.4986925  81.7553940  90.3002102  31.7384968
  82.2993844  90.9132060  31.2439923  81.1740785  90.8581680  32.2551981
  68.1325375  81.7015556  16.0649587  68.4278816  80.7926234  16.0116641
  67.2313410  81.6803295  15.7430590  80.0411453  93.4222820  22.8699996
  79.9162593  92.6212560  22.3610941  80.6990544  93.9169013  22.3813966
  71.6619622  79.7771552  22.0477136  70.9406207  80.3907520  21.9084609
  72.4512877  80.3129317  21.9693782  82.1046362  91.2231840  24.4979546
  81.1576697  91.1037191  24.4257872  82.4529135  90.3354338  24.5805807
  74.4645935  77.1125979  28.3217788  74.9880337  77.3588275  29.0844097
  74.2458268  77.9446014  27.9020925  69.8613216  79.3829653  16.1888912
  69.5325922  78.5027032  16.0064018  70.2152587  79.3277322  17.0765302
  79.1092795  91.0184556  20.6983898  78.9617757  90.0901264  20.8791468
  79.9346289  91.0404647  20.2140973  72.9755039  79.6702623  16.5564390
  73.3151112  80.1988544  15.8342998  73.4227160  80.0083029  17.3322957
  82.7126917  91.8413115  21.7848771  83.6373464  91.6355976  21.6473222
  82.5442220  91.5929516  22.6938112  75.6698480  78.0539674  26.0067458
  75.3295301  77.2547487  26.4088138  74.9637486  78.3541385  25.4344291
  76.3214952  75.1388986  24.4594781  77.1441021  74.6649465  24.3373672
  76.5653015  75.9179470  24.9593467  74.9623186  78.1677245  14.7557683
  75.6831549  78.5458498  14.2521400  74.3388491  78.8866122  14.8592661
  79.1054309  78.8722394  15.6916015  79.3217924  79.7547032  15.3904843
  78.6248376  78.4808607  14.9621657  73.8453531  81.8308107  22.2686760
  73.6998111  82.1448410  23.1611041  73.3678734  82.4493007  21.7157658
  75.7049914  78.8210655  22.3167649  75.6911482  77.9251748  21.9799947
  76.4222342  78.8281319  22.9505935  77.5576044  79.2547995  24.3620777
  77.2993822  80.1765066  24.3605107  77.0261085  78.8578430  25.0521241
  82.5022233  92.3598782  17.1410862  82.6759111  91.7945205  16.3884715
  82.9951124  93.1599677  16.9590352  68.3199193  84.3713451  25.2074421
  67.7752661  85.1473259  25.3394695  69.1978543  84.7184256  25.0493542
  75.1086810  77.7025035  17.5855219  75.2302721  76.7741681  17.7846107
  74.8188852  77.7163721  16.6733535  77.9778000  75.3879946  20.7221939
  77.9999697  75.4519279  19.7673919  78.3946059  74.5484454  20.9162445
  88.3561624  85.1235205  18.7601162  88.7992770  84.3742530  18.3620285
  87.4788135  85.1145342  18.3774894  83.4897406  91.6765547  14.2407760
  84.1848310  92.2972239  14.4595075  83.8320556  90.8260898  14.5160138
  69.1065215  83.4983348  28.1004578  68.3646951  83.6465983  28.6869208
  68.7857959  83.7591613  27.2371327  85.3888829  89.1265252  15.7695091
  85.9140153  89.4652525  15.0444411  85.3011181  88.1912268  15.5858226
  77.0508877  93.0399326  27.8984968  77.3596004  92.7948473  28.7707667
  77.8484359  93.2445964  27.4103838  77.0729489  95.1937236  20.1290344
  76.6334480  94.7013614  20.8223201  77.8237606  94.6510203  19.8882420
  69.5521828  91.3848776  20.1314972  70.3779848  91.0852548  19.7513616
  69.2015880  90.6156399  20.5804761  74.5203362  90.7375245  22.2012646
  73.8983371  90.0745950  21.9014874  75.1908228  90.7636377  21.5186294
  67.7530433  89.3035103  21.0903906  66.9162342  88.8757277  20.9087907
  67.7254079  89.4967546  22.0274697  74.5927889  79.2157033  31.7945152
  74.6416045  80.0919155  31.4122922  75.1350403  78.6734426  31.2216795
  85.0782735  89.7598156  31.0746289  84.2878278  89.7422295  30.5350789
  84.8416089  90.2986450  31.8295326  85.1980610  86.6090622  28.3879018
  85.2478615  86.4440630  29.3294541  85.0894533  85.7417881  27.9976898
  74.0816868  89.2879168  15.6771107  74.2304989  89.9714632  15.0237779
  74.8883312  89.2684258  16.1920562  82.4884372  82.5921550  29.7038324
  83.3894235  82.4528015  29.4122322  82.5632347  82.7576005  30.6436502
  76.8227178  79.9688405  28.5491511  75.9530487  80.2621971  28.2774099
  77.0586658  80.5528850  29.2698774  86.6998807  89.0287564  28.6321039
  86.4083615  89.3917544  29.4684500  86.0870938  88.3154572  28.4534371
  87.8994489  86.5940444  21.1523609  88.7341380  87.0330248  21.3161170
  88.0353618  86.1179097  20.3331855  84.9485995  84.1520178  27.1001097
  85.4240116  84.3447825  26.2919949  84.0251560  84.2079364  26.8544481
  71.8369501  85.3144346  16.6832176  71.5915543  84.4106676  16.8812386
  72.0065416  85.3161496  15.7411654  79.5266211  76.1868022  26.0656931
  80.0448155  76.9229049  25.7403420  79.1721344  76.4932015  26.9003690
  71.1065149  81.0472703  14.1818337  70.4134394  81.1217058  13.5258373
  70.8616901  80.2833047  14.7039854  79.7778806  72.6068305  21.5857828
  80.0580559  71.9391494  22.2118254  80.5629412  72.7997400  21.0732492
  77.5812274  91.7827298  13.1482854  77.0086241  92.4017486  12.6953326
  78.1545068  92.3326660  13.6822776  83.6487664  81.0285938  25.3329403
  84.6005087  81.1284036  25.3541627  83.4791114  80.2364207  25.8427487
  81.6702043  78.1141522  25.5188804  81.0751975  78.3946534  24.8235292
  81.3851740  78.6035423  26.2905545  80.8009534  92.0664449  14.2791436
  81.7340207  92.0010010  14.4824312  80.7132747  92.9020715  13.8205969
  86.1275742  84.2492058  24.4471702  86.0952062  83.3108059  24.6331386
  86.7376365  84.3276095  23.7137527  77.9659073  83.1188111  10.4898907
  78.9118177  82.9894319  10.5587325  77.5873317  82.3802773  10.9668335
  86.2770230  81.0403102  24.4929986  85.7609279  80.2561558  24.3059915
  87.1610179  80.7121818  24.6576505  83.9380957  74.7844117  20.4525798
  83.7405778  74.4759205  21.3369130  84.5480663  75.5105756  20.5823728
  91.9452292  85.3108065  23.5877739  92.6755680  85.0493353  24.1485443
  91.3359237  84.5736787  23.6279807  90.0267589  83.4515928  24.1852190
  89.3000752  83.3171893  23.5768682  89.6114876  83.7592756  24.9908909
  77.8497765  87.1705857  31.9499564  78.7700775  87.3484456  32.1439610
  77.8147348  86.2261903  31.7979263  76.1501990  81.0438088  10.4253792
  75.2433445  80.7471200  10.5016505  76.4277971  80.7467906   9.5588078
  67.0679930  82.3644451  20.8752838  66.7482714  81.5109759  20.5827212
  66.5213358  82.5793029  21.6310805  70.8459838  85.0806892  24.5922345
  71.0645847  86.0124000  24.6110378  71.2585611  84.7214866  25.3777149
  77.7664055  75.5874977  16.5798033  76.9564784  75.2422062  16.9553279
  78.4548472  75.2782521  17.1685645  79.6954604  74.6653024  18.2022330
  80.2485642  75.0848477  18.8612353  79.9324690  73.7388772  18.2445286
  75.7187703  80.6540098  33.9825094  75.6184430  81.6034455  33.9137185
  75.5009245  80.3258337  33.1101164  74.9200774  77.9025023  10.5665771
  75.7819938  78.2279921  10.8261588  75.1051118  77.1156519  10.0538837
  66.9368190  85.9847362  22.8445960  66.2431661  85.5701315  22.3315914
  67.6841181  86.0267899  22.2479379  83.0733411  76.7753549  17.7100994
  82.4932080  77.4338353  17.3279046  82.8069343  75.9530894  17.2988411
  81.5236977  76.1758607  19.9122314  82.0236756  76.2875141  19.1036633
  82.1672585  75.8719660  20.5523123  75.5818973  84.0837237  32.7990155
  75.0986055  84.8837597  33.0054044  75.6679912  84.0945181  31.8457599
  68.8504933  85.9165616  20.7211975  68.8275621  86.0153303  19.7693858
  69.1605569  86.7630767  21.0429141  71.5092310  87.9741771  24.8358589
  72.4635564  87.9425714  24.7688521  71.3104834  87.5132395  25.6508815
  72.0991693  86.5442887  27.4029387  72.9184582  87.0386966  27.4264224
  72.3728500  85.6274855  27.3746954  81.8558289  78.9353640  16.7657342
  80.9684144  79.2203290  16.5477537  82.2712278  78.7747403  15.9184619
  85.2072825  78.9600161  20.4811681  85.9833215  79.4496613  20.7536298
  84.4820959  79.3858215  20.9383551  87.6445384  79.6727780  21.5385622
  88.2389874  79.4323516  20.8278930  87.7171967  78.9534910  22.1659158
  69.8642539  93.5161391  21.8528787  69.7297007  92.7561792  21.2866785
  69.4474602  94.2402291  21.3857576  81.0001502  88.6998314  10.8605362
  81.7037352  88.9048317  11.4763018  80.2764151  89.2675076  11.1254446
  81.8299313  84.4508176  16.9807632  81.7734514  84.9076727  16.1415265
  82.3827655  83.6898860  16.8030475  85.6404118  80.2397907  17.8057752
  85.3841053  79.8394543  18.6365960  85.0156986  80.9541701  17.6807891
  89.9516456  82.9793981  20.3129043  89.3916014  83.0487170  21.0860605
  89.3459960  82.8034965  19.5928540  73.0211665  94.4130708  22.0647230
  72.9044049  95.3576140  21.9625920  72.2004111  94.1104269  22.4533029
  82.9088200  89.1380843  12.9103822  83.7433804  88.7062042  12.7281297
  82.7472543  88.9662857  13.8380717  82.5634092  85.6412957  14.2760162
  82.5082896  85.4757228  13.3348606  81.9380147  86.3488990  14.4322351
  67.3526607  80.8781021  28.1021584  67.9985470  80.3679975  28.5908809
  67.1443758  81.6149703  28.6765009  79.8779999  87.9461869  33.6013724
  80.7471159  88.1202521  33.2400359  79.3986751  88.7656285  33.4789454
  75.8730217  75.1421066  13.8545480  75.8608887  76.0862906  14.0113751
  76.7653639  74.9591211  13.5604941  74.0466179  95.0658970  25.2803158
  74.9493426  95.0982580  25.5969653  73.8203549  94.1359421  25.2949494
  75.8019781  93.8189956  21.9413237  74.8515412  93.8191818  21.8277609
  76.1052267  93.0722691  21.4249271  79.6882337  71.7363842  18.1091417
  78.9214733  71.1822329  18.2548099  80.0993042  71.8085711  18.9705568
  71.6924098  78.0248638  32.1996598  72.5555559  77.6685443  32.4099923
  71.1189508  77.6862533  32.8872002  91.5372475  99.6550495  23.0058999
  92.1750885  99.5357242  22.3022339  91.4193318 100.6031339  23.0646951
  88.3462181  99.6077923  22.9420524  88.0080693  99.4918987  22.0541059
  89.2151949  99.2069088  22.9221530  88.8281964 100.7612774  28.9006729
  88.8170605 100.3665573  28.0287233  88.9902604 100.0278847  29.4940501
  81.7513429 102.9564591  21.7701635  82.5434721 102.6155415  21.3547934
  81.9910079 103.0659566  22.6903788  85.5489225 103.5449886  27.8485913
  85.2579091 104.4495517  27.7332580  86.1846210 103.5866414  28.5629983
  86.4745432 100.9226735  24.4387273  87.0709004 100.6982757  23.7244236
  86.5320404 100.1811480  25.0412721  91.0913743  97.3801948  20.0812207
  91.8776832  96.9621372  19.7302624  91.3552448  98.2848041  20.2493855
  94.0147591  91.0298756  25.4439794  93.6830916  91.8994167  25.2201009
  93.4193204  90.7135040  26.1233825  90.5079110 103.2311302  24.8435707
  90.2079833 104.1336341  24.7351514  90.1630170 102.9643485  25.6956860
  83.9591592  99.6825099  20.8772411  83.0342088  99.5501313  21.0850103
  84.2076005 100.4619318  21.3742354  93.9076254  95.7493842  22.5233144
  92.9993131  95.6809250  22.2291905  93.8563850  96.2265787  23.3514970
  81.3200403  99.3258372  21.7116200  81.4492784  99.5792851  22.6255612
  80.6397854  99.9186080  21.3920855  87.9817120  97.1683488  30.4668041
  87.2050454  97.7277408  30.4570906  88.6207683  97.6540270  30.9882912
  95.7737900  93.9510280  24.3011018  95.1312281  94.2442813  23.6550813
  95.2692829  93.8363201  25.1064215  86.2363492  99.9768941  30.0286008
  86.9778177 100.5153985  29.7520832  85.5300478 100.6035230  30.1857560
  91.7118832 102.1198081  28.6258170  92.1202188 101.6780492  27.8812802
  90.9896093 101.5450709  28.8792363  88.0649902  97.0570688  25.9991727
  88.9111097  97.4810102  26.1426376  88.0048539  96.4004312  26.6930290
  91.2149347  94.7175056  27.6572901  90.9710279  95.4717117  27.1207176
  91.4909278  95.0960404  28.4920148  93.1687810 101.2613669  26.3350166
  93.3804705 101.9045429  25.6584547  93.1217558 100.4275985  25.8672096
  90.7714039  93.8731489  23.2386738  89.9098518  94.1712743  23.5303476
  90.7976474  94.0901888  22.3067771  84.4799689 101.9645162  22.5840307
  85.0501046 102.3932430  21.9457792  85.0707801 101.6827746  23.2824493
  84.9724856  97.1308589  30.8301318  84.3423516  97.8124870  31.0636715
  84.8660944  97.0191671  29.8854457  80.2669828  96.7980385  21.7567243
  79.4768882  97.0537914  21.2807353  80.7581076  97.6128723  21.8619283
  82.2184574  97.1624964  18.7150719  81.4215737  97.2743659  19.2334215
  81.9910166  97.5011617  17.8491610  88.0490241 103.6869668  26.6633234
  88.1134674 104.1490075  27.4991406  87.3401165 103.0567032  26.7915544
  78.5507531  97.0510876  24.1882233  78.8015570  97.9357885  24.4539809
  79.0867080  96.8715477  23.4157325  84.2505599  91.4329355  33.1926570
  83.8572544  90.8795553  33.8674214  85.0671739  91.7439933  33.5833087
  87.1673560  92.8487234  30.7846826  87.9083273  93.4494387  30.7051289
  87.3991482  92.1064872  30.2264869  82.3114898  98.0343601  29.0625056
  82.1968413  97.1328858  29.3632155  81.4559415  98.2807298  28.7109872
  89.3906735 105.9761342  30.6612556  88.9470590 105.1897720  30.3433461
  90.0523949 106.1640492  29.9956447  84.1493857 107.5057143  25.1873235
  84.7001282 107.3774207  24.4150229  83.3105332 107.8052032  24.8368128
  91.4887973 106.2564141  28.6893958  91.4706449 107.0773023  28.1974227
  92.4107893 106.1318217  28.9144099  87.9461028 103.7708271  29.5317466
  88.4789364 103.0096559  29.3016774  87.4175109 103.4781923  30.2741621
  91.1130723  88.8768337  25.0611108  90.7694992  89.7669979  24.9850218
  91.4809685  88.6869995  24.1980693  79.1816573 101.2001867  17.8799710
  80.0191795 101.6098876  17.6633418  79.3594841 100.2601310  17.8499904
  88.6628116  93.7126649  18.6268781  87.8069713  93.3233499  18.4474420
  89.0755068  93.7918610  17.7668567  90.1927263  91.2472992  23.0260341
  89.6892059  91.2103127  22.2128146  90.4857870  92.1565735  23.0856998
  86.4370149  91.3311722  22.0326523  87.3023146  91.1354530  21.6732412
  86.5047658  91.1022074  22.9595880  84.0432468  93.5613930  19.4042890
  84.6176220  93.3389111  18.6716083  84.6303450  93.6302624  20.1571491
  86.3455136  90.4355179  18.1317959  85.6919548  90.1204196  17.5074574
  86.3035610  89.8130919  18.8577782  89.5792876  96.9237112  22.4565607
  88.6615437  97.1452059  22.2987295  89.9953020  96.9983423  21.5977314
  92.9118388  88.1361896  20.1628845  93.2177265  87.2759260  19.8754761
  93.6370993  88.7279516  19.9627839  79.2042744  98.5392583  18.5510443
  79.0067144  97.9461943  17.8261510  78.6489408  98.2344793  19.2686382
  87.1839468  98.4315689  20.6705037  87.2388078  97.4789526  20.5947513
  86.3730670  98.5875128  21.1546335  85.1231828  97.0492749  18.4295415
  84.3099693  97.3486919  18.8360608  85.6190822  96.6548438  19.1469898
  90.7206040  97.5134573  27.2610309  91.0755427  97.7406047  28.1204775
  91.3678171  97.8452950  26.6387565  84.6145903  94.6211104  24.0456650
  85.2545282  94.4799864  23.3479614  83.7823433  94.3345618  23.6695252
  90.2101051 106.3031630  24.5104010  90.2638073 106.8722567  25.2781726
  89.3415832 106.4733515  24.1458048  81.6174519  94.5911429  18.8229637
  81.8781336  95.5056763  18.7138798  82.4391691  94.1235872  18.9726250
  83.0899444  96.0049187  25.9928462  83.7622498  95.7966549  25.3441111
  82.2629231  95.8071273  25.5533694  88.9925016  92.6311128  28.0094123
  88.3452931  93.3301077  27.9158599  89.7626032  93.0647271  28.3770371
  92.4003814 102.8959980  31.0844676  92.2489321 102.6670531  30.1674760
  92.3908494 103.8530581  31.0976021  89.1689151 100.4691892  26.0690942
  90.0981211 100.6203052  25.8959910  88.7480181 100.5575913  25.2139589
  87.9677483 104.4942557  23.8389480  87.8288568 104.1261341  24.7115418
  87.1792079 105.0090196  23.6673438  83.4926942  99.2791790  26.7530899
  83.3546740  98.5472028  27.3542438  84.4031865  99.1900690  26.4715087
  86.1209242  98.9911749  26.2414579  86.8308861  98.3504941  26.2001197
  86.0778550  99.2424644  27.1640759  94.1096021 105.9279102  29.1621158
  94.0508567 105.2438322  28.4951741  94.5115539 106.6698092  28.7101784
  84.8338176  95.9776967  28.0610218  84.2975533  95.5267705  28.7131814
  84.2454885  96.1122876  27.3180682  94.1113428 103.8918686  27.3935137
  93.2240207 103.5544608  27.5161536  94.6811979 103.1601717  27.6303903
  75.7642575 100.2242778  20.7178189  76.4513615  99.9104508  20.1299204
  75.6090704 101.1284143  20.4445440  80.5677298  95.1132974  25.1463212
  80.4835486  94.5058644  24.4113622  79.7460004  95.6041993  25.1472709
  90.7401011  93.5986538  20.5133408  91.2369711  92.8456500  20.1934478
  89.9687993  93.6350855  19.9476617  90.1013265 108.4506973  26.5154539
  90.8141237 109.0854437  26.4430441  89.6103294 108.5470839  25.6994541
  87.3235980  95.7403921  20.2405092  86.9533768  95.1874961  20.9285998
  87.8195073  95.1362054  19.6880092  85.1525179 106.2001416  27.3360110
  85.8534638 106.8337899  27.4889504  84.6820294 106.5416148  26.5755749
  93.1820006  90.5656132  22.6612766  92.2683086  90.7960358  22.8294973
  93.6113108  90.6494576  23.5126799  92.9526465  98.7546023  25.1612660
  92.2997915  99.0021931  24.5065113  93.3306845  97.9410162  24.8275138
  89.0014038  99.4965835  31.6478698  88.3254675  99.3959964  32.3181073
  89.8241672  99.3405048  32.1114695  80.7492897 105.7337771  24.2691213
  81.3346334 104.9881459  24.4019117  80.5517735 106.0441728  25.1527877
  75.3410551  98.3043371  22.9895656  75.3794651  97.7706962  23.7832774
  74.8350844  97.7778577  22.3706633  82.7201314  93.1507912  26.4858198
  82.7842640  94.0122743  26.0735596  82.6568434  92.5381913  25.7530557
  82.1953586  95.2231044  30.1331232  82.8225625  94.8408122  30.7468757
  81.3381505  95.0045246  30.4986925  92.5947695 105.6294019  31.7384968
  93.1387599 106.2423978  31.2439923  92.0134540 106.1873598  32.2551981
  78.9719129  97.0307473  16.0649587  79.2672570  96.1218152  16.0116641
  78.0707165  97.0095213  15.7430590  82.5013376  95.1063470  22.0477136
  81.7799962  95.7199438  21.9084609  83.2906632  95.6421235  21.9693782
  85.3039690  92.4417897  28.3217788  85.8274091  92.6880193  29.0844097
  85.0852023  93.2737931  27.9020925  80.7006971  94.7121571  16.1888912
  80.3719677  93.8318950  16.0064018  81.0546341  94.6569240  17.0765302
  83.8148794  94.9994541  16.5564390  84.1544866  95.5280462  15.8342998
  84.2620914  95.3374947  17.3322957  86.5092235  93.3831592  26.0067458
  86.1689055  92.5839405  26.4088138  85.8031241  93.6833302  25.4344291
  87.1608706  90.4680904  24.4594781  87.9834776  89.9941382  24.3373672
  87.4046770  91.2471388  24.9593467  84.6847285  97.1600025  22.2686760
  84.5391866  97.4740328  23.1611041  84.2072489  97.7784925  21.7157658
  86.5443668  94.1502573  22.3167649  86.5305237  93.2543666  21.9799947
  87.2616096  94.1573236  22.9505935  88.3969799  94.5839913  24.3620777
  88.1387577  95.5056984  24.3605107  87.8654839  94.1870347  25.0521241
  79.1592947  99.7005369  25.2074421  78.6146415 100.4765177  25.3394695
  80.0372297 100.0476174  25.0493542  85.9480564  93.0316953  17.5855219
  86.0696475  92.1033599  17.7846107  85.6582606  93.0455639  16.6733535
  88.8171754  90.7171863  20.7221939  88.8393451  90.7811196  19.7673919
  89.2339813  89.8776372  20.9162445  79.9458969  98.8275265  28.1004578
  79.2040705  98.9757901  28.6869208  79.6251714  99.0883531  27.2371327
  87.8902632 108.3691244  27.8984968  88.1989758 108.1240390  28.7707667
  88.6878114 108.5737882  27.4103838  78.5924188 104.6327021  21.0903906
  77.7556096 104.2049195  20.9087907  78.5647833 104.8259464  22.0274697
  85.4321644  94.5448950  31.7945152  85.4809799  95.4211073  31.4122922
  85.9744158  94.0026343  31.2216795  95.9176489 105.0890074  31.0746289
  95.1272033 105.0714212  30.5350789  95.6809844 105.6278367  31.8295326
  96.0374364 101.9382540  28.3879018  96.0872369 101.7732547  29.3294541
  95.9288288 101.0709799  27.9976898  93.3278127  97.9213468  29.7038324
  94.2287989  97.7819933  29.4122322  93.4026101  98.0867923  30.6436502
  87.6620932  95.2980323  28.5491511  86.7924241  95.5913889  28.2774099
  87.8980412  95.8820768  29.2698774  97.5392561 104.3579481  28.6321039
  97.2477369 104.7209462  29.4684500  96.9264692 103.6446490  28.4534371
  95.7879749  99.4812096  27.1001097  96.2633871  99.6739742  26.2919949
  94.8645315  99.5371282  26.8544481  90.3659966  91.5159940  26.0656931
  90.8841910  92.2520967  25.7403420  90.0115099  91.8223933  26.9003690
  90.6172560  87.9360222  21.5857828  90.8974314  87.2683411  22.2118254
  91.4023167  88.1289318  21.0732492  94.4881418  96.3577856  25.3329403
  95.4398841  96.4575954  25.3541627  94.3184869  95.5656125  25.8427487
  92.5095798  93.4433439  25.5188804  91.9145730  93.7238452  24.8235292
  92.2245495  93.9327340  26.2905545  96.9669496  99.5783976  24.4471702
  96.9345816  98.6399977  24.6331386  97.5770120  99.6568013  23.7137527
  97.1163985  96.3695019  24.4929986  96.6003033  95.5853476  24.3059915
  98.0003933  96.0413736  24.6576505  94.7774712  90.1136035  20.4525798
  94.5799533  89.8051123  21.3369130  95.3874417  90.8397674  20.5823728
  88.6891520 102.4997775  31.9499564  89.6094529 102.6776374  32.1439610
  88.6541103 101.5553820  31.7979263  77.9073685  97.6936369  20.8752838
  77.5876469  96.8401677  20.5827212  77.3607113  97.9084947  21.6310805
  81.6853592 100.4098810  24.5922345  81.9039602 101.3415917  24.6110378
  82.0979366 100.0506784  25.3777149  88.6057810  90.9166895  16.5798033
  87.7958538  90.5713980  16.9553279  89.2942227  90.6074439  17.1685645
  90.5348358  89.9944942  18.2022330  91.0879397  90.4140395  18.8612353
  90.7718445  89.0680690  18.2445286  86.5581457  95.9832015  33.9825094
  86.4578184  96.9326372  33.9137185  86.3402999  95.6550254  33.1101164
  77.7761945 101.3139280  22.8445960  77.0825416 100.8993233  22.3315914
  78.5234936 101.3559817  22.2479379  92.3630732  91.5050525  19.9122314
  92.8630510  91.6167059  19.1036633  93.0066340  91.2011577  20.5523123
  86.4212727  99.4129154  32.7990155  85.9379809 100.2129514  33.0054044
  86.5073667  99.4237099  31.8457599  79.6898687 101.2457534  20.7211975
  79.6669375 101.3445221  19.7693858  79.9999324 102.0922685  21.0429141
  82.3486065 103.3033689  24.8358589  83.3029319 103.2717631  24.7688521
  82.1498589 102.8424313  25.6508815  82.9385447 101.8734805  27.4029387
  83.7578336 102.3678884  27.4264224  83.2122255 100.9566773  27.3746954
  96.0466579  94.2892078  20.4811681  96.8226970  94.7788531  20.7536298
  95.3214714  94.7150132  20.9383551  78.1920361  96.2072939  28.1021584
  78.8379225  95.6971893  28.5908809  77.9837512  96.9441620  28.6765009
  90.7173754 103.2753786  33.6013724  91.5864913 103.4494439  33.2400359
  90.2380505 104.0948203  33.4789454  84.8859934 110.3950887  25.2803158
  85.7887180 110.4274498  25.5969653  84.6597304 109.4651338  25.2949494
  90.5276091  87.0655760  18.1091417  89.7608487  86.5114247  18.2548099
  90.9386796  87.1377629  18.9705568  82.5317852  93.3540556  32.1996598
  83.3949314  92.9977361  32.4099923  81.9583263  93.0154451  32.8872002
  95.0899353 106.7621273  33.1926570  94.6966299 106.2087471  33.8674214
  95.9065493 107.0731851  33.5833087  98.0067314 108.1779152  30.7846826
  98.7477027 108.7786305  30.7051289  98.2385237 107.4356789  30.2264869
  93.0347341 110.5522962  30.1331232  93.6619380 110.1700039  30.7468757
  92.1775260 110.3337164  30.4986925  96.2715398 109.8740868  31.7945152
  96.3203554 110.7502991  31.4122922  96.8137912 109.3318261  31.2216795
  97.3975212 111.3123933  33.9825094  97.2971939 112.2618290  33.9137185
  97.1796754 110.9842172  33.1101164  89.0314116 111.5364857  28.1021584
  89.6772979 111.0263810  28.5908809  88.8231267 112.2733538  28.6765009
  93.3711607 108.6832474  32.1996598  94.2343068 108.3269278  32.4099923
  92.7977017 108.3446368  32.8872002  46.0331719  21.6655793  17.3857863
  45.5895573  20.8792172  17.0678768  46.6948932  21.8534944  16.7201754
  48.1312957  21.9458593  15.4139264  48.1131432  22.7667474  14.9219533
  49.0532877  21.8212669  15.6389405  49.0428798  18.5854432  17.8089982
  48.8914304  18.3564983  16.8920066  49.0333477  19.5425033  17.8221327
  50.7521004  21.6173554  15.8866464  50.6933550  20.9332774  15.2197047
  51.1540523  22.3592544  15.4347090  49.2372678  21.3188471  18.4630275
  49.7812582  21.9318430  17.9685229  48.6559523  21.8768050  18.9797288
  52.5601473  20.7784525  17.7991596  51.7697016  20.7608664  17.2596095
  52.3234827  21.3172819  18.5540632  54.1817544  20.0473933  15.3566346
  53.8902353  20.4103914  16.1929807  53.5689676  19.3340942  15.1779678
  47.3598737  18.9648238  20.3259031  48.2289896  19.1388891  19.9645666
  46.8805488  19.7842655  20.2034760  59.0191213  30.6736864   9.7304306
  59.6569622  30.5543612   9.0267646  58.9012055  31.6217708   9.7892258
  55.8280919  30.6264292   9.6665830  55.4899430  30.5105357   8.7786365
  56.6970687  30.2255457   9.6466836  56.3100702  31.7799144  15.6252036
  56.2989343  31.3851942  14.7532540  56.4721341  31.0465217  16.2185807
  49.2332166  33.9750960   8.4946942  50.0253458  33.6341785   8.0793241
  49.4728817  34.0845935   9.4149095  53.0307963  34.5636256  14.5731220
  52.7397829  35.4681887  14.4577886  53.6664947  34.6052783  15.2875289
  53.9564170  31.9413104  11.1632579  54.5527742  31.7169127  10.4489542
  54.0139141  31.1997850  11.7658027  63.9740908  28.3363551   7.7090492
  64.7066080  27.7662768   7.9428322  63.2180264  27.9485152   8.1496998
  61.4966329  22.0485125  12.1685101  61.1649653  22.9180536  11.9446316
  60.9011942  21.7321409  12.8479131  57.9897848  34.2497671  11.5681014
  57.6898571  35.1522710  11.4596821  57.6448908  33.9829855  12.4202166
  61.3894992  26.7680211   9.2478451  60.4811869  26.6995620   8.9537212
  61.3382588  27.2452156  10.0760276  52.9718628  41.0141992   4.5351981
  52.8942658  41.9649817   4.6140462  52.3680271  40.6687864   5.1926908
  55.4635858  28.1869857  17.1913348  54.6869192  28.7463777  17.1816213
  56.1026421  28.6726640  17.7128218  63.2556638  24.9696650  11.0256325
  62.6131018  25.2629183  10.3796119  62.7511567  24.8549570  11.8309521
  53.7182230  30.9955310  16.7531315  54.4596914  31.5340354  16.4766139
  53.0119215  31.6221599  16.9102867  59.1937570  33.1384451  15.3503477
  59.6020926  32.6966861  14.6058109  58.4714831  32.5637078  15.6037670
  55.5468640  28.0757058  12.7237034  56.3929835  28.4996471  12.8671683
  55.4867277  27.4190682  13.4175597  59.5166384  33.6985642   9.1055766
  58.8875247  33.8631356   8.4031833  59.1292046  34.1127251   9.8766730
  63.3955616  34.6340079   6.4600129  62.7106654  35.0138981   5.9097163
  63.4799465  35.2435406   7.1932077  58.6968085  25.7361426  14.3818207
  58.4529017  26.4903487  13.8452483  58.9728015  26.1146774  15.2165454
  60.6506548  32.2800038  13.0595473  60.8623443  32.9231798  12.3829854
  60.6036296  31.4462355  12.5917403  55.0694346  33.4360050   6.3705851
  55.5332692  33.7147753   5.5810473  54.8051144  32.5343494   6.1878941
  51.9618427  32.9831531   9.3085614  52.5319784  33.4118800   8.6703098
  52.5526539  32.7014116  10.0069800  52.4543594  28.1494959  17.5546625
  51.8242254  28.8311239  17.7882022  52.3479682  28.0378040  16.6099763
  61.7652376  35.1571994  11.2317830  62.5869819  34.7552181  10.9500512
  61.7614779  35.0540228  12.1833946  55.5308979  34.7056037  13.3878541
  55.5953412  35.1676444  14.2236712  54.8219903  34.0753402  13.5160850
  69.8558369  31.5010742   7.5802802  69.1022077  30.9318140   7.4246806
  69.9905910  31.4673407   8.5273436  51.7324336  22.4515724  19.9171876
  51.3391282  21.8981923  20.5919520  52.5490477  22.7626303  20.3078394
  50.5081279  37.0065339   5.9108199  50.6847907  37.9283304   5.7229183
  51.3038112  36.6923758   6.3402579  54.6492297  23.8673604  17.5092133
  55.3902011  24.4680757  17.4296595  54.8810220  23.1251241  16.9510175
  49.7933635  29.0529971  15.7870362  49.6787151  28.1515228  16.0877461
  48.9378153  29.2993668  15.4355179  56.8725473  36.9947711  17.3857863
  56.4289327  36.2084090  17.0678768  57.5342687  37.1826862  16.7201754
  51.6312594  38.5243513  11.9118542  52.1820019  38.3960576  11.1395535
  50.7924070  38.8238402  11.5613434  58.9706711  37.2750511  15.4139264
  58.9525187  38.0959392  14.9219533  59.8926631  37.1504586  15.6389405
  55.4279765  34.7894641  16.2562773  55.9608102  34.0282929  16.0262081
  54.8993846  34.4968292  16.9986927  61.7725324  32.1129654   8.8848631
  61.1148999  32.8028915   8.9728760  62.5765723  32.5026085   9.2282617
  60.5830783  30.4674026   6.9352573  61.0962665  31.1004018   7.4374282
  61.2332007  29.8675222   6.5695933  57.0611614  27.9423482   9.1810913
  56.1434175  28.1638429   9.0232601  57.4771757  28.0169792   8.3222621
  61.3492579  35.4480028   5.0631715  60.8954906  34.6070938   5.1196906
  60.7186546  36.0841426   5.4006496  59.7925518  37.2856524   5.9981534
  60.0848493  37.8461581   5.2793899  60.3024139  37.5785085   6.7534693
  54.7559144  38.0636875   7.0874987  54.7135322  38.2897722   6.1583519
  55.6721842  37.8300250   7.2360788  58.2024777  28.5320943  13.9855616
  58.5574165  28.7592416  14.8450082  58.8496909  28.8639320  13.3632871
  63.9322514  31.6539379   4.6904945  63.7940413  31.8440975   3.7626134
  63.5758733  32.4158762   5.1472996  63.9591894  33.7215906   9.7016216
  64.3928401  33.6291195  10.5499271  64.6723475  33.6973406   9.0636232
  52.8724944  34.9399904   6.8836949  53.6665543  34.4450225   6.6819524
  52.1616637  34.4117768   6.5204655  57.6919789  37.3218000  11.2349317
  57.7456811  37.8908936  12.0027033  56.8234570  37.4919885  10.8703354
  50.5718182  27.0235556  12.7173768  51.2441236  26.8152918  12.0686417
  49.7447969  26.8257642  12.2779001  64.8207443  33.7639607  12.2349102
  65.0143334  34.6685417  12.4808377  64.7208062  33.3047026  13.0687687
  56.4743754  23.6497497  14.7339429  55.8271669  24.3487447  14.6403906
  57.2444770  24.0833641  15.1015677  59.8822552  33.9146349  17.8089982
  59.7308059  33.6856901  16.8920066  59.8727232  34.8716951  17.8221327
  56.6507889  31.4878262  12.7936249  57.5799949  31.6389422  12.6205216
  56.2298919  31.5762283  11.9384895  55.4496220  35.5128926  10.5634787
  55.3107306  35.1447711  11.4360725  54.6610817  36.0276566  10.3918744
  56.0444372  40.6138023   1.9060323  56.2196128  40.1426066   2.7205946
  55.3577160  41.2403789   2.1341584  57.0001435  34.8910529   7.9523624
  56.6651268  34.8511299   8.8481274  56.5005381  34.2255245   7.4794035
  50.9745679  30.2978159  13.4776205  50.8365477  29.5658398  14.0787745
  51.8850603  30.2087059  13.1960393  53.6027980  30.0098118  12.9659885
  54.3127599  29.3691311  12.9246504  53.5597288  30.2611013  13.8886066
  61.5914759  36.9465472  15.8866464  61.5327305  36.2624692  15.2197047
  61.9934277  37.6884462  15.4347090  52.3156914  26.9963336  14.7855525
  51.7794271  26.5454075  15.4377121  51.7273623  27.1309245  14.0425989
  50.6105458  43.7627386   8.6800183  50.8502056  44.3945910   9.3579202
  49.7674654  43.4115426   8.9665542  61.5932166  34.9105056  14.1180444
  60.7058945  34.5730978  14.2406843  62.1630717  34.1788087  14.3549209
  55.1233319  39.5706508  11.0841687  55.0503491  40.3761480  11.5960992
  54.6810713  39.7698474  10.2589709  54.9123099  38.8078278   4.5944509
  54.1290621  39.3499958   4.6882733  55.6115844  39.3252258   4.9938750
  66.0749507  30.3213273   8.8797006  66.0639383  31.2037989   8.5090939
  65.2066886  29.9684824   8.6851543  57.5832003  39.4693342  13.2399846
  58.2959975  40.1040807  13.1675747  57.0922032  39.5657208  12.4239848
  59.3049530  33.3744595   4.8117138  58.3705809  33.4946057   4.6421842
  59.4826198  32.4717062   4.5477147  62.6922081  29.2161914   5.3467172
  63.1582533  30.0489906   5.2727474  63.1429582  28.7506896   6.0512430
  52.6343916  37.2187786  14.0605417  53.3353376  37.8524269  14.2134811
  52.1639031  37.5602517  13.3001056  60.4345202  29.7732393  11.8857967
  59.7816653  30.0208300  11.2310420  60.8125582  28.9596531  11.5520444
  57.3952376  39.8092086   5.9886137  57.5774771  38.9913742   6.4513890
  58.2185362  40.0259778   5.5511027  57.7294542  38.7360271   3.2501186
  58.2582308  38.2252726   2.6371348  57.9922761  38.4202802   4.1146719
  56.4832775  30.5152204  18.3724004  55.8073412  30.4146333  19.0426379
  57.3060409  30.3591418  18.8360001  48.2311635  36.7524141  10.9936519
  48.8165071  36.0067829  11.1264424  48.0336473  37.0628097  11.8773183
  51.0850290  39.7875388   6.0098962  50.4160665  40.2721516   5.5263002
  50.9463159  40.0344608   6.9242340  55.2255558  41.8219132  12.6081620
  55.7773866  41.9850753  13.3730705  55.5661752  42.4123569  11.9361645
  49.6772324  26.2417414  16.8576539  50.3044363  25.8594491  17.4714063
  48.8200243  26.0231616  17.2232232  60.0766433  36.6480389  18.4630275
  60.6206337  37.2610347  17.9685229  59.4953278  37.2059967  18.9797288
  58.3623946  39.7701107   9.5945302  58.2375085  38.9690847   9.0856248
  59.0203037  40.2647300   9.1059272  60.4258854  37.5710127  11.2224852
  59.4789190  37.4515478  11.1503179  60.7741627  36.6832625  11.3051114
  52.7858427  23.4604266  15.0463094  53.3092829  23.7066563  15.8089404
  52.5670761  24.2924301  14.6266232  57.4305287  37.3662843   7.4229205
  57.2830250  36.4379551   7.6036775  58.2558781  37.3882934   6.9386280
  61.0339409  38.1891402   8.5094077  61.9585957  37.9834263   8.3718529
  60.8654713  37.9407803   9.4183419  53.9910972  24.4017961  12.7312765
  53.6507793  23.6025774  13.1333445  53.2849979  24.7019672  12.1589598
  55.8788537  25.6026282  11.0866083  55.6206314  26.5243353  11.0850414
  55.3473577  25.2056717  11.7766548  60.8234725  38.7077070   3.8656169
  60.9971603  38.1423492   3.1130021  61.3163617  39.5077964   3.6835659
  46.6411685  30.7191739  11.9319728  46.0965153  31.4951547  12.0640002
  47.5191035  31.0662543  11.7738849  66.6774117  31.4713493   5.4846469
  67.1205263  30.7220818   5.0865592  65.8000627  31.4623629   5.1020201
  61.8109898  38.0243834   0.9653067  62.5060802  38.6450527   1.1840382
  62.1533048  37.1739185   1.2405445  47.4277707  29.8461635  14.8249884
  46.6859443  29.9944270  15.4114515  47.1070451  30.1069901  13.9616634
  63.7101321  35.4743539   2.4940398  64.2352645  35.8130812   1.7689718
  63.6223674  34.5390555   2.3103532  55.3721370  39.3877613  14.6230274
  55.6808496  39.1426760  15.4952974  56.1696852  39.5924252  14.1349145
  55.3941982  41.5415523   6.8535651  54.9546972  41.0491901   7.5468508
  56.1450099  40.9988490   6.6127726  47.8734321  37.7327064   6.8560279
  48.6992341  37.4330835   6.4758923  47.5228373  36.9634686   7.3050068
  52.8415854  37.0853532   8.9257953  52.2195863  36.4224237   8.6260181
  53.5120721  37.1114664   8.2431600  52.9140381  25.5635320  18.5190459
  52.9628537  26.4397443  18.1368228  53.4562896  25.0212713  17.9462102
  63.3995227  36.1076443  17.7991596  62.6090771  36.0900582  17.2596095
  63.1628582  36.6464737  18.5540632  63.5193102  32.9568910  15.1124324
  63.5691107  32.7918917  16.0539847  63.4107025  32.0896169  14.7222205
  60.8096864  28.9399838  16.4283631  61.7106727  28.8006302  16.1367629
  60.8844839  29.1054292  17.3681809  55.1439670  26.3166692  15.2736817
  54.2742979  26.6100258  15.0019406  55.3799150  26.9007137  15.9944081
  65.0211299  35.3765851  15.3566346  64.7296107  35.7395832  16.1929807
  64.4083430  34.6632859  15.1779678  66.2206981  32.9418731   7.8768916
  67.0553873  33.3808535   8.0406476  66.3566110  32.4657384   7.0577162
  63.2698487  30.4998466  13.8246404  63.7452609  30.6926112  13.0165255
  62.3464053  30.5557651  13.5789788  57.8478704  22.5346309  12.7902238
  58.3660648  23.2707336  12.4648726  57.4933836  22.8410303  13.6248997
  61.9700156  27.3764226  12.0574709  62.9217579  27.4762323  12.0786934
  61.8003607  26.5842494  12.5672794  59.9914536  24.4619809  12.2434110
  59.3964468  24.7424822  11.5480599  59.7064232  24.9513710  13.0150852
  64.4488234  30.5970345  11.1717009  64.4164554  29.6586346  11.3576693
  65.0588858  30.6754382  10.4382834  64.5982722  27.3881389  11.2175292
  64.0821771  26.6039845  11.0305221  65.4822671  27.0600105  11.3821812
  70.2664784  31.6586352  10.3123046  70.9968172  31.3971640  10.8730749
  69.6571729  30.9215074  10.3525114  68.3480081  29.7994215  10.9097497
  67.6213244  29.6650180  10.3013989  67.9327368  30.1071043  11.7154215
  56.1710257  33.5184145  18.6744870  57.0913267  33.6962744  18.8684917
  56.1359840  32.5740190  18.5224569  49.1672330  31.4285179  11.3167651
  49.3858340  32.3602287  11.3355685  49.5798104  31.0693154  12.1022455
  54.0400195  27.0018385  20.7070400  53.9396922  27.9512742  20.6382491
  53.8221737  26.6736624  19.8346470  53.9031465  30.4315524  19.5235462
  53.4198547  31.2315884  19.7299351  53.9892404  30.4423469  18.5702906
  49.8304803  34.3220058  11.5603896  50.7848056  34.2904001  11.4933827
  49.6317326  33.8610682  12.3754122  50.4204185  32.8921175  14.1274693
  51.2397074  33.3865253  14.1509531  50.6940993  31.9753143  14.0992261
  63.5285317  25.3078448   7.2056988  64.3045707  25.7974900   7.4781605
  62.8033451  25.7336502   7.6628858  65.9657876  26.0206067   8.2630929
  66.5602367  25.7801803   7.5524237  66.0384460  25.3013198   8.8904465
  48.1855032  39.8639678   8.5774094  48.0509499  39.1040079   8.0112092
  47.7687094  40.5880578   8.1102882  68.2728949  29.3272268   7.0374350
  67.7128507  29.3965457   7.8105912  67.6672452  29.1513253   6.3173846
  51.3424157  40.7608995   8.7892536  51.2256542  41.7054427   8.6871226
  50.5216604  40.4582557   9.1778335  45.6739099  27.2259308  14.8266890
  46.3197963  26.7158262  15.3154116  45.4656250  27.9627990  15.4010316
  58.1992491  34.2940156  20.3259031  59.0683651  34.4680808  19.9645666
  57.7199243  35.1134573  20.2034760  52.3678672  41.4137257  12.0048465
  53.2705918  41.4460867  12.3214960  52.1416042  40.4837708  12.0194800
  54.1232274  40.1668243   8.6658543  53.1727905  40.1670105   8.5522916
  54.4264760  39.4200978   8.1494578  50.0136590  24.3726925  18.9241905
  50.8768052  24.0163730  19.1345229  49.4402001  24.0340820  19.6117309
  69.8584967  46.0028782   9.7304306  70.4963377  45.8835529   9.0267646
  69.7405810  46.9509626   9.7892258  66.6674673  45.9556210   9.6665830
  66.3293185  45.8397275   8.7786365  67.5364442  45.5547375   9.6466836
  62.5261489  47.8091686   5.6562721  61.9626354  47.7181623   4.8879009
  62.4113884  46.9891591   6.1365214  67.1494456  47.1091062  15.6252036
  67.1383097  46.7143860  14.7532540  67.3115096  46.3757134  16.2185807
  60.0725921  49.3042878   8.4946942  60.8647213  48.9633703   8.0793241
  60.3122571  49.4137853   9.4149095  68.1061048  51.4762654   0.9677186
  67.4549027  52.0616734   0.5811200  68.9005411  52.0068849   1.0272224
  62.0316675  48.5651791   1.3664321  62.8047551  48.0180778   1.2277196
  62.3842074  49.4296041   1.5778782  63.8701717  49.8928173  14.5731220
  63.5791583  50.7973804  14.4577886  64.5058702  49.9344701  15.2875289
  64.7957924  47.2705022  11.1632579  65.3921497  47.0461044  10.4489542
  64.8532896  46.5289767  11.7658027  64.3682953  44.7244457  -1.0017230
  64.6208473  44.2025979  -1.7633767  63.4307512  44.5610603  -0.8990546
  69.4126236  43.7280236   6.8057514  70.1989325  43.3099659   6.4547931
  69.6764940  44.6326328   6.9739162  69.5836313  49.1653086   1.5046171
  68.9482146  49.2387713   2.2167075  69.2533719  49.7546685   0.8265250
  74.8134663  43.6655469   7.7090492  75.5459835  43.0954686   7.9428322
  74.0574018  43.2777069   8.1496998  64.0879241  46.6272563   1.2007145
  63.9715500  45.9517467   1.8688230  64.1981501  46.1404937   0.3839298
  66.4310782  46.0882710   4.9053835  66.0668990  45.5613331   5.6166756
  67.2877898  45.6981179   4.7320320  72.3360083  37.3777043  12.1685101
  72.0043408  38.2472454  11.9446316  71.7405696  37.0613327  12.8479131
  66.0716269  41.1172610  -0.0984817  66.2390672  41.9852846   0.2685654
  65.8813438  41.2799892  -1.0223528  68.8291603  49.5789589  11.5681014
  68.5292326  50.4814628  11.4596821  68.4842662  49.3121772  12.4202166
  62.2804084  46.0303386   7.6017718  61.3554580  45.8979600   7.8095410
  62.5288497  46.8097605   8.0987660  72.2288746  42.0972129   9.2478451
  71.3205624  42.0287538   8.9537212  72.1776342  42.5744074  10.0760276
  66.0505490  43.5730268   0.8861850  65.9305115  44.0187318   1.7247330
  65.3558079  43.9215585   0.3275388  59.6412895  45.6736659   8.4361507
  59.7705276  45.9271138   9.3500919  58.9610346  46.2664367   8.1166162
  63.8112382  56.3433909   4.5351981  63.7336412  57.2941734   4.6140462
  63.2074026  55.9979782   5.1926908  66.3029612  43.5161775  17.1913348
  65.5262946  44.0755695  17.1816213  66.9420175  44.0018558  17.7128218
  74.0950393  40.2988568  11.0256325  73.4524773  40.5921101  10.3796119
  73.5905321  40.1841488  11.8309521  71.7490556  44.0451741   1.7142184
  72.6608412  44.2779128   1.5389882  71.2400203  44.6288785   1.1517263
  64.5575984  46.3247228  16.7531315  65.2990669  46.8632272  16.4766139
  63.8512970  46.9513517  16.9102867  70.0331324  48.4676369  15.3503477
  70.4414680  48.0258779  14.6058109  69.3108586  47.8928996  15.6037670
  66.3862394  43.4048975  12.7237034  67.2323589  43.8288389  12.8671683
  66.3261032  42.7482600  13.4175597  70.3560139  49.0277559   9.1055766
  69.7269001  49.1923273   8.4031833  69.9685801  49.4419169   9.8766730
  74.2349371  49.9631997   6.4600129  73.5500409  50.3430898   5.9097163
  74.3193220  50.5727324   7.1932077  69.5361839  41.0653344  14.3818207
  69.2922771  41.8195404  13.8452483  69.8121770  41.4438691  15.2165454
  71.4900302  47.6091956  13.0595473  71.7017197  48.2523716  12.3829854
  71.4430050  46.7754273  12.5917403  69.0926531  40.2209777   9.9632045
  68.2311010  40.5191030  10.2548783  69.1188966  40.4380176   9.0313078
  65.9088101  48.7651967   6.3705851  66.3726446  49.0439670   5.5810473
  65.6444899  47.8635412   6.1878941  62.8012182  48.3123449   9.3085614
  63.3713539  48.7410717   8.6703098  63.3920293  48.0306034  10.0069800
  64.8456987  44.8875120   3.1795416  65.5481030  45.3396163   3.6469342
  64.5137615  44.2458939   3.8075309  63.2937348  43.4786876  17.5546625
  62.6636009  44.1603157  17.7882022  63.1873436  43.3669958  16.6099763
  58.5882321  43.1458672   8.4812549  57.7981375  43.4016201   8.0052660
  59.0793568  43.9607010   8.5864590  72.6046130  50.4863912  11.2317830
  73.4263574  50.0844099  10.9500512  72.6008533  50.3832146  12.1833946
  60.5397066  43.5103252   5.4396026  59.7428229  43.6221946   5.9579522
  60.3122658  43.8489904   4.5736917  66.3702734  50.0347955  13.3878541
  66.4347166  50.4968362  14.2236712  65.6613657  49.4045320  13.5160850
  56.8720024  43.3989163  10.9127540  57.1228062  44.2836173  11.1785116
  57.4079572  43.2193764  10.1402632  80.6952123  46.8302660   7.5802802
  79.9415832  46.2610058   7.4246806  80.8299664  46.7965324   8.5273436
  66.0850751  51.7016062   3.2557521  65.9496426  52.5467598   3.6842369
  66.6260564  51.9035340   2.4923455  62.5718091  37.7807642  19.9171876
  62.1785036  37.2273841  20.5919520  63.3884231  38.0918221  20.3078394
  59.5380149  49.2191500   3.8285446  60.0504669  50.0134751   3.9791011
  60.1902861  48.5217791   3.7619048  61.3475033  52.3357257   5.9108199
  61.5241662  53.2575221   5.7229183  62.1431867  52.0215676   6.3402579
  65.4886052  39.1965521  17.5092133  66.2295765  39.7972674  17.4296595
  65.7203975  38.4543159  16.9510175  60.6327390  44.3821888  15.7870362
  60.5180905  43.4807146  16.0877461  59.7771908  44.6285585  15.4355179
  67.7119228  52.3239629  17.3857863  67.2683082  51.5376007  17.0678768
  68.3736441  52.5118779  16.7201754  62.4706349  53.8535430  11.9118542
  63.0213774  53.7252494  11.1395535  61.6317825  54.1530319  11.5613434
  69.8100466  52.6042429  15.4139264  69.7918941  53.4251310  14.9219533
  70.7320386  52.4796504  15.6389405  66.2673520  50.1186558  16.2562773
  66.8001857  49.3574846  16.0262081  65.7387601  49.8260210  16.9986927
  69.4343215  35.2246624  11.7856414  69.0907484  36.1148266  11.7095525
  69.8022177  35.0348282  10.9225999  57.5029065  47.5480155   4.6045017
  58.3404287  47.9577163   4.3878724  57.6807333  46.6079597   4.5745210
  69.3993498  45.2155235   0.2928850  68.8840121  45.9859840   0.5317237
  69.1270806  44.5420371   0.9161911  66.9840609  40.0604936   5.3514088
  66.1282205  39.6711786   5.1719727  67.3967560  40.1396897   4.4913873
  68.5139755  37.5951279   9.7505648  68.0104551  37.5581414   8.9373453
  68.8070362  38.5044022   9.8102304  64.7582641  37.6790009   8.7571829
  65.6235638  37.4832818   8.3977719  64.8260150  37.4500361   9.6841186
  74.3727772  47.9687590   2.2282023  73.5957214  47.6298749   1.7837185
  75.0519253  47.9740213   1.5536988  69.1879801  43.0882327   2.1188631
  68.8829936  43.4028477   2.9698774  70.1410243  43.1663747   2.1615964
  67.6326233  49.2472551   3.7681585  67.1047594  48.5125310   3.4554822
  67.1313735  50.0247227   3.5221553  72.6119079  47.4421571   8.8848631
  71.9542753  48.1320833   8.9728760  73.4159478  47.8318003   9.2282617
  62.3644960  39.9092217   6.1288196  62.9388712  39.6867398   5.3961389
  62.9515943  39.9780911   6.8816798  71.4224537  45.7965944   6.9352573
  71.9356419  46.4295936   7.4374282  72.0725761  45.1967139   6.5695933
  62.6914547  41.9396678   0.1484081  61.8551860  42.2771365   0.4693356
  62.5519317  41.8045658  -0.7888782  64.6667628  36.7833466   4.8563266
  64.0132040  36.4682483   4.2319880  64.6248102  36.1609206   5.5823089
  65.7778833  47.0652761  -3.2283442  64.8705894  46.8342014  -3.0292293
  66.2749865  46.2690380  -3.0409461  68.6846912  55.7750268  -0.3086756
  68.0108610  56.0781965   0.2998202  69.0712734  56.5779348  -0.6581299
  67.9005368  43.2715399   9.1810913  66.9827930  43.4930346   9.0232601
  68.3165512  43.3461710   8.3222621  68.6840416  44.6706815   4.3113594
  69.4312235  45.1828212   4.0020716  68.9532006  44.3490868   5.1717987
  66.9567066  47.1665356   1.2940548  66.0478285  46.8824389   1.3913018
  66.9862150  47.5864434   0.4343855  72.1886334  50.7771945   5.0631715
  71.7348661  49.9362855   5.1196906  71.5580300  51.4133344   5.4006496
  71.1319253  41.7063931   6.2932383  70.3942010  41.1941318   6.6242625
  71.3846027  41.2664313   5.4815660  70.6319273  52.6148442   5.9981534
  70.9242247  53.1753499   5.2793899  71.1417893  52.9077003   6.7534693
  71.2330880  34.4840183   6.8874152  71.5389757  33.6237547   6.6000067
  71.9583485  35.0757804   6.6873146  57.5255237  44.8870870   5.2755750
  57.3279636  44.2940231   4.5506817  56.9701901  44.5823080   5.9931689
  65.5051960  44.7793976   7.3950343  65.5600570  43.8267813   7.3192820
  64.6943162  44.9353416   7.8791642  66.6543154  48.7074099  -1.3671374
  66.2162584  47.9909958  -1.8265736  67.3953595  48.9350214  -1.9286282
  63.4444320  43.3971036   5.1540722  62.6312186  43.6965207   5.5605914
  63.9403314  43.0026725   5.8715204  65.5952898  53.3928793   7.0874987
  65.5529077  53.6189639   6.1583519  66.5115597  53.1592168   7.2360788
  69.0418532  43.8612861  13.9855616  69.3967920  44.0884334  14.8450082
  69.6890663  44.1931237  13.3632871  74.7716269  46.9831297   4.6904945
  74.6334167  47.1732893   3.7626134  74.4152488  47.7450679   5.1472996
  62.9358395  40.9689392  10.7701957  63.5757774  40.8278151  10.0724920
  62.1035925  40.6823905  10.3940559  74.7985648  49.0507824   9.7016216
  75.2322155  48.9583113  10.5499271  75.5117229  49.0265324   9.0636232
  63.7118699  50.2691822   6.8836949  64.5059297  49.7742142   6.6819524
  63.0010391  49.7409685   6.5204655  68.5313543  52.6509918  11.2349317
  68.5850566  53.2200854  12.0027033  67.6628325  52.8211803  10.8703354
  60.0201462  44.4134904   2.9596702  59.0899050  44.3519359   3.1766664
  60.1158934  43.8910857   2.1633343  59.9387011  40.9389717   5.5474944
  60.1993829  41.8535050   5.4384104  60.7604184  40.4714159   5.6971557
  61.4111937  42.3527474  12.7173768  62.0834990  42.1444836  12.0686417
  60.5841723  42.1549560  12.2779001  75.6601198  49.0931524  12.2349102
  75.8537088  49.9977335  12.4808377  75.5601816  48.6338943  13.0687687
  67.3137509  38.9789415  14.7339429  66.6665424  39.6779364  14.6403906
  68.0838524  39.4125559  15.1015677  70.7216307  49.2438267  17.8089982
  70.5701813  49.0148819  16.8920066  70.7120986  50.2008868  17.8221327
  67.4901643  46.8170180  12.7936249  68.4193703  46.9681339  12.6205216
  67.0692673  46.9054200  11.9384895  66.2889975  50.8420844  10.5634787
  66.1501060  50.4739628  11.4360725  65.5004571  51.3568484  10.3918744
  66.8838127  55.9429941   1.9060323  67.0589882  55.4717984   2.7205946
  66.1970915  56.5695707   2.1341584  67.8395190  50.2202447   7.9523624
  67.5045023  50.1803217   8.8481274  67.3399136  49.5547163   7.4794035
  61.8139434  45.6270077  13.4776205  61.6759232  44.8950316  14.0787745
  62.7244357  45.5378977  13.1960393  70.7754382  47.5658481  -1.7739316
  70.1583552  46.8405309  -1.8706263  70.3070870  48.3267841  -2.1172242
  64.4421735  45.3390036  12.9659885  65.1521353  44.6983228  12.9246504
  64.3991043  45.5902931  13.8886066  72.4308513  52.2757389  15.8866464
  72.3721059  51.5916610  15.2197047  72.8328032  53.0176379  15.4347090
  63.1550669  42.3255254  14.7855525  62.6188026  41.8745992  15.4377121
  62.5667377  42.4601163  14.0425989  61.4499212  59.0919303   8.6800183
  61.6895810  59.7237827   9.3579202  60.6068409  58.7407343   8.9665542
  72.4325921  50.2396973  14.1180444  71.5452699  49.9022895  14.2406843
  73.0024472  49.5080005  14.3549209  54.0855068  46.5721065   7.4423495
  54.7726107  46.2582795   6.8544511  53.9303196  47.4762430   7.1690747
  58.8889790  41.4611262  11.8708519  58.8047979  40.8536931  11.1358929
  58.0672496  41.9520280  11.8718015  65.9627074  54.8998426  11.0841687
  65.8897245  55.7053397  11.5960992  65.5204467  55.0990392  10.2589709
  65.7516854  54.1370196   4.5944509  64.9684375  54.6791876   4.6882733
  66.4509599  54.6544175   4.9938750  69.0613504  39.9464825   7.2378714
  69.5582203  39.1934788   6.9179784  68.2900485  39.9829142   6.6721923
  76.9143261  45.6505191   8.8797006  76.9033137  46.5329906   8.5090939
  76.0460640  45.2976742   8.6851543  68.4225757  54.7985260  13.2399846
  69.1353730  55.4332725  13.1675747  67.9315786  54.8949126  12.4239848
  70.1443284  48.7036512   4.8117138  69.2099563  48.8237975   4.6421842
  70.3219953  47.8008979   4.5477147  65.6448472  42.0882208   6.9650399
  65.2746260  41.5353249   7.6531304  66.1407565  41.4840342   6.4125399
  73.5315836  44.5453832   5.3467172  73.9976288  45.3781823   5.2727474
  73.9823336  44.0798813   6.0512430  63.4737671  52.5479703  14.0605417
  64.1747130  53.1816186  14.2134811  63.0032786  52.8894435  13.3001056
  71.5992067  50.8897653   2.3453324  71.8751911  50.7754248   3.2547198
  70.7296566  50.4915138   2.3065497  71.5032498  36.9134419   9.3858073
  70.5895578  37.1438646   9.5540280  71.9325600  36.9972863  10.2372105
  71.2738957  45.1024311  11.8857967  70.6210407  45.3500218  11.2310420
  71.6519337  44.2888449  11.5520444  68.2346131  55.1384004   5.9886137
  68.4168525  54.3205660   6.4513890  69.0579117  55.3551696   5.5511027
  68.5688296  54.0652189   3.2501186  69.0976063  53.5544644   2.6371348
  68.8316516  53.7494719   4.1146719  67.3226530  45.8444122  18.3724004
  66.6467167  45.7438251  19.0426379  68.1454164  45.6883336  18.8360001
  59.0705389  52.0816058  10.9936519  59.6558826  51.3359746  11.1264424
  58.8730227  52.3920015  11.8773183  61.9244044  55.1167306   6.0098962
  61.2554420  55.6013433   5.5263002  61.7856914  55.3636526   6.9242340
  53.6623044  44.6521659   9.7140963  53.7007143  44.1185249  10.5078081
  53.1563337  44.1256864   9.0951940  66.0649313  57.1511049  12.6081620
  66.6167621  57.3142671  13.3730705  66.4055506  57.7415487  11.9361645
  61.0413806  39.4986199  13.2103505  61.1055133  40.3601030  12.7980903
  60.9780926  38.8860201  12.4775863  60.5166079  41.5709332  16.8576539
  61.1438117  41.1886409  17.4714063  59.6593997  41.3523534  17.2232232
  70.9160187  51.9772307  18.4630275  71.4600091  52.5902265  17.9685229
  70.3347032  52.5351885  18.9797288  57.2931621  43.3785761   2.7894894
  57.5885062  42.4696439   2.7361948  56.3919657  43.3573500   2.4675896
  69.2017700  55.0993025   9.5945302  69.0768840  54.2982765   9.0856248
  69.8596791  55.5939218   9.1059272  60.8225868  41.4541757   8.7722443
  60.1012454  42.0677725   8.6329916  61.6119124  41.9899522   8.6939088
  71.2652608  52.9002045  11.2224852  70.3182944  52.7807396  11.1503179
  71.6135382  52.0124543  11.3051114  63.6252182  38.7896184  15.0463094
  64.1486584  39.0358480  15.8089404  63.4064515  39.6216219  14.6266232
  59.0219463  41.0599858   2.9134219  58.6932169  40.1797237   2.7309325
  59.3758834  41.0047527   3.8010608  68.2699042  52.6954761   7.4229205
  68.1224004  51.7671468   7.6036775  69.0952535  52.7174852   6.9386280
  62.1361286  41.3472828   3.2809697  62.4757359  41.8758749   2.5588305
  62.5833407  41.6853234   4.0568263  71.8733164  53.5183320   8.5094077
  72.7979711  53.3126181   8.3718529  71.7048467  53.2699721   9.4183419
  64.8304727  39.7309879  12.7312765  64.4901547  38.9317692  13.1333445
  64.1243733  40.0311590  12.1589598  65.4821199  36.8159191  11.1840088
  66.3047268  36.3419669  11.0618978  65.7259262  37.5949675  11.6838774
  64.1229433  39.8447450   1.4802990  64.8437796  40.2228703   0.9766706
  63.4994737  40.5636327   1.5837967  68.2660556  40.5492599   2.4161322
  68.4824170  41.4317237   2.1150150  67.7854623  40.1578812   1.6866964
  63.0059777  43.5078312   8.9932066  62.8604358  43.8218615   9.8856348
  62.5284981  44.1263212   8.4402965  64.8656160  40.4980860   9.0412956
  64.8517729  39.6021953   8.7045254  65.5828588  40.5051524   9.6751242
  66.7182291  40.9318200  11.0866083  66.4600069  41.8535271  11.0850414
  66.1867331  40.5348635  11.7766548  71.6628480  54.0368987   3.8656169
  71.8365357  53.4715410   3.1130021  72.1557371  54.8369882   3.6835659
  57.4805440  46.0483656  11.9319728  56.9358908  46.8243464  12.0640002
  58.3584790  46.3954461  11.7738849  64.2693056  39.3795240   4.3100526
  64.3908968  38.4511886   4.5091414  63.9795099  39.3933926   3.3978842
  67.1384247  37.0650151   7.4467246  67.1605944  37.1289484   6.4919226
  67.5552306  36.2254659   7.6407752  77.5167871  46.8005410   5.4846469
  77.9599017  46.0512735   5.0865592  76.6394381  46.7915547   5.1020201
  72.6503652  53.3535752   0.9653067  73.3454557  53.9742444   1.1840382
  72.9926802  52.5031103   1.2405445  58.2671462  45.1753553  14.8249884
  57.5253198  45.3236188  15.4114515  57.9464206  45.4361818  13.9616634
  74.5495075  50.8035457   2.4940398  75.0746400  51.1422730   1.7689718
  74.4617428  49.8682472   2.3103532  66.2115124  54.7169531  14.6230274
  66.5202251  54.4718678  15.4952974  67.0090606  54.9216169  14.1349145
  66.2335736  56.8707440   6.8535651  65.7940726  56.3783819   7.5468508
  66.9843853  56.3280408   6.6127726  58.7128075  53.0618981   6.8560279
  59.5386095  52.7622753   6.4758923  58.3622127  52.2926604   7.3050068
  63.6809608  52.4145450   8.9257953  63.0589618  51.7516155   8.6260181
  64.3514475  52.4406581   8.2431600  56.9136680  50.9805308   7.8149213
  56.0768589  50.5527482   7.6333214  56.8860326  51.1737751   8.7520004
  63.7534136  40.8927238  18.5190459  63.8022291  41.7689360  18.1368228
  64.2956650  40.3504631  17.9462102  74.2388982  51.4368361  17.7991596
  73.4484525  51.4192500  17.2596095  74.0022336  51.9756654  18.5540632
  74.3586857  48.2860827  15.1124324  74.4084862  48.1210835  16.0539847
  74.2500780  47.4188086  14.7222205  63.2423115  50.9649373   2.4016413
  63.3911236  51.6484837   1.7483086  64.0489559  50.9454463   2.9165869
  71.6490619  44.2691755  16.4283631  72.5500482  44.1298220  16.1367629
  71.7238593  44.4346210  17.3681809  65.9833424  41.6458610  15.2736817
  65.1136734  41.9392176  15.0019406  66.2192905  42.2299055  15.9944081
  75.8605053  50.7057769  15.3566346  75.5689862  51.0687749  16.1929807
  75.2477185  49.9924777  15.1779678  77.0600736  48.2710648   7.8768916
  77.8947627  48.7100453   8.0406476  77.1959865  47.7949302   7.0577162
  74.1092242  45.8290383  13.8246404  74.5846363  46.0218030  13.0165255
  73.1857807  45.8849569  13.5789788  60.9975748  46.9914551   3.4077482
  60.7521790  46.0876881   3.6057692  61.1671663  46.9931701   2.4656960
  68.6872458  37.8638227  12.7902238  69.2054402  38.5999254  12.4648726
  68.3327591  38.1702220  13.6248997  60.2671396  42.7242908   0.9063644
  59.5740641  42.7987263   0.2503680  60.0223148  41.9603252   1.4285161
  68.9385052  34.2838509   8.3103134  69.2186806  33.6161698   8.9363561
  69.7235659  34.4767605   7.7977798  66.7418521  53.4597503  -0.1271839
  66.1692488  54.0787690  -0.5801367  67.3151314  54.0096865   0.4068083
  72.8093911  42.7056143  12.0574709  73.7611334  42.8054241  12.0786934
  72.6397361  41.9134412  12.5672794  70.8308290  39.7911727  12.2434110
  70.2358222  40.0716739  11.5480599  70.5457987  40.2805628  13.0150852
  69.9615781  53.7434653   1.0036743  70.8946454  53.6780215   1.2069618
  69.8738993  54.5790920   0.5451276  72.5903797  53.0600524  -2.0359309
  72.5117429  52.7260387  -1.1423552  73.4113464  53.5522292  -2.0367837
  75.2881988  45.9262263  11.1717009  75.2558309  44.9878264  11.3576693
  75.8982612  46.0046300  10.4382834  67.1265319  44.7958316  -2.7855787
  68.0724424  44.6664524  -2.7167369  66.7479564  44.0572978  -2.3086359
  75.4376477  42.7173307  11.2175292  74.9215526  41.9331763  11.0305221
  76.3216425  42.3892023  11.3821812  73.0987204  36.4614322   7.1771105
  72.9012025  36.1529410   8.0614437  73.7086909  37.1875961   7.3069035
  81.1058538  46.9878270  10.3123046  81.8361927  46.7263558  10.8730749
  80.4965484  46.2506992  10.3525114  79.1873835  45.1286133  10.9097497
  78.4606999  44.9942097  10.3013989  78.7721122  45.4362961  11.7154215
  67.0104012  48.8476062  18.6744870  67.9307021  49.0254661  18.8684917
  66.9753595  47.9032108  18.5224569  65.3108236  42.7208292  -2.8500902
  64.4039692  42.4241405  -2.7738188  65.5884217  42.4238111  -3.7166615
  56.2286177  44.0414656   7.5998145  55.9088961  43.1879964   7.3072519
  55.6819605  44.2563234   8.3556112  60.0066084  46.7577097  11.3167651
  60.2252094  47.6894205  11.3355685  60.4191858  46.3985071  12.1022455
  66.9270302  37.2645182   3.3043340  66.1171030  36.9192267   3.6798586
  67.6154719  36.9552726   3.8930951  68.8560850  36.3423229   4.9267636
  69.4091889  36.7618682   5.5857659  69.0930937  35.4158977   4.9690592
  64.8793950  42.3310303  20.7070400  64.7790677  43.2804660  20.6382491
  64.6615492  42.0028542  19.8346470  56.0974437  47.6617567   9.5691266
  55.4037908  47.2471520   9.0561221  56.8447428  47.7038104   8.9724685
  72.2339658  38.4523754   4.4346301  71.6538327  39.1108558   4.0524353
  71.9675590  37.6301099   4.0233718  70.6843224  37.8528812   6.6367621
  71.1843002  37.9645346   5.8281940  71.3278832  37.5489865   7.2768429
  64.7425220  45.7607441  19.5235462  64.2592301  46.5607802  19.7299351
  64.8286159  45.7715386  18.5702906  58.0111179  47.5935821   7.4457281
  57.9881867  47.6923508   6.4939164  58.3211816  48.4400972   7.7674447
  60.6698557  49.6511976  11.5603896  61.6241811  49.6195919  11.4933827
  60.4711081  49.1902600  12.3754122  61.2597939  48.2213092  14.1274693
  62.0790828  48.7157171  14.1509531  61.5334747  47.3045060  14.0992261
  71.0164536  40.6123845   3.4902649  70.1290391  40.8973495   3.2722844
  71.4318525  40.4517608   2.6429926  74.3679072  40.6370366   7.2056988
  75.1439462  41.1266818   7.4781605  73.6427206  41.0628420   7.6628858
  76.8051630  41.3497985   8.2630929  77.3996121  41.1093721   7.5524237
  76.8778214  40.6305115   8.8904465  59.0248786  55.1931596   8.5774094
  58.8903254  54.4331997   8.0112092  58.6080848  55.9172496   8.1102882
  70.1607749  50.3768519  -2.4149331  70.8643599  50.5818522  -1.7991676
  69.4370398  50.9445281  -2.1500248  70.9905559  46.1278380   3.7052939
  70.9340761  46.5846932   2.8660571  71.5433902  45.3669065   3.5275782
  74.8010365  41.9168112   4.5303059  74.5447299  41.5164748   5.3611266
  74.1763233  42.6311906   4.4053198  79.1122703  44.6564186   7.0374350
  78.5522261  44.7257375   7.8105912  78.5066206  44.4805170   6.3173846
  62.1817912  56.0900913   8.7892536  62.0650296  57.0346345   8.6871226
  61.3610358  55.7874474   9.1778335  72.0694446  50.8151048  -0.3650871
  72.9040050  50.3832247  -0.5473396  71.9078789  50.6433062   0.5626023
  71.7240339  47.3183162   1.0005468  71.6689142  47.1527433   0.0593912
  71.0986394  48.0259195   1.1567658  56.5132854  42.5551226  14.8266890
  57.1591717  42.0450180  15.3154116  56.3050005  43.2919908  15.4010316
  69.0386246  49.6232074  20.3259031  69.9077405  49.7972726  19.9645666
  68.5592997  50.4426490  20.2034760  65.0336464  36.8191271   0.5790787
  65.0215134  37.7633111   0.7359057  65.9259886  36.6361416   0.2850248
  63.2072426  56.7429175  12.0048465  64.1099673  56.7752785  12.3214960
  62.9809796  55.8129626  12.0194800  64.9626028  55.4960161   8.6658543
  64.0121659  55.4962023   8.5522916  65.2658514  54.7492896   8.1494578
  68.8488584  33.4134047   4.8336723  68.0820979  32.8592534   4.9793406
  69.2599289  33.4855916   5.6950875  60.8530345  39.7018843  18.9241905
  61.7161806  39.3455648  19.1345229  60.2795755  39.3632738  19.6117309
  80.6978722  61.3320700   9.7304306  81.3357131  61.2127447   9.0267646
  80.5799564  62.2801543   9.7892258  77.5068428  61.2848128   9.6665830
  77.1686939  61.1689192   8.7786365  78.3758196  60.8839293   9.6466836
  73.3655243  63.1383604   5.6562721  72.8020109  63.0473541   4.8879009
  73.2507639  62.3183508   6.1365214  77.9888211  62.4382979  15.6252036
  77.9776852  62.0435778  14.7532540  78.1508850  61.7049052  16.2185807
  70.9119675  64.6334796   8.4946942  71.7040967  64.2925620   8.0793241
  71.1516326  64.7429771   9.4149095  78.9454802  66.8054572   0.9677186
  78.2942782  67.3908652   0.5811200  79.7399165  67.3360767   1.0272224
  72.8710429  63.8943709   1.3664321  73.6441305  63.3472696   1.2277196
  73.2235828  64.7587958   1.5778782  74.7095472  65.2220091  14.5731220
  74.4185338  66.1265722  14.4577886  75.3452456  65.2636619  15.2875289
  75.6351679  62.5996940  11.1632579  76.2315251  62.3752962  10.4489542
  75.6926650  61.8581685  11.7658027  75.2076707  60.0536375  -1.0017230
  75.4602228  59.5317896  -1.7633767  74.2701266  59.8902520  -0.8990546
  80.2519990  59.0572153   6.8057514  81.0383079  58.6391577   6.4547931
  80.5158694  59.9618246   6.9739162  80.4230067  64.4945004   1.5046171
  79.7875900  64.5679630   2.2167075  80.0927474  65.0838603   0.8265250
  85.6528417  58.9947387   7.7090492  86.3853589  58.4246603   7.9428322
  84.8967773  58.6068987   8.1496998  74.9272996  61.9564481   1.2007145
  74.8109254  61.2809384   1.8688230  75.0375256  61.4696855   0.3839298
  77.2704537  61.4174628   4.9053835  76.9062744  60.8905249   5.6166756
  78.1271653  61.0273097   4.7320320  83.1753837  52.7068961  12.1685101
  82.8437162  53.5764372  11.9446316  82.5799451  52.3905245  12.8479131
  76.9110024  56.4464528  -0.0984817  77.0784426  57.3144764   0.2685654
  76.7207193  56.6091809  -1.0223528  79.6685357  64.9081507  11.5681014
  79.3686080  65.8106545  11.4596821  79.3236417  64.6413690  12.4202166
  73.1197838  61.3595304   7.6017718  72.1948335  61.2271518   7.8095410
  73.3682252  62.1389523   8.0987660  83.0682501  57.4264047   9.2478451
  82.1599378  57.3579455   8.9537212  83.0170097  57.9035992  10.0760276
  76.8899245  58.9022185   0.8861850  76.7698870  59.3479236   1.7247330
  76.1951833  59.2507503   0.3275388  70.4806650  61.0028577   8.4361507
  70.6099031  61.2563056   9.3500919  69.8004101  61.5956285   8.1166162
  74.6506137  71.6725827   4.5351981  74.5730167  72.6233652   4.6140462
  74.0467780  71.3271700   5.1926908  77.1423367  58.8453692  17.1913348
  76.3656701  59.4047613  17.1816213  77.7813930  59.3310475  17.7128218
  84.9344147  55.6280485  11.0256325  84.2918527  55.9213018  10.3796119
  84.4299076  55.5133406  11.8309521  82.5884311  59.3743658   1.7142184
  83.5002167  59.6071045   1.5389882  82.0793958  59.9580703   1.1517263
  75.3969739  61.6539146  16.7531315  76.1384423  62.1924190  16.4766139
  74.6906724  62.2805435  16.9102867  80.8725079  63.7968286  15.3503477
  81.2808435  63.3550697  14.6058109  80.1502340  63.2220914  15.6037670
  77.2256149  58.7340893  12.7237034  78.0717344  59.1580307  12.8671683
  77.1654786  58.0774517  13.4175597  81.1953893  64.3569477   9.1055766
  80.5662756  64.5215191   8.4031833  80.8079555  64.7711086   9.8766730
  85.0743125  65.2923915   6.4600129  84.3894163  65.6722816   5.9097163
  85.1586974  65.9019241   7.1932077  80.3755594  56.3945261  14.3818207
  80.1316526  57.1487322  13.8452483  80.6515524  56.7730609  15.2165454
  82.3294057  62.9383874  13.0595473  82.5410952  63.5815634  12.3829854
  82.2823805  62.1046190  12.5917403  79.9320286  55.5501694   9.9632045
  79.0704765  55.8482948  10.2548783  79.9582720  55.7672093   9.0313078
  76.7481855  64.0943885   6.3705851  77.2120201  64.3731588   5.5810473
  76.4838653  63.1927330   6.1878941  73.6405936  63.6415367   9.3085614
  74.2107293  64.0702635   8.6703098  74.2314048  63.3597951  10.0069800
  75.6850741  60.2167037   3.1795416  76.3874784  60.6688081   3.6469342
  75.3531370  59.5750856   3.8075309  74.1331103  58.8078794  17.5546625
  73.5029763  59.4895075  17.7882022  74.0267191  58.6961876  16.6099763
  69.4276075  58.4750590   8.4812549  68.6375129  58.7308119   8.0052660
  69.9187322  59.2898928   8.5864590  83.4439885  65.8155829  11.2317830
  84.2657328  65.4136016  10.9500512  83.4402288  65.7124063  12.1833946
  71.3790820  58.8395169   5.4396026  70.5821984  58.9513864   5.9579522
  71.1516413  59.1781821   4.5736917  77.2096488  65.3639872  13.3878541
  77.2740921  65.8260280  14.2236712  76.5007412  64.7337237  13.5160850
  67.7113778  58.7281080  10.9127540  67.9621816  59.6128090  11.1785116
  68.2473326  58.5485682  10.1402632  91.5345878  62.1594578   7.5802802
  90.7809586  61.5901976   7.4246806  91.6693419  62.1257242   8.5273436
  76.9244506  67.0307980   3.2557521  76.7890181  67.8759516   3.6842369
  77.4654318  67.2327258   2.4923455  73.4111845  53.1099560  19.9171876
  73.0178791  52.5565758  20.5919520  74.2277986  53.4210138  20.3078394
  70.3773903  64.5483418   3.8285446  70.8898424  65.3426668   3.9791011
  71.0296616  63.8509708   3.7619048  72.1868788  67.6649174   5.9108199
  72.3635416  68.5867139   5.7229183  72.9825621  67.3507593   6.3402579
  76.3279806  54.5257439  17.5092133  77.0689520  55.1264592  17.4296595
  76.5597729  53.7835077  16.9510175  71.4721144  59.7113806  15.7870362
  71.3574660  58.8099063  16.0877461  70.6165662  59.9577503  15.4355179
  78.5512982  67.6531546  17.3857863  78.1076836  66.8667925  17.0678768
  79.2130196  67.8410697  16.7201754  73.3100103  69.1827348  11.9118542
  73.8607528  69.0544411  11.1395535  72.4711579  69.4822237  11.5613434
  80.6494220  67.9334346  15.4139264  80.6312696  68.7543227  14.9219533
  81.5714140  67.8088422  15.6389405  77.1067274  65.4478476  16.2562773
  77.6395611  64.6866764  16.0262081  76.5781355  65.1552128  16.9986927
  80.2736969  50.5538542  11.7856414  79.9301239  51.4440184  11.7095525
  80.6415932  50.3640199  10.9225999  68.3422820  62.8772072   4.6045017
  69.1798042  63.2869081   4.3878724  68.5201088  61.9371514   4.5745210
  80.2387252  60.5447153   0.2928850  79.7233875  61.3151758   0.5317237
  79.9664560  59.8712289   0.9161911  77.8234363  55.3896854   5.3514088
  76.9675959  55.0003704   5.1719727  78.2361315  55.4688815   4.4913873
  79.3533510  52.9243197   9.7505648  78.8498305  52.8873332   8.9373453
  79.6464117  53.8335940   9.8102304  75.5976396  53.0081927   8.7571829
  76.4629392  52.8124735   8.3977719  75.6653904  52.7792278   9.6841186
  85.2121526  63.2979508   2.2282023  84.4350969  62.9590667   1.7837185
  85.8913007  63.3032131   1.5536988  80.0273555  58.4174245   2.1188631
  79.7223691  58.7320394   2.9698774  80.9803997  58.4955665   2.1615964
  78.4719987  64.5764468   3.7681585  77.9441349  63.8417228   3.4554822
  77.9707490  65.3539145   3.5221553  83.4512833  62.7713489   8.8848631
  82.7936507  63.4612750   8.9728760  84.2553232  63.1609921   9.2282617
  73.2038715  55.2384135   6.1288196  73.7782467  55.0159316   5.3961389
  73.7909697  55.3072829   6.8816798  82.2618292  61.1257862   6.9352573
  82.7750174  61.7587853   7.4374282  82.9119516  60.5259057   6.5695933
  73.5308302  57.2688596   0.1484081  72.6945614  57.6063282   0.4693356
  73.3913071  57.1337575  -0.7888782  75.5061382  52.1125384   4.8563266
  74.8525795  51.7974401   4.2319880  75.4641857  51.4901124   5.5823089
  76.6172587  62.3944679  -3.2283442  75.7099649  62.1633932  -3.0292293
  77.1143619  61.5982298  -3.0409461  78.7399123  58.6007317   9.1810913
  77.8221684  58.8222264   9.0232601  79.1559266  58.6753628   8.3222621
  79.5234170  59.9998733   4.3113594  80.2705989  60.5120130   4.0020716
  79.7925760  59.6782785   5.1717987  77.7960821  62.4957273   1.2940548
  76.8872040  62.2116306   1.3913018  77.8255904  62.9156352   0.4343855
  83.0280088  66.1063863   5.0631715  82.5742415  65.2654773   5.1196906
  82.3974055  66.7425261   5.4006496  81.9713008  57.0355849   6.2932383
  81.2335764  56.5233235   6.6242625  82.2239781  56.5956231   5.4815660
  81.4713027  67.9440360   5.9981534  81.7636002  68.5045417   5.2793899
  81.9811648  68.2368921   6.7534693  82.0724635  49.8132101   6.8874152
  82.3783512  48.9529464   6.6000067  82.7977240  50.4049721   6.6873146
  68.3648991  60.2162788   5.2755750  68.1673391  59.6232148   4.5506817
  67.8095655  59.9114998   5.9931689  76.3445715  60.1085894   7.3950343
  76.3994324  59.1559730   7.3192820  75.5336917  60.2645333   7.8791642
  77.4936908  64.0366017  -1.3671374  77.0556338  63.3201876  -1.8265736
  78.2347349  64.2642132  -1.9286282  74.2838075  58.7262954   5.1540722
  73.4705940  59.0257124   5.5605914  74.7797069  58.3318643   5.8715204
  76.4346653  68.7220711   7.0874987  76.3922831  68.9481557   6.1583519
  77.3509351  68.4884085   7.2360788  79.8812286  59.1904778  13.9855616
  80.2361674  59.4176251  14.8450082  80.5284418  59.5223155  13.3632871
  85.6110023  62.3123214   4.6904945  85.4727922  62.5024810   3.7626134
  85.2546242  63.0742597   5.1472996  73.7752149  56.2981309  10.7701957
  74.4151529  56.1570068  10.0724920  72.9429680  56.0115823  10.3940559
  85.6379403  64.3799741   9.7016216  86.0715910  64.2875030  10.5499271
  86.3510984  64.3557242   9.0636232  74.5512453  65.5983740   6.8836949
  75.3453052  65.1034060   6.6819524  73.8404146  65.0701603   6.5204655
  79.3707298  67.9801835  11.2349317  79.4244320  68.5492772  12.0027033
  78.5022079  68.1503720  10.8703354  70.8595217  59.7426822   2.9596702
  69.9292805  59.6811277   3.1766664  70.9552689  59.2202774   2.1633343
  70.7780766  56.2681634   5.5474944  71.0387583  57.1826968   5.4384104
  71.5997938  55.8006077   5.6971557  72.2505691  57.6819392  12.7173768
  72.9228745  57.4736754  12.0686417  71.4235478  57.4841478  12.2779001
  86.4994952  64.4223442  12.2349102  86.6930842  65.3269252  12.4808377
  86.3995571  63.9630861  13.0687687  78.1531263  54.3081332  14.7339429
  77.5059178  55.0071282  14.6403906  78.9232279  54.7417476  15.1015677
  81.5610061  64.5730185  17.8089982  81.4095568  64.3440736  16.8920066
  81.5514741  65.5300786  17.8221327  78.3295397  62.1462097  12.7936249
  79.2587458  62.2973257  12.6205216  77.9086428  62.2346118  11.9384895
  77.1283729  66.1712762  10.5634787  76.9894815  65.8031546  11.4360725
  76.3398326  66.6860401  10.3918744  77.7231881  71.2721858   1.9060323
  77.8983637  70.8009901   2.7205946  77.0364669  71.8987624   2.1341584
  78.6788944  65.5494364   7.9523624  78.3438777  65.5095134   8.8481274
  78.1792890  64.8839080   7.4794035  72.6533188  60.9561994  13.4776205
  72.5152986  60.2242233  14.0787745  73.5638112  60.8670895  13.1960393
  81.6148136  62.8950399  -1.7739316  80.9977307  62.1697227  -1.8706263
  81.1464625  63.6559759  -2.1172242  75.2815489  60.6681954  12.9659885
  75.9915108  60.0275146  12.9246504  75.2384797  60.9194849  13.8886066
  83.2702268  67.6049307  15.8866464  83.2114814  66.9208527  15.2197047
  83.6721786  68.3468297  15.4347090  73.9944423  57.6547172  14.7855525
  73.4581780  57.2037910  15.4377121  73.4061131  57.7893081  14.0425989
  72.2892967  74.4211221   8.6800183  72.5289565  75.0529745   9.3579202
  71.4462163  74.0699261   8.9665542  73.4046682  57.1135823  -2.6518012
  72.5276148  56.9924624  -3.0155765  73.8804435  56.3221901  -2.9039123
  83.2719675  65.5688891  14.1180444  82.3846454  65.2314813  14.2406843
  83.8418226  64.8371922  14.3549209  64.9248822  61.9012983   7.4423495
  65.6119862  61.5874713   6.8544511  64.7696951  62.8054347   7.1690747
  69.7283544  56.7903179  11.8708519  69.6441733  56.1828849  11.1358929
  68.9066251  57.2812198  11.8718015  76.8020828  70.2290343  11.0841687
  76.7291000  71.0345315  11.5960992  76.3598222  70.4282309  10.2589709
  76.5910608  69.4662113   4.5944509  75.8078130  70.0083794   4.6882733
  77.2903353  69.9836093   4.9938750  79.9007258  55.2756743   7.2378714
  80.3975958  54.5226705   6.9179784  79.1294240  55.3121060   6.6721923
  87.7537016  60.9797108   8.8797006  87.7426892  61.8621824   8.5090939
  86.8854395  60.6268659   8.6851543  79.2619512  70.1277177  13.2399846
  79.9747484  70.7624642  13.1675747  78.7709541  70.2241043  12.4239848
  80.9837039  64.0328430   4.8117138  80.0493318  64.1529893   4.6421842
  81.1613707  63.1300897   4.5477147  76.4842227  57.4174126   6.9650399
  76.1140014  56.8645166   7.6531304  76.9801319  56.8132259   6.4125399
  84.3709590  59.8745749   5.3467172  84.8370042  60.7073741   5.2727474
  84.8217091  59.4090731   6.0512430  74.3131425  67.8771621  14.0605417
  75.0140885  68.5108104  14.2134811  73.8426540  68.2186352  13.3001056
  82.4385821  66.2189571   2.3453324  82.7145665  66.1046165   3.2547198
  81.5690320  65.8207056   2.3065497  82.3426253  52.2426336   9.3858073
  81.4289333  52.4730563   9.5540280  82.7719354  52.3264780  10.2372105
  82.1132711  60.4316228  11.8857967  81.4604162  60.6792136  11.2310420
  82.4913091  59.6180367  11.5520444  79.0739885  70.4675922   5.9886137
  79.2562280  69.6497577   6.4513890  79.8972871  70.6843614   5.5511027
  79.4082051  69.3944107   3.2501186  79.9369817  68.8836561   2.6371348
  79.6710270  69.0786637   4.1146719  78.1620284  61.1736039  18.3724004
  77.4860921  61.0730169  19.0426379  78.9847918  61.0175253  18.8360001
  69.9099144  67.4107976  10.9936519  70.4952580  66.6651664  11.1264424
  69.7123982  67.7211933  11.8773183  72.7637799  70.4459223   6.0098962
  72.0948174  70.9305351   5.5263002  72.6250668  70.6928444   6.9242340
  64.5016798  59.9813576   9.7140963  64.5400898  59.4477167  10.5078081
  63.9957091  59.4548782   9.0951940  76.9043067  72.4802967  12.6081620
  77.4561375  72.6434588  13.3730705  77.2449261  73.0707405  11.9361645
  71.8807561  54.8278117  13.2103505  71.9448887  55.6892948  12.7980903
  71.8174681  54.2152118  12.4775863  71.3559833  56.9001249  16.8576539
  71.9831872  56.5178327  17.4714063  70.4987752  56.6815451  17.2232232
  81.7553942  67.3064224  18.4630275  82.2993846  67.9194183  17.9685229
  81.1740786  67.8643803  18.9797288  68.1325376  58.7077678   2.7894894
  68.4278817  57.7988357   2.7361948  67.2313412  58.6865418   2.4675896
  80.0411455  70.4284942   9.5945302  79.9162594  69.6274682   9.0856248
  80.6990546  70.9231136   9.1059272  71.6619623  56.7833675   8.7722443
  70.9406209  57.3969643   8.6329916  72.4512879  57.3191440   8.6939088
  82.1046363  68.2293963  11.2224852  81.1576699  68.1099314  11.1503179
  82.4529136  67.3416461  11.3051114  74.4645936  54.1188101  15.0463094
  74.9880338  54.3650398  15.8089404  74.2458270  54.9508136  14.6266232
  69.8613217  56.3891776   2.9134219  69.5325924  55.5089155   2.7309325
  70.2152588  56.3339445   3.8010608  79.1092796  68.0246679   7.4229205
  78.9617759  67.0963386   7.6036775  79.9346290  68.0466769   6.9386280
  72.9755041  56.6764746   3.2809697  73.3151113  57.2050667   2.5588305
  73.4227161  57.0145152   4.0568263  82.7126918  68.8475237   8.5094077
  83.6373466  68.6418099   8.3718529  82.5442222  68.5991639   9.4183419
  75.6698481  55.0601797  12.7312765  75.3295302  54.2609610  13.1333445
  74.9637488  55.3603507  12.1589598  76.3214953  52.1451109  11.1840088
  77.1441023  51.6711587  11.0618978  76.5653017  52.9241593  11.6838774
  74.9623188  55.1739367   1.4802990  75.6831550  55.5520620   0.9766706
  74.3388492  55.8928244   1.5837967  79.1054311  55.8784516   2.4161322
  79.3217925  56.7609154   2.1150150  78.6248378  55.4870730   1.6866964
  73.8453532  58.8370230   8.9932066  73.6998113  59.1510533   9.8856348
  73.3678736  59.4555130   8.4402965  75.7049915  55.8272778   9.0412956
  75.6911484  54.9313871   8.7045254  76.4222343  55.8343441   9.6751242
  77.5576046  56.2610118  11.0866083  77.2993823  57.1827188  11.0850414
  77.0261086  55.8640552  11.7766548  82.5022234  69.3660905   3.8656169
  82.6759112  68.8007327   3.1130021  82.9951126  70.1661800   3.6835659
  68.3199194  61.3775574  11.9319728  67.7752662  62.1535382  12.0640002
  69.1978544  61.7246378  11.7738849  75.1086811  54.7087158   4.3100526
  75.2302722  53.7803804   4.5091414  74.8188853  54.7225844   3.3978842
  77.9778001  52.3942068   7.4467246  77.9999698  52.4581401   6.4919226
  78.3946060  51.5546577   7.6407752  88.3561626  62.1297328   5.4846469
  88.7992772  61.3804653   5.0865592  87.4788136  62.1207464   5.1020201
  83.4897407  68.6827669   0.9653067  84.1848311  69.3034362   1.1840382
  83.8320557  67.8323021   1.2405445  69.1065216  60.5045470  14.8249884
  68.3646952  60.6528106  15.4114515  68.7857960  60.7653736  13.9616634
  85.3888830  66.1327375   2.4940398  85.9140154  66.4714648   1.7689718
  85.3011183  65.1974390   2.3103532  77.0508879  70.0461448  14.6230274
  77.3596005  69.8010595  15.4952974  77.8484361  70.2508087  14.1349145
  77.0729491  72.1999358   6.8535651  76.6334481  71.7075737   7.5468508
  77.8237608  71.6572326   6.6127726  69.5521830  68.3910899   6.8560279
  70.3779850  68.0914671   6.4758923  69.2015882  67.6218521   7.3050068
  74.5203363  67.7437367   8.9257953  73.8983372  67.0808072   8.6260181
  75.1908230  67.7698499   8.2431600  67.7530435  66.3097225   7.8149213
  66.9162343  65.8819400   7.6333214  67.7254080  66.5029669   8.7520004
  74.5927890  56.2219155  18.5190459  74.6416046  57.0981278  18.1368228
  75.1350405  55.6796548  17.9462102  85.0782736  66.7660278  17.7991596
  84.2878280  66.7484417  17.2596095  84.8416091  67.3048572  18.5540632
  85.1980611  63.6152745  15.1124324  85.2478616  63.4502752  16.0539847
  85.0894534  62.7480004  14.7222205  74.0816870  66.2941291   2.4016413
  74.2304990  66.9776755   1.7483086  74.8883313  66.2746381   2.9165869
  82.4884373  59.5983673  16.4283631  83.3894236  59.4590138  16.1367629
  82.5632348  59.7638128  17.3681809  76.8227179  56.9750528  15.2736817
  75.9530488  57.2684094  15.0019406  77.0586659  57.5590973  15.9944081
  86.6998808  66.0349686  15.3566346  86.4083616  66.3979667  16.1929807
  86.0870939  65.3216695  15.1779678  87.8994490  63.6002566   7.8768916
  88.7341382  64.0392370   8.0406476  88.0353619  63.1241219   7.0577162
  84.9485996  61.1582301  13.8246404  85.4240118  61.3509947  13.0165255
  84.0251562  61.2141487  13.5789788  71.8369503  62.3206468   3.4077482
  71.5915545  61.4168798   3.6057692  72.0065417  62.3223619   2.4656960
  79.5266213  53.1930145  12.7902238  80.0448156  53.9291171  12.4648726
  79.1721345  53.4994138  13.6248997  71.1065150  58.0534826   0.9063644
  70.4134395  58.1279181   0.2503680  70.8616902  57.2895169   1.4285161
  79.7778807  49.6130427   8.3103134  80.0580561  48.9453616   8.9363561
  80.5629414  49.8059523   7.7977798  77.5812275  68.7889421  -0.1271839
  77.0086242  69.4079608  -0.5801367  78.1545069  69.3388783   0.4068083
  83.6487665  58.0348061  12.0574709  84.6005088  58.1346159  12.0786934
  83.4791116  57.2426330  12.5672794  81.6702045  55.1203644  12.2434110
  81.0751977  55.4008657  11.5480599  81.3851741  55.6097545  13.0150852
  80.8009535  69.0726571   1.0036743  81.7340208  69.0072133   1.2069618
  80.7132748  69.9082838   0.5451276  86.1275743  61.2554181  11.1717009
  86.0952063  60.3170182  11.3576693  86.7376367  61.3338217  10.4382834
  77.9659074  60.1250234  -2.7855787  78.9118179  59.9956442  -2.7167369
  77.5873319  59.3864896  -2.3086359  86.2770231  58.0465224  11.2175292
  85.7609280  57.2623681  11.0305221  87.1610180  57.7183941  11.3821812
  83.9380958  51.7906240   7.1771105  83.7405779  51.4821328   8.0614437
  84.5480664  52.5167879   7.3069035  91.9452293  62.3170188  10.3123046
  92.6755681  62.0555476  10.8730749  91.3359238  61.5798910  10.3525114
  90.0267590  60.4578050  10.9097497  89.3000753  60.3234015  10.3013989
  89.6114877  60.7654879  11.7154215  77.8497766  64.1767980  18.6744870
  78.7700776  64.3546579  18.8684917  77.8147349  63.2324025  18.5224569
  76.1501991  58.0500210  -2.8500902  75.2433446  57.7533323  -2.7738188
  76.4277972  57.7530028  -3.7166615  67.0679931  59.3706574   7.5998145
  66.7482716  58.5171882   7.3072519  66.5213360  59.5855152   8.3556112
  70.8459839  62.0869015  11.3167651  71.0645849  63.0186122  11.3355685
  71.2585613  61.7276989  12.1022455  77.7664057  52.5937100   3.3043340
  76.9564785  52.2484185   3.6798586  78.4548474  52.2844644   3.8930951
  79.6954605  51.6715147   4.9267636  80.2485644  52.0910600   5.5857659
  79.9324691  50.7450895   4.9690592  75.7187704  57.6602220  20.7070400
  75.6184431  58.6096577  20.6382491  75.5009246  57.3320459  19.8346470
  74.9200776  54.9087145  -2.7088922  75.7819940  55.2342044  -2.4493105
  75.1051120  54.1218641  -3.2215857  66.9368191  62.9909485   9.5691266
  66.2431663  62.5763438   9.0561221  67.6841182  63.0330022   8.9724685
  83.0733412  53.7815672   4.4346301  82.4932081  54.4400476   4.0524353
  82.8069345  52.9593016   4.0233718  81.5236978  53.1820730   6.6367621
  82.0236757  53.2937264   5.8281940  82.1672586  52.8781782   7.2768429
  75.5818974  61.0899359  19.5235462  75.0986056  61.8899719  19.7299351
  75.6679913  61.1007304  18.5702906  68.8504934  62.9227739   7.4457281
  68.8275622  63.0215426   6.4939164  69.1605570  63.7692890   7.7674447
  71.5092312  64.9803894  11.5603896  72.4635565  64.9487836  11.4933827
  71.3104835  64.5194518  12.3754122  72.0991694  63.5505010  14.1274693
  72.9184583  64.0449089  14.1509531  72.3728502  62.6336978  14.0992261
  81.8558290  55.9415762   3.4902649  80.9684145  56.2265413   3.2722844
  82.2712279  55.7809526   2.6429926  85.2072826  55.9662283   7.2056988
  85.9833216  56.4558736   7.4781605  84.4820960  56.3920337   7.6628858
  87.6445385  56.6789902   8.2630929  88.2389876  56.4385638   7.5524237
  87.7171969  55.9597033   8.8904465  69.8642541  70.5223513   8.5774094
  69.7297008  69.7623914   8.0112092  69.4474603  71.2464413   8.1102882
  81.0001504  65.7060437  -2.4149331  81.7037354  65.9110439  -1.7991676
  80.2764152  66.2737199  -2.1500248  81.8299314  61.4570298   3.7052939
  81.7734515  61.9138850   2.8660571  82.3827656  60.6960983   3.5275782
  85.6404120  57.2460030   4.5303059  85.3841054  56.8456666   5.3611266
  85.0156988  57.9603824   4.4053198  89.9516458  59.9856103   7.0374350
  89.3916016  60.0549293   7.8105912  89.3459961  59.8097088   6.3173846
  73.0211666  71.4192830   8.7892536  72.9044051  72.3638263   8.6871226
  72.2004113  71.1166392   9.1778335  82.9088201  66.1442966  -0.3650871
  83.7433805  65.7124165  -0.5473396  82.7472544  65.9724980   0.5626023
  82.5634093  62.6475079   1.0005468  82.5082897  62.4819351   0.0593912
  81.9380148  63.3551112   1.1567658  67.3526608  57.8843144  14.8266890
  67.9985472  57.3742098  15.3154116  67.1443759  58.6211825  15.4010316
  79.8780000  64.9523991  20.3259031  80.7471160  65.1264644  19.9645666
  79.3986752  65.7718408  20.2034760  75.8730219  52.1483188   0.5790787
  75.8608888  53.0925028   0.7359057  76.7653640  51.9653334   0.2850248
  74.0466181  72.0721092  12.0048465  74.9493427  72.1044703  12.3214960
  73.8203551  71.1421543  12.0194800  75.8019783  70.8252079   8.6658543
  74.8515414  70.8253940   8.5522916  76.1052269  70.0784813   8.1494578
  79.6882338  48.7425965   4.8336723  78.9214734  48.1884452   4.9793406
  80.0993043  48.8147834   5.6950875  71.6924099  55.0310761  18.9241905
  72.5555561  54.6747566  19.1345229  71.1189510  54.6924656  19.6117309
  91.5372476  76.6612617   9.7304306  92.1750886  76.5419365   9.0267646
  91.4193319  77.6093461   9.7892258  88.3462182  76.6140045   9.6665830
  88.0080694  76.4981110   8.7786365  89.2151950  76.2131210   9.6466836
  88.8281965  77.7674897  15.6252036  88.8170606  77.3727695  14.7532540
  88.9902605  77.0340970  16.2185807  81.7513430  79.9626713   8.4946942
  82.5434722  79.6217538   8.0793241  81.9910080  80.0721688   9.4149095
  85.5489226  80.5512009  14.5731220  85.2579092  81.4557640  14.4577886
  86.1846211  80.5928536  15.2875289  86.4745433  77.9288857  11.1632579
  87.0709006  77.7044880  10.4489542  86.5320405  77.1873603  11.7658027
  91.0913744  74.3864071   6.8057514  91.8776834  73.9683494   6.4547931
  91.3552449  75.2910163   6.9739162  94.0147592  68.0360878  12.1685101
  93.6830917  68.9056289  11.9446316  93.4193205  67.7197162  12.8479131
  90.5079112  80.2373424  11.5681014  90.2079835  81.1398463  11.4596821
  90.1630171  79.9705608  12.4202166  83.9591593  76.6887221   7.6017718
  83.0342089  76.5563435   7.8095410  84.2076006  77.4681440   8.0987660
  93.9076255  72.7555965   9.2478451  92.9993133  72.6871373   8.9537212
  93.8563851  73.2327909  10.0760276  81.3200404  76.3320495   8.4361507
  81.4492785  76.5854974   9.3500919  80.6397855  76.9248203   8.1166162
  87.9817121  74.1745610  17.1913348  87.2050455  74.7339530  17.1816213
  88.6207684  74.6602393  17.7128218  95.7737902  70.9572403  11.0256325
  95.1312282  71.2504936  10.3796119  95.2692830  70.8425323  11.8309521
  86.2363493  76.9831063  16.7531315  86.9778178  77.5216107  16.4766139
  85.5300479  77.6097352  16.9102867  91.7118833  79.1260204  15.3503477
  92.1202189  78.6842614  14.6058109  90.9896095  78.5512831  15.6037670
  88.0649903  74.0632811  12.7237034  88.9111098  74.4872224  12.8671683
  88.0048541  73.4066435  13.4175597  91.2149348  71.7237179  14.3818207
  90.9710280  72.4779240  13.8452483  91.4909279  72.1022527  15.2165454
  93.1687811  78.2675791  13.0595473  93.3804706  78.9107551  12.3829854
  93.1217559  77.4338108  12.5917403  90.7714040  70.8793612   9.9632045
  89.9098519  71.1774866  10.2548783  90.7976475  71.0964011   9.0313078
  84.4799691  78.9707284   9.3085614  85.0501048  79.3994553   8.6703098
  85.0707802  78.6889869  10.0069800  84.9724857  74.1370712  17.5546625
  84.3423518  74.8186993  17.7882022  84.8660945  74.0253793  16.6099763
  80.2669830  73.8042508   8.4812549  79.4768884  74.0600036   8.0052660
  80.7581077  74.6190846   8.5864590  82.2184575  74.1687087   5.4396026
  81.4215738  74.2805781   5.9579522  81.9910167  74.5073739   4.5736917
  88.0490243  80.6931790  13.3878541  88.1134675  81.1552197  14.2236712
  87.3401166  80.0629155  13.5160850  78.5507533  74.0572998  10.9127540
  78.8015571  74.9420008  11.1785116  79.0867081  73.8777600  10.1402632
  84.2505600  68.4391477  19.9171876  83.8572545  67.8857676  20.5919520
  85.0671740  68.7502056  20.3078394  87.1673561  69.8549357  17.5092133
  87.9083274  70.4556510  17.4296595  87.3991484  69.1126994  16.9510175
  82.3114899  75.0405724  15.7870362  82.1968414  74.1390981  16.0877461
  81.4559417  75.2869421  15.4355179  89.3906737  82.9823464  17.3857863
  88.9470591  82.1959843  17.0678768  90.0523950  83.1702615  16.7201754
  84.1493858  84.5119266  11.9118542  84.7001283  84.3836329  11.1395535
  83.3105334  84.8114155  11.5613434  91.4887975  83.2626264  15.4139264
  91.4706450  84.0835145  14.9219533  92.4107895  83.1380339  15.6389405
  87.9461029  80.7770394  16.2562773  88.4789366  80.0158682  16.0262081
  87.4175110  80.4844045  16.9986927  91.1130724  65.8830460  11.7856414
  90.7694993  66.7732101  11.7095525  91.4809686  65.6932117  10.9225999
  79.1816574  78.2063990   4.6045017  80.0191796  78.6160998   4.3878724
  79.3594842  77.2663432   4.5745210  88.6628118  70.7188771   5.3514088
  87.8069714  70.3295622   5.1719727  89.0755069  70.7980732   4.4913873
  90.1927264  68.2535115   9.7505648  89.6892060  68.2165250   8.9373453
  90.4857871  69.1627857   9.8102304  86.4370150  68.3373844   8.7571829
  87.3023147  68.1416653   8.3977719  86.5047659  68.1084196   9.6841186
  84.0432469  70.5676052   6.1288196  84.6176221  70.3451234   5.3961389
  84.6303452  70.6364747   6.8816798  86.3455137  67.4417301   4.8563266
  85.6919549  67.1266318   4.2319880  86.3035611  66.8193042   5.5823089
  89.5792877  73.9299235   9.1810913  88.6615439  74.1514182   9.0232601
  89.9953021  74.0045545   8.3222621  92.9118389  65.1424019   6.8874152
  93.2177266  64.2821382   6.6000067  93.6370994  65.7341639   6.6873146
  79.2042746  75.5454705   5.2755750  79.0067145  74.9524066   4.5506817
  78.6489410  75.2406915   5.9931689  87.1839469  75.4377812   7.3950343
  87.2388079  74.4851648   7.3192820  86.3730671  75.5937251   7.8791642
  85.1231829  74.0554872   5.1540722  84.3099695  74.3549042   5.5605914
  85.6190823  73.6610560   5.8715204  90.7206041  74.5196696  13.9855616
  91.0755429  74.7468169  14.8450082  91.3678172  74.8515073  13.3632871
  84.6145904  71.6273227  10.7701957  85.2545283  71.4861986  10.0724920
  83.7823434  71.3407740  10.3940559  90.2101052  83.3093753  11.2349317
  90.2638075  83.8784689  12.0027033  89.3415834  83.4795638  10.8703354
  81.6174520  71.5973552   5.5474944  81.8781338  72.5118885   5.4384104
  82.4391693  71.1297995   5.6971557  83.0899446  73.0111309  12.7173768
  83.7622499  72.8028671  12.0686417  82.2629232  72.8133395  12.2779001
  88.9925018  69.6373250  14.7339429  88.3452933  70.3363200  14.6403906
  89.7626033  70.0709394  15.1015677  92.4003816  79.9022102  17.8089982
  92.2489322  79.6732654  16.8920066  92.3908495  80.8592704  17.8221327
  89.1689152  77.4754015  12.7936249  90.0981212  77.6265175  12.6205216
  88.7480182  77.5638036  11.9384895  87.9677484  81.5004679  10.5634787
  87.8288569  81.1323464  11.4360725  87.1792080  82.0152319  10.3918744
  83.4926943  76.2853912  13.4776205  83.3546741  75.5534151  14.0787745
  84.4031866  76.1962812  13.1960393  86.1209244  75.9973872  12.9659885
  86.8308862  75.3567064  12.9246504  86.0778552  76.2486766  13.8886066
  94.1096022  82.9341225  15.8866464  94.0508568  82.2500445  15.2197047
  94.5115541  83.6760215  15.4347090  84.8338178  72.9839089  14.7855525
  84.2975535  72.5329828  15.4377121  84.2454886  73.1184998  14.0425989
  94.1113430  80.8980809  14.1180444  93.2240208  80.5606731  14.2406843
  94.6811981  80.1663840  14.3549209  75.7642577  77.2304901   7.4423495
  76.4513616  76.9166631   6.8544511  75.6090705  78.1346265   7.1690747
  80.5677299  72.1195097  11.8708519  80.4835487  71.5120767  11.1358929
  79.7460005  72.6104115  11.8718015  90.7401013  70.6048661   7.2378714
  91.2369712  69.8518623   6.9179784  89.9687994  70.6412977   6.6721923
  90.1013266  85.4569095  13.2399846  90.8141239  86.0916560  13.1675747
  89.6103295  85.5532961  12.4239848  87.3235981  72.7466044   6.9650399
  86.9533769  72.1937084   7.6531304  87.8195074  72.1424177   6.4125399
  85.1525180  83.2063539  14.0605417  85.8534639  83.8400022  14.2134811
  84.6820295  83.5478270  13.3001056  93.1820007  67.5718254   9.3858073
  92.2683087  67.8022481   9.5540280  93.6113109  67.6556698  10.2372105
  92.9526466  75.7608146  11.8857967  92.2997916  76.0084054  11.2310420
  93.3306846  74.9472284  11.5520444  89.0014039  76.5027957  18.3724004
  88.3254676  76.4022086  19.0426379  89.8241673  76.3467171  18.8360001
  80.7492898  82.7399894  10.9936519  81.3346335  81.9943582  11.1264424
  80.5517736  83.0503850  11.8773183  75.3410553  75.3105494   9.7140963
  75.3794652  74.7769085  10.5078081  74.8350846  74.7840699   9.0951940
  82.7201315  70.1570034  13.2103505  82.7842642  71.0184865  12.7980903
  82.6568435  69.5444036  12.4775863  82.1953588  72.2293167  16.8576539
  82.8225626  71.8470244  17.4714063  81.3381506  72.0107369  17.2232232
  92.5947696  82.6356142  18.4630275  93.1387600  83.2486100  17.9685229
  92.0134541  83.1935720  18.9797288  78.9719130  74.0369596   2.7894894
  79.2672571  73.1280274   2.7361948  78.0707166  74.0157335   2.4675896
  82.5013377  72.1125593   8.7722443  81.7799963  72.7261560   8.6329916
  83.2906633  72.6483357   8.6939088  85.3039691  69.4480019  15.0463094
  85.8274093  69.6942316  15.8089404  85.0852024  70.2800054  14.6266232
  80.7006972  71.7183694   2.9134219  80.3719678  70.8381073   2.7309325
  81.0546343  71.6631362   3.8010608  83.8148795  72.0056663   3.2809697
  84.1544868  72.5342585   2.5588305  84.2620916  72.3437070   4.0568263
  86.5092236  70.3893714  12.7312765  86.1689056  69.5901527  13.1333445
  85.8031242  70.6895425  12.1589598  87.1608708  67.4743027  11.1840088
  87.9834777  67.0003505  11.0618978  87.4046771  68.2533510  11.6838774
  84.6847286  74.1662147   8.9932066  84.5391867  74.4802450   9.8856348
  84.2072490  74.7847048   8.4402965  86.5443669  71.1564695   9.0412956
  86.5305238  70.2605789   8.7045254  87.2616097  71.1635359   9.6751242
  88.3969800  71.5902035  11.0866083  88.1387578  72.5119106  11.0850414
  87.8654840  71.1932470  11.7766548  79.1592949  76.7067492  11.9319728
  78.6146417  77.4827300  12.0640002  80.0372298  77.0538296  11.7738849
  85.9480565  70.0379076   4.3100526  86.0696476  69.1095722   4.5091414
  85.6582608  70.0517762   3.3978842  88.8171756  67.7233986   7.4467246
  88.8393452  67.7873319   6.4919226  89.2339815  66.8838495   7.6407752
  79.9458970  75.8337388  14.8249884  79.2040707  75.9820023  15.4114515
  79.6251715  76.0945654  13.9616634  87.8902633  85.3753366  14.6230274
  88.1989760  85.1302513  15.4952974  88.6878115  85.5800005  14.1349145
  78.5924189  81.6389143   7.8149213  77.7556098  81.2111317   7.6333214
  78.5647835  81.8321586   8.7520004  85.4321645  71.5511073  18.5190459
  85.4809800  72.4273196  18.1368228  85.9744159  71.0088466  17.9462102
  95.9176491  82.0952196  17.7991596  95.1272034  82.0776335  17.2596095
  95.6809845  82.6340490  18.5540632  96.0374366  78.9444663  15.1124324
  96.0872370  78.7794670  16.0539847  95.9288289  78.0771922  14.7222205
  93.3278128  74.9275591  16.4283631  94.2287991  74.7882055  16.1367629
  93.4026102  75.0930045  17.3681809  87.6620933  72.3042445  15.2736817
  86.7924243  72.5976011  15.0019406  87.8980414  72.8882890  15.9944081
  97.5392562  81.3641604  15.3566346  97.2477371  81.7271585  16.1929807
  96.9264694  80.6508612  15.1779678  95.7879751  76.4874219  13.8246404
  96.2633872  76.6801865  13.0165255  94.8645316  76.5433405  13.5789788
  90.3659967  68.5222062  12.7902238  90.8841911  69.2583089  12.4648726
  90.0115100  68.8286056  13.6248997  90.6172561  64.9422345   8.3103134
  90.8974315  64.2745534   8.9363561  91.4023168  65.1351440   7.7977798
  94.4881420  73.3639979  12.0574709  95.4398843  73.4638076  12.0786934
  94.3184870  72.5718247  12.5672794  92.5095799  70.4495562  12.2434110
  91.9145731  70.7300575  11.5480599  92.2245496  70.9389463  13.0150852
  96.9669497  76.5846098  11.1717009  96.9345818  75.6462099  11.3576693
  97.5770121  76.6630135  10.4382834  97.1163986  73.3757142  11.2175292
  96.6003035  72.5915599  11.0305221  98.0003934  73.0475859  11.3821812
  94.7774713  67.1198157   7.1771105  94.5799534  66.8113246   8.0614437
  95.3874418  67.8459796   7.3069035  88.6891521  79.5059898  18.6744870
  89.6094530  79.6838497  18.8684917  88.6541104  78.5615943  18.5224569
  77.9073686  74.6998491   7.5998145  77.5876470  73.8463799   7.3072519
  77.3607114  74.9147069   8.3556112  81.6853593  77.4160932  11.3167651
  81.9039603  78.3478040  11.3355685  82.0979367  77.0568907  12.1022455
  88.6057811  67.9229018   3.3043340  87.7958539  67.5776103   3.6798586
  89.2942228  67.6136561   3.8930951  90.5348359  67.0007064   4.9267636
  91.0879398  67.4202518   5.5857659  90.7718446  66.0742812   4.9690592
  86.5581459  72.9894138  20.7070400  86.4578186  73.9388495  20.6382491
  86.3403001  72.6612377  19.8346470  77.7761946  78.3201403   9.5691266
  77.0825417  77.9055356   9.0561221  78.5234937  78.3621939   8.9724685
  92.3630733  68.5112647   6.6367621  92.8630511  68.6229182   5.8281940
  93.0066341  68.2073700   7.2768429  86.4212729  76.4191277  19.5235462
  85.9379810  77.2191637  19.7299351  86.5073668  76.4299222  18.5702906
  79.6898688  78.2519656   7.4457281  79.6669376  78.3507344   6.4939164
  79.9999325  79.0984807   7.7674447  82.3486066  80.3095812  11.5603896
  83.3029320  80.2779754  11.4933827  82.1498590  79.8486435  12.3754122
  82.9385448  78.8796928  14.1274693  83.7578337  79.3741006  14.1509531
  83.2122256  77.9628896  14.0992261  96.0466581  71.2954201   7.2056988
  96.8226971  71.7850653   7.4781605  95.3214715  71.7212255   7.6628858
  78.1920363  73.2135061  14.8266890  78.8379226  72.7034015  15.3154116
  77.9837514  73.9503743  15.4010316  90.7173755  80.2815909  20.3259031
  91.5864914  80.4556561  19.9645666  90.2380506  81.1010326  20.2034760
  84.8859935  87.4013010  12.0048465  85.7887182  87.4336620  12.3214960
  84.6597305  86.4713461  12.0194800  90.5276093  64.0717883   4.8336723
  89.7608488  63.5176369   4.9793406  90.9386797  64.1439751   5.6950875
  82.5317854  70.3602679  18.9241905  83.3949315  70.0039483  19.1345229
  81.9583264  70.0216573  19.6117309  95.0899354  83.7683395  19.9171876
  94.6966300  83.2149594  20.5919520  95.9065495  84.0793974  20.3078394
  98.0067315  85.1841274  17.5092133  98.7477029  85.7848427  17.4296595
  98.2385238  84.4418912  16.9510175  93.0347342  87.5585085  16.8576539
  93.6619381  87.1762162  17.4714063  92.1775261  87.3399287  17.2232232
  96.2715399  86.8802991  18.5190459  96.3203555  87.7565113  18.1368228
  96.8137914  86.3380384  17.9462102  97.3975213  88.3186056  20.7070400
  97.2971940  89.2680413  20.6382491  97.1796755  87.9904295  19.8346470
  89.0314117  88.5426979  14.8266890  89.6772981  88.0325933  15.3154116
  88.8231268  89.2795661  15.4010316  93.3711608  85.6894596  18.9241905
  94.2343070  85.3331401  19.1345229  92.7977019  85.3508491  19.6117309
  67.7119229  29.3301751   4.1103170  67.2683083  28.5438130   3.7924074
  68.3736442  29.5180902   3.4447060  69.8100467  29.6104551   2.1384571
  69.7918942  30.4313432   1.6464840  70.7320387  29.4858627   2.3634712
  70.7216308  26.2500390   4.5335289  70.5701814  26.0210941   3.6165373
  70.7120987  27.2070991   4.5466634  72.4308515  29.2819512   2.6111771
  72.3721061  28.5978732   1.9442354  72.8328033  30.0238502   2.1592397
  70.9160188  28.9834429   5.1875581  71.4600092  29.5964388   4.6930536
  70.3347033  29.5414008   5.7042594  74.2388983  28.4430483   4.5236902
  73.4484526  28.4254622   3.9841402  74.0022337  28.9818777   5.2785939
  75.8605055  27.7119891   2.0811653  75.5689863  28.0749872   2.9175113
  75.2477186  26.9986900   1.9024985  69.0386247  26.6294196   7.0504338
  69.9077407  26.8034848   6.6890973  68.5592999  27.4488613   6.9280067
  80.6978723  38.3382822  -3.5450388  81.3357133  38.2189569  -4.2487048
  80.5799566  39.2863666  -3.4862436  77.5068429  38.2910250  -3.6088863
  77.1686941  38.1751315  -4.4968328  78.3758197  37.8901415  -3.6287857
  77.9888212  39.4445102   2.3497342  77.9776853  39.0497900   1.4777846
  78.1508852  38.7111175   2.9431114  70.9119677  41.6396918  -4.7807752
  71.7040969  41.2987743  -5.1961452  71.1516327  41.7491893  -3.8605598
  74.7095473  42.2282214   1.2976526  74.4185339  43.1327845   1.1823193
  75.3452458  42.2698741   2.0120596  75.6351680  39.6059062  -2.1122114
  76.2315252  39.3815085  -2.8265151  75.6926652  38.8643808  -1.5096666
  83.1753839  29.7131083  -1.1069593  82.8437164  30.5826494  -1.3308378
  82.5799452  29.3967367  -0.4275562  79.6685358  41.9143629  -1.7073680
  79.3686081  42.8168668  -1.8157873  79.3236418  41.6475812  -0.8552527
  83.0682502  34.4326169  -4.0276243  82.1599379  34.3641578  -4.3217482
  83.0170098  34.9098114  -3.1994417  74.6506138  48.6787950  -8.7402712
  74.5730168  49.6295775  -8.6614232  74.0467782  48.3333822  -8.0827786
  77.1423368  35.8515815   3.9158655  76.3656702  36.4109735   3.9061519
  77.7813931  36.3372598   4.4373525  84.9344148  32.6342608  -2.2498369
  84.2918529  32.9275141  -2.8958574  84.4299077  32.5195528  -1.4445172
  75.3969740  38.6601268   3.4776622  76.1384425  39.1986312   3.2011445
  74.6906726  39.2867557   3.6348174  80.8725080  40.8030409   2.0748783
  81.2808436  40.3612819   1.3303416  80.1502341  40.2283036   2.3282976
  77.2256150  35.7403016  -0.5517660  78.0717345  36.1642429  -0.4083011
  77.1654788  35.0836640   0.1420903  81.1953894  41.3631599  -4.1698928
  80.5662757  41.5277314  -4.8722860  80.8079557  41.7773209  -3.3987964
  85.0743126  42.2986037  -6.8154564  84.3894164  42.6784939  -7.3657531
  85.1586976  42.9081364  -6.0822616  80.3755595  33.4007384   1.1063514
  80.1316527  34.1549445   0.5697790  80.6515526  33.7792732   1.9410761
  82.3294058  39.9445996  -0.2159221  82.5410953  40.5877756  -0.8924839
  82.2823806  39.1108313  -0.6837291  76.7481856  41.1006008  -6.9048843
  77.2120202  41.3793711  -7.6944220  76.4838654  40.1989452  -7.0875752
  73.6405937  40.6477489  -3.9669080  74.2107294  41.0764757  -4.6051595
  74.2314049  40.3660074  -3.2684894  74.1331104  35.8140917   4.2791932
  73.5029764  36.4957197   4.5127329  74.0267192  35.7023998   3.3345070
  83.4439886  42.8217952  -2.0436863  84.2657330  42.4198139  -2.3254182
  83.4402289  42.7186186  -1.0920747  77.2096489  42.3701995   0.1123847
  77.2740922  42.8322402   0.9482019  76.5007413  41.7399360   0.2406157
  73.4111847  30.1161682   6.6417183  73.0178792  29.5627881   7.3164827
  74.2277987  30.4272261   7.0323700  72.1868789  44.6711297  -7.3646494
  72.3635417  45.5929262  -7.5525510  72.9825623  44.3569716  -6.9352114
  76.3279808  31.5319561   4.2337439  77.0689521  32.1326715   4.1541902
  76.5597730  30.7897199   3.6755482  71.4721146  36.7175929   2.5115669
  71.3574661  35.8161186   2.8122768  70.6165663  36.9639626   2.1600486
  78.5512983  44.6593669   4.1103170  78.1076838  43.8730048   3.7924074
  79.2130197  44.8472820   3.4447060  73.3100105  46.1889471  -1.3636152
  73.8607530  46.0606534  -2.1359158  72.4711580  46.4884360  -1.7141259
  80.6494221  44.9396469   2.1384571  80.6312697  45.7605350   1.6464840
  81.5714141  44.8150544   2.3634712  77.1067276  42.4540598   2.9808079
  77.6395612  41.6928887   2.7507387  76.5781357  42.1614250   3.7232234
  83.4512834  39.7775611  -4.3906062  82.7936509  40.4674873  -4.3025934
  84.2553234  40.1672043  -4.0472076  82.2618293  38.1319984  -6.3402121
  82.7750175  38.7649976  -5.8380411  82.9119517  37.5321180  -6.7058761
  78.7399124  35.6069440  -4.0943780  77.8221685  35.8284387  -4.2522092
  79.1559268  35.6815750  -4.9532073  83.0280089  43.1125986  -8.2122978
  82.5742416  42.2716895  -8.1557788  82.3974056  43.7487384  -7.8748198
  81.4713029  44.9502482  -7.2773160  81.7636003  45.5107539  -7.9960794
  81.9811649  45.2431043  -6.5220001  76.4346654  45.7282833  -6.1879707
  76.3922833  45.9543680  -7.1171175  77.3509353  45.4946208  -6.0393905
  79.8812288  36.1966901   0.7100923  80.2361675  36.4238374   1.5695388
  80.5284419  36.5285278   0.0878178  85.6379404  41.3861864  -3.5738477
  86.0715911  41.2937153  -2.7255423  86.3510985  41.3619364  -4.2118461
  74.5512455  42.6045862  -6.3917744  75.3453053  42.1096183  -6.5935169
  73.8404147  42.0763726  -6.7550038  79.3707299  44.9863958  -2.0405376
  79.4244321  45.5554894  -1.2727660  78.5022080  45.1565843  -2.4051339
  72.2505692  34.6881514  -0.5580925  72.9228746  34.4798876  -1.2068276
  71.4235479  34.4903600  -0.9975693  86.4994954  41.4285564  -1.0405591
  86.6930844  42.3331375  -0.7946317  86.3995572  40.9692984  -0.2067006
  78.1531264  31.3143455   1.4584736  77.5059179  32.0133405   1.3649212
  78.9232280  31.7479599   1.8260984  81.5610062  41.5792307   4.5335289
  81.4095569  41.3502859   3.6165373  81.5514742  42.5362909   4.5466634
  78.3295399  39.1524220  -0.4818444  79.2587459  39.3035380  -0.6549477
  77.9086429  39.2408241  -1.3369798  77.1283731  43.1774884  -2.7119907
  76.9894816  42.8093669  -1.8393969  76.3398327  43.6922524  -2.8835949
  77.7231883  48.2783981 -11.3694370  77.8983638  47.8072024 -10.5548748
  77.0364671  48.9049747 -11.1413110  78.6788946  42.5556487  -5.3231069
  78.3438778  42.5157257  -4.4273419  78.1792891  41.8901203  -5.7960659
  72.6533190  37.9624117   0.2021512  72.5152988  37.2304356   0.8033051
  73.5638113  37.8733017  -0.0794300  75.2815490  37.6744076  -0.3094808
  75.9915109  37.0337269  -0.3508190  75.2384798  37.9256971   0.6131373
  83.2702269  44.6111430   2.6111771  83.2114815  43.9270650   1.9442354
  83.6721787  45.3530420   2.1592397  73.9944424  34.6609294   1.5100831
  73.4581781  34.2100033   2.1622428  73.4061133  34.7955203   0.7671296
  72.2892968  51.4273344  -4.5954510  72.5289566  52.0591868  -3.9175492
  71.4462164  51.0761384  -4.3089151  83.2719676  42.5751014   0.8425751
  82.3846455  42.2376935   0.9652150  83.8418227  41.8434045   1.0794516
  76.8020830  47.2352466  -2.1913006  76.7291001  48.0407438  -1.6793702
  76.3598223  47.4344432  -3.0164985  76.5910609  46.4724236  -8.6810185
  75.8078131  47.0145916  -8.5871960  77.2903354  46.9898216  -8.2815943
  79.2619513  47.1339300  -0.0354847  79.9747485  47.7686765  -0.1078946
  78.7709542  47.2303166  -0.8514846  80.9837040  41.0390553  -8.4637556
  80.0493319  41.1592015  -8.6332851  81.1613709  40.1363020  -8.7277546
  74.3131427  44.8833744   0.7850723  75.0140886  45.5170227   0.9380118
  73.8426542  45.2248475   0.0246363  82.1132713  37.4378351  -1.3896726
  81.4604163  37.6854258  -2.0444274  82.4913093  36.6242489  -1.7234249
  79.0739887  47.4738044  -7.2868556  79.2562281  46.6559700  -6.8240804
  79.8972873  47.6905736  -7.7243666  79.4082052  46.4006229 -10.0253508
  79.9369818  45.8898684 -10.6383345  79.6710272  46.0848760  -9.1607975
  78.1620286  38.1798162   5.0969311  77.4860923  38.0792291   5.7671686
  78.9847920  38.0237376   5.5605308  69.9099145  44.4170099  -2.2818174
  70.4952582  43.6713786  -2.1490270  69.7123983  44.7274055  -1.3981510
  72.7637800  47.4521346  -7.2655732  72.0948175  47.9367474  -7.7491692
  72.6250670  47.6990566  -6.3512353  76.9043069  49.4865089  -0.6673073
  77.4561377  49.6496711   0.0976012  77.2449262  50.0769527  -1.3393048
  71.3559834  33.9063372   3.5821846  71.9831873  33.5240449   4.1959370
  70.4987753  33.6877574   3.9477538  81.7553943  44.3126347   5.1875581
  82.2993847  44.9256305   4.6930536  81.1740788  44.8705925   5.7042594
  80.0411456  47.4347065  -3.6809391  79.9162595  46.6336805  -4.1898446
  80.6990547  47.9293258  -4.1695421  82.1046364  45.2356085  -2.0529841
  81.1576700  45.1161436  -2.1251514  82.4529137  44.3478583  -1.9703580
  74.4645938  31.1250224   1.7708401  74.9880339  31.3712521   2.5334710
  74.2458271  31.9570259   1.3511538  79.1092798  45.0308801  -5.8525489
  78.9617760  44.1025509  -5.6717919  79.9346291  45.0528892  -6.3368414
  82.7126919  45.8537360  -4.7660616  83.6373467  45.6480221  -4.9036165
  82.5442223  45.6053761  -3.8571275  75.6698483  32.0663919  -0.5441929
  75.3295303  31.2671732  -0.1421249  74.9637489  32.3665630  -1.1165095
  77.5576047  33.2672240  -2.1888610  77.2993825  34.1889311  -2.1904280
  77.0261087  32.8702675  -1.4988146  82.5022236  46.3723027  -9.4098525
  82.6759113  45.8069450 -10.1624672  82.9951127  47.1723922  -9.5919035
  68.3199195  38.3837697  -1.3434966  67.7752663  39.1597505  -1.2114691
  69.1978545  38.7308501  -1.5015844  69.1065217  37.5107593   1.5495191
  68.3646953  37.6590228   2.1359822  68.7857962  37.7715858   0.6861941
  77.0508880  47.0523571   1.3475581  77.3596006  46.8072718   2.2198281
  77.8484362  47.2570210   0.8594451  77.0729492  49.2061481  -6.4219042
  76.6334482  48.7137859  -5.7286186  77.8237609  48.6634448  -6.6626967
  69.5521831  45.3973022  -6.4194414  70.3779851  45.0976793  -6.7995771
  69.2015883  44.6280644  -5.9704626  74.5203364  44.7499490  -4.3496741
  73.8983373  44.0870195  -4.6494513  75.1908231  44.7760622  -5.0323093
  74.5927892  33.2281278   5.2435765  74.6416047  34.1043401   4.8613535
  75.1350406  32.6858671   4.6707409  85.0782737  43.7722401   4.5236902
  84.2878281  43.7546540   3.9841402  84.8416092  44.3110695   5.2785939
  85.1980612  40.6214867   1.8369631  85.2478617  40.4564875   2.7785154
  85.0894536  39.7542126   1.4467512  82.4884375  36.6045795   3.1528938
  83.3894237  36.4652260   2.8612935  82.5632349  36.7700250   4.0927115
  76.8227180  33.9812650   1.9982124  75.9530489  34.2746216   1.7264713
  77.0586660  34.5653095   2.7189388  86.6998809  43.0411809   2.0811653
  86.4083617  43.4041790   2.9175113  86.0870940  42.3278817   1.9024985
  84.9485997  38.1644424   0.5491711  85.4240119  38.3572070  -0.2589438
  84.0251563  38.2203609   0.3035094  79.5266214  30.1992267  -0.4852456
  80.0448158  30.9353294  -0.8105967  79.1721347  30.5056260   0.3494304
  83.6487666  35.0410184  -1.2179984  84.6005089  35.1408281  -1.1967760
  83.4791117  34.2488452  -0.7081900  81.6702046  32.1265767  -1.0320583
  81.0751978  32.4070780  -1.7274094  81.3851743  32.6159668  -0.2603842
  86.1275744  38.2616303  -2.1037684  86.0952064  37.3232304  -1.9178000
  86.7376368  38.3400340  -2.8371859  77.8497768  41.1830102   5.3990177
  78.7700777  41.3608701   5.5930223  77.8147351  40.2386148   5.2469876
  70.8459840  39.0931137  -1.9587042  71.0645850  40.0248245  -1.9399008
  71.2585614  38.7339112  -1.1732238  75.7187705  34.6664343   7.4315707
  75.6184432  35.6158700   7.3627798  75.5009247  34.3382582   6.5591777
  75.5818975  38.0961482   6.2480769  75.0986057  38.8961842   6.4544658
  75.6679915  38.1069427   5.2948213  71.5092313  41.9866016  -1.7150798
  72.4635567  41.9549959  -1.7820866  71.3104837  41.5256640  -0.9000572
  72.0991695  40.5567132   0.8520000  72.9184584  41.0511211   0.8754837
  72.3728503  39.6399101   0.8237567  69.8642542  47.5285636  -4.6980600
  69.7297010  46.7686037  -5.2642602  69.4474604  48.2526536  -5.1651811
  73.0211668  48.4254953  -4.4862157  72.9044052  49.3700385  -4.5883467
  72.2004114  48.1228515  -4.0976358  67.3526609  34.8905266   1.5512197
  67.9985473  34.3804220   2.0399422  67.1443760  35.6273948   2.1255622
  79.8780002  41.9586114   7.0504338  80.7471161  42.1326766   6.6890973
  79.3986753  42.7780531   6.9280067  74.0466182  49.0783215  -1.2706229
  74.9493428  49.1106825  -0.9539734  73.8203552  48.1483666  -1.2559893
  75.8019784  47.8314201  -4.6096150  74.8515415  47.8316063  -4.7231778
  76.1052270  47.0846936  -5.1260115  71.6924100  32.0372883   5.6487211
  72.5555562  31.6809688   5.8590536  71.1189511  31.6986778   6.3362616
  91.5372477  53.6674740  -3.5450388  92.1750887  53.5481487  -4.2487048
  91.4193320  54.6155584  -3.4862436  88.3462184  53.6202168  -3.6088863
  88.0080695  53.5043233  -4.4968328  89.2151952  53.2193333  -3.6287857
  88.8281967  54.7737020   2.3497342  88.8170607  54.3789818   1.4777846
  88.9902606  54.0403092   2.9431114  81.7513431  56.9688836  -4.7807752
  82.5434723  56.6279661  -5.1961452  81.9910081  57.0783811  -3.8605598
  85.5489228  57.5574131   1.2976526  85.2579094  58.4619762   1.1823193
  86.1846212  57.5990659   2.0120596  86.4745435  54.9350980  -2.1122114
  87.0709007  54.7107002  -2.8265151  86.5320406  54.1935725  -1.5096666
  91.0913746  51.3926194  -6.4697180  91.8776835  50.9745617  -6.8206763
  91.3552450  52.2972286  -6.3015531  94.0147593  45.0423001  -1.1069593
  93.6830918  45.9118412  -1.3308378  93.4193207  44.7259285  -0.4275562
  90.5079113  57.2435547  -1.7073680  90.2079836  58.1460586  -1.8157873
  90.1630172  56.9767730  -0.8552527  83.9591594  53.6949344  -5.6736975
  83.0342091  53.5625558  -5.4659284  84.2076007  54.4743563  -5.1767033
  93.9076257  49.7618087  -4.0276243  92.9993134  49.6933496  -4.3217482
  93.8563852  50.2390032  -3.1994417  81.3200405  53.3382617  -4.8393186
  81.4492786  53.5917096  -3.9253775  80.6397857  53.9310325  -5.1588531
  87.9817122  51.1807733   3.9158655  87.2050456  51.7401653   3.9061519
  88.6207685  51.6664516   4.4373525  95.7737903  47.9634526  -2.2498369
  95.1312283  48.2567059  -2.8958574  95.2692831  47.8487446  -1.4445172
  86.2363495  53.9893186   3.4776622  86.9778179  54.5278230   3.2011445
  85.5300480  54.6159475   3.6348174  91.7118834  56.1322327   2.0748783
  92.1202190  55.6904737   1.3303416  90.9896096  55.5574954   2.3282976
  88.0649904  51.0694933  -0.5517660  88.9111100  51.4934347  -0.4083011
  88.0048542  50.4128558   0.1420903  91.2149350  48.7299302   1.1063514
  90.9710282  49.4841362   0.5697790  91.4909280  49.1084649   1.9410761
  93.1687812  55.2737914  -0.2159221  93.3804708  55.9169674  -0.8924839
  93.1217561  54.4400231  -0.6837291  90.7714041  47.8855735  -3.3122648
  89.9098520  48.1836988  -3.0205911  90.7976476  48.1026134  -4.2441616
  84.4799692  55.9769407  -3.9669080  85.0501049  56.4056675  -4.6051595
  85.0707804  55.6951991  -3.2684894  84.9724858  51.1432834   4.2791932
  84.3423519  51.8249115   4.5127329  84.8660946  51.0315916   3.3345070
  80.2669831  50.8104630  -4.7942144  79.4768885  51.0662159  -5.2702033
  80.7581078  51.6252968  -4.6890104  82.2184576  51.1749210  -7.8358667
  81.4215739  51.2867904  -7.3175172  81.9910168  51.5135862  -8.7017777
  88.0490244  57.6993913   0.1123847  88.1134676  58.1614320   0.9482019
  87.3401168  57.0691278   0.2406157  78.5507534  51.0635121  -2.3627153
  78.8015572  51.9482131  -2.0969577  79.0867082  50.8839722  -3.1352061
  84.2505601  45.4453600   6.6417183  83.8572547  44.8919799   7.3164827
  85.0671741  45.7564179   7.0323700  87.1673562  46.8611479   4.2337439
  87.9083275  47.4618632   4.1541902  87.3991485  46.1189117   3.6755482
  82.3114900  52.0467846   2.5115669  82.1968415  51.1453104   2.8122768
  81.4559418  52.2931543   2.1600486  89.3906738  59.9885587   4.1103170
  88.9470592  59.2021965   3.7924074  90.0523951  60.1764737   3.4447060
  84.1493859  61.5181388  -1.3636152  84.7001284  61.3898452  -2.1359158
  83.3105335  61.8176277  -1.7141259  91.4887976  60.2688387   2.1384571
  91.4706451  61.0897268   1.6464840  92.4107896  60.1442462   2.3634712
  87.9461030  57.7832516   2.9808079  88.4789367  57.0220804   2.7507387
  87.4175111  57.4906168   3.7232234  91.1130725  42.8892582  -1.4898279
  90.7694994  43.7794224  -1.5659168  91.4809688  42.6994240  -2.3528694
  79.1816576  55.2126113  -8.6709677  80.0191798  55.6223121  -8.8875969
  79.3594843  54.2725555  -8.7009483  90.1927265  45.2597237  -3.5249046
  89.6892061  45.2227372  -4.3381240  90.4857872  46.1689980  -3.4652389
  86.4370151  45.3435967  -4.5182864  87.3023148  45.1478776  -4.8776974
  86.5047660  45.1146319  -3.5913507  84.0432470  47.5738175  -7.1466497
  84.6176222  47.3513356  -7.8793304  84.6303453  47.6426869  -6.3937896
  89.5792878  50.9361357  -4.0943780  88.6615440  51.1576304  -4.2522092
  89.9953022  51.0107668  -4.9532073  79.2042747  52.5516828  -7.9998943
  79.0067147  51.9586189  -8.7247877  78.6489411  52.2469038  -7.2823005
  87.1839470  52.4439934  -5.8804350  87.2388080  51.4913771  -5.9561874
  86.3730672  52.5999373  -5.3963052  85.1231830  51.0616994  -8.1213971
  84.3099696  51.3611165  -7.7148779  85.6190825  50.6672683  -7.4039489
  90.7206042  51.5258819   0.7100923  91.0755430  51.7530292   1.5695388
  91.3678173  51.8577195   0.0878178  84.6145905  48.6335350  -2.5052736
  85.2545284  48.4924109  -3.2029773  83.7823436  48.3469863  -2.8814134
  90.2101054  60.3155876  -2.0405376  90.2638076  60.8846812  -1.2727660
  89.3415835  60.4857761  -2.4051339  81.6174522  48.6035675  -7.7279750
  81.8781339  49.5181008  -7.8370589  82.4391694  48.1360117  -7.5783137
  83.0899447  50.0173432  -0.5580925  83.7622500  49.8090794  -1.2068276
  82.2629233  49.8195518  -0.9975693  88.9925019  46.6435373   1.4584736
  88.3452934  47.3425322   1.3649212  89.7626034  47.0771517   1.8260984
  92.4003817  56.9084225   4.5335289  92.2489323  56.6794777   3.6165373
  92.3908496  57.8654826   4.5466634  89.1689153  54.4816138  -0.4818444
  90.0981213  54.6327297  -0.6549477  88.7480183  54.5700158  -1.3369798
  87.9677485  58.5066802  -2.7119907  87.8288571  58.1385586  -1.8393969
  87.1792081  59.0214441  -2.8835949  83.4926944  53.2916035   0.2021512
  83.3546742  52.5596274   0.8033051  84.4031868  53.2024935  -0.0794300
  86.1209245  53.0035994  -0.3094808  86.8308863  52.3629186  -0.3508190
  86.0778553  53.2548889   0.6131373  94.1096023  59.9403347   2.6111771
  94.0508570  59.2562568   1.9442354  94.5115542  60.6822337   2.1592397
  84.8338179  49.9901212   1.5100831  84.2975536  49.5391950   2.1622428
  84.2454887  50.1247121   0.7671296  94.1113431  57.9042931   0.8425751
  93.2240210  57.5668853   0.9652150  94.6811982  57.1725963   1.0794516
  75.7642578  54.2367023  -5.8331198  76.4513618  53.9228753  -6.4210183
  75.6090707  55.1408388  -6.1063947  80.5677300  49.1257220  -1.4046174
  80.4835489  48.5182889  -2.1395764  79.7460006  49.6166238  -1.4036678
  90.1013268  62.4631218  -0.0354847  90.8141240  63.0978683  -0.1078946
  89.6103296  62.5595084  -0.8514846  87.3235983  49.7528166  -6.3104295
  86.9533770  49.1999207  -5.6223389  87.8195075  49.1486300  -6.8629295
  85.1525181  60.2125661   0.7850723  85.8534641  60.8462144   0.9380118
  84.6820296  60.5540393   0.0246363  92.9526467  52.7670269  -1.3896726
  92.2997917  53.0146176  -2.0444274  93.3306847  51.9534407  -1.7234249
  89.0014040  53.5090080   5.0969311  88.3254677  53.4084209   5.7671686
  89.8241674  53.3529293   5.5605308  80.7492899  59.7462016  -2.2818174
  81.3346336  59.0005704  -2.1490270  80.5517738  60.0565973  -1.3981510
  75.3410554  52.3167616  -3.5613731  75.3794654  51.7831207  -2.7676613
  74.8350847  51.7902822  -4.1802754  82.7201316  47.1632157  -0.0651189
  82.7842643  48.0246988  -0.4773791  82.6568437  46.5506159  -0.7978830
  82.1953589  49.2355290   3.5821846  82.8225628  48.8532367   4.1959370
  81.3381508  49.0169491   3.9477538  92.5947697  59.6418265   5.1875581
  93.1387601  60.2548223   4.6930536  92.0134542  60.1997843   5.7042594
  78.9719132  51.0431719 -10.4859799  79.2672573  50.1342397 -10.5392746
  78.0707167  51.0219458 -10.8078797  82.5013379  49.1187715  -4.5032251
  81.7799964  49.7323683  -4.6424778  83.2906634  49.6545480  -4.5815605
  85.3039692  46.4542142   1.7708401  85.8274094  46.7004438   2.5334710
  85.0852025  47.2862177   1.3511538  80.7006973  48.7245816 -10.3620474
  80.3719679  47.8443195 -10.5445368  81.0546344  48.6693485  -9.4744085
  83.8148796  49.0118786  -9.9944997  84.1544869  49.5404707 -10.7166388
  84.2620917  49.3499192  -9.2186430  86.5092237  47.3955837  -0.5441929
  86.1689058  46.5963650  -0.1421249  85.8031243  47.6957548  -1.1165095
  87.1608709  44.4805149  -2.0914606  87.9834778  44.0065627  -2.2135715
  87.4046773  45.2595633  -1.5915919  84.6847288  51.1724270  -4.2822627
  84.5391868  51.4864573  -3.3898345  84.2072491  51.7909170  -4.8351728
  86.5443671  48.1626818  -4.2341737  86.5305239  47.2667911  -4.5709439
  87.2616099  48.1697482  -3.6003451  88.3969801  48.5964158  -2.1888610
  88.1387579  49.5181229  -2.1904280  87.8654842  48.1994593  -1.4988146
  79.1592950  53.7129614  -1.3434966  78.6146418  54.4889422  -1.2114691
  80.0372300  54.0600419  -1.5015844  85.9480567  47.0441198  -8.9654167
  86.0696478  46.1157844  -8.7663280  85.6582609  47.0579884  -9.8775852
  79.9458972  52.8399511   1.5495191  79.2040708  52.9882146   2.1359822
  79.6251716  53.1007776   0.6861941  87.8902634  62.3815489   1.3475581
  88.1989761  62.1364636   2.2198281  88.6878116  62.5862127   0.8594451
  78.5924190  58.6451266  -5.4605481  77.7556099  58.2173440  -5.6421479
  78.5647836  58.8383709  -4.5234689  85.4321646  48.5573196   5.2435765
  85.4809802  49.4335318   4.8613535  85.9744160  48.0150589   4.6707409
  95.9176492  59.1014319   4.5236902  95.1272035  59.0838458   3.9841402
  95.6809846  59.6402612   5.2785939  96.0374367  55.9506785   1.8369631
  96.0872372  55.7856793   2.7785154  95.9288290  55.0834044   1.4467512
  93.3278129  51.9337713   3.1528938  94.2287992  51.7944178   2.8612935
  93.4026104  52.0992168   4.0927115  87.6620935  49.3104568   1.9982124
  86.7924244  49.6038134   1.7264713  87.8980415  49.8945013   2.7189388
  97.5392564  58.3703727   2.0811653  97.2477372  58.7333707   2.9175113
  96.9264695  57.6570735   1.9024985  95.7879752  53.4936341   0.5491711
  96.2633873  53.6863988  -0.2589438  94.8645317  53.5495527   0.3035094
  90.3659968  45.5284185  -0.4852456  90.8841912  46.2645212  -0.8105967
  90.0115101  45.8348178   0.3494304  94.4881421  50.3702101  -1.2179984
  95.4398844  50.4700199  -1.1967760  94.3184871  49.5780370  -0.7081900
  92.5095800  47.4557685  -1.0320583  91.9145732  47.7362697  -1.7274094
  92.2245497  47.9451586  -0.2603842  96.9669499  53.5908221  -2.1037684
  96.9345819  52.6524222  -1.9178000  97.5770122  53.6692258  -2.8371859
  88.6891522  56.5122020   5.3990177  89.6094532  56.6900619   5.5930223
  88.6541105  55.5678066   5.2469876  77.9073687  51.7060614  -5.6756549
  77.5876471  50.8525922  -5.9682175  77.3607115  51.9209192  -4.9198581
  81.6853595  54.4223055  -1.9587042  81.9039604  55.3540163  -1.9399008
  82.0979368  54.0631029  -1.1732238  86.5581460  49.9956261   7.4315707
  86.4578187  50.9450618   7.3627798  86.3403002  49.6674499   6.5591777
  77.7761947  55.3263525  -3.7063427  77.0825418  54.9117478  -4.2193473
  78.5234938  55.3684062  -4.3030008  86.4212730  53.4253399   6.2480769
  85.9379812  54.2253760   6.4544658  86.5073669  53.4361344   5.2948213
  79.6898690  55.2581779  -5.8297412  79.6669378  55.3569466  -6.7815529
  79.9999326  56.1046930  -5.5080246  82.3486067  57.3157934  -1.7150798
  83.3029321  57.2841876  -1.7820866  82.1498591  56.8548558  -0.9000572
  82.9385450  55.8859050   0.8520000  83.7578339  56.3803129   0.8754837
  83.2122257  54.9691018   0.8237567  78.1920364  50.2197184   1.5512197
  78.8379227  49.7096138   2.0399422  77.9837515  50.9565866   2.1255622
  90.7173756  57.2878032   7.0504338  91.5864916  57.4618684   6.6890973
  90.2380508  58.1072448   6.9280067  84.8859936  64.4075133  -1.2706229
  85.7887183  64.4398743  -0.9539734  84.6597306  63.4775583  -1.2559893
  82.5317855  47.3664801   5.6487211  83.3949316  47.0101606   5.8590536
  81.9583265  47.0278696   6.3362616  95.0899356  60.7745518   6.6417183
  94.6966301  60.2211716   7.3164827  95.9065496  61.0856096   7.0323700
  98.0067317  62.1903397   4.2337439  98.7477030  62.7910550   4.1541902
  98.2385239  61.4481035   3.6755482  93.0347343  64.5647207   3.5821846
  93.6619382  64.1824285   4.1959370  92.1775262  64.3461409   3.9477538
  96.2715401  63.8865113   5.2435765  96.3203556  64.7627236   4.8613535
  96.8137915  63.3442506   4.6707409  97.3975214  65.3248178   7.4315707
  97.2971941  66.2742535   7.3627798  97.1796756  64.9966417   6.5591777
  89.0314118  65.5489102   1.5512197  89.6772982  65.0388056   2.0399422
  88.8231269  66.2857783   2.1255622  93.3711609  62.6956719   5.6487211
  94.2343071  62.3393524   5.8590536  92.7977020  62.3570614   6.3362616
   4.8195835 100.4824376  73.9576265   4.0659544  99.9131774  73.8020270
   4.9543377 100.4487041  74.9046900   1.6411583 100.4527126  71.8619932
   2.0842729  99.7034452  71.4639056   0.7638094 100.4437263  71.4793664
   1.1844448 101.9232365  74.2542380   2.0191339 102.3622169  74.4179940
   1.3203577 101.4471018  73.4350626   5.2302251 100.6399986  76.6896510
   5.9605639 100.3785274  77.2504213   4.6209196  99.9028708  76.7298578
   3.3117548  98.7807849  77.2870961   2.5850711  98.6463814  76.6787452
   2.8964835  99.0884677  78.0927679   0.9295343  95.0019701  74.6404392
   1.5239833  94.7615437  73.9297701   1.0021926  94.2826832  75.2677929
   3.2366415  98.3085902  73.4147814   2.6765973  98.3779091  74.1879376
   2.6309919  98.1326887  72.6947310   4.3980682 104.2060258  78.1629878
   4.0544951 105.0961900  78.0868989   4.7659644 104.0161916  77.2999463
   6.1968347 103.4653817  73.2647616   6.5027224 102.6051181  72.9773531
   6.9220952 104.0571438  73.0646610   6.4669965 105.8948053  75.7631537
   5.5533045 106.1252280  75.9313744   6.8963067 105.9786497  76.6145569
   3.9022519 103.2652143  74.6876598   4.1824273 102.5975332  75.3137025
   4.6873126 103.4581239  74.1751262   8.0624671 105.4427956  73.5544569
   7.8649492 105.1343044  74.4387901   8.6724376 106.1689595  73.6842499
   3.8198317 105.3236863  71.3041100   4.3729356 105.7432316  71.9631123
   4.0568404 104.3972611  71.3464056   3.8126050 102.3947681  71.2110187
   3.0458446 101.8406168  71.3566869   4.2236755 102.4669550  72.0724339
   4.8195837  77.4886499  60.6821572   4.0659545  76.9193897  60.5265576
   4.9543378  77.4549163  61.6292207   1.6411585  77.4589249  58.5865239
   2.0842731  76.7096574  58.1884362   0.7638095  77.4499385  58.2038971
   1.1844449  78.9294487  60.9787686   2.0191341  79.3684291  61.1425247
   1.3203578  78.4533141  60.1595932   5.2302252  77.6462109  63.4141816
   5.9605640  77.3847397  63.9749520   4.6209197  76.9090831  63.4543884
   3.3117549  75.7869971  64.0116267   2.5850713  75.6525936  63.4032759
   2.8964836  76.0946800  64.8172986   0.9295344  72.0081824  61.3649699
   1.5239835  71.7677560  60.6543007   1.0021928  71.2888954  61.9923235
   3.2366417  75.3148024  60.1393120   2.6765975  75.3841214  60.9124682
   2.6309920  75.1389009  59.4192617   4.8222435  91.9904538  62.8323076
   5.4600845  91.8711286  62.1286416   4.7043278  92.9385382  62.8911028
   1.6312141  91.9431967  62.7684601   1.2930653  91.8273031  61.8805136
   2.5001910  91.5423132  62.7485607   2.1131924  93.0966818  68.7270806
   2.1020565  92.7019617  67.8551310   2.2752564  92.3632891  69.3204578
   3.0698516  97.4638411  54.0695957   2.4186496  98.0492491  53.6829970
   3.8642879  97.9944606  54.1290994   4.3763704  89.7155992  59.9076284
   5.1626793  89.2975415  59.5566701   4.6402408  90.6202084  60.0757932
   4.5473781  95.1528843  54.6064941   3.9119614  95.2263469  55.3185846
   4.2171187  95.7422441  53.9284020   9.7772131  89.6531225  60.8109263
  10.5097303  89.0830442  61.0447092   9.0211486  89.2652826  61.2515768
   1.3948250  92.0758467  58.0072605   1.0306458  91.5489088  58.7185526
   2.2515366  91.6856936  57.8339090   7.2997551  83.3652800  65.2703871
   6.9680876  84.2348211  65.0465086   6.7043164  83.0489084  65.9497902
   1.0353737  87.1048367  53.0033954   1.2028140  87.9728603  53.3704425
   0.8450906  87.2675648  52.0795243   3.7929071  95.5665346  64.6699784
   3.4929794  96.4690384  64.5615591   3.4480130  95.2997529  65.5220937
   7.1926214  88.0847886  62.3497221   6.2843092  88.0163294  62.0555982
   7.1413810  88.5619831  63.1779047   1.2667080  89.5037531  70.2932119
   0.4900414  90.0631451  70.2834983   1.9057643  89.9894314  70.8146989
   9.0587861  86.2864324  64.1275095   8.4162241  86.5796857  63.4814890
   8.5542789  86.1717244  64.9328292   6.7128024  90.0327497  54.8160954
   7.6245881  90.2654884  54.6408652   6.2037671  90.6164542  54.2536033
   4.9968792  94.4552125  68.4522247   5.4052148  94.0134536  67.7076879
   4.2746054  93.8804753  68.7056440   1.3499862  89.3924732  65.8255804
   2.1961057  89.8164145  65.9690453   1.2898500  88.7358356  66.5194367
   5.3197607  95.0153316  62.2074536   4.6906469  95.1799030  61.5050604
   4.9323269  95.4294925  62.9785500   9.1986839  95.9507754  59.5618900
   8.5137877  96.3306655  59.0115933   9.2830688  96.5603080  60.2950847
   4.4999307  87.0529100  67.4836978   4.2560239  87.8071161  66.9471253
   4.7759238  87.4314448  68.3184225   6.4537770  93.5967713  66.1614243
   6.6654665  94.2399473  65.4848624   6.4067518  92.7630029  65.6936173
   4.0563999  86.2085533  63.0650815   3.1948478  86.5066787  63.3567553
   4.0826434  86.4255932  62.1331848   0.8725569  94.7527724  59.4724621
   1.3363914  95.0315427  58.6829243   0.6082367  93.8511168  59.2897712
   7.5683598  96.4739668  64.3336601   8.3901042  96.0719855  64.0519282
   7.5646001  96.3707902  65.2852716   1.3340202  96.0223711  66.4897311
   1.3984634  96.4844119  67.3255483   0.6251126  95.3921076  66.6179621
  15.6589591  92.8178417  60.6821572  14.9053300  92.2485815  60.5265576
  15.7937132  92.7841081  61.6292207   1.0488219  97.6891819  56.3576291
   0.9133894  98.5343355  56.7861139   1.5898032  97.8911097  55.5942225
   2.6756696  98.3115385  70.4876633   2.2320550  97.5251764  70.1697538
   3.3373909  98.4994536  69.8220524   4.7737934  98.5918185  68.5158035
   4.7556409  99.4127066  68.0238304   5.6957854  98.4672261  68.7408176
   1.2310988  96.1062315  69.3581543   1.7639325  95.3450603  69.1280851
   0.7025069  95.8135967  70.1005698   4.3980683  81.2122381  64.8875185
   4.0544952  82.1024022  64.8114295   4.7659645  81.0224038  64.0244770
   4.3630966  91.2030992  53.3947620   3.8477589  91.9735596  53.6336007
   4.0908274  90.5296128  54.0180681   1.9478077  86.0480693  58.4532858
   1.0919673  85.6587543  58.2738497   2.3605028  86.1272653  57.5932644
   3.4777223  83.5827036  62.8524418   2.9742019  83.5457171  62.0392223
   3.7707830  84.4919779  62.9121075   9.3365240  93.9563347  55.3300793
   8.5594682  93.6174506  54.8855955  10.0156721  93.9615970  54.6555758
   4.1517269  89.0758084  55.2207401   3.8467404  89.3904233  56.0717544
   5.1047711  89.1539504  55.2634734   2.5963701  95.2348307  56.8700355
   2.0685062  94.5001067  56.5573593   2.0951203  96.0122984  56.6240323
   7.5756547  93.4297328  61.9867401   6.9180221  94.1196589  62.0747530
   8.3796946  93.8193760  62.3301388   6.3862005  91.7841700  60.0371343
   6.8993887  92.4171692  60.5393053   7.0363229  91.1842896  59.6714703
   3.6484380 101.7626025  52.7932014   2.9746078 102.0657721  53.4016972
   4.0350202 102.5655105  52.4437471   2.8642836  89.2591156  62.2829684
   1.9465398  89.4806103  62.1251372   3.2802980  89.3337466  61.4241391
   3.6477884  90.6582572  57.4132364   4.3949703  91.1703969  57.1039486
   3.9169474  90.3366624  58.2736757   1.9204534  93.1541112  54.3959318
   1.0115753  92.8700145  54.4931788   1.9499618  93.5740191  53.5362625
   7.1523802  96.7647702  58.1650486   6.6986129  95.9238612  58.2215676
   6.5217768  97.4009100  58.5025266   6.0956721  87.6939688  59.3951153
   5.3579478  87.1817074  59.7261396   6.3483495  87.2540070  58.5834430
   5.5956741  98.6024199  59.1000304   5.8879715  99.1629256  58.3812670
   6.1055361  98.8952760  59.8553463   6.1968348  80.4715940  59.9892922
   6.5027225  79.6113303  59.7018838   6.9220953  81.0633560  59.7891916
   1.6180622  94.6949856  51.7347397   1.1800052  93.9785715  51.2753034
   2.3591063  94.9225971  51.1732488   0.5590366  99.3804550  60.1893757
   0.5166545  99.6065396  59.2602289   1.4753065  99.1467924  60.3379558
   4.0056000  89.8488617  67.0874386   4.3605388  90.0760090  67.9468852
   4.6528131  90.1806994  66.4651642   9.7353737  92.9707053  57.7923715
   9.5971635  93.1608649  56.8644905   9.3789956  93.7326436  58.2491766
   9.7623116  95.0383580  62.8034987  10.1959623  94.9458869  63.6518041
  10.4754697  95.0141081  62.1655003   3.4951011  98.6385674  64.3368087
   3.5488034  99.2076611  65.1045803   2.6265793  98.8087559  63.9722125
  10.6238666  95.0807281  65.3367872  10.8174556  95.9853091  65.5827147
  10.5239284  94.6214700  66.1706457   2.2774977  84.9665171  67.8358200
   1.6302892  85.6655121  67.7422676   3.0475992  85.4001315  68.2034448
   5.6853775  95.2314024  70.9108753   5.5339281  95.0024575  69.9938837
   5.6758454  96.1884625  70.9240098   2.4539111  92.8045936  65.8955019
   3.3831171  92.9557096  65.7223987   2.0330141  92.8929957  65.0403666
   1.8475595 101.9305697  55.0079093   2.0227350 101.4593740  55.8224716
   1.1608383 102.5571463  55.2360354   2.8032658  96.2078203  61.0542395
   2.4682491  96.1678973  61.9500045   2.3036604  95.5422919  60.5812805
   5.7391850  93.5534238  51.3279454   5.1221020  92.8281066  51.2312507
   5.2708338  94.3143598  50.9846529   7.3945981  98.2633146  68.9885235
   7.3358527  97.5792366  68.3215818   7.7965500  99.0052136  68.5365861
   7.3963389  96.2272730  67.2199214   6.5090167  95.8898652  67.3425613
   7.9661940  95.4955761  67.4567980   0.9264542 100.8874182  64.1860458
   0.8534713 101.6929154  64.6979762   0.4841935 101.0866148  63.3608479
   4.0250972  85.9340582  60.3397485   4.5219671  85.1810544  60.0198555
   3.2537953  85.9704899  59.7740694  11.8780729  91.6380947  61.9815776
  11.8670605  92.5205663  61.6109709  11.0098109  91.2852498  61.7870313
   3.3863225 100.7861016  66.3418616   4.0991198 101.4208481  66.2694518
   2.8953254 100.8824882  65.5258618   5.1080752  94.6912269  57.9135908
   4.1737031  94.8113732  57.7440612   5.2857421  93.7884736  57.6495918
   8.4953304  90.5329588  58.4485942   8.9613756  91.3657580  58.3746245
   8.9460804  90.0674570  59.1531201   6.5629535  96.8773410  55.4472094
   6.8389379  96.7630004  56.3565968   5.6934034  96.4790894  55.4084267
   6.4669966  82.9010175  62.4876843   5.5533046  83.1314402  62.6559050
   6.8963068  82.9848619  63.3390876   6.2376425  91.0900067  64.9876737
   5.5847875  91.3375975  64.3329190   6.6156805  90.2764205  64.6539215
   3.1983599 101.1259760  59.0904908   3.3805993 100.3081416  59.5532660
   4.0216585 101.3427453  58.6529798   3.5325764 100.0527946  56.3519956
   4.0613531  99.5420400  55.7390118   3.7953984  99.7370476  57.2165489
   2.2863998  91.8319878  71.4742775   1.6104635  91.7314008  72.1445150
   3.1091632  91.6759092  71.9378772   1.0286781 103.1386806  65.7100391
   1.5805089 103.3018427  66.4749476   1.3692974 103.7291244  65.0380415
   5.8797655  97.9648063  71.5649045   6.4237559  98.5778022  71.0704000
   5.2984500  98.5227642  72.0816058   4.1655168 101.0868781  62.6964073
   4.0406308 100.2858521  62.1875018   4.8234259 101.5814975  62.2078043
   6.2290077  98.8877801  64.3243623   5.2820412  98.7683153  64.2521949
   6.5772850  98.0000299  64.4069884   3.2336510  98.6830518  60.5247975
   3.0861472  97.7547225  60.7055545   4.0590003  98.7050608  60.0405050
   6.8370632  99.5059076  61.6112848   7.7617179  99.3001938  61.4737299
   6.6685935  99.2575478  62.5202189   3.2298024  86.5368355  55.5180092
   3.4461639  87.4192993  55.2168920   2.7492091  86.1454569  54.7885734
   1.6819759  86.9193957  64.1884854   1.4237537  87.8411027  64.1869184
   1.1504799  86.5224391  64.8785318   6.6265948 100.0244744  56.9674939
   6.8002825  99.4591166  56.2148792   7.1194839 100.8245639  56.7854429
   2.1021715  83.0525907  60.5486016   2.1243412  83.1165240  59.5937996
   2.5189774  82.2130416  60.7426523  12.4805339  92.7881167  58.5865239
  12.9236485  92.0388492  58.1884362  11.6031849  92.7791303  58.2038971
   7.6141120  99.3411508  54.0671837   8.3092025  99.9618201  54.2859152
   7.9564271  98.4906859  54.3424215   9.5132543  96.7911214  55.5959168
  10.0383868  97.1298487  54.8708488   9.4254896  95.8558229  55.4122303
   1.1752592 100.7045287  67.7249045   1.4839719 100.4594434  68.5971744
   1.9728074 100.9091926  67.2367915   1.1973204 102.8583197  59.9554421
   0.7578195 102.3659576  60.6487278   1.9481321 102.3156165  59.7146497
   9.2026450  97.4244117  70.9010366   8.4121993  97.4068256  70.3614866
   8.9659804  97.9632411  71.6559403   9.3224325  94.2736584  68.2143095
   9.3722330  94.1086591  69.1558618   9.2138248  93.4063843  67.8240976
   6.6128087  90.2567512  69.5302401   7.5137950  90.1173977  69.2386399
   6.6876062  90.4221967  70.4700579  10.8242521  96.6933525  68.4585116
  10.5327330  97.0563506  69.2948577  10.2114653  95.9800534  68.2798448
  12.0238204  94.2586405  60.9787686  12.8585095  94.6976209  61.1425247
  12.1597333  93.7825058  60.1595932   9.0729710  91.8166140  66.9265174
   9.5483831  92.0093786  66.1184026   8.1495275  91.8725326  66.6808558
   3.6509926  83.8513983  65.8921008   4.1691870  84.5875010  65.5667497
   3.2965059  84.1577977  66.7267767   3.9022520  80.2714266  61.4121905
   4.1824274  79.6037455  62.0382331   4.6873127  80.4643362  60.8996569
   1.7055989  99.4473260  52.9746931   1.1329956 100.0663447  52.5217403
   2.2788782  99.9972622  53.5086853   7.7731379  88.6931900  65.1593480
   8.7248802  88.7929998  65.1805704   7.6034829  87.9010169  65.6691564
   5.7945758  85.7787483  65.3452881   5.1995690  86.0592496  64.6499369
   5.5095455  86.2681384  66.1169622   4.9253249  99.7310410  54.1055513
   5.8583922  99.6655972  54.3088389   4.8376461 100.5666677  53.6470046
   7.5541265  99.0476280  51.0659461   7.4754897  98.7136144  51.9595219
   8.3750932  99.5398048  51.0650933  10.2519456  91.9138020  64.2735779
  10.2195777  90.9754020  64.4595463  10.8620080  91.9922056  63.5401604
   2.0902787  90.7834073  50.3162984   3.0361892  90.6540281  50.3851402
   1.7117032  90.0448735  50.7932412  10.4013945  88.7049063  64.3194063
   9.8852994  87.9207520  64.1323992  11.2853893  88.3767780  64.4840582
   8.0624672  82.4490079  60.2789875   7.8649493  82.1405167  61.1633207
   8.6724377  83.1751718  60.4087805  16.0696006  92.9754027  63.4141816
  16.7999395  92.7139315  63.9749520  15.4602952  92.2382748  63.4543884
  14.1511303  91.1161889  64.0116267  13.4244467  90.9817854  63.4032759
  13.7358590  91.4238718  64.8172986   1.9741480  94.8351819  71.7763641
   2.8944489  95.0130418  71.9703687   1.9391063  93.8907864  71.6243340
   1.8907770  83.2520939  56.4062110   1.0808499  82.9068024  56.7817356
   2.5792187  82.9428482  56.9949722   3.8198318  82.3298986  58.0286407
   4.3729357  82.7494439  58.6876430   4.0568405  81.4034734  58.0709363
   7.1977126  84.4399511  57.5365071   6.6175795  85.0984315  57.1543123
   6.9313058  83.6176855  57.1252488   5.6480692  83.8404568  59.7386391
   6.1480470  83.9521103  58.9300710   6.2916300  83.5365621  60.3787200
   5.9802004  86.5999601  56.5921419   5.0927859  86.8849252  56.3741614
   6.3955993  86.4393364  55.7448696   9.3316540  86.6246122  60.3075758
  10.1076930  87.1142575  60.5800375   8.6064674  87.0504176  60.7647628
  11.7689098  87.3373741  61.3649699  12.3633589  87.0969477  60.6543007
  11.8415682  86.6180872  61.9923235   5.1245217  96.3644276  50.6869439
   5.8281067  96.5694278  51.3027095   4.4007866  96.9321038  50.9518523
   5.9543027  92.1154137  56.8071709   5.8978229  92.5722688  55.9679342
   6.5071370  91.3544822  56.6294552   9.7647833  87.9043869  57.6321829
   9.5084767  87.5040505  58.4630037   9.1400701  88.6187663  57.5071968
  14.0760171  90.6439942  60.1393120  13.5159729  90.7133131  60.9124682
  13.4703674  90.4680927  59.4192617   7.0331914  96.8026805  52.7367899
   7.8677518  96.3708003  52.5545374   6.8716257  96.6308819  53.6644794
   6.6877807  93.3058918  54.1024239   6.6326610  93.1403190  53.1612683
   6.0623862  94.0134951  54.2586428   4.0023714  95.6107830  73.4277801
   4.8714873  95.7848482  73.0664436   3.5230465  96.4302247  73.3053531
   3.8126052  79.4009804  57.9355494   3.0458447  78.8468291  58.0812176
   4.2236757  79.4731673  58.7969645  15.6616190 107.3196456  62.8323076
  16.2994600 107.2003203  62.1286416  15.5437032 108.2677300  62.8911028
  12.4705896 107.2723884  62.7684601  12.1324407 107.1564949  61.8805136
  13.3395664 106.8715049  62.7485607  12.9525679 108.4258736  68.7270806
  12.9414320 108.0311534  67.8551310  13.1146318 107.6924809  69.3204578
  10.1714175 106.0412132  52.1001541  10.4239696 105.5193653  51.3385004
   9.2338734 105.8778277  52.2028224  15.2157458 105.0447910  59.9076284
  16.0020547 104.6267333  59.5566701  15.4796162 105.9494002  60.0757932
  20.6165885 104.9823143  60.8109263  21.3491057 104.4122360  61.0447092
  19.8605241 104.5944744  61.2515768  12.2342005 107.4050385  58.0072605
  11.8700212 106.8781006  58.7185526  13.0909121 107.0148854  57.8339090
  18.1391306  98.6944717  65.2703871  17.8074630  99.5640128  65.0465086
  17.5436919  98.3781001  65.9497902  11.8747492 102.4340284  53.0033954
  12.0421894 103.3020521  53.3704425  11.6844661 102.5967566  52.0795243
  18.0319969 103.4139803  62.3497221  17.1236846 103.3455212  62.0555982
  17.9807565 103.8911748  63.1779047  11.8536713 104.8897942  53.9880620
  11.7336338 105.3354993  54.8266101  11.1589301 105.2383260  53.4294159
  12.1060835 104.8329449  70.2932119  11.3294169 105.3923369  70.2834983
  12.7451398 105.3186232  70.8146989  19.8981615 101.6156242  64.1275095
  19.2555995 101.9088775  63.4814890  19.3936544 101.5009162  64.9328292
  17.5521779 105.3619415  54.8160954  18.4639635 105.5946802  54.6408652
  17.0431426 105.9456459  54.2536033  15.8362547 109.7844043  68.4522247
  16.2445903 109.3426453  67.7076879  15.1139808 109.2096670  68.7056440
  12.1893617 104.7216650  65.8255804  13.0354812 105.1456063  65.9690453
  12.1292254 104.0650274  66.5194367  15.3393062 102.3821018  67.4836978
  15.0953994 103.1363079  66.9471253  15.6152992 102.7606366  68.3184225
  17.2931525 108.9259630  66.1614243  17.5048420 109.5691390  65.4848624
  17.2461273 108.0921947  65.6936173  14.8957754 101.5377451  63.0650815
  14.0342233 101.8358705  63.3567553  14.9220188 101.7547850  62.1331848
  10.6488209 106.2042794  56.2814186  11.3512252 106.6563838  56.7488112
  10.3168838 105.5626613  56.9094079   9.0968571 104.7954551  70.6565395
   8.4667231 105.4770831  70.8900792   8.9904659 104.6837632  69.7118534
   4.3913543 104.4626347  61.5831320   3.6012597 104.7183875  61.1071430
   4.8824790 105.2774684  61.6883360   6.3428288 104.8270926  58.5414796
   5.5459452 104.9389620  59.0598292   6.1153881 105.1657578  57.6755687
  26.4983346 108.1470334  60.6821572  25.7447054 107.5777732  60.5265576
  26.6330887 108.1132999  61.6292207   8.3749313  99.0975316  73.0190647
   7.9816259  98.5441515  73.6938291   9.1915454  99.4085895  73.4097164
  11.2917274 100.5133195  70.6110903  12.0326988 101.1140349  70.5315366
  11.5235197  99.7710833  70.0528946   6.4358612 105.6989563  68.8889133
   6.3212128 104.7974820  69.1896232   5.5803130 105.9453260  68.5373949
  15.2374437  96.5414298  64.8875185  14.8938707  97.4315940  64.8114295
  15.6053400  96.3515956  64.0244770  15.2024720 106.5322910  53.3947620
  14.6871343 107.3027514  53.6336007  14.9302029 105.8588046  54.0180681
  12.7871831 101.3772610  58.4532858  11.9313427 100.9879461  58.2738497
  13.1998783 101.4564571  57.5932644  14.3170978  98.9118954  62.8524418
  13.8135773  98.8749089  62.0392223  14.6101585  99.8211696  62.9121075
  10.5613864  98.9957683  61.8590600  11.4266860  98.8000492  61.4996489
  10.6291373  98.7668035  62.7859957  20.1758994 109.2855264  55.3300793
  19.3988437 108.9466424  54.8855955  20.8550475 109.2907887  54.6555758
  14.9911023 104.4050002  55.2207401  14.6861159 104.7196151  56.0717544
  15.9441465 104.4831422  55.2634734  18.4150301 108.7589245  61.9867401
  17.7573976 109.4488507  62.0747530  19.2190700 109.1485677  62.3301388
   8.1676183 101.2259891  59.2306967   8.7419935 101.0035073  58.4980160
   8.7547165 101.2948586  59.9835568  17.2255760 107.1133618  60.0371343
  17.7387642 107.7463610  60.5393053  17.8756984 106.5134814  59.6714703
   8.4945770 103.2564352  53.2502852   7.6583082 103.5939039  53.5712127
   8.3550539 103.1213332  52.3129989  10.4698850  98.1001140  57.9582036
   9.8163263  97.7850157  57.3338651  10.4279325  97.4776881  58.6841859
  11.5810055 108.3820435  49.8735328  10.6737117 108.1509689  50.0726477
  12.0781087 107.5858054  50.0609310  13.7036591 104.5883074  62.2829684
  12.7859152 104.8098021  62.1251372  14.1196734 104.6629384  61.4241391
  14.4871639 105.9874489  57.4132364  15.2343457 106.4995887  57.1039486
  14.7563228 105.6658542  58.2736757  12.7598289 108.4833030  54.3959318
  11.8509508 108.1992063  54.4931788  12.7893372 108.9032109  53.5362625
  16.9350476 103.0231606  59.3951153  16.1973232 102.5108992  59.7261396
  17.1877249 102.5831987  58.5834430  17.0362103  95.8007858  59.9892922
  17.3420980  94.9405221  59.7018838  17.7614708  96.3925478  59.7891916
  11.3083183 106.0961651  60.4969114  11.3631793 105.1435487  60.4211590
  10.4974385 106.2521090  60.9810412   9.2475543 104.7138710  58.2559492
   8.4343408 105.0132881  58.6624685   9.7434537 104.3194399  58.9733975
  14.8449754 105.1780535  67.0874386  15.1999142 105.4052008  67.9468852
  15.4921886 105.5098912  66.4651642  20.5747491 108.2998971  57.7923715
  20.4365390 108.4900567  56.8644905  20.2183710 109.0618354  58.2491766
   8.7389617 102.2857066  63.8720727   9.3788997 102.1445825  63.1743691
   7.9067148 101.9991579  63.4959329  20.6016871 110.3675498  62.8034987
  21.0353378 110.2750787  63.6518041  21.3148452 110.3432998  62.1655003
   5.8232685 105.7302578  56.0615473   4.8930273 105.6687034  56.2785435
   5.9190157 105.2078531  55.2652114   5.7418234 102.2557391  58.6493714
   6.0025051 103.1702724  58.5402875   6.5635406 101.7881834  58.7990327
   7.2143159 103.6695148  65.8192539   7.8866213 103.4612510  65.1705188
   6.3872946 103.4717234  65.3797771  21.4632420 110.4099198  65.3367872
  21.6568311 111.3145009  65.5827147  21.3633039 109.9506618  66.1706457
  13.1168731 100.2957089  67.8358200  12.4696646 100.9947039  67.7422676
  13.8869747 100.7293233  68.2034448  13.2932866 108.1337854  65.8955019
  14.2224926 108.2849014  65.7223987  12.8723896 108.2221875  65.0403666
   7.6170656 106.9437751  66.5794976   7.4790454 106.2117990  67.1806515
   8.5275580 106.8546651  66.2979164  16.5785604 108.8826155  51.3279454
  15.9614775 108.1572984  51.2312507  16.1102093 109.6435516  50.9846529
  10.2452957 106.6557710  66.0678656  10.9552576 106.0150903  66.0265274
  10.2022265 106.9070605  66.9904836   8.9581891 103.6422928  67.8874295
   8.4219248 103.1913667  68.5395891   8.3698600 103.7768837  67.1444759
   8.3684150 103.1011580  50.4500759   7.4913616 102.9800380  50.0863005
   8.8441903 102.3097658  50.1979647   4.6921012 102.7778936  64.9727289
   4.6079201 102.1704606  64.2377699   3.8703719 103.2687954  64.9736786
  14.8644726 101.2632500  60.3397485  15.3613426 100.5102462  60.0198555
  14.0931708 101.2996816  59.7740694  22.7174484 106.9672865  61.9815776
  22.7064360 107.8497580  61.6109709  21.8491863 106.6144416  61.7870313
  11.4479695 103.4049883  60.0669169  11.0777482 102.8520923  60.7550075
  11.9438787 102.8008016  59.5144169  19.3347058 105.8621506  58.4485942
  19.8007510 106.6949498  58.3746245  19.7854559 105.3966488  59.1531201
  17.3063721  98.2302093  62.4876843  16.3926801  98.4606320  62.6559050
  17.7356822  98.3140537  63.3390876  17.0770179 106.4191985  64.9876737
  16.4241630 106.6667892  64.3329190  17.4550559 105.6056123  64.6539215
  13.1257752 107.1611796  71.4742775  12.4498389 107.0605925  72.1445150
  13.9485386 107.0051010  71.9378772   6.8445029 100.8153873  66.3122275
   6.9086355 101.6768704  65.8999673   6.7812149 100.2027875  65.5794634
   6.3197301 102.8877006  69.9595309   6.9469340 102.5054083  70.5732834
   5.4625220 102.6691208  70.3251002   3.0962844 104.6953435  55.8913664
   3.3916285 103.7864113  55.8380718   2.1950880 104.6741174  55.5694667
   6.6257091 102.7709432  61.8741213   5.9043677 103.3845399  61.7348686
   7.4150347 103.3067196  61.7957859   9.4283404 100.1063858  68.1481865
   9.9517806 100.3526155  68.9108174   9.2095738 100.9383893  67.7285002
   4.8250685 102.3767533  56.0152989   4.4963392 101.4964912  55.8328095
   5.1790056 102.3215201  56.9029379   7.9392509 102.6640502  56.3828467
   8.2788581 103.1926424  55.6607075   8.3864629 103.0020909  57.1587034
  10.6335949 101.0477553  65.8331535  10.2932770 100.2485366  66.2352215
   9.9274956 101.3479264  65.2608368  11.2852421  98.1326866  64.2858858
  12.1078491  97.6587344  64.1637749  11.5290485  98.9117349  64.7857544
   9.9260656 101.1615124  54.5821760  10.6469018 101.5396377  54.0785477
   9.3025960 101.8804001  54.6856738  14.0691779 101.8660273  55.5180092
  14.2855393 102.7484911  55.2168920  13.5885846 101.4746486  54.7885734
   8.8091000 104.8245986  62.0950837   8.6635581 105.1386289  62.9875118
   8.3316204 105.4430887  61.5421735  10.6687383 101.8148534  62.1431726
  10.6548952 100.9189627  61.8064024  11.3859811 101.8219198  62.7770012
  12.5213514 102.2485874  64.1884854  12.2631291 103.1702945  64.1869184
  11.9898554 101.8516309  64.8785318  10.0724279 100.6962914  57.4119297
  10.1940190  99.7679561  57.6110184   9.7826321 100.7101600  56.4997612
  12.9415469  98.3817825  60.5486016  12.9637166  98.4457158  59.5937996
  13.3583528  97.5422334  60.7426523  23.3199094 108.1173084  58.5865239
  23.7630240 107.3680410  58.1884362  22.4425604 108.1083221  58.2038971
   9.5565358 102.2094912  71.6209229   9.6053514 103.0857035  71.2386999
  10.0987873 101.6672305  71.0480872  20.1618079 109.6028501  68.2143095
  20.2116084 109.4378509  69.1558618  20.0532002 108.7355760  67.8240976
  17.4521841 105.5859429  69.5302401  18.3531704 105.4465894  69.2386399
  17.5269816 105.7513884  70.4700579  11.7864647 102.9626284  68.3755588
  10.9167956 103.2559850  68.1038176  12.0224127 103.5466729  69.0962851
  22.8631958 109.5878323  60.9787686  23.6978850 110.0268127  61.1425247
  22.9991087 109.1116976  60.1595932  19.9123464 107.1458058  66.9265174
  20.3877586 107.3385704  66.1184026  18.9889030 107.2017243  66.6808558
  14.4903681  99.1805901  65.8921008  15.0085625  99.9166928  65.5667497
  14.1358813  99.4869894  66.7267767   6.0702618 104.0410582  54.0082414
   5.3771863 104.1154937  53.3522450   5.8254370 103.2770926  54.5303931
  14.7416275  95.6006184  61.4121905  15.0218029  94.9329373  62.0382331
  15.5266882  95.7935279  60.8996569  18.6125133 104.0223818  65.1593480
  19.5642556 104.1221915  65.1805704  18.4428584 103.2302086  65.6691564
  16.6339513 101.1079401  65.3452881  16.0389445 101.3884414  64.6499369
  16.3489209 101.5973302  66.1169622  21.0913211 107.2429937  64.2735779
  21.0589531 106.3045938  64.4595463  21.7013835 107.3213974  63.5401604
  12.9296542 106.1125990  50.3162984  13.8755647 105.9832198  50.3851402
  12.5510787 105.3740652  50.7932412  21.2407699 104.0340981  64.3194063
  20.7246748 103.2499437  64.1323992  22.1247648 103.7059697  64.4840582
  18.9018426  97.7781996  60.2789875  18.7043247  97.4697085  61.1633207
  19.5118132  98.5043635  60.4087805  26.9089761 108.3045944  63.4141816
  27.6393149 108.0431232  63.9749520  26.2996706 107.5674666  63.4543884
  24.9905058 106.4453807  64.0116267  24.2638222 106.3109772  63.4032759
  24.5752345 106.7530635  64.8172986  11.1139459 104.0375967  50.2517869
  10.2070914 103.7409079  50.3280582  11.3915440 103.7405785  49.3852155
  12.7301525  98.5812856  56.4062110  11.9202253  98.2359941  56.7817356
  13.4185942  98.2720400  56.9949722  14.6592073  97.6590903  58.0286407
  15.2123112  98.0786357  58.6876430  14.8962159  96.7326651  58.0709363
  10.6825172 103.6477977  73.8089171  10.5821899 104.5972334  73.7401262
  10.4646714 103.3196216  72.9365241   9.8838244 100.8962902  50.3929848
  10.7457408 101.2217800  50.6525665  10.0688588 100.1094398  49.8802914
  18.0370880  99.7691428  57.5365071  17.4569549 100.4276232  57.1543123
  17.7706813  98.9468773  57.1252488  16.4874446  99.1696486  59.7386391
  16.9874225  99.2813021  58.9300710  17.1310054  98.8657539  60.3787200
  10.5456442 107.0775116  72.6254232  10.0623524 107.8775476  72.8318121
  10.6317381 107.0883061  71.6721676  16.8195758 101.9291519  56.5921419
  15.9321613 102.2141169  56.3741614  17.2349747 101.7685282  55.7448696
  20.1710294 101.9538040  60.3075758  20.9470684 102.4434492  60.5800375
  19.4458428 102.3796094  60.7647628  22.6082853 102.6665659  61.3649699
  23.2027344 102.4261395  60.6543007  22.6809437 101.9472790  61.9923235
  16.7936782 107.4446055  56.8071709  16.7371983 107.9014606  55.9679342
  17.3465124 106.6836739  56.6294552  20.6041588 103.2335787  57.6321829
  20.3478522 102.8332422  58.4630037  19.9794456 103.9479581  57.5071968
  24.9153926 105.9731860  60.1393120  24.3553484 106.0425049  60.9124682
  24.3097429 105.7972844  59.4192617  17.5271561 108.6350836  54.1024239
  17.4720365 108.4695107  53.1612683  16.9017616 109.3426869  54.2586428
   2.3164076 103.8718900  67.9285661   2.9622940 103.3617854  68.4172886
   2.1081227 104.6087582  68.5029086  10.8367687  98.1358945  53.6809557
  10.8246356  99.0800785  53.8377828  11.7291108  97.9529090  53.3869018
  14.6519806  94.7301722  57.9355494  13.8852202  94.1760208  58.0812176
  15.0630511  94.8023590  58.7969645   6.6561567 101.0186517  72.0260675
   7.5193029 100.6623322  72.2364000   6.0826978 100.6800412  72.7136079
  26.0768192 111.8706216  64.8875185  25.7332461 112.7607858  64.8114295
  26.4447154 111.6807874  64.0244770  27.8755857 111.1299775  59.9892922
  28.1814734 110.2697139  59.7018838  28.6008462 111.7217395  59.7891916
  28.1457475 113.5594011  62.4876843  27.2320555 113.7898238  62.6559050
  28.5750577 113.6432455  63.3390876  25.5810029 110.9298101  61.4121905
  25.8611783 110.2621290  62.0382331  26.3660636 111.1227197  60.8996569
  29.7412181 113.1073914  60.2789875  29.5437002 112.7989002  61.1633207
  30.3511886 113.8335553  60.4087805  25.4985827 112.9882821  58.0286407
  26.0516866 113.4078274  58.6876430  25.7355914 112.0618569  58.0709363
  25.4913561 110.0593639  57.9355494  24.7245956 109.5052126  58.0812176
  25.9024266 110.1315508  58.7969645   4.8195838  54.4948621  47.4066879
   4.0659546  53.9256020  47.2510883   4.9543379  54.4611286  48.3537513
   1.6411586  54.4651372  45.3110546   2.0842732  53.7158697  44.9129669
   0.7638096  54.4561508  44.9284278   1.1844451  55.9356610  47.7032993
   2.0191342  56.3746414  47.8670553   1.3203579  55.4595263  46.8841239
   5.2302253  54.6524231  50.1387123   5.9605642  54.3909520  50.6994826
   4.6209199  53.9152953  50.1789191   3.3117550  52.7932094  50.7361574
   2.5850714  52.6588059  50.1278066   2.8964837  53.1008923  51.5418292
   0.9295345  49.0143946  48.0895006   1.5239836  48.7739682  47.3788314
   1.0021929  48.2951077  48.7168542   3.2366418  52.3210147  46.8638427
   2.6765976  52.3903336  47.6369989   2.6309921  52.1451132  46.1437923
   4.8222436  68.9966661  49.5568383   5.4600846  68.8773408  48.8531723
   4.7043279  69.9447505  49.6156335   1.6312143  68.9494089  49.4929907
   1.2930654  68.8335154  48.6050442   2.5001911  68.5485254  49.4730913
   2.1131926  70.1028941  55.4516113   2.1020566  69.7081739  54.5796617
   2.2752565  69.3695013  56.0449884   3.0698517  74.4700533  40.7941263
   2.4186497  75.0554614  40.4075277   3.8642880  75.0006728  40.8536301
   4.3763705  66.7218115  46.6321591   5.1626794  66.3037538  46.2812008
   4.6402409  67.6264207  46.8003239   4.5473782  72.1590965  41.3310248
   3.9119615  72.2325592  42.0431152   4.2171189  72.7484564  40.6529327
   9.7772132  66.6593348  47.5354569  10.5097304  66.0892565  47.7692399
   9.0211488  66.2714949  47.9761075   1.3948252  69.0820590  44.7317912
   1.0306459  68.5551211  45.4430833   2.2515368  68.6919059  44.5584397
   7.2997552  60.3714922  51.9949178   6.9680877  61.2410333  51.7710393
   6.7043166  60.0551206  52.6743208   1.0353739  64.1110489  39.7279260
   1.2028141  64.9790726  40.0949731   0.8450908  64.2737771  38.8040549
   3.7929072  72.5727468  51.3945091   3.4929795  73.4752507  51.2860898
   3.4480131  72.3059651  52.2466243   7.1926216  65.0910008  49.0742528
   6.2843093  65.0225417  48.7801289   7.1413811  65.5681953  49.9024353
   1.2667081  66.5099654  57.0177425   0.4900415  67.0693574  57.0080290
   1.9057644  66.9956437  57.5392295   9.0587862  63.2926447  50.8520402
   8.4162242  63.5858980  50.2060196   8.5542791  63.1779367  51.6573598
   6.7128026  67.0389620  41.5406261   7.6245882  67.2717007  41.3653959
   6.2037673  67.6226664  40.9781340   4.9968793  71.4614248  55.1767554
   5.4052149  71.0196658  54.4322186   4.2746055  70.8866875  55.4301747
   1.3499863  66.3986855  52.5501111   2.1961059  66.8226268  52.6935760
   1.2898501  65.7420479  53.2439674   5.3197608  72.0215438  48.9319843
   4.6906470  72.1861153  48.2295910   4.9323270  72.4357048  49.7030807
   9.1986840  72.9569876  46.2864206   8.5137878  73.3368778  45.7361240
   9.2830689  73.5665203  47.0196154   4.4999309  64.0591223  54.2082284
   4.2560241  64.8133283  53.6716560   4.7759239  64.4376570  55.0429531
   6.4537771  70.6029835  52.8859550   6.6654667  71.2461595  52.2093931
   6.4067520  69.7692152  52.4181480   4.0564000  63.2147656  49.7896122
   3.1948479  63.5128909  50.0812860   4.0826435  63.4318055  48.8577155
   0.8725570  71.7589846  46.1969928   1.3363915  72.0377549  45.4074550
   0.6082368  70.8573291  46.0143018   7.5683599  73.4801791  51.0581907
   8.3901043  73.0781978  50.7764589   7.5646002  73.3770025  52.0098023
   1.3340203  73.0285834  53.2142618   1.3984635  73.4906241  54.0500789
   0.6251127  72.3983199  53.3424927  15.6589592  69.8240539  47.4066879
  14.9053301  69.2547937  47.2510883  15.7937134  69.7903204  48.3537513
   1.0488221  74.6953941  43.0821598   0.9133895  75.5405477  43.5106446
   1.5898033  74.8973219  42.3187532   2.6756697  75.3177508  57.2121940
   2.2320551  74.5313887  56.8942845   3.3373910  75.5056658  56.5465831
   4.7737935  75.5980308  55.2403341   4.7556410  76.4189189  54.7483610
   5.6957855  75.4734383  55.4653482   1.2310989  73.1124437  56.0826850
   1.7639326  72.3512726  55.8526158   0.7025070  72.8198089  56.8251004
   4.3980684  58.2184503  51.6120491   4.0544953  59.1086145  51.5359602
   4.7659647  58.0286161  50.7490076   4.3630967  68.2093114  40.1192927
   3.8477590  68.9797719  40.3581314   4.0908275  67.5358251  40.7425988
   1.9478078  63.0542815  45.1778165   1.0919674  62.6649666  44.9983804
   2.3605030  63.1334776  44.3177950   3.4777224  60.5889159  49.5769725
   2.9742020  60.5519294  48.7637530   3.7707831  61.4981901  49.6366381
   9.3365241  70.9625469  42.0546100   8.5594684  70.6236629  41.6101262
  10.0156722  70.9678092  41.3801065   4.1517270  66.0820207  41.9452708
   3.8467406  66.3966356  42.7962851   5.1047712  66.1601626  41.9880041
   2.5963702  72.2410430  43.5945662   2.0685063  71.5063189  43.2818899
   2.0951205  73.0185106  43.3485630   7.5756548  70.4359450  48.7112708
   6.9180222  71.1258712  48.7992837   8.3796947  70.8255882  49.0546694
   6.3862007  68.7903823  46.7616650   6.8993888  69.4233815  47.2638359
   7.0363231  68.1905019  46.3960010   3.6484381  78.7688147  39.5177321
   2.9746080  79.0719844  40.1262279   4.0350203  79.5717228  39.1682778
   2.8642838  66.2653279  49.0074990   1.9465399  66.4868226  48.8496678
   3.2802981  66.3399589  48.1486698   3.6477885  67.6644694  44.1377671
   4.3949704  68.1766091  43.8284793   3.9169475  67.3428747  44.9982064
   1.9204535  70.1603235  41.1204625   1.0115755  69.8762268  41.2177095
   1.9499619  70.5802314  40.2607932   7.1523803  73.7709824  44.8895792
   6.6986130  72.9300734  44.9460983   6.5217770  74.4071223  45.2270573
   6.0956722  64.7001811  46.1196460   5.3579479  64.1879197  46.4506702
   6.3483496  64.2602192  45.3079737   5.5956742  75.6086321  45.8245611
   5.8879716  76.1691378  45.1057976   6.1055363  75.9014882  46.5798770
   6.1968350  57.4778063  46.7138229   6.5027227  56.6175426  46.4264144
   6.9220955  58.0695683  46.5137223   1.6180623  71.7011979  38.4592703
   1.1800053  70.9847838  37.9998341   2.3591064  71.9288093  37.8977795
   0.5590367  76.3866672  46.9139064   0.5166546  76.6127519  45.9847596
   1.4753066  76.1530047  47.0624865   4.0056001  66.8550740  53.8119693
   4.3605389  67.0822213  54.6714159   4.6528132  67.1869117  53.1896948
   9.7353738  69.9769176  44.5169022   9.5971637  70.1670772  43.5890211
   9.3789957  70.7388559  44.9737073   9.7623118  72.0445703  49.5280293
  10.1959624  71.9520992  50.3763348  10.4754698  72.0203203  48.8900309
   3.4951013  75.6447797  51.0613394   3.5488035  76.2138733  51.8291110
   2.6265794  75.8149682  50.6967431  10.6238667  72.0869403  52.0613179
  10.8174557  72.9915214  52.3072454  10.5239285  71.6276822  52.8951764
   2.2774978  61.9727294  54.5603506   1.6302893  62.6717244  54.4667983
   3.0475993  62.4063438  54.9279754   5.6853776  72.2376146  57.6354059
   5.5339282  72.0086698  56.7184143   5.6758455  73.1946748  57.6485404
   2.4539112  69.8108059  52.6200326   3.3831172  69.9619218  52.4469293
   2.0330142  69.8992080  51.7648972   1.8475596  78.9367820  41.7324400
   2.0227352  78.4655863  42.5470023   1.1608384  79.5633586  41.9605661
   2.8032659  73.2140326  47.7787701   2.4682492  73.1741096  48.6745351
   2.3036605  72.5485042  47.3058112   5.7391851  70.5596360  38.0524761
   5.1221022  69.8343188  37.9557814   5.2708339  71.3205721  37.7091835
   7.3945983  75.2695269  55.7130541   7.3358529  74.5854489  55.0461124
   7.7965501  76.0114259  55.2611167   7.3963390  73.2334853  53.9444521
   6.5090169  72.8960774  54.0670920   7.9661941  72.5017884  54.1813286
   0.9264543  77.8936305  50.9105764   0.8534715  78.6991276  51.4225069
   0.4841936  78.0928271  50.0853786   4.0250973  62.9402704  47.0642791
   4.5219672  62.1872667  46.7443861   3.2537954  62.9767021  46.4986000
  11.8780730  68.6443070  48.7061083  11.8670607  69.5267785  48.3355016
  11.0098110  68.2914621  48.5115620   3.3863227  77.7923139  53.0663923
   4.0991199  78.4270604  52.9939824   2.8953255  77.8887005  52.2503925
   5.1080754  71.6974392  44.6381215   4.1737032  71.8175854  44.4685919
   5.2857422  70.7946858  44.3741224   8.4953305  67.5391711  45.1731249
   8.9613757  68.3719703  45.0991551   8.9460805  67.0736693  45.8776507
   6.5629536  73.8835532  42.1717401   6.8389380  73.7692127  43.0811275
   5.6934035  73.4853017  42.1329574   6.4669968  59.9072298  49.2122150
   5.5533048  60.1376525  49.3804357   6.8963069  59.9910742  50.0636182
   6.2376426  68.0962190  51.7122044   5.5847876  68.3438097  51.0574497
   6.6156806  67.2826328  51.3784521   3.1983600  78.1321883  45.8150214
   3.3805995  77.3143539  46.2777967   4.0216586  78.3489575  45.3775104
   3.5325766  77.0590068  43.0765263   4.0613532  76.5482523  42.4635425
   3.7953985  76.7432598  43.9410796   2.2863999  68.8382001  58.1988081
   1.6104636  68.7376130  58.8690456   3.1091633  68.6821215  58.6624078
   1.0286782  80.1448928  52.4345697   1.5805090  80.3080550  53.1994782
   1.3692976  80.7353366  51.7625722   5.8797656  74.9710186  58.2894352
   6.4237560  75.5840144  57.7949306   5.2984501  75.5289764  58.8061365
   4.1655169  78.0930904  49.4209379   4.0406309  77.2920644  48.9120325
   4.8234261  78.5877097  48.9323349   6.2290078  75.8939924  51.0488929
   5.2820413  75.7745275  50.9767256   6.5772851  75.0062422  51.1315191
   3.2336511  75.6892640  47.2493282   3.0861474  74.7609348  47.4300852
   4.0590005  75.7112731  46.7650357   6.8370633  76.5121199  48.3358154
   7.7617180  76.3064060  48.1982606   6.6685936  76.2637600  49.2447496
   3.2298025  63.5430478  42.2425399   3.4461640  64.4255116  41.9414227
   2.7492093  63.1516691  41.5131041   1.6819760  63.9256079  50.9130160
   1.4237538  64.8473150  50.9114491   1.1504801  63.5286514  51.6030625
   6.6265949  77.0306866  43.6920246   6.8002827  76.4653289  42.9394098
   7.1194840  77.8307761  43.5099736   2.1021716  60.0588030  47.2731323
   2.1243413  60.1227363  46.3183303   2.5189775  59.2192538  47.4671829
  12.4805340  69.7943289  45.3110546  12.9236486  69.0450615  44.9129669
  11.6031851  69.7853426  44.9284278   7.6141122  76.3473631  40.7917144
   8.3092026  76.9680323  41.0104459   7.9564272  75.4968982  41.0669522
   9.5132545  73.7973336  42.3204475  10.0383869  74.1360609  41.5953795
   9.4254897  72.8620352  42.1367609   1.1752593  77.7107410  54.4494351
   1.4839720  77.4656557  55.3217051   1.9728075  77.9154048  53.9613222
   1.1973205  79.8645320  46.6799728   0.7578196  79.3721698  47.3732585
   1.9481322  79.3218287  46.4391803   9.2026451  74.4306240  57.6255673
   8.4121995  74.4130379  57.0860172   8.9659805  74.9694534  58.3804709
   9.3224326  71.2798706  54.9388401   9.3722331  71.1148714  55.8803924
   9.2138249  70.4125965  54.5486282   6.6128088  67.2629634  56.2547708
   7.5137951  67.1236099  55.9631706   6.6876063  67.4284089  57.1945886
  10.8242523  73.6995648  55.1830423  10.5327331  74.0625628  56.0193884
  10.2114654  72.9862656  55.0043755  12.0238205  71.2648528  47.7032993
  12.8585096  71.7038332  47.8670553  12.1597334  70.7887181  46.8841239
   9.0729711  68.8228263  53.6510481   9.5483833  69.0155909  52.8429332
   8.1495276  68.8787448  53.4053865   3.6509927  60.8576106  52.6166315
   4.1691871  61.5937133  52.2912803   3.2965060  61.1640099  53.4513074
   3.9022522  57.2776389  48.1367211   4.1824275  56.6099578  48.7627638
   4.6873129  57.4705484  47.6241875   1.7055990  76.4535382  39.6992238
   1.1329957  77.0725570  39.2462710   2.2788784  77.0034744  40.2332160
   7.7731380  65.6994023  51.8838786   8.7248803  65.7992120  51.9051011
   7.6034830  64.9072291  52.3936871   5.7945759  62.7849606  52.0698187
   5.1995692  63.0654619  51.3744676   5.5095456  63.2743507  52.8414929
   4.9253250  76.7372533  40.8300820   5.8583923  76.6718094  41.0333695
   4.8376463  77.5728799  40.3715353   7.5541267  76.0538403  37.7904768
   7.4754898  75.7198267  38.6840525   8.3750933  76.5460171  37.7896240
  10.2519458  68.9200142  50.9981086  10.2195778  67.9816143  51.1840770
  10.8620081  68.9984179  50.2646911   2.0902789  67.7896195  37.0408290
   3.0361893  67.6602403  37.1096708   1.7117034  67.0510857  37.5177718
  10.4013946  65.7111186  51.0439369   9.8852995  64.9269642  50.8569298
  11.2853895  65.3829902  51.2085889   8.0624673  59.4552201  47.0035182
   7.8649494  59.1467289  47.8878514   8.6724379  60.1813840  47.1333112
  16.0696008  69.9816149  50.1387123  16.7999396  69.7201437  50.6994826
  15.4602953  69.2444871  50.1789191  14.1511305  68.1224012  50.7361574
  13.4244468  67.9879977  50.1278066  13.7358592  68.4300840  51.5418292
   1.9741481  71.8413941  58.5008947   2.8944491  72.0192540  58.6948994
   1.9391064  70.8969987  58.3488646   1.8907771  60.2583061  43.1307417
   1.0808500  59.9130146  43.5062663   2.5792188  59.9490605  43.7195028
   3.8198320  59.3361108  44.7531713   4.3729358  59.7556562  45.4121736
   4.0568406  58.4096856  44.7954669   7.1977127  61.4461633  44.2610378
   6.6175796  62.1046437  43.8788430   6.9313060  60.6238978  43.8497795
   5.6480693  60.8466691  46.4631698   6.1480472  60.9583226  45.6546017
   6.2916301  60.5427744  47.1032506   5.9802005  63.6061724  43.3166726
   5.0927860  63.8911374  43.0986921   6.3955994  63.4455487  42.4694003
   9.3316541  63.6308245  47.0321065  10.1076931  64.1204697  47.3045682
   8.6064675  64.0566299  47.4892935  11.7689100  64.3435864  48.0895006
  12.3633590  64.1031600  47.3788314  11.8415683  63.6242994  48.7168542
   5.1245218  73.3706398  37.4114746   5.8281068  73.5756401  38.0272401
   4.4007867  73.9383160  37.6763829   5.9543029  69.1216260  43.5317016
   5.8978230  69.5784811  42.6924648   6.5071371  68.3606944  43.3539859
   9.7647835  64.9105992  44.3567136   9.5084769  64.5102627  45.1875343
   9.1400703  65.6249785  44.2317275  14.0760172  67.6502065  46.8638427
  13.5159730  67.7195254  47.6369989  13.4703676  67.4743049  46.1437923
   7.0331916  73.8088928  39.4613206   7.8677520  73.3770126  39.2790681
   6.8716259  73.6370941  40.3890100   6.6877808  70.3121041  40.8269545
   6.6326612  70.1465312  39.8857989   6.0623863  71.0197074  40.9831735
   4.0023715  72.6169953  60.1523108   4.8714875  72.7910605  59.7909743
   3.5230467  73.4364370  60.0298837   3.8126053  56.4071927  44.6600800
   3.0458449  55.8530413  44.8057483   4.2236758  56.4793795  45.5214952
  15.6616191  84.3258579  49.5568383  16.2994601  84.2065326  48.8531723
  15.5437034  85.2739423  49.6156335  12.4705897  84.2786007  49.4929907
  12.1324409  84.1627071  48.6050442  13.3395665  83.8777172  49.4730913
   8.3292713  86.1321483  45.4826798   7.7657578  86.0411420  44.7143086
   8.2145108  85.3121388  45.9629291  12.9525680  85.4320859  55.4516113
  12.9414321  85.0373657  54.5796617  13.1146320  84.6986931  56.0449884
   5.8757145  87.6272675  48.3211019   6.6678437  87.2863499  47.9057318
   6.1153795  87.7367650  49.2413172  13.9092272  89.7992451  40.7941263
  13.2580251  90.3846531  40.4075277  14.7036634  90.3298646  40.8536301
   7.8347899  86.8881588  41.1928398   8.6078775  86.3410575  41.0541273
   8.1873298  87.7525837  41.4042859   9.6732941  88.2157970  54.3995297
   9.3822807  89.1203601  54.2841963  10.3089926  88.2574498  55.1139366
  10.5989148  85.5934819  50.9896657  11.1952720  85.3690841  50.2753619
  10.6564120  84.8519564  51.5922104  10.1714176  83.0474254  38.8246847
  10.4239697  82.5255775  38.0630310   9.2338736  82.8840400  38.9273531
  15.2157459  82.0510033  46.6321591  16.0020549  81.6329456  46.2812008
  15.4796164  82.9556125  46.8003239  15.3867537  87.4882883  41.3310248
  14.7513370  87.5617509  42.0431152  15.0564943  88.0776482  40.6529327
  20.6165886  81.9885266  47.5354569  21.3491058  81.4184483  47.7692399
  19.8605242  81.6006866  47.9761075   9.8910465  84.9502360  41.0271222
   9.7746723  84.2747264  41.6952307  10.0012725  84.4634734  40.2103375
  12.2342006  84.4112507  44.7317912  11.8700213  83.8843128  45.4430833
  13.0909122  84.0210976  44.5584397  18.1391307  75.7006840  51.9949178
  17.8074632  76.5702251  51.7710393  17.5436920  75.3843124  52.6743208
  11.8747493  79.4402407  39.7279260  12.0421895  80.3082643  40.0949731
  11.6844662  79.6029689  38.8040549  14.6322826  87.9019386  51.3945091
  14.3323549  88.8044425  51.2860898  14.2873886  87.6351569  52.2466243
   8.0835308  84.3533183  47.4281795   7.1585804  84.2209397  47.6359487
   8.3319721  85.1327402  47.9251737  18.0319970  80.4201926  49.0742528
  17.1236847  80.3517334  48.7801289  17.9807566  80.8973871  49.9024353
  11.8536714  81.8960064  40.7125927  11.7336339  82.3417115  41.5511407
  11.1589302  82.2445382  40.1539465   5.4444119  83.9966456  48.2625584
   5.5736500  84.2500935  49.1764996   4.7641570  84.5894164  47.9430239
   9.6143606  94.6663706  44.3616058   9.5367636  95.6171531  44.4404539
   9.0105250  94.3209579  45.0190985  12.1060836  81.8391572  57.0177425
  11.3294170  82.3985492  57.0080290  12.7451399  82.3248355  57.5392295
  19.8981617  78.6218364  50.8520402  19.2555997  78.9150898  50.2060196
  19.3936545  78.5071285  51.6573598  17.5521780  82.3681538  41.5406261
  18.4639636  82.6008924  41.3653959  17.0431427  82.9518582  40.9781340
  10.3607208  84.6477025  56.5795392  11.1021893  85.1862069  56.3030216
   9.6544194  85.2743314  56.7366944  15.8362548  86.7906165  55.1767554
  16.2445904  86.3488576  54.4322186  15.1139809  86.2158793  55.4301747
  12.1893618  81.7278772  52.5501111  13.0354813  82.1518186  52.6935760
  12.1292256  81.0712397  53.2439674  16.1591362  87.3507356  48.9319843
  15.5300225  87.5153070  48.2295910  15.7717025  87.7648966  49.7030807
  20.0380594  88.2861794  46.2864206  19.3531633  88.6660695  45.7361240
  20.1224444  88.8957121  47.0196154  15.3393063  79.3883141  54.2082284
  15.0953995  80.1425201  53.6716560  15.6152994  79.7668488  55.0429531
  17.2931526  85.9321753  52.8859550  17.5048421  86.5753513  52.2093931
  17.2461274  85.0984069  52.4181480  14.8957755  78.5439574  49.7896122
  14.0342234  78.8420827  50.0812860  14.9220190  78.7609972  48.8577155
  11.7119324  87.0881764  46.1969928  12.1757670  87.3669467  45.4074550
  11.4476122  86.1865209  46.0143018   8.6043405  86.6353246  49.1349691
   9.1744762  87.0640514  48.4967175   9.1951517  86.3535830  49.8333877
  10.6488210  83.2104917  43.0059493  11.3512254  83.6625960  43.4733419
  10.3168839  82.5688735  43.6339386   9.0968572  81.8016673  57.3810702
   8.4667233  82.4832954  57.6146099   8.9904660  81.6899755  56.4363840
   4.3913544  81.4688469  48.3076626   3.6012598  81.7245998  47.8316737
   4.8824792  82.2836807  48.4128667  18.4077354  88.8093708  51.0581907
  19.2294798  88.4073896  50.7764589  18.4039757  88.7061943  52.0098023
   6.3428290  81.8333048  45.2660103   5.5459453  81.9451743  45.7843599
   6.1153882  82.1719701  44.4000994  12.1733957  88.3577752  53.2142618
  12.2378390  88.8198159  54.0500789  11.4644881  87.7275117  53.3424927
   2.6751247  81.7218960  50.7391617   2.9259286  82.6065970  51.0049193
   3.2110796  81.5423561  49.9666709  26.4983347  85.1532457  47.4066879
  25.7447055  84.5839855  47.2510883  26.6330888  85.1195121  48.3537513
  11.8881975  90.0245859  43.0821598  11.7527650  90.8697395  43.5106446
  12.4291788  90.2265137  42.3187532   8.3749315  76.1037439  59.7435953
   7.9816260  75.5503638  60.4183597   9.1915455  76.4148017  60.1342471
   5.3411372  87.5421297  43.6549523   5.8535893  88.3364547  43.8055088
   5.9934085  86.8447588  43.5883125   7.1506257  90.6587053  45.7372276
   7.3272885  91.5805018  45.5493260   7.9463091  90.3445473  46.1666656
  11.2917276  77.5195318  57.3356210  12.0326989  78.1202471  57.2560672
  11.5235198  76.7772956  56.7774252   6.4358614  82.7051685  55.6134439
   6.3212129  81.8036943  55.9141538   5.5803131  82.9515382  55.2619256
  13.5150451  90.6469426  57.2121940  13.0714306  89.8605804  56.8942845
  14.1767665  90.8348576  56.5465831   8.2737573  92.1765227  51.7382619
   8.8244998  92.0482291  50.9659612   7.4349048  92.4760116  51.3877511
  15.6131689  90.9272226  55.2403341  15.5950165  91.7481107  54.7483610
  16.5351610  90.8026301  55.4653482  12.0704744  88.4416355  56.0826850
  12.6033080  87.6804643  55.8526158  11.5418825  88.1490007  56.8251004
  15.2374439  73.5476421  51.6120491  14.8938708  74.4378063  51.5359602
  15.6053401  73.3578079  50.7490076   3.3060289  85.8709951  44.4309094
   4.1435511  86.2806960  44.2142801   3.4838557  84.9309394  44.4009287
  15.2024721  83.5385032  40.1192927  14.6871345  84.3089637  40.3581314
  14.9302030  82.8650168  40.7425988  12.7871832  78.3834733  45.1778165
  11.9313429  77.9941583  44.9983804  13.1998784  78.4626694  44.3177950
  14.3170979  75.9181076  49.5769725  13.8135775  75.8811211  48.7637530
  14.6101586  76.8273819  49.6366381  10.5613865  76.0019806  48.5835906
  11.4266862  75.8062615  48.2241796  10.6291374  75.7730158  49.5105263
  20.1758995  86.2917387  42.0546100  19.3988438  85.9528546  41.6101262
  20.8550476  86.2970010  41.3801065  14.9911024  81.4112124  41.9452708
  14.6861160  81.7258273  42.7962851  15.9441467  81.4893544  41.9880041
  13.4357456  87.5702348  43.5945662  12.9078818  86.8355107  43.2818899
  12.9344959  88.3477024  43.3485630  18.4150302  85.7651368  48.7112708
  17.7573977  86.4550629  48.7992837  19.2190702  86.1547800  49.0546694
   8.1676184  78.2322014  45.9552273   8.7419936  78.0097195  45.2225466
   8.7547166  78.3010708  46.7080875  17.2255761  84.1195741  46.7616650
  17.7387643  84.7525733  47.2638359  17.8756985  83.5196936  46.3960010
   8.4945771  80.2626475  39.9748158   7.6583083  80.6001161  40.2957433
   8.3550541  80.1275455  39.0375295  10.4698852  75.1063263  44.6827343
   9.8163264  74.7912280  44.0583957  10.4279326  74.4839003  45.4087166
  11.5810057  85.3882558  36.5980635  10.6737118  85.1571811  36.7971784
  12.0781088  84.5920177  36.7854616  14.4878135  94.0980065  39.5177321
  13.8139834  94.4011762  40.1262279  14.8743957  94.9009145  39.1682778
  13.7036592  81.5945196  49.0074990  12.7859153  81.8160143  48.8496678
  14.1196736  81.6691507  48.1486698  14.4871640  82.9936612  44.1377671
  15.2343459  83.5058009  43.8284793  14.7563229  82.6720665  44.9982064
  12.7598290  85.4895153  41.1204625  11.8509509  85.2054185  41.2177095
  12.7893374  85.9094231  40.2607932  17.9917557  89.1001742  44.8895792
  17.5379884  88.2592652  44.9460983  17.3611524  89.7363141  45.2270573
  16.9350477  80.0293728  46.1196460  16.1973234  79.5171114  46.4506702
  17.1877250  79.5894110  45.3079737  16.4350497  90.9378239  45.8245611
  16.7273471  91.4983296  45.1057976  16.9449117  91.2306800  46.5798770
  17.0362104  72.8069980  46.7138229  17.3420981  71.9467344  46.4264144
  17.7614709  73.3987600  46.5137223   3.3286460  83.2100667  45.1019827
   3.1310860  82.6170028  44.3770894   2.7733124  82.9052877  45.8195766
  11.3083184  83.1023773  47.2214420  11.3631794  82.1497610  47.1456897
  10.4974386  83.2583212  47.7055719  12.4574378  87.0303896  38.4592703
  12.0193808  86.3139755  37.9998341  13.1984819  87.2580011  37.8977795
   9.2475544  81.7200833  44.9804799   8.4343409  82.0195004  45.3869991
   9.7434538  81.3256522  45.6979281  11.3984122  91.7158590  46.9139064
  11.3560301  91.9419436  45.9847596  12.3146821  91.4821965  47.0624865
  14.8449756  82.1842657  53.8119693  15.1999143  82.4114131  54.6714159
  15.4921887  82.5161034  53.1896948  20.5747493  85.3061093  44.5169022
  20.4365391  85.4962689  43.5890211  20.2183711  86.0680476  44.9737073
   8.7389619  79.2919189  50.5966034   9.3788998  79.1507948  49.8988997
   7.9067149  79.0053702  50.2204636  20.6016872  87.3737620  49.5280293
  21.0353379  87.2812909  50.3763348  21.3148453  87.3495121  48.8900309
   9.5149923  88.5921619  46.7101026  10.3090521  88.0971939  46.5083601
   8.8041615  88.0639482  46.3468732  14.3344767  90.9739715  51.0613394
  14.3881789  91.5430651  51.8291110  13.4659548  91.1441600  50.6967431
   5.8232686  82.7364701  42.7860779   4.8930274  82.6749156  43.0030741
   5.9190158  82.2140653  41.9897420   5.7418235  79.2619514  45.3739021
   6.0025052  80.1764847  45.2648181   6.5635407  78.7943956  45.5235634
   7.2143160  80.6757271  52.5437845   7.8866214  80.4674633  51.8950494
   6.3872947  80.4779357  52.1043078  21.4632422  87.4161321  52.0613179
  21.6568312  88.3207132  52.3072454  21.3633040  86.9568740  52.8951764
  13.1168732  77.3019212  54.5603506  12.4696647  78.0009161  54.4667983
  13.8869748  77.7355356  54.9279754  16.5247530  87.5668064  57.6354059
  16.3733037  87.3378615  56.7184143  16.5152210  88.5238665  57.6485404
  13.2932867  85.1399977  52.6200326  14.2224927  85.2911136  52.4469293
  12.8723897  85.2283997  51.7648972  12.0921199  89.1650641  50.3898864
  11.9532284  88.7969425  51.2624802  11.3035795  89.6798280  50.2182821
  12.6869351  94.2659737  41.7324400  12.8621106  93.7947781  42.5470023
  12.0002139  94.8925504  41.9605661  13.6426414  88.5432244  47.7787701
  13.3076246  88.5033014  48.6745351  13.1430359  87.8776960  47.3058112
   7.6170658  83.9499874  53.3040282   7.4790456  83.2180113  53.9051822
   8.5275581  83.8608774  53.0224470  16.5785605  85.8888278  38.0524761
  15.9614776  85.1635106  37.9557814  16.1102094  86.6497638  37.7091835
  10.2452958  83.6619833  52.7923962  10.9552577  83.0213025  52.7510581
  10.2022267  83.9132728  53.7150143  18.2339737  90.5987186  55.7130541
  18.1752283  89.9146406  55.0461124  18.6359255  91.3406176  55.2611167
   8.9581892  80.6485051  54.6119602   8.4219249  80.1975789  55.2641198
   8.3698601  80.7830960  53.8690066   7.2530436  97.4149100  48.5064260
   7.4927034  98.0467624  49.1843279   6.4099632  97.0637140  48.7929620
   8.3684151  80.1073702  37.1746065   7.4913618  79.9862503  36.8108312
   8.8441904  79.3159781  36.9224954  18.2357144  88.5626770  53.9444521
  17.3483923  88.2252692  54.0670920  18.8055695  87.8309802  54.1813286
   4.6921014  79.7841059  51.6972596   4.6079202  79.1766728  50.9623006
   3.8703720  80.2750077  51.6982092  11.7658298  93.2228223  50.9105764
  11.6928469  94.0283194  51.4225069  11.3235691  93.4220188  50.0853786
  11.5548077  92.4599993  44.4208586  10.7715599  93.0021673  44.5146810
  12.2540822  92.9773972  44.8202827  14.8644727  78.2694622  47.0642791
  15.3613427  77.5164584  46.7443861  14.0931709  78.3058939  46.4986000
  22.7174485  83.9734988  48.7061083  22.7064361  84.8559703  48.3355016
  21.8491864  83.6206538  48.5115620  14.2256981  93.1215057  53.0663923
  14.9384953  93.7562521  52.9939824  13.7347010  93.2178923  52.2503925
  15.9474508  87.0266309  44.6381215  15.0130787  87.1467772  44.4685919
  16.1251177  86.1238776  44.3741224  11.4479696  80.4112005  46.7914476
  11.0777484  79.8583045  47.4795381  11.9438789  79.8070139  46.2389476
  19.3347059  82.8683629  45.1731249  19.8007512  83.7011620  45.0991551
  19.7854560  82.4028610  45.8776507   9.2768895  90.8709500  53.8869494
   9.9778354  91.5045983  54.0398888   8.8064010  91.2124232  53.1265133
  17.4023291  89.2127450  42.1717401  17.6783134  89.0984044  43.0811275
  16.5327789  88.8144935  42.1329574  17.3063722  75.2364216  49.2122150
  16.3926802  75.4668442  49.3804357  17.7356824  75.3202660  50.0636182
  17.0770181  83.4254108  51.7122044  16.4241631  83.6730015  51.0574497
  17.4550561  82.6118246  51.3784521  14.0377355  93.4613801  45.8150214
  14.2199749  92.6435457  46.2777967  14.8610341  93.6781493  45.3775104
  14.3719520  92.3881986  43.0765263  14.9007287  91.8774440  42.4635425
  14.6347740  92.0724516  43.9410796  13.1257754  84.1673919  58.1988081
  12.4498391  84.0668048  58.8690456  13.9485388  84.0113132  58.6624078
   4.8736613  90.4045855  50.8200596   5.4590050  89.6589543  50.9528501
   4.6761451  90.7149812  51.7037260   7.7275268  93.4397103  45.8363039
   7.0585643  93.9243230  45.3527079   7.5888138  93.6866323  46.7506417
  11.8680537  95.4740846  52.4345697  12.4198845  95.6372468  53.1994782
  12.2086730  96.0645284  51.7625722   6.8445030  77.8215996  53.0367582
   6.9086356  78.6830827  52.6244980   6.7812150  77.2089998  52.3039940
   6.3197302  79.8939128  56.6840616   6.9469341  79.5116206  57.2978140
   5.4625221  79.6753330  57.0496309  16.7191411  90.3002104  58.2894352
  17.2631315  90.9132062  57.7949306  16.1378256  90.8581682  58.8061365
   3.0962845  81.7015558  42.6158971   3.3916286  80.7926236  42.5626025
   2.1950881  81.6803297  42.2939973  15.0048924  93.4222822  49.4209379
  14.8800063  92.6212561  48.9120325  15.6628015  93.9169015  48.9323349
   6.6257092  79.7771554  48.5986520   5.9043678  80.3907522  48.4593993
   7.4150348  80.3129319  48.5203165  17.0683832  91.2231842  51.0488929
  16.1214168  91.1037193  50.9767256  17.4166605  90.3354340  51.1315191
   9.4283406  77.1125981  54.8727171   9.9517807  77.3588277  55.6353481
   9.2095739  77.9446015  54.4530309   4.8250687  79.3829655  42.7398296
   4.4963393  78.5027034  42.5573402   5.1790057  79.3277324  43.6274685
  14.0730266  91.0184558  47.2493282  13.9255228  90.0901265  47.4300852
  14.8983759  91.0404649  46.7650357   7.9392510  79.6702625  43.1073774
   8.2788582  80.1988546  42.3852382   8.3864630  80.0083031  43.8832340
  17.6764387  91.8413117  48.3358154  18.6010935  91.6355978  48.1982606
  17.5079691  91.5929518  49.2447496  10.6335951  78.0539676  52.5576842
  10.2932771  77.2547489  52.9597522   9.9274957  78.3541387  51.9853675
  11.2852423  75.1388988  51.0104165  12.1078492  74.6649466  50.8883055
  11.5290486  75.9179472  51.5102851   9.9260657  78.1677247  41.3067067
  10.6469020  78.5458499  40.8030783   9.3025961  78.8866123  41.4102044
  14.0691780  78.8722396  42.2425399  14.2855394  79.7547033  41.9414227
  13.5885847  78.4808609  41.5131041   8.8091001  81.8308109  48.8196143
   8.6635582  82.1448412  49.7120425   8.3316205  82.4493009  48.2667042
  10.6687384  78.8210657  48.8677033  10.6548953  77.9251750  48.5309331
  11.3859812  78.8281321  49.5015319  12.5213515  79.2547997  50.9130160
  12.2631293  80.1765068  50.9114491  11.9898555  78.8578432  51.6030625
  17.4659704  92.3598784  43.6920246  17.6396581  91.7945207  42.9394098
  17.9588595  93.1599679  43.5099736   3.2836663  84.3713453  51.7583805
   2.7390132  85.1473261  51.8904079   4.1616013  84.7184258  51.6002926
  10.0724280  77.7025037  44.1364603  10.1940191  76.7741683  44.3355491
   9.7826322  77.7163723  43.2242919  12.9415470  75.3879947  47.2731323
  12.9637167  75.4519281  46.3183303  13.3583529  74.5484456  47.4671829
  23.3199095  85.1235207  45.3110546  23.7630241  84.3742532  44.9129669
  22.4425605  85.1145343  44.9284278  18.4534876  91.6765549  40.7917144
  19.1485781  92.2972241  41.0104459  18.7958026  90.8260900  41.0669522
   4.0702685  83.4983349  54.6513961   3.3284421  83.6465985  55.2378592
   3.7495430  83.7591615  53.7880711  20.3526299  89.1265254  42.3204475
  20.8777623  89.4652527  41.5953795  20.2648652  88.1912269  42.1367609
  12.0146348  93.0399328  54.4494351  12.3233474  92.7948474  55.3217051
  12.8121830  93.2445966  53.9613222  12.0366960  95.1937237  46.6799728
  11.5971950  94.7013616  47.3732585  12.7875077  94.6510205  46.4391803
   4.5159299  91.3848778  46.6824356   5.3417319  91.0852550  46.3023000
   4.1653351  90.6156401  47.1314145   9.4840832  90.7375246  48.7522030
   8.8620841  90.0745951  48.4524258  10.1545699  90.7636378  48.0695677
   2.7167904  89.3035105  47.6413290   1.8799812  88.8757279  47.4597291
   2.6891549  89.4967548  48.5784081   9.5565360  79.2157034  58.3454536
   9.6053515  80.0919157  57.9632305  10.0987874  78.6734427  57.7726179
  20.0420205  89.7598158  57.6255673  19.2515749  89.7422297  57.0860172
  19.8053560  90.2986451  58.3804709  20.1618080  86.6090624  54.9388401
  20.2116085  86.4440631  55.8803924  20.0532004  85.7417883  54.5486282
   9.0454339  89.2879170  42.2280490   9.1942459  89.9714634  41.5747163
   9.8520782  89.2684260  42.7429946  17.4521843  82.5921552  56.2547708
  18.3531705  82.4528017  55.9631706  17.5269817  82.7576007  57.1945886
  11.7864648  79.9688407  55.1000894  10.9167957  80.2621973  54.8283483
  12.0224128  80.5528852  55.8208158  21.6636277  89.0287566  55.1830423
  21.3721085  89.3917546  56.0193884  21.0508408  88.3154574  55.0043755
  22.8631959  86.5940445  47.7032993  23.6978851  87.0330249  47.8670553
  22.9991088  86.1179099  46.8841239  19.9123465  84.1520180  53.6510481
  20.3877587  84.3447826  52.8429332  18.9889031  84.2079366  53.4053865
   6.8006972  85.3144347  43.2341559   6.5553014  84.4106677  43.4321769
   6.9702887  85.3161498  42.2921037  14.4903682  76.1868024  52.6166315
  15.0085626  76.9229051  52.2912803  14.1358815  76.4932017  53.4513074
   6.0702620  81.0472705  40.7327721   5.3771864  81.1217060  40.0767757
   5.8254371  80.2833049  41.2549238  14.7416276  72.6068306  48.1367211
  15.0218030  71.9391495  48.7627638  15.5266883  72.7997402  47.6241875
  12.5449745  91.7827300  39.6992238  11.9723712  92.4017487  39.2462710
  13.1182538  92.3326662  40.2332160  18.6125134  81.0285940  51.8838786
  19.5642557  81.1284038  51.9051011  18.4428585  80.2364209  52.3936871
  16.6339514  78.1141523  52.0698187  16.0389446  78.3946536  51.3744676
  16.3489211  78.6035424  52.8414929  15.7647004  92.0664450  40.8300820
  16.6977678  92.0010012  41.0333695  15.6770217  92.9020717  40.3715353
  18.3935021  91.3830321  37.7904768  18.3148653  91.0490184  38.6840525
  19.2144688  91.8752089  37.7896240  21.0913212  84.2492060  50.9981086
  21.0589532  83.3108061  51.1840770  21.7013836  84.3276097  50.2646911
  12.9296543  83.1188113  37.0408290  13.8755648  82.9894321  37.1096708
  12.5510788  82.3802775  37.5177718  21.2407701  81.0403103  51.0439369
  20.7246749  80.2561560  50.8569298  22.1247649  80.7121820  51.2085889
  18.9018428  74.7844119  47.0035182  18.7043249  74.4759207  47.8878514
  19.5118133  75.5105758  47.1333112  26.9089762  85.3108067  50.1387123
  27.6393151  85.0493355  50.6994826  26.2996708  84.5736789  50.1789191
  24.9905059  83.4515929  50.7361574  24.2638223  83.3171894  50.1278066
  24.5752346  83.7592758  51.5418292  12.8135236  87.1705859  58.5008947
  13.7338245  87.3484458  58.6948994  12.7784819  86.2261904  58.3488646
  11.1139460  81.0438089  36.9763175  10.2070916  80.7471202  37.0525889
  11.3915441  80.7467907  36.1097462   2.0317401  82.3644453  47.4262222
   1.7120185  81.5109761  47.1336596   1.4850829  82.5793031  48.1820189
   5.8097308  85.0806894  51.1431728   6.0283318  86.0124002  51.1619762
   6.2223082  84.7214868  51.9286532  12.7301526  75.5874979  43.1307417
  11.9202254  75.2422064  43.5062663  13.4185943  75.2782523  43.7195028
  14.6592074  74.6653026  44.7531713  15.2123113  75.0848479  45.4121736
  14.8962161  73.7388774  44.7954669  10.6825173  80.6540099  60.5334477
  10.5821900  81.6034456  60.4646568  10.4646716  80.3258338  59.6610547
   9.8838245  77.9025025  37.1175155  10.7457409  78.2279923  37.3770972
  10.0688589  77.1156520  36.6048220   1.9005661  85.9847364  49.3955343
   1.2069132  85.5701317  48.8825298   2.6478652  86.0267901  48.7988762
  18.0370881  76.7753551  44.2610378  17.4569550  77.4338355  43.8788430
  17.7706814  75.9530896  43.8497795  16.4874448  76.1758609  46.4631698
  16.9874226  76.2875143  45.6546017  17.1310056  75.8719662  47.1032506
  10.5456444  84.0837238  59.3499539  10.0623525  84.8837598  59.5563428
  10.6317383  84.0945183  58.3966983   3.8142403  85.9165618  47.2721358
   3.7913091  86.0153305  46.3203241   4.1243040  86.7630769  47.5938524
   6.4729781  87.9741773  51.3867973   7.4273035  87.9425715  51.3197904
   6.2742305  87.5132397  52.2018199   7.0629163  86.5442889  53.9538770
   7.8822052  87.0386968  53.9773608   7.3365971  85.6274857  53.9256338
  16.8195759  78.9353641  43.3166726  15.9321614  79.2203292  43.0986921
  17.2349748  78.7747405  42.4694003  20.1710295  78.9600162  47.0321065
  20.9470686  79.4496615  47.3045682  19.4458430  79.3858217  47.4892935
  22.6082854  79.6727782  48.0895006  23.2027345  79.4323518  47.3788314
  22.6809438  78.9534912  48.7168542   4.8280010  93.5161393  48.4038171
   4.6934478  92.7561793  47.8376169   4.4112072  94.2402292  47.9366959
  15.9638973  88.6998316  37.4114746  16.6674823  88.9048319  38.0272401
  15.2401622  89.2675078  37.6763829  16.7936783  84.4508177  43.5317016
  16.7371984  84.9076729  42.6924648  17.3465126  83.6898862  43.3539859
  20.6041589  80.2397909  44.3567136  20.3478523  79.8394545  45.1875343
  19.9794457  80.9541703  44.2317275  24.9153927  82.9793982  46.8638427
  24.3553485  83.0487172  47.6369989  24.3097430  82.8034967  46.1437923
   7.9849136  94.4130710  48.6156613   7.8681520  95.3576142  48.5135303
   7.1641582  94.1104271  49.0042412  17.8725670  89.1380845  39.4613206
  18.7071274  88.7062044  39.2790681  17.7110013  88.9662859  40.3890100
  17.5271562  85.6412959  40.8269545  17.4720366  85.4757230  39.8857989
  16.9017618  86.3488991  40.9831735   2.3164077  80.8781023  54.6530967
   2.9622941  80.3679977  55.1418193   2.1081228  81.6149705  55.2274393
  14.8417470  87.9461870  60.1523108  15.7108629  88.1202523  59.7909743
  14.3624221  88.7656287  60.0298837  10.8367688  75.1421068  40.4054864
  10.8246358  76.0862907  40.5623134  11.7291110  74.9591213  40.1114325
   9.0103650  95.0658971  51.8312542   9.9130897  95.0982582  52.1479037
   8.7841020  94.1359422  51.8458877  10.7657252  93.8189958  48.4922620
   9.8152883  93.8191820  48.3786993  11.0689738  93.0722693  47.9758655
  14.6519807  71.7363844  44.6600800  13.8852203  71.1822331  44.8057483
  15.0630512  71.8085713  45.5214952   6.6561568  78.0248640  58.7505982
   7.5193030  77.6685445  58.9609306   6.0826979  77.6862535  59.4381386
  26.5009945  99.6550496  49.5568383  27.1388355  99.5357244  48.8531723
  26.3830788 100.6031340  49.6156335  23.3099652  99.6077924  49.4929907
  22.9718163  99.4918989  48.6050442  24.1789420  99.2069090  49.4730913
  19.1686467 101.4613401  45.4826798  18.6051332 101.3703338  44.7143086
  19.0538862 100.6413305  45.9629291  23.7919435 100.7612776  55.4516113
  23.7808075 100.3665574  54.5796617  23.9540074 100.0278849  56.0449884
  16.7150899 102.9564592  48.3211019  17.5072191 102.6155417  47.9057318
  16.9547549 103.0659568  49.2413172  24.7486026 105.1284369  40.7941263
  24.0974006 105.7138449  40.4075277  25.5430389 105.6590563  40.8536301
  18.6741653 102.2173506  41.1928398  19.4472529 101.6702493  41.0541273
  19.0267052 103.0817755  41.4042859  20.5126696 103.5449888  54.3995297
  20.2216562 104.4495519  54.2841963  21.1483680 103.5866416  55.1139366
  21.4382903 100.9226737  50.9896657  22.0346475 100.6982759  50.2753619
  21.4957874 100.1811482  51.5922104  21.0107931  98.3766172  38.8246847
  21.2633452  97.8547693  38.0630310  20.0732490  98.2132317  38.9273531
  26.0551214  97.3801950  46.6321591  26.8414303  96.9621373  46.2812008
  26.3189918  98.2848042  46.8003239  26.2261291 102.8174801  41.3310248
  25.5907124 102.8909427  42.0431152  25.8958698 103.4068399  40.6529327
  31.4559641  97.3177183  47.5354569  32.1884813  96.7476400  47.7692399
  30.6998997  96.9298784  47.9761075  20.7304220 100.2794278  41.0271222
  20.6140478  99.6039181  41.6952307  20.8406480  99.7926652  40.2103375
  23.0735761  99.7404425  44.7317912  22.7093968  99.2135046  45.4430833
  23.9302877  99.3502894  44.5584397  28.9785061  91.0298758  51.9949178
  28.6468386  91.8994168  51.7710393  28.3830675  90.7135042  52.6743208
  22.7141248  94.7694325  39.7279260  22.8815650  95.6374561  40.0949731
  22.5238417  94.9321606  38.8040549  25.4716581 103.2311304  51.3945091
  25.1717304 104.1336342  51.2860898  25.1267640 102.9643487  52.2466243
  18.9229062  99.6825100  47.4281795  17.9979559  99.5501314  47.6359487
  19.1713475 100.4619320  47.9251737  28.8713725  95.7493844  49.0742528
  27.9630602  95.6809252  48.7801289  28.8201320  96.2265789  49.9024353
  22.6930468  97.2251982  40.7125927  22.5730094  97.6709033  41.5511407
  21.9983057  97.5737300  40.1539465  16.2837873  99.3258374  48.2625584
  16.4130254  99.5792853  49.1764996  15.6035325  99.9186082  47.9430239
  20.4537361 109.9955624  44.3616058  20.3761390 110.9463449  44.4404539
  19.8499004 109.6501496  45.0190985  22.9454590  97.1683489  57.0177425
  22.1687924  97.7277409  57.0080290  23.5845153  97.6540272  57.5392295
  30.7375371  93.9510282  50.8520402  30.0949751  94.2442815  50.2060196
  30.2330300  93.8363202  51.6573598  28.3915535  97.6973455  41.5406261
  29.3033391  97.9300842  41.3653959  27.8825182  98.2810499  40.9781340
  21.2000963  99.9768943  56.5795392  21.9415647 100.5153987  56.3030216
  20.4937948 100.6035231  56.7366944  26.6756302 102.1198083  55.1767554
  27.0839658 101.6780494  54.4322186  25.9533564 101.5450711  55.4301747
  23.0287372  97.0570690  52.5501111  23.8748568  97.4810103  52.6935760
  22.9686010  96.4004314  53.2439674  26.9985117 102.6799274  48.9319843
  26.3693979 102.8444988  48.2295910  26.6110779 103.0940883  49.7030807
  30.8774349 103.6153712  46.2864206  30.1925387 103.9952613  45.7361240
  30.9618198 104.2249038  47.0196154  26.1786818  94.7175058  54.2082284
  25.9347750  95.4717119  53.6716560  26.4546748  95.0960406  55.0429531
  28.1325280 101.2613671  52.8859550  28.3442176 101.9045431  52.2093931
  28.0855029 100.4275987  52.4181480  25.7351509  93.8731491  49.7896122
  24.8735988  94.1712745  50.0812860  25.7613944  94.0901890  48.8577155
  22.5513079 102.4173682  46.1969928  23.0151424 102.6961385  45.4074550
  22.2869877 101.5157126  46.0143018  19.4437160 101.9645163  49.1349691
  20.0138517 102.3932432  48.4967175  20.0345272 101.6827748  49.8333877
  21.4881965  98.5396834  43.0059493  22.1906008  98.9917878  43.4733419
  21.1562593  97.8980653  43.6339386  19.9362326  97.1308591  57.3810702
  19.3060987  97.8124872  57.6146099  19.8298414  97.0191672  56.4363840
  15.2307299  96.7980387  48.3076626  14.4406353  97.0537915  47.8316737
  15.7218546  97.6128725  48.4128667  29.2471108 104.1385626  51.0581907
  30.0688552 103.7365813  50.7764589  29.2433511 104.0353860  52.0098023
  17.1822044  97.1624966  45.2660103  16.3853208  97.2743660  45.7843599
  16.9547636  97.5011618  44.4000994  23.0127712 103.6869669  53.2142618
  23.0772144 104.1490077  54.0500789  22.3038636 103.0567034  53.3424927
  13.5145002  97.0510877  50.7391617  13.7653040  97.9357887  51.0049193
  14.0504550  96.8715479  49.9666709  37.3377101 100.4824375  47.4066879
  36.5840810  99.9131773  47.2510883  37.4724643 100.4487039  48.3537513
  22.7275730 105.3537777  43.0821598  22.5921404 106.1989313  43.5106446
  23.2685542 105.5557054  42.3187532  19.2143069  91.4329357  59.7435953
  18.8210015  90.8795555  60.4183597  20.0309209  91.7439935  60.1342471
  16.1805127 102.8713215  43.6549523  16.6929647 103.6656465  43.8055088
  16.8327840 102.1739505  43.5883125  17.9900012 105.9878971  45.7372276
  18.1666640 106.9096936  45.5493260  18.7856845 105.6737390  46.1666656
  22.1311030  92.8487236  57.3356210  22.8720744  93.4494389  57.2560672
  22.3628953  92.1064874  56.7774252  17.2752368  98.0343603  55.6134439
  17.1605883  97.1328860  55.9141538  16.4196886  98.2807300  55.2619256
  24.3544206 105.9761343  57.2121940  23.9108060 105.1897722  56.8942845
  25.0161419 106.1640494  56.5465831  19.1131327 107.5057145  51.7382619
  19.6638752 107.3774208  50.9659612  18.2742803 107.8052034  51.3877511
  26.4525444 106.2564143  55.2403341  26.4343919 107.0773024  54.7483610
  27.3745364 106.1318218  55.4653482  22.9098498 103.7708273  56.0826850
  23.4426835 103.0096561  55.8526158  22.3812579 103.4781925  56.8251004
  26.0768193  88.8768339  51.6120491  25.7332462  89.7669980  51.5359602
  26.4447156  88.6869996  50.7490076  14.1454044 101.2001869  44.4309094
  14.9829266 101.6098878  44.2142801  14.3232311 100.2601311  44.4009287
  26.0418476  98.8676950  40.1192927  25.5265099  99.6381554  40.3581314
  25.7695784  98.1942086  40.7425988  23.6265587  93.7126651  45.1778165
  22.7707183  93.3233501  44.9983804  24.0392539  93.7918611  44.3177950
  25.1564733  91.2472994  49.5769725  24.6529529  91.2103129  48.7637530
  25.4495340  92.1565737  49.6366381  21.4007619  91.3311724  48.5835906
  22.2660616  91.1354532  48.2241796  21.4685128  91.1022075  49.5105263
  31.0152750 101.6209304  42.0546100  30.2382193 101.2820464  41.6101262
  31.6944231 101.6261928  41.3801065  25.8304779  96.7404042  41.9452708
  25.5254915  97.0550191  42.7962851  26.7835221  96.8185462  41.9880041
  24.2751211 102.8994265  43.5945662  23.7472572 102.1647025  43.2818899
  23.7738714 103.6768942  43.3485630  29.2544057 101.0943286  48.7112708
  28.5967731 101.7842547  48.7992837  30.0584456 101.4839718  49.0546694
  19.0069938  93.5613932  45.9552273  19.5813690  93.3389113  45.2225466
  19.5940921  93.6302626  46.7080875  28.0649516  99.4487658  46.7616650
  28.5781397 100.0817650  47.2638359  28.7150740  98.8488854  46.3960010
  19.3339526  95.5918393  39.9748158  18.4976838  95.9293079  40.2957433
  19.1944295  95.4567372  39.0375295  21.3092606  90.4355180  44.6827343
  20.6557018  90.1204198  44.0583957  21.2673080  89.8130921  45.4087166
  22.4203811 100.7174475  36.5980635  21.5130873 100.4863729  36.7971784
  22.9174843  99.9212095  36.7854616  25.3271890 109.4271983  39.5177321
  24.6533589 109.7303679  40.1262279  25.7137712 110.2301063  39.1682778
  24.5430347  96.9237114  49.0074990  23.6252908  97.1452061  48.8496678
  24.9590490  96.9983424  48.1486698  25.3265394  98.3228530  44.1377671
  26.0737213  98.8349927  43.8284793  25.5956984  98.0012582  44.9982064
  23.5992044 100.8187070  41.1204625  22.6903264 100.5346103  41.2177095
  23.6287128 101.2386149  40.2607932  28.8311312 104.4293660  44.8895792
  28.3773639 103.5884570  44.9460983  28.2005279 105.0655058  45.2270573
  27.7744231  95.3585646  46.1196460  27.0366988  94.8463032  46.4506702
  28.0271005  94.9186027  45.3079737  27.2744251 106.2670157  45.8245611
  27.5667225 106.8275214  45.1057976  27.7842872 106.5598718  46.5798770
  27.8755859  88.1361898  46.7138229  28.1814736  87.2759261  46.4264144
  28.6008464  88.7279518  46.5137223  14.1680215  98.5392584  45.1019827
  13.9704615  97.9461945  44.3770894  13.6126879  98.2344795  45.8195766
  22.1476938  98.4315691  47.2214420  22.2025548  97.4789527  47.1456897
  21.3368141  98.5875130  47.7055719  23.2968132 102.3595814  38.4592703
  22.8587562 101.6431673  37.9998341  24.0378573 102.5871929  37.8977795
  20.0869298  97.0492751  44.9804799  19.2737164  97.3486921  45.3869991
  20.5828293  96.6548439  45.6979281  22.2377876 107.0450508  46.9139064
  22.1954055 107.2711354  45.9847596  23.1540575 106.8113882  47.0624865
  25.6843510  97.5134575  53.8119693  26.0392898  97.7406048  54.6714159
  26.3315641  97.8452952  53.1896948  31.4141247 100.6353011  44.5169022
  31.2759146 100.8254607  43.5890211  31.0577466 101.3972394  44.9737073
  19.5783373  94.6211106  50.5966034  20.2182752  94.4799865  49.8988997
  18.7460904  94.3345620  50.2204636  31.4410627 102.7029538  49.5280293
  31.8747133 102.6104827  50.3763348  32.1542207 102.6787039  48.8900309
  20.3543677 103.9213537  46.7101026  21.1484276 103.4263857  46.5083601
  19.6435369 103.3931400  46.3468732  25.1738522 106.3031632  51.0613394
  25.2275544 106.8722568  51.8291110  24.3053303 106.4733517  50.6967431
  16.6626441  98.0656618  42.7860779  15.7324029  98.0041074  43.0030741
  16.7583913  97.5432571  41.9897420  16.5811990  94.5911431  45.3739021
  16.8418807  95.5056764  45.2648181  17.4029162  94.1235874  45.5235634
  18.0536915  96.0049188  52.5437845  18.7259968  95.7966551  51.8950494
  17.2266701  95.8071274  52.1043078  32.3026176 102.7453239  52.0613179
  32.4962066 103.6499049  52.3072454  32.2026794 102.2860658  52.8951764
  23.9562487  92.6311129  54.5603506  23.3090402  93.3301079  54.4667983
  24.7263502  93.0647273  54.9279754  27.3641285 102.8959981  57.6354059
  27.2126791 102.6670533  56.7184143  27.3545964 103.8530583  57.6485404
  24.1326621 100.4691894  52.6200326  25.0618681 100.6203054  52.4469293
  23.7117651 100.5575915  51.7648972  22.9314953 104.4942559  50.3898864
  22.7926039 104.1261343  51.2624802  22.1429549 105.0090198  50.2182821
  23.5263105 109.5951655  41.7324400  23.7014861 109.1239698  42.5470023
  22.8395893 110.2217421  41.9605661  24.4820168 103.8724161  47.7787701
  24.1470001 103.8324931  48.6745351  23.9824114 103.2068877  47.3058112
  18.4564412  99.2791791  53.3040282  18.3184210  98.5472030  53.9051822
  19.3669336  99.1900691  53.0224470  27.4179360 101.2180196  38.0524761
  26.8008530 100.4927024  37.9557814  26.9495848 101.9789556  37.7091835
  21.0846713  98.9911751  52.7923962  21.7946331  98.3504943  52.7510581
  21.0416021  99.2424646  53.7150143  29.0733492 105.9279104  55.7130541
  29.0146038 105.2438324  55.0461124  29.4753010 106.6698094  55.2611167
  19.7975647  95.9776969  54.6119602  19.2613004  95.5267707  55.2641198
  19.2092355  96.1122877  53.8690066  19.2077906  95.4365620  37.1746065
  18.3307372  95.3154421  36.8108312  19.6835659  94.6451698  36.9224954
  29.0750899 103.8918688  53.9444521  28.1877678 103.5544610  54.0670920
  29.6449450 103.1601719  54.1813286  10.7280046 100.2242780  47.2687572
  11.4151086  99.9104510  46.6808588  10.5728175 101.1284144  46.9954824
  15.5314768  95.1132976  51.6972596  15.4472957  94.5058646  50.9623006
  14.7097474  95.6041995  51.6982092  22.6052052 108.5520140  50.9105764
  22.5322224 109.3575112  51.4225069  22.1629445 108.7512106  50.0853786
  22.3941832 107.7891910  44.4208586  21.6109354 108.3313591  44.5146810
  23.0934577 108.3065890  44.8202827  25.7038482  93.5986540  47.0642791
  26.2007181  92.8456502  46.7443861  24.9325463  93.6350856  46.4986000
  33.5568239  99.3026905  48.7061083  33.5458116 100.1851621  48.3355016
  32.6885619  98.9498456  48.5115620  25.0650736 108.4506974  53.0663923
  25.7778708 109.0854439  52.9939824  24.5740764 108.5470840  52.2503925
  26.7868263 102.3558227  44.6381215  25.8524541 102.4759689  44.4685919
  26.9644931 101.4530694  44.3741224  22.2873451  95.7403923  46.7914476
  21.9171238  95.1874963  47.4795381  22.7832543  95.1362056  46.2389476
  30.1740814  98.1975546  45.1731249  30.6401266  99.0303538  45.0991551
  30.6248314  97.7320528  45.8776507  20.1162649 106.2001418  53.8869494
  20.8172109 106.8337901  54.0398888  19.6457764 106.5416149  53.1265133
  28.2417045 104.5419368  42.1717401  28.5176889 104.4275962  43.0811275
  27.3721544 104.1436852  42.1329574  28.1457477  90.5656133  49.2122150
  27.2320556  90.7960360  49.3804357  28.5750578  90.6494577  50.0636182
  27.9163935  98.7546025  51.7122044  27.2635385  99.0021933  51.0574497
  28.2944315  97.9410163  51.3784521  24.8771109 108.7905718  45.8150214
  25.0593504 107.9727374  46.2777967  25.7004095 109.0073411  45.3775104
  25.2113275 107.7173904  43.0765263  25.7401041 107.2066358  42.4635425
  25.4741494 107.4016434  43.9410796  23.9651508  99.4965836  58.1988081
  23.2892145  99.3959966  58.8690456  24.7879142  99.3405050  58.6624078
  15.7130367 105.7337773  50.8200596  16.2983804 104.9881461  50.9528501
  15.5155206 106.0441730  51.7037260  18.5669023 108.7689020  45.8363039
  17.8979398 109.2535148  45.3527079  18.4281892 109.0158241  46.7506417
  10.3048022  98.3043373  49.5405040  10.3432122  97.7706964  50.3342158
   9.7988315  97.7778579  48.9216017  22.7074291 110.8032764  52.4345697
  23.2592599 110.9664385  53.1994782  23.0480485 111.3937202  51.7625722
  17.6838784  93.1507914  53.0367582  17.7480111  94.0122744  52.6244980
  17.6205905  92.5381915  52.3039940  17.1591057  95.2231046  56.6840616
  17.7863096  94.8408123  57.2978140  16.3018976  95.0045248  57.0496309
  27.5585165 105.6294021  58.2894352  28.1025069 106.2423980  57.7949306
  26.9772010 106.1873600  58.8061365  13.9356600  97.0307475  42.6158971
  14.2310041  96.1218154  42.5626025  13.0344635  97.0095215  42.2939973
  25.8442678 108.7514739  49.4209379  25.7193818 107.9504479  48.9120325
  26.5021769 109.2460933  48.9323349  17.4650847  95.1063472  48.5986520
  16.7437432  95.7199439  48.4593993  18.2544102  95.6421237  48.5203165
  27.9077587 106.5523759  51.0488929  26.9607922 106.4329111  50.9767256
  28.2560360 105.6646257  51.1315191  20.2677160  92.4417898  54.8727171
  20.7911562  92.6880195  55.6353481  20.0489493  93.2737933  54.4530309
  15.6644441  94.7121573  42.7398296  15.3357147  93.8318952  42.5573402
  16.0183812  94.6569242  43.6274685  24.9124020 106.3476476  47.2493282
  24.7648982 105.4193183  47.4300852  25.7377514 106.3696566  46.7650357
  18.7786264  94.9994543  43.1073774  19.1182337  95.5280464  42.3852382
  19.2258385  95.3374949  43.8832340  28.5158142 107.1705034  48.3358154
  29.4404689 106.9647896  48.1982606  28.3473445 106.9221435  49.2447496
  21.4729705  93.3831593  52.5576842  21.1326526  92.5839406  52.9597522
  20.7668711  93.6833304  51.9853675  22.1246177  90.4680906  51.0104165
  22.9472246  89.9941384  50.8883055  22.3684241  91.2471390  51.5102851
  20.7654411  93.4969164  41.3067067  21.4862774  93.8750417  40.8030783
  20.1419716  94.2158041  41.4102044  24.9085534  94.2014313  42.2425399
  25.1249149  95.0838951  41.9414227  24.4279602  93.8100527  41.5131041
  19.6484756  97.1600026  48.8196143  19.5029336  97.4740330  49.7120425
  19.1709959  97.7784927  48.2667042  21.5081139  94.1502574  48.8677033
  21.4942707  93.2543668  48.5309331  22.2253567  94.1573238  49.5015319
  23.3607269  94.5839915  50.9130160  23.1025047  95.5056985  50.9114491
  22.8292310  94.1870349  51.6030625  28.3053458 107.6890702  43.6920246
  28.4790336 107.1237124  42.9394098  28.7982349 108.4891597  43.5099736
  14.1230418  99.7005371  51.7583805  13.5783886 100.4765179  51.8904079
  15.0009768 100.0476175  51.6002926  20.9118035  93.0316955  44.1364603
  21.0333946  92.1033601  44.3355491  20.6220077  93.0455641  43.2242919
  23.7809225  90.7171865  47.2731323  23.8030922  90.7811198  46.3183303
  24.1977284  89.8776374  47.4671829  34.1592849 100.4527125  45.3110546
  34.6023995  99.7034450  44.9129669  33.2819360 100.4437261  44.9284278
  29.2928631 107.0057466  40.7917144  29.9879535 107.6264159  41.0104459
  29.6351781 106.1552817  41.0669522  14.9096440  98.8275267  54.6513961
  14.1678176  98.9757902  55.2378592  14.5889184  99.0883533  53.7880711
  31.1920054 104.4557172  42.3204475  31.7171378 104.7944444  41.5953795
  31.1042406 103.5204187  42.1367609  22.8540102 108.3691245  54.4494351
  23.1627229 108.1240392  55.3217051  23.6515584 108.5737884  53.9613222
  22.8760714 110.5229155  46.6799728  22.4365705 110.0305534  47.3732585
  23.6268831 109.9802123  46.4391803  15.3553053 106.7140696  46.6824356
  16.1811073 106.4144468  46.3023000  15.0047105 105.9448318  47.1314145
  20.3234587 106.0667164  48.7522030  19.7014596 105.4037869  48.4524258
  20.9939454 106.0928296  48.0695677  13.5561659 104.6327022  47.6413290
  12.7193567 104.2049197  47.4597291  13.5285304 104.8259466  48.5784081
  20.3959114  94.5448952  58.3454536  20.4447270  95.4211075  57.9632305
  20.9381628  94.0026345  57.7726179  30.8813960 105.0890075  57.6255673
  30.0909503 105.0714214  57.0860172  30.6447314 105.6278369  58.3804709
  31.0011835 101.9382542  54.9388401  31.0509840 101.7732549  55.8803924
  30.8925758 101.0709801  54.5486282  19.8848094 104.6171087  42.2280490
  20.0336214 105.3006552  41.5747163  20.6914537 104.5976177  42.7429946
  28.2915597  97.9213470  56.2547708  29.1925460  97.7819935  55.9631706
  28.3663572  98.0867925  57.1945886  22.6258403  95.2980325  55.1000894
  21.7561712  95.5913891  54.8283483  22.8617883  95.8820769  55.8208158
  32.5030032 104.3579483  55.1830423  32.2114840 104.7209464  56.0193884
  31.8902163 103.6446492  55.0043755  33.7025714 101.9232363  47.7032993
  34.5372605 102.3622167  47.8670553  33.8384843 101.4471016  46.8841239
  30.7517220  99.4812098  53.6510481  31.2271342  99.6739744  52.8429332
  29.8282785  99.5371284  53.4053865  17.6400727 100.6436265  43.2341559
  17.3946768  99.7398595  43.4321769  17.8096641 100.6453415  42.2921037
  25.3297436  91.5159941  52.6166315  25.8479380  92.2520968  52.2912803
  24.9752569  91.8223935  53.4513074  16.9096374  96.3764623  40.7327721
  16.2165619  96.4508978  40.0767757  16.6648126  95.6124966  41.2549238
  25.5810031  87.9360224  48.1367211  25.8611784  87.2683413  48.7627638
  26.3660637  88.1289320  47.6241875  23.3843499 107.1119218  39.6992238
  22.8117466 107.7309405  39.2462710  23.9576293 107.6618580  40.2332160
  29.4518889  96.3577858  51.8838786  30.4036312  96.4575956  51.9051011
  29.2822339  95.5656127  52.3936871  27.4733268  93.4433441  52.0698187
  26.8783200  93.7238454  51.3744676  27.1882965  93.9327342  52.8414929
  26.6040759 107.3956368  40.8300820  27.5371432 107.3301930  41.0333695
  26.5163972 108.2312635  40.3715353  29.2328776 106.7122238  37.7904768
  29.1542407 106.3782102  38.6840525  30.0538442 107.2044006  37.7896240
  31.9306967  99.5783978  50.9981086  31.8983287  98.6399978  51.1840770
  32.5407590  99.6568014  50.2646911  23.7690298  98.4480031  37.0408290
  24.7149402  98.3186239  37.1096708  23.3904543  97.7094693  37.5177718
  32.0801455  96.3695021  51.0439369  31.5640504  95.5853478  50.8569298
  32.9641404  96.0413738  51.2085889  29.7412182  90.1136037  47.0035182
  29.5437003  89.8051125  47.8878514  30.3511888  90.8397676  47.1333112
  37.7483517 100.6399984  50.1387123  38.4786905 100.3785273  50.6994826
  37.1390462  99.9028706  50.1789191  35.8298814  98.7807847  50.7361574
  35.1031977  98.6463812  50.1278066  35.4146101  99.0884676  51.5418292
  23.6528990 102.4997777  58.5008947  24.5732000 102.6776376  58.6948994
  23.6178573 101.5553822  58.3488646  21.9533215  96.3730007  36.9763175
  21.0464670  96.0763120  37.0525889  22.2309196  96.0759825  36.1097462
  12.8711155  97.6936370  47.4262222  12.5513939  96.8401679  47.1336596
  12.3244583  97.9084949  48.1820189  16.6491063 100.4098811  51.1431728
  16.8677072 101.3415919  51.1619762  17.0616836 100.0506786  51.9286532
  23.5695280  90.9166897  43.1307417  22.7596009  90.5713982  43.5062663
  24.2579697  90.6074440  43.7195028  25.4985829  89.9944944  44.7531713
  26.0516867  90.4140397  45.4121736  25.7355915  89.0680692  44.7954669
  21.5218928  95.9832017  60.5334477  21.4215655  96.9326374  60.4646568
  21.3040470  95.6550256  59.6610547  20.7231999  93.2316942  37.1175155
  21.5851163  93.5571841  37.3770972  20.9082343  92.4448438  36.6048220
  12.7399415 101.3139282  49.3955343  12.0462887 100.8993235  48.8825298
  13.4872406 101.3559818  48.7988762  28.8764636  92.1045469  44.2610378
  28.2963305  92.7630273  43.8788430  28.6100568  91.2822813  43.8497795
  27.3268202  91.5050526  46.4631698  27.8267981  91.6167061  45.6546017
  27.9703810  91.2011579  47.1032506  21.3850198  99.4129156  59.3499539
  20.9017280 100.2129516  59.5563428  21.4711137  99.4237101  58.3966983
  14.6536158 101.2457536  47.2721358  14.6306846 101.3445223  46.3203241
  14.9636794 102.0922686  47.5938524  17.3123535 103.3033691  51.3867973
  18.2666789 103.2717633  51.3197904  17.1136059 102.8424314  52.2018199
  17.9022918 101.8734807  53.9538770  18.7215807 102.3678885  53.9773608
  18.1759725 100.9566775  53.9256338  27.6589514  94.2645559  43.3166726
  26.7715369  94.5495210  43.0986921  28.0743503  94.1039322  42.4694003
  31.0104050  94.2892080  47.0321065  31.7864440  94.7788532  47.3045682
  30.2852184  94.7150134  47.4892935  33.4476609  95.0019699  48.0895006
  34.0421099  94.7615435  47.3788314  33.5203192  94.2826830  48.7168542
  15.6673764 108.8453310  48.4038171  15.5328232 108.0853711  47.8376169
  15.2505827 109.5694210  47.9366959  26.8032727 104.0290234  37.4114746
  27.5068577 104.2340236  38.0272401  26.0795376 104.5966996  37.6763829
  27.6330538  99.7800095  43.5317016  27.5765739 100.2368646  42.6924648
  28.1858880  99.0190780  43.3539859  31.4435343  95.5689827  44.3567136
  31.1872278  95.1686463  45.1875343  30.8188212  96.2833621  44.2317275
  35.7547681  98.3085900  46.8638427  35.1947239  98.3779089  47.6369989
  35.1491185  98.1326885  46.1437923  18.8242890 109.7422627  48.6156613
  18.7075274 110.6868060  48.5135303  18.0035336 109.4396189  49.0042412
  28.7119425 104.4672763  39.4613206  29.5465029 104.0353961  39.2790681
  28.5503768 104.2954777  40.3890100  28.3665317 100.9704876  40.8269545
  28.3114121 100.8049148  39.8857989  27.7411372 101.6780909  40.9831735
  13.1557832  96.2072941  54.6530967  13.8016695  95.6971895  55.1418193
  12.9474983  96.9441622  55.2274393  25.6811224 103.2753788  60.1523108
  26.5502384 103.4494440  59.7909743  25.2017976 104.0948205  60.0298837
  21.6761442  90.4712985  40.4054864  21.6640112  91.4154825  40.5623134
  22.5684864  90.2883131  40.1114325  19.8497404 110.3950889  51.8312542
  20.7524651 110.4274499  52.1479037  19.6234774 109.4651340  51.8458877
  21.6051006 109.1481876  48.4922620  20.6546637 109.1483737  48.3786993
  21.9083492 108.4014610  47.9758655  25.4913562  87.0655762  44.6600800
  24.7245958  86.5114249  44.8057483  25.9024267  87.1377631  45.5214952
  17.4955323  93.3540558  58.7505982  18.3586784  92.9977363  58.9609306
  16.9220734  93.0154453  59.4381386  37.3403700 114.9842414  49.5568383
  37.9782110 114.8649161  48.8531723  37.2224543 115.9323258  49.6156335
  34.1493406 114.9369842  49.4929907  33.8111918 114.8210907  48.6050442
  35.0183174 114.5361007  49.4730913  34.6313189 116.0904694  55.4516113
  34.6201830 115.6957492  54.5796617  34.7933829 115.3570766  56.0449884
  31.8501685 113.7058090  38.8246847  32.1027206 113.1839611  38.0630310
  30.9126245 113.5424235  38.9273531  36.8944968 112.7093868  46.6321591
  37.6808058 112.2913291  46.2812008  37.1583673 113.6139960  46.8003239
  42.2953395 112.6469101  47.5354569  43.0278567 112.0768318  47.7692399
  41.5392751 112.2590702  47.9761075  33.9129515 115.0696343  44.7317912
  33.5487722 114.5426964  45.4430833  34.7696631 114.6794812  44.5584397
  39.8178816 106.3590675  51.9949178  39.4862141 107.2286086  51.7710393
  39.2224429 106.0426959  52.6743208  33.5535002 110.0986242  39.7279260
  33.7209404 110.9666479  40.0949731  33.3632171 110.2613524  38.8040549
  39.7107479 111.0785761  49.0742528  38.8024356 111.0101170  48.7801289
  39.6595075 111.5557706  49.9024353  33.5324223 112.5543900  40.7125927
  33.4123848 113.0000951  41.5511407  32.8376811 112.9029217  40.1539465
  33.7848345 112.4975407  57.0177425  33.0081679 113.0569327  57.0080290
  34.4238908 112.9832190  57.5392295  41.5769125 109.2802200  50.8520402
  40.9343506 109.5734733  50.2060196  41.0724054 109.1655120  51.6573598
  39.2309289 113.0265373  41.5406261  40.1427145 113.2592760  41.3653959
  38.7218936 113.6102417  40.9781340  37.5150057 117.4490001  55.1767554
  37.9233413 117.0072411  54.4322186  36.7927318 116.8742628  55.4301747
  33.8681127 112.3862608  52.5501111  34.7142322 112.8102021  52.6935760
  33.8079765 111.7296232  53.2439674  37.0180572 110.0466976  54.2082284
  36.7741504 110.8009036  53.6716560  37.2940503 110.4252324  55.0429531
  38.9719035 116.5905588  52.8859550  39.1835930 117.2337348  52.2093931
  38.9248783 115.7567905  52.4181480  36.5745264 109.2023409  49.7896122
  35.7129743 109.5004663  50.0812860  36.6007699 109.4193808  48.8577155
  32.3275719 113.8688752  43.0059493  33.0299763 114.3209796  43.4733419
  31.9956348 113.2272571  43.6339386  30.7756081 112.4600509  57.3810702
  30.1454741 113.1416789  57.6146099  30.6692169 112.3483590  56.4363840
  26.0701053 112.1272305  48.3076626  25.2800107 112.3829833  47.8316737
  26.5612301 112.9420642  48.4128667  28.0215799 112.4916884  45.2660103
  27.2246962 112.6035578  45.7843599  27.7941391 112.8303536  44.4000994
  48.1770856 115.8116292  47.4066879  47.4234564 115.2423690  47.2510883
  48.3118397 115.7778957  48.3537513  30.0536824 106.7621274  59.7435953
  29.6603769 106.2087473  60.4183597  30.8702964 107.0731853  60.1342471
  32.9704785 108.1779153  57.3356210  33.7114498 108.7786307  57.2560672
  33.2022707 107.4356791  56.7774252  28.1146123 113.3635521  55.6134439
  27.9999638 112.4620778  55.9141538  27.2590640 113.6099217  55.2619256
  36.9161948 104.2060256  51.6120491  36.5726217 105.0961898  51.5359602
  37.2840910 104.0161914  50.7490076  36.8812230 114.1968867  40.1192927
  36.3658854 114.9673472  40.3581314  36.6089539 113.5234004  40.7425988
  34.4659341 109.0418568  45.1778165  33.6100938 108.6525419  44.9983804
  34.8786293 109.1210529  44.3177950  35.9958488 106.5764912  49.5769725
  35.4923284 106.5395047  48.7637530  36.2889095 107.4857654  49.6366381
  32.2401374 106.6603641  48.5835906  33.1054371 106.4646450  48.2241796
  32.3078883 106.4313993  49.5105263  41.8546504 116.9501222  42.0546100
  41.0775947 116.6112382  41.6101262  42.5337985 116.9553845  41.3801065
  36.6698533 112.0695960  41.9452708  36.3648669 112.3842109  42.7962851
  37.6228976 112.1477379  41.9880041  40.0937811 116.4235203  48.7112708
  39.4361486 117.1134465  48.7992837  40.8978211 116.8131635  49.0546694
  29.8463693 108.8905849  45.9552273  30.4207445 108.6681031  45.2225466
  30.4334675 108.9594544  46.7080875  38.9043270 114.7779576  46.7616650
  39.4175152 115.4109568  47.2638359  39.5544494 114.1780772  46.3960010
  30.1733280 110.9210310  39.9748158  29.3370592 111.2584997  40.2957433
  30.0338050 110.7859290  39.0375295  32.1486361 105.7647098  44.6827343
  31.4950773 105.4496115  44.0583957  32.1066835 105.1422839  45.4087166
  33.2597565 116.0466393  36.5980635  32.3524627 115.8155647  36.7971784
  33.7568597 115.2504012  36.7854616  35.3824101 112.2529032  49.0074990
  34.4646662 112.4743979  48.8496678  35.7984245 112.3275342  48.1486698
  36.1659149 113.6520447  44.1377671  36.9130968 114.1641845  43.8284793
  36.4350738 113.3304500  44.9982064  34.4385799 116.1478988  41.1204625
  33.5297018 115.8638021  41.2177095  34.4680883 116.5678067  40.2607932
  38.6137986 110.6877564  46.1196460  37.8760743 110.1754950  46.4506702
  38.8664759 110.2477945  45.3079737  38.7149613 103.4653816  46.7138229
  39.0208490 102.6051179  46.4264144  39.4402218 104.0571436  46.5137223
  32.9870693 113.7607609  47.2214420  33.0419303 112.8081445  47.1456897
  32.1761895 113.9167048  47.7055719  30.9263053 112.3784668  44.9804799
  30.1130918 112.6778839  45.3869991  31.4222047 111.9840357  45.6979281
  36.5237265 112.8426493  53.8119693  36.8786652 113.0697966  54.6714159
  37.1709396 113.1744870  53.1896948  42.2535002 115.9644929  44.5169022
  42.1152900 116.1546525  43.5890211  41.8971220 116.7264312  44.9737073
  30.4177128 109.9503024  50.5966034  31.0576507 109.8091783  49.8988997
  29.5854658 109.6637537  50.2204636  42.2804381 118.0321456  49.5280293
  42.7140888 117.9396745  50.3763348  42.9935962 118.0078956  48.8900309
  27.5020195 113.3948536  42.7860779  26.5717783 113.3332992  43.0030741
  27.5977667 112.8724489  41.9897420  27.4205744 109.9203349  45.3739021
  27.6812561 110.8348682  45.2648181  28.2422916 109.4527791  45.5235634
  28.8930669 111.3341106  52.5437845  29.5653723 111.1258468  51.8950494
  28.0660456 111.1363192  52.1043078  43.1419931 118.0745156  52.0613179
  43.3355821 118.9790967  52.3072454  43.0420549 117.6152575  52.8951764
  34.7956241 107.9603047  54.5603506  34.1484156 108.6592997  54.4667983
  35.5657257 108.3939191  54.9279754  34.9720376 115.7983812  52.6200326
  35.9012436 115.9494972  52.4469293  34.5511406 115.8867833  51.7648972
  29.2958167 114.6083709  53.3040282  29.1577965 113.8763948  53.9051822
  30.2063090 114.5192609  53.0224470  38.2573114 116.5472113  38.0524761
  37.6402285 115.8218942  37.9557814  37.7889603 117.3081474  37.7091835
  31.9240467 114.3203668  52.7923962  32.6340086 113.6796861  52.7510581
  31.8809775 114.5716563  53.7150143  30.6369401 111.3068886  54.6119602
  30.1006758 110.8559625  55.2641198  30.0486110 111.4414795  53.8690066
  30.0471660 110.7657538  37.1746065  29.1701127 110.6446338  36.8108312
  30.5229413 109.9743616  36.9224954  26.3708523 110.4424894  51.6972596
  26.2866711 109.8350563  50.9623006  25.5491229 110.9333912  51.6982092
  36.5432236 108.9278457  47.0642791  37.0400936 108.1748420  46.7443861
  35.7719218 108.9642774  46.4986000  44.3961994 114.6318823  48.7061083
  44.3851870 115.5143538  48.3355016  43.5279373 114.2790374  48.5115620
  33.1267205 111.0695840  46.7914476  32.7564993 110.5166881  47.4795381
  33.6226298 110.4653974  46.2389476  41.0134568 113.5267464  45.1731249
  41.4795021 114.3595456  45.0991551  41.4642069 113.0612446  45.8776507
  38.9851231 105.8948051  49.2122150  38.0714311 106.1252278  49.3804357
  39.4144333 105.9786495  50.0636182  38.7557690 114.0837943  51.7122044
  38.1029140 114.3313850  51.0574497  39.1338070 113.2702081  51.3784521
  34.8045263 114.8257754  58.1988081  34.1285900 114.7251883  58.8690456
  35.6272897 114.6696968  58.6624078  28.5232539 108.4799831  53.0367582
  28.5873865 109.3414662  52.6244980  28.4599659 107.8673833  52.3039940
  27.9984811 110.5522964  56.6840616  28.6256850 110.1700041  57.2978140
  27.1412730 110.3337166  57.0496309  24.7750354 112.3599393  42.6158971
  25.0703795 111.4510071  42.5626025  23.8738390 112.3387132  42.2939973
  28.3044601 110.4355389  48.5986520  27.5831187 111.0491357  48.4593993
  29.0937857 110.9713154  48.5203165  31.1070915 107.7709816  54.8727171
  31.6305316 108.0172113  55.6353481  30.8883248 108.6029851  54.4530309
  26.5038196 110.0413491  42.7398296  26.1750902 109.1610869  42.5573402
  26.8577566 109.9861159  43.6274685  29.6180019 110.3286460  43.1073774
  29.9576091 110.8572382  42.3852382  30.0652139 110.6666866  43.8832340
  32.3123460 108.7123511  52.5576842  31.9720280 107.9131324  52.9597522
  31.6062466 109.0125222  51.9853675  32.9639931 105.7972823  51.0104165
  33.7866001 105.3233302  50.8883055  33.2077995 106.5763307  51.5102851
  31.6048166 108.8261082  41.3067067  32.3256528 109.2042335  40.8030783
  30.9813470 109.5449959  41.4102044  35.7479289 109.5306231  42.2425399
  35.9642903 110.4130869  41.9414227  35.2673356 109.1392444  41.5131041
  30.4878510 112.4891944  48.8196143  30.3423091 112.8032247  49.7120425
  30.0103714 113.1076844  48.2667042  32.3474893 109.4794492  48.8677033
  32.3336462 108.5835585  48.5309331  33.0647321 109.4865156  49.5015319
  34.2001024 109.9131832  50.9130160  33.9418802 110.8348903  50.9114491
  33.6686064 109.5162267  51.6030625  31.7511789 108.3608872  44.1364603
  31.8727700 107.4325519  44.3355491  31.4613831 108.3747558  43.2242919
  34.6202979 106.0463783  47.2731323  34.6424676 106.1103116  46.3183303
  35.0371038 105.2068291  47.4671829  44.9986604 115.7819042  45.3110546
  45.4417750 115.0326368  44.9129669  44.1213114 115.7729179  44.9284278
  31.2352869 109.8740870  58.3454536  31.2841024 110.7502993  57.9632305
  31.7775383 109.3318263  57.7726179  41.8405589 117.2674459  54.9388401
  41.8903594 117.1024467  55.8803924  41.7319513 116.4001718  54.5486282
  39.1309352 113.2505387  56.2547708  40.0319214 113.1111852  55.9631706
  39.2057326 113.4159842  57.1945886  33.4652157 110.6272242  55.1000894
  32.5955466 110.9205808  54.8283483  33.7011637 111.2112687  55.8208158
  44.5419468 117.2524281  47.7032993  45.3766360 117.6914085  47.8670553
  44.6778597 116.7762934  46.8841239  41.5910974 114.8104016  53.6510481
  42.0665096 115.0031662  52.8429332  40.6676540 114.8663201  53.4053865
  36.1691191 106.8451859  52.6166315  36.6873135 107.5812886  52.2912803
  35.8146324 107.1515852  53.4513074  27.7490129 111.7056540  40.7327721
  27.0559373 111.7800895  40.0767757  27.5041880 110.9416884  41.2549238
  36.4203785 103.2652142  48.1367211  36.7005539 102.5975331  48.7627638
  37.2054392 103.4581237  47.6241875  40.2912643 111.6869776  51.8838786
  41.2430066 111.7867873  51.9051011  40.1216094 110.8948044  52.3936871
  38.3127023 108.7725359  52.0698187  37.7176955 109.0530372  51.3744676
  38.0276720 109.2619260  52.8414929  42.7700721 114.9075895  50.9981086
  42.7377041 113.9691896  51.1840770  43.3801345 114.9859932  50.2646911
  34.6084052 113.7771948  37.0408290  35.5543157 113.6478156  37.1096708
  34.2298297 113.0386610  37.5177718  42.9195210 111.6986939  51.0439369
  42.4034258 110.9145395  50.8569298  43.8035158 111.3705655  51.2085889
  40.5805937 105.4427954  47.0035182  40.3830758 105.1343043  47.8878514
  41.1905642 106.1689593  47.1333112  48.5877271 115.9691902  50.1387123
  49.3180660 115.7077190  50.6994826  47.9784217 115.2320624  50.1789191
  46.6692568 114.1099765  50.7361574  45.9425732 113.9755730  50.1278066
  46.2539855 114.4176593  51.5418292  32.7926969 111.7021925  36.9763175
  31.8858425 111.4055037  37.0525889  33.0702950 111.4051743  36.1097462
  34.4089035 106.2458814  43.1307417  33.5989763 105.9005899  43.5062663
  35.0973452 105.9366358  43.7195028  36.3379583 105.3236861  44.7531713
  36.8910622 105.7432315  45.4121736  36.5749670 104.3972609  44.7954669
  32.3612682 111.3123935  60.5334477  32.2609409 112.2618292  60.4646568
  32.1434224 110.9842174  59.6610547  31.5625754 108.5608860  37.1175155
  32.4244918 108.8863758  37.3770972  31.7476098 107.7740356  36.6048220
  39.7158390 107.4337386  44.2610378  39.1357059 108.0922190  43.8788430
  39.4494323 106.6114731  43.8497795  38.1661957 106.8342444  46.4631698
  38.6661735 106.9458979  45.6546017  38.8097565 106.5303497  47.1032506
  32.2243953 114.7421074  59.3499539  31.7411034 115.5421434  59.5563428
  32.3104892 114.7529019  58.3966983  38.4983268 109.5937477  43.3166726
  37.6109123 109.8787127  43.0986921  38.9137257 109.4331240  42.4694003
  41.8497804 109.6183998  47.0321065  42.6258195 110.1080450  47.3045682
  41.1245939 110.0442052  47.4892935  44.2870363 110.3311617  48.0895006
  44.8814854 110.0907353  47.3788314  44.3596947 109.6118748  48.7168542
  38.4724292 115.1092013  43.5317016  38.4159493 115.5660564  42.6924648
  39.0252635 114.3482697  43.3539859  42.2829098 110.8981745  44.3567136
  42.0266032 110.4978380  45.1875343  41.6581966 111.6125538  44.2317275
  46.5941436 113.6377818  46.8638427  46.0340994 113.7071007  47.6369989
  45.9884939 113.4618802  46.1437923  39.2059071 116.2996794  40.8269545
  39.1507875 116.1341065  39.8857989  38.5805127 117.0072827  40.9831735
  23.9951586 111.5364858  54.6530967  24.6410450 111.0263812  55.1418193
  23.7868737 112.2733540  55.2274393  32.5155197 105.8004903  40.4054864
  32.5033867 106.7446743  40.5623134  33.4078619 105.6175048  40.1114325
  36.3307316 102.3947680  44.6600800  35.5639712 101.8406166  44.8057483
  36.7418021 102.4669548  45.5214952  28.3349077 108.6832475  58.7505982
  29.1980539 108.3269280  58.9609306  27.7614488 108.3446370  59.4381386
  47.7555702 119.5352174  51.6120491  47.4119971 120.4253816  51.5359602
  48.1234665 119.3453832  50.7490076  49.5543368 118.7945733  46.7138229
  49.8602245 117.9343097  46.4264144  50.2795973 119.3863353  46.5137223
  49.8244986 121.2239969  49.2122150  48.9108065 121.4544195  49.3804357
  50.2538087 121.3078413  50.0636182  47.2597540 118.5944059  48.1367211
  47.5399293 117.9267248  48.7627638  48.0448146 118.7873155  47.6241875
  51.4199691 120.7719872  47.0035182  51.2224512 120.4634960  47.8878514
  52.0299397 121.4981511  47.1333112  47.1773338 120.6528779  44.7531713
  47.7304376 121.0724232  45.4121736  47.4143424 119.7264527  44.7954669
  47.1701071 117.7239597  44.6600800  46.4033467 117.1698084  44.8057483
  47.5811776 117.7961466  45.5214952   4.8195839  31.5010744  34.1312185
   4.0659548  30.9318142  33.9756190   4.9543380  31.4673409  35.0782820
   1.6411587  31.4713494  32.0355852   2.0842733  30.7220819  31.6374975
   0.7638097  31.4623631  31.6529584   1.1844452  32.9418733  34.4278300
   2.0191343  33.3808537  34.5915860   1.3203581  32.4657386  33.6086546
   5.2302254  31.6586354  36.8632430   5.9605643  31.3971642  37.4240133
   4.6209200  30.9215076  36.9034498   3.3117551  29.7994217  37.4606881
   2.5850715  29.6650182  36.8523372   2.8964838  30.1071045  38.2663599
   0.9295346  26.0206069  34.8140312   1.5239837  25.7801805  34.1033621
   1.0021930  25.3013199  35.4413849   3.2366419  29.3272270  33.5883734
   2.6765977  29.3965459  34.3615296   2.6309922  29.1513254  32.8683230
   4.8222438  46.0028784  36.2813689   5.4600848  45.8835531  35.5777029
   4.7043280  46.9509628  36.3401641   1.6312144  45.9556212  36.2175214
   1.2930655  45.8397276  35.3295749   2.5001912  45.5547377  36.1976220
   2.1131927  47.1091063  42.1761420   2.1020568  46.7143862  41.3041923
   2.2752566  46.3757136  42.7695191   3.0698518  51.4762656  27.5186570
   2.4186498  52.0616736  27.1320584   3.8642881  52.0068851  27.5781607
   4.3763706  43.7280237  33.3566897   5.1626795  43.3099661  33.0057314
   4.6402410  44.6326330  33.5248546   4.5473783  49.1653088  28.0555554
   3.9119616  49.2387714  28.7676459   4.2171190  49.7546687  27.3774633
   9.7772133  43.6655471  34.2599876  10.5097305  43.0954687  34.4937705
   9.0211489  43.2777071  34.7006381   1.3948253  46.0882712  31.4563218
   1.0306460  45.5613333  32.1676140   2.2515369  45.6981181  31.2829704
   7.2997554  37.3777045  38.7194484   6.9680878  38.2472456  38.4955699
   6.7043167  37.0613329  39.3988515   1.0353740  41.1172612  26.4524567
   1.2028142  41.9852848  26.8195038   0.8450909  41.2799894  25.5285856
   3.7929073  49.5789591  38.1190397   3.4929796  50.4814630  38.0106204
   3.4480133  49.3121774  38.9711550   7.1926217  42.0972131  35.7987834
   6.2843094  42.0287539  35.5046595   7.1413813  42.5744076  36.6269660
   1.2667083  43.5161777  43.7422732   0.4900417  44.0755697  43.7325596
   1.9057646  44.0018560  44.2637602   9.0587863  40.2988569  37.5765708
   8.4162244  40.5921103  36.9305503   8.5542792  40.1841490  38.3818905
   6.7128027  44.0451743  28.2651568   7.6245883  44.2779129  28.0899265
   6.2037674  44.6288787  27.7026646   4.9968795  48.4676370  41.9012860
   5.4052151  48.0258781  41.1567493   4.2746056  47.8928998  42.1547053
   1.3499865  43.4048977  39.2746417   2.1961060  43.8288391  39.4181066
   1.2898502  42.7482601  39.9684980   5.3197609  49.0277561  35.6565149
   4.6906472  49.1923275  34.9541217   4.9323271  49.4419171  36.4276113
   9.1986841  49.9631999  33.0109513   8.5137879  50.3430900  32.4606546
   9.2830690  50.5727325  33.7441461   4.4999310  41.0653345  40.9327591
   4.2560242  41.8195406  40.3961867   4.7759240  41.4438693  41.7674838
   6.4537773  47.6091958  39.6104856   6.6654668  48.2523718  38.9339238
   6.4067521  46.7754274  39.1426787   4.0564002  40.2209779  36.5141429
   3.1948481  40.5191032  36.8058166   4.0826436  40.4380177  35.5822461
   0.8725571  48.7651969  32.9215234   1.3363917  49.0439672  32.1319857
   0.6082369  47.8635414  32.7388325   7.5683601  50.4863913  37.7827214
   8.3901044  50.0844101  37.5009895   7.5646004  50.3832147  38.7343330
   1.3340204  50.0347957  39.9387924   1.3984637  50.4968364  40.7746096
   0.6251128  49.4045321  40.0670234  15.6589594  46.8302662  34.1312185
  14.9053302  46.2610060  33.9756190  15.7937135  46.7965326  35.0782820
   1.0488222  51.7016064  29.8066905   0.9133897  52.5467600  30.2351752
   1.5898034  51.9035342  29.0432838   2.6756698  52.3239631  43.9367247
   2.2320552  51.5376009  43.6188151   3.3373912  52.5118781  43.2711137
   4.7737936  52.6042431  41.9648648   4.7556412  53.4251312  41.4728917
   5.6957856  52.4796506  42.1898789   1.2310990  50.1186560  42.8072156
   1.7639327  49.3574848  42.5771464   0.7025071  49.8260212  43.5496311
   4.3980685  35.2246626  38.3365798   4.0544955  36.1148268  38.2604909
   4.7659648  35.0348284  37.4735383   4.3630968  45.2155237  26.8438233
   3.8477592  45.9859842  27.0826621   4.0908277  44.5420373  27.4671295
   1.9478079  40.0604938  31.9023472   1.0919675  39.6711788  31.7229110
   2.3605031  40.1396899  31.0423257   3.4777226  37.5951281  36.3015031
   2.9742021  37.5581416  35.4882837   3.7707833  38.5044024  36.3611688
   9.3365242  47.9687592  28.7791407   8.5594685  47.6298751  28.3346569
  10.0156723  47.9740215  28.1046372   4.1517271  43.0882329  28.6698014
   3.8467407  43.4028478  29.5208158   5.1047713  43.1663749  28.7125347
   2.5963703  49.2472552  30.3190968   2.0685065  48.5125312  30.0064206
   2.0951206  50.0247229  30.0730937   7.5756549  47.4421573  35.4358015
   6.9180224  48.1320834  35.5238143   8.3796948  47.8318005  35.7792001
   6.3862008  45.7965946  33.4861956   6.8993890  46.4295937  33.9883666
   7.0363232  45.1967141  33.1205316   3.6484382  55.7750270  26.2422628
   2.9746081  56.0781967  26.8507585   4.0350204  56.5779350  25.8928085
   2.8642839  43.2715401  35.7320297   1.9465400  43.4930348  35.5741985
   3.2802982  43.3461712  34.8732004   3.6477887  44.6706817  30.8622977
   4.3949705  45.1828214  30.5530099   3.9169476  44.3490870  31.7227371
   1.9204537  47.1665358  27.8449931   1.0115756  46.8824390  27.9422401
   1.9499621  47.5864436  26.9853238   7.1523804  50.7771947  31.6141099
   6.6986131  49.9362857  31.6706289   6.5217771  51.4133345  31.9515879
   6.0956724  41.7063933  32.8441766   5.3579480  41.1941319  33.1752009
   6.3483497  41.2664315  32.0325043   5.5956743  52.6148444  32.5490917
   5.8879718  53.1753501  31.8303283   6.1055364  52.9077005  33.3044076
   6.1968351  34.4840185  33.4383536   6.5027228  33.6237549  33.1509451
   6.9220956  35.0757805  33.2382530   1.6180625  48.7074101  25.1838010
   1.1800054  47.9909960  24.7243647   2.3591065  48.9350216  24.6223101
   0.5590369  53.3928795  33.6384370   0.5166547  53.6189641  32.7092902
   1.4753067  53.1592169  33.7870172   4.0056002  43.8612862  40.5365000
   4.3605390  44.0884336  41.3959465   4.6528134  44.1931239  39.9142255
   9.7353739  46.9831298  31.2414329   9.5971638  47.1732894  30.3135518
   9.3789958  47.7450681  31.6982380   9.7623119  49.0507825  36.2525600
  10.1959626  48.9583114  37.1008654  10.4754700  49.0265326  35.6145616
   3.4951014  52.6509919  37.7858701   3.5488036  53.2200856  38.5536417
   2.6265795  52.8211804  37.4212738  10.6238668  49.0931526  38.7858486
  10.8174559  49.9977336  39.0317760  10.5239287  48.6338945  39.6197071
   2.2774979  38.9789417  41.2848813   1.6302894  39.6779366  41.1913289
   3.0475995  39.4125560  41.6525061   5.6853777  49.2438269  44.3599366
   5.5339284  49.0148820  43.4429450   5.6758457  50.2008870  44.3730711
   2.4539114  46.8170181  39.3445633   3.3831174  46.9681341  39.1714600
   2.0330144  46.9054202  38.4894279   1.8475597  55.9429942  28.4569707
   2.0227353  55.4717986  29.2715329   1.1608385  56.5695709  28.6850967
   2.8032660  50.2202449  34.5033008   2.4682493  50.1803219  35.3990658
   2.3036606  49.5547164  34.0303418   5.7391852  47.5658483  24.7770068
   5.1221023  46.8405311  24.6803120   5.2708341  48.3267843  24.4337142
   7.3945984  52.2757391  42.4375848   7.3358530  51.5916611  41.7706431
   7.7965502  53.0176381  41.9856474   7.3963391  50.2396975  40.6689828
   6.5090170  49.9022897  40.7916227   7.9661942  49.5080006  40.9058593
   0.9264544  54.8998428  37.6351071   0.8534716  55.7053399  38.1470375
   0.4841938  55.0990393  36.8099092   4.0250974  39.9464827  33.7888098
   4.5219674  39.1934789  33.4689168   3.2537956  39.9829144  33.2231307
  11.8780732  45.6505193  35.4306389  11.8670608  46.5329908  35.0600322
  11.0098111  45.2976743  35.2360926   3.3863228  54.7985262  39.7909230
   4.0991200  55.4332726  39.7185131   2.8953257  54.8949128  38.9749231
   5.1080755  48.7036514  31.3626521   4.1737034  48.8237977  31.1931226
   5.2857423  47.8008981  31.0986531   8.4953306  44.5453834  31.8976555
   8.9613758  45.3781825  31.8236858   8.9460807  44.0798815  32.6021814
   6.5629537  50.8897655  28.8962707   6.8389381  50.7754249  29.8056581
   5.6934036  50.4915140  28.8574880   6.4669969  36.9134421  35.9367457
   5.5533049  37.1438647  36.1049664   6.8963070  36.9972865  36.7881489
   6.2376427  45.1024312  38.4367351   5.5847878  45.3500220  37.7819803
   6.6156807  44.2888451  38.1029828   3.1983601  55.1384006  32.5395521
   3.3805996  54.3205662  33.0023273   4.0216587  55.3551698  32.1020411
   3.5325767  54.0652191  29.8010569   4.0613533  53.5544645  29.1880732
   3.7953986  53.7494721  30.6656103   2.2864001  45.8444124  44.9233388
   1.6104638  45.7438253  45.5935763   3.1091634  45.6883337  45.3869385
   1.0286783  57.1511051  39.1591004   1.5805091  57.3142673  39.9240089
   1.3692977  57.7415489  38.4871029   5.8797658  51.9772309  45.0139658
   6.4237562  52.5902267  44.5194613   5.2984503  52.5351887  45.5306671
   4.1655171  55.0993027  36.1454686   4.0406310  54.2982766  35.6365631
   4.8234262  55.5939220  35.6568656   6.2290079  52.9002047  37.7734236
   5.2820415  52.7807398  37.7012563   6.5772852  52.0124545  37.8560497
   3.2336512  52.6954763  33.9738588   3.0861475  51.7671470  34.1546158
   4.0590006  52.7174854  33.4895663   6.8370634  53.5183322  35.0603461
   7.7617182  53.3126183  34.9227912   6.6685938  53.2699723  35.9692802
   3.2298027  40.5492600  28.9670705   3.4461641  41.4317238  28.6659534
   2.7492094  40.1578814  28.2376347   1.6819762  40.9318202  37.6375467
   1.4237539  41.8535273  37.6359797   1.1504802  40.5348636  38.3275931
   6.6265950  54.0368989  30.4165552   6.8002828  53.4715411  29.6639405
   7.1194842  54.8369884  30.2345042   2.1021717  37.0650152  33.9976630
   2.1243414  37.1289485  33.0428609   2.5189776  36.2254661  34.1917136
  12.4805342  46.8005412  32.0355852  12.9236488  46.0512737  31.6374975
  11.6031852  46.7915548  31.6529584   7.6141123  53.3535753  27.5162451
   8.3092028  53.9742446  27.7349765   7.9564273  52.5031105  27.7914829
   9.5132546  50.8035459  29.0449782  10.0383870  51.1422732  28.3199102
   9.4254899  49.8682474  28.8612916   1.1752595  54.7169533  41.1739658
   1.4839721  54.4718679  42.0462358   1.9728077  54.9216171  40.6858528
   1.1973207  56.8707442  33.4045035   0.7578197  56.3783821  34.0977891
   1.9481324  56.3280410  33.1637110   9.2026452  51.4368363  44.3500979
   8.4121996  51.4192501  43.8105479   8.9659807  51.9756656  45.1050016
   9.3224327  48.2860829  41.6633708   9.3722332  48.1210836  42.6049231
   9.2138250  47.4188088  41.2731589   6.6128090  44.2691757  42.9793015
   7.5137952  44.1298222  42.6877013   6.6876064  44.4346212  43.9191192
  10.8242524  50.7057770  41.9075730  10.5327332  51.0687751  42.7439191
  10.2114655  49.9924779  41.7289062  12.0238206  48.2710650  34.4278300
  12.8585098  48.7100454  34.5915860  12.1597335  47.7949303  33.6086546
   9.0729712  45.8290385  40.3755788   9.5483834  46.0218031  39.5674639
   8.1495278  45.8849571  40.1299171   3.6509929  37.8638229  39.3411621
   4.1691873  38.5999256  39.0158110   3.2965061  38.1702222  40.1758381
   3.9022523  34.2838511  34.8612518   4.1824277  33.6161700  35.4872945
   4.6873130  34.4767607  34.3487182   1.7055991  53.4597505  26.4237544
   1.1329958  54.0787692  25.9708016   2.2788785  54.0096867  26.9577466
   7.7731381  42.7056145  38.6084093   8.7248804  42.8054243  38.6296317
   7.6034832  41.9134414  39.1182177   5.7945761  39.7911728  38.7943494
   5.1995693  40.0716741  38.0989983   5.5095457  40.2805629  39.5660235
   4.9253251  53.7434655  27.5546127   5.8583924  53.6780217  27.7579002
   4.8376464  54.5790922  27.0960659   7.5541268  53.0600526  24.5150074
   7.4754899  52.7260389  25.4085832   8.3750935  53.5522293  24.5141547
  10.2519459  45.9262265  37.7226393  10.2195779  44.9878266  37.9086077
  10.8620083  46.0046302  36.9892218   2.0902790  44.7958318  23.7653597
   3.0361895  44.6664526  23.8342015   1.7117035  44.0572980  24.2423025
  10.4013947  42.7173308  37.7684676   9.8852996  41.9331765  37.5814605
  11.2853896  42.3892025  37.9331195   8.0624674  36.4614324  33.7280489
   7.8649496  36.1529412  34.6123821   8.6724380  37.1875963  33.8578418
  16.0696009  46.9878272  36.8632430  16.7999397  46.7263560  37.4240133
  15.4602954  46.2506994  36.9034498  14.1511306  45.1286134  37.4606881
  13.4244470  44.9942099  36.8523372  13.7358593  45.4362963  38.2663599
   1.9741482  48.8476064  45.2254254   2.8944492  49.0254663  45.4194300
   1.9391065  47.9032109  45.0733953   1.8907773  37.2645184  29.8552723
   1.0808501  36.9192269  30.2307969   2.5792190  36.9552728  30.4440335
   3.8198321  36.3423231  31.4777020   4.3729360  36.7618684  32.1367043
   4.0568407  35.4158979  31.5199976   7.1977128  38.4523756  30.9855684
   6.6175797  39.1108560  30.6033737   6.9313061  37.6301101  30.5743102
   5.6480694  37.8528814  33.1877005   6.1480473  37.9645348  32.3791323
   6.2916302  37.5489866  33.8277813   5.9802006  40.6123846  30.0412033
   5.0927861  40.8973497  29.8232227   6.3955995  40.4517610  29.1939309
   9.3316542  40.6370367  33.7566372  10.1076932  41.1266820  34.0290989
   8.6064676  41.0628421  34.2138241  11.7689101  41.3497987  34.8140312
  12.3633592  41.1093722  34.1033621  11.8415685  40.6305117  35.4413849
   5.1245220  50.3768521  24.1360052   5.8281070  50.5818523  24.7517708
   4.4007868  50.9445283  24.4009136   5.9543030  46.1278382  30.2562323
   5.8978231  46.5846934  29.4169955   6.5071372  45.3669067  30.0785165
   9.7647836  41.9168114  31.0812442   9.5084770  41.5164750  31.9120650
   9.1400704  42.6311908  30.9562581  14.0760174  44.6564187  33.5883734
  13.5159732  44.7257377  34.3615296  13.4703677  44.4805172  32.8683230
   7.0331917  50.8151050  26.1858513   7.8677521  50.3832249  26.0035987
   6.8716260  50.6433064  27.1135407   6.6877809  47.3183163  27.5514852
   6.6326613  47.1527435  26.6103296   6.0623864  48.0259196  27.7077042
   4.0023716  49.6232075  46.8768415   4.8714876  49.7972728  46.5155050
   3.5230468  50.4426492  46.7544144   3.8126054  33.4134049  31.3846107
   3.0458450  32.8592536  31.5302789   4.2236759  33.4855918  32.2460259
  15.6616192  61.3320701  36.2813689  16.2994602  61.2127449  35.5777029
  15.5437035  62.2801545  36.3401641  12.4705898  61.2848129  36.2175214
  12.1324410  61.1689194  35.3295749  13.3395667  60.8839294  36.1976220
   8.3292714  63.1383606  32.2072105   7.7657579  63.0473543  31.4388393
   8.2145109  62.3183510  32.6874597  12.9525681  62.4382981  42.1761420
  12.9414322  62.0435779  41.3041923  13.1146321  61.7049054  42.7695191
   5.8757146  64.6334797  35.0456325   6.6678438  64.2925622  34.6302625
   6.1153796  64.7429772  35.9658479  13.9092273  66.8054574  27.5186570
  13.2580253  67.3908654  27.1320584  14.7036636  67.3360768  27.5781607
   7.8347900  63.8943711  27.9173704   8.6078776  63.3472698  27.7786580
   8.1873299  64.7587960  28.1288166   9.6732942  65.2220093  41.1240603
   9.3822808  66.1265724  41.0087270  10.3089927  65.2636621  41.8384673
  10.5989149  62.5996941  37.7141963  11.1952722  62.3752964  36.9998926
  10.6564121  61.8581687  38.3167411  10.1714178  60.0536377  25.5492154
  10.4239698  59.5317898  24.7875617   9.2338737  59.8902522  25.6518838
  15.2157461  59.0572155  33.3566897  16.0020550  58.6391578  33.0057314
  15.4796165  59.9618247  33.5248546  15.3867538  64.4945005  28.0555554
  14.7513371  64.5679632  28.7676459  15.0564944  65.0838604  27.3774633
  20.6165888  58.9947388  34.2599876  21.3491060  58.4246605  34.4937705
  19.8605243  58.6068989  34.7006381   9.8910466  61.9564483  27.7516529
   9.7746725  61.2809386  28.4197613  10.0012726  61.4696857  26.9348682
  12.2342007  61.4174630  31.4563218  11.8700215  60.8905251  32.1676140
  13.0909123  61.0273099  31.2829704  18.1391308  52.7068962  38.7194484
  17.8074633  53.5764373  38.4955699  17.5436921  52.3905246  39.3988515
  11.8747494  56.4464530  26.4524567  12.0421897  57.3144766  26.8195038
  11.6844663  56.6091811  25.5285856  14.6322828  64.9081508  38.1190397
  14.3323551  65.8106547  38.0106204  14.2873887  64.6413692  38.9711550
   8.0835309  61.3595305  34.1527102   7.1585806  61.2271519  34.3604793
   8.3319722  62.1389525  34.6497044  18.0319971  57.4264049  35.7987834
  17.1236849  57.3579457  35.5046595  17.9807567  57.9035994  36.6269660
  11.8536715  58.9022187  27.4371234  11.7336340  59.3479238  28.2756714
  11.1589304  59.2507505  26.8784772   5.4444120  61.0028579  34.9870891
   5.5736501  61.2563058  35.9010302   4.7641571  61.5956287  34.6675546
   9.6143607  71.6725829  31.0861365   9.5367637  72.6233654  31.1649845
   9.0105251  71.3271701  31.7436291  12.1060837  58.8453694  43.7422732
  11.3294171  59.4047614  43.7325596  12.7451400  59.3310477  44.2637602
  19.8981618  55.6280487  37.5765708  19.2555998  55.9213020  36.9305503
  19.3936546  55.5133407  38.3818905  17.5521781  59.3743660  28.2651568
  18.4639638  59.6071047  28.0899265  17.0431428  59.9580704  27.7026646
  10.3607209  61.6539148  43.3040699  11.1021894  62.1924192  43.0275522
   9.6544195  62.2805436  43.4612251  15.8362549  63.7968288  41.9012860
  16.2445905  63.3550699  41.1567493  15.1139811  63.2220916  42.1547053
  12.1893619  58.7340895  39.2746417  13.0354814  59.1580308  39.4181066
  12.1292257  58.0774519  39.9684980  16.1591364  64.3569479  35.6565149
  15.5300226  64.5215193  34.9541217  15.7717026  64.7711088  36.4276113
  20.0380596  65.2923917  33.0109513  19.3531634  65.6722818  32.4606546
  20.1224445  65.9019243  33.7441461  15.3393064  56.3945263  40.9327591
  15.0953996  57.1487324  40.3961867  15.6152995  56.7730611  41.7674838
  17.2931527  62.9383876  39.6104856  17.5048422  63.5815635  38.9339238
  17.2461275  62.1046192  39.1426787  14.8957756  55.5501696  36.5141429
  14.0342235  55.8482950  36.8058166  14.9220191  55.7672095  35.5822461
  11.7119326  64.0943887  32.9215234  12.1757671  64.3731590  32.1319857
  11.4476124  63.1927331  32.7388325   8.6043407  63.6415368  35.8594997
   9.1744764  64.0702637  35.2212482   9.1951519  63.3597953  36.5579183
  10.6488212  60.2167039  29.7304799  11.3512255  60.6688083  30.1978726
  10.3168840  59.5750858  30.3584693   9.0968573  58.8078796  44.1056009
   8.4667234  59.4895077  44.3391406   8.9904661  58.6961877  43.1609147
   4.3913546  58.4750592  35.0321933   3.6012600  58.7308120  34.5562044
   4.8824793  59.2898930  35.1373973  18.4077355  65.8155831  37.7827214
  19.2294799  65.4136018  37.5009895  18.4039758  65.7124065  38.7343330
   6.3428291  58.8395171  31.9905410   5.5459454  58.9513865  32.5088905
   6.1153883  59.1781823  31.1246300  12.1733959  65.3639874  39.9387924
  12.2378391  65.8260281  40.7746096  11.4644883  64.7337239  40.0670234
   2.6751249  58.7281082  37.4636924   2.9259287  59.6128092  37.7294500
   3.2110797  58.5485684  36.6912016  26.4983348  62.1594579  34.1312185
  25.7447057  61.5901978  33.9756190  26.6330889  62.1257244  35.0782820
  11.8881976  67.0307982  29.8066905  11.7527651  67.8759517  30.2351752
  12.4291789  67.2327259  29.0432838   8.3749316  53.1099562  46.4681260
   7.9816261  52.5565760  47.1428904   9.1915456  53.4210140  46.8587777
   5.3411374  64.5483420  30.3794830   5.8535894  65.3426670  30.5300394
   5.9934087  63.8509710  30.3128431   7.1506258  67.6649176  32.4617583
   7.3272887  68.5867141  32.2738567   7.9463092  67.3507595  32.8911963
  11.2917277  54.5257441  44.0601516  12.0326990  55.1264594  43.9805979
  11.5235200  53.7835078  43.5019559   6.4358615  59.7113808  42.3379746
   6.3212130  58.8099065  42.6386845   5.5803133  59.9577505  41.9864563
  13.5150453  67.6531548  43.9367247  13.0714307  66.8667927  43.6188151
  14.1767666  67.8410699  43.2711137   8.2737574  69.1827350  38.4627925
   8.8244999  69.0544413  37.6904919   7.4349050  69.4822239  38.1122818
  15.6131691  67.9334348  41.9648648  15.5950166  68.7543229  41.4728917
  16.5351611  67.8088423  42.1898789  12.0704745  65.4478478  42.8072156
  12.6033082  64.6866766  42.5771464  11.5418826  65.1552129  43.5496311
  15.2374440  50.5538544  38.3365798  14.8938709  51.4440185  38.2604909
  15.6053402  50.3640201  37.4735383   3.3060290  62.8772074  31.1554400
   4.1435512  63.2869082  30.9388108   3.4838558  61.9371516  31.1254594
  15.2024723  60.5447155  26.8438233  14.6871346  61.3151759  27.0826621
  14.9302031  59.8712291  27.4671295  12.7871834  55.3896856  31.9023472
  11.9313430  55.0003706  31.7229110  13.1998785  55.4688816  31.0423257
  14.3170980  52.9243199  36.3015031  13.8135776  52.8873334  35.4882837
  14.6101587  53.8335941  36.3611688  10.5613866  53.0081928  35.3081213
  11.4266863  52.8124737  34.9487103  10.6291375  52.7792280  36.2350570
  20.1758997  63.2979509  28.7791407  19.3988439  62.9590669  28.3346569
  20.8550478  63.3032133  28.1046372  14.9911026  58.4174247  28.6698014
  14.6861161  58.7320396  29.5208158  15.9441468  58.4955667  28.7125347
  13.4357458  64.5764470  30.3190968  12.9078819  63.8417230  30.0064206
  12.9344960  65.3539146  30.0730937  18.4150304  62.7713491  35.4358015
  17.7573978  63.4612752  35.5238143  19.2190703  63.1609923  35.7792001
   8.1676185  55.2384136  32.6797580   8.7419937  55.0159318  31.9470773
   8.7547168  55.3072831  33.4326181  17.2255762  61.1257863  33.4861956
  17.7387644  61.7587855  33.9883666  17.8756986  60.5259059  33.1205316
   8.4945772  57.2688597  26.6993465   7.6583085  57.6063284  27.0202740
   8.3550542  57.1337577  25.7620602  10.4698853  52.1125385  31.4072649
   9.8163265  51.7974402  30.7829264  10.4279327  51.4901126  32.1332472
  11.5810058  62.3944680  23.3225941  10.6737120  62.1633934  23.5217090
  12.0781090  61.5982300  23.5099923  14.4878137  71.1042188  26.2422628
  13.8139835  71.4073884  26.8507585  14.8743959  71.9071268  25.8928085
  13.7036593  58.6007319  35.7320297  12.7859155  58.8222266  35.5741985
  14.1196737  58.6753629  34.8732004  14.4871641  59.9998735  30.8622977
  15.2343460  60.5120132  30.5530099  14.7563231  59.6782787  31.7227371
  12.7598291  62.4957275  27.8449931  11.8509510  62.2116308  27.9422401
  12.7893375  62.9156354  26.9853238  17.9917559  66.1063865  31.6141099
  17.5379886  65.2654775  31.6706289  17.3611525  66.7425263  31.9515879
  16.9350478  57.0355851  32.8441766  16.1973235  56.5233237  33.1752009
  17.1877252  56.5956232  32.0325043  16.4350498  67.9440361  32.5490917
  16.7273472  68.5045419  31.8303283  16.9449118  68.2368922  33.3044076
  17.0362106  49.8132103  33.4383536  17.3420982  48.9529466  33.1509451
  17.7614710  50.4049723  33.2382530   3.3286462  60.2162789  31.8265134
   3.1310861  59.6232150  31.1016200   2.7733126  59.9115000  32.5441072
  11.3083185  60.1085896  33.9459727  11.3631795  59.1559732  33.8702203
  10.4974387  60.2645335  34.4301025  12.4574379  64.0366019  25.1838010
  12.0193809  63.3201878  24.7243647  13.1984820  64.2642134  24.6223101
   9.2475545  58.7262956  31.7050106   8.4343411  59.0257126  32.1115298
   9.7434539  58.3318644  32.4224588  11.3984123  68.7220713  33.6384370
  11.3560302  68.9481559  32.7092902  12.3146822  68.4884087  33.7870172
  14.8449757  59.1904780  40.5365000  15.1999145  59.4176253  41.3959465
  15.4921888  59.5223157  39.9142255  20.5747494  62.3123216  31.2414329
  20.4365392  62.5024812  30.3135518  20.2183713  63.0742599  31.6982380
   8.7389620  56.2981311  37.3211341   9.3788999  56.1570070  36.6234304
   7.9067150  56.0115825  36.9449943  20.6016873  64.3799743  36.2525600
  21.0353380  64.2875032  37.1008654  21.3148454  64.3557243  35.6145616
   9.5149924  65.5983742  33.4346333  10.3090522  65.1034062  33.2328908
   8.8041616  65.0701605  33.0714039  14.3344768  67.9801837  37.7858701
  14.3881791  68.5492773  38.5536417  13.4659550  68.1503722  37.4212738
   5.8232687  59.7426823  29.5106086   4.8930275  59.6811279  29.7276048
   5.9190159  59.2202776  28.7142727   5.7418236  56.2681636  32.0984327
   6.0025054  57.1826969  31.9893488   6.5635409  55.8006079  32.2480940
   7.2143162  57.6819393  39.2683152   7.8866215  57.4736755  38.6195801
   6.3872948  57.4841479  38.8288384  21.4632423  64.4223444  38.7858486
  21.6568313  65.3269254  39.0317760  21.3633041  63.9630863  39.6197071
  13.1168734  54.3081334  41.2848813  12.4696649  55.0071284  41.1913289
  13.8869749  54.7417478  41.6525061  16.5247532  64.5730186  44.3599366
  16.3733038  64.3440738  43.4429450  16.5152211  65.5300788  44.3730711
  13.2932868  62.1462099  39.3445633  14.2224928  62.2973259  39.1714600
  12.8723898  62.2346120  38.4894279  12.0921200  66.1712764  37.1144170
  11.9532286  65.8031548  37.9870108  11.3035796  66.6860403  36.9428128
  12.6869352  71.2721860  28.4569707  12.8621107  70.8009903  29.2715329
  12.0002140  71.8987626  28.6850967  13.6426415  65.5494366  34.5033008
  13.3076248  65.5095136  35.3990658  13.1430361  64.8839082  34.0303418
   7.6170659  60.9561996  40.0285589   7.4790457  60.2242235  40.6297128
   8.5275582  60.8670896  39.7469777  16.5785607  62.8950401  24.7770068
  15.9614777  62.1697229  24.6803120  16.1102095  63.6559761  24.4337142
  10.2452960  60.6681956  39.5169269  10.9552578  60.0275148  39.4755887
  10.2022268  60.9194850  40.4395450  18.2339738  67.6049309  42.4375848
  18.1752284  66.9208529  41.7706431  18.6359257  68.3468299  41.9856474
   8.9581894  57.6547173  41.3364908   8.4219251  57.2037912  41.9886505
   8.3698602  57.7893082  40.5935373   7.2530437  74.4211223  35.2309567
   7.4927035  75.0529747  35.9088585   6.4099634  74.0699263  35.5174926
   8.3684153  57.1135825  23.8991372   7.4913619  56.9924626  23.5353619
   8.8441906  56.3221903  23.6470261  18.2357146  65.5688893  40.6689828
  17.3483924  65.2314815  40.7916227  18.8055697  64.8371924  40.9058593
   4.6921015  56.7903181  38.4217903   4.6079204  56.1828851  37.6868313
   3.8703721  57.2812199  38.4227399  11.7658299  70.2290345  37.6351071
  11.6928470  71.0345317  38.1470375  11.3235692  70.4282311  36.8099092
  11.5548079  69.4662115  31.1453892  10.7715600  70.0083795  31.2392117
  12.2540824  69.9836095  31.5448134  14.8644729  55.2756745  33.7888098
  15.3613428  54.5226707  33.4689168  14.0931710  55.3121061  33.2231307
  22.7174486  60.9797110  35.4306389  22.7064362  61.8621826  35.0600322
  21.8491866  60.6268661  35.2360926  14.2256982  70.1277179  39.7909230
  14.9384955  70.7624644  39.7185131  13.7347011  70.2241045  38.9749231
  15.9474509  64.0328432  31.3626521  15.0130788  64.1529894  31.1931226
  16.1251178  63.1300899  31.0986531  11.4479697  57.4174128  33.5159782
  11.0777485  56.8645168  34.2040688  11.9438790  56.8132261  32.9634782
  19.3347061  59.8745751  31.8976555  19.8007513  60.7073743  31.8236858
  19.7854561  59.4090733  32.6021814   9.2768896  67.8771623  40.6114800
   9.9778355  68.5108106  40.7644195   8.8064011  68.2186354  39.8510440
  17.4023292  66.2189573  28.8962707  17.6783136  66.1046167  29.8056581
  16.5327791  65.8207057  28.8574880  17.3063723  52.2426338  35.9367457
  16.3926803  52.4730565  36.1049664  17.7356825  52.3264782  36.7881489
  17.0770182  60.4316230  38.4367351  16.4241632  60.6792138  37.7819803
  17.4550562  59.6180368  38.1029828  14.0377356  70.4675923  32.5395521
  14.2199750  69.6497579  33.0023273  14.8610342  70.6843616  32.1020411
  14.3719521  69.3944108  29.8010569  14.9007288  68.8836563  29.1880732
  14.6347741  69.0786639  30.6656103  13.1257755  61.1736041  44.9233388
  12.4498392  61.0730171  45.5935763  13.9485389  61.0175255  45.3869385
   4.8736614  67.4107978  37.5445903   5.4590051  66.6651666  37.6773807
   4.6761453  67.7211934  38.4282567   7.7275269  70.4459225  32.5608345
   7.0585645  70.9305353  32.0772385   7.5888139  70.6928446  33.4751724
  11.8680538  72.4802969  39.1591004  12.4198846  72.6434590  39.9240089
  12.2086731  73.0707407  38.4871029   6.8445031  54.8278118  39.7612888
   6.9086358  55.6892949  39.3490286   6.7812151  54.2152120  39.0285247
   6.3197304  56.9001251  43.4085923   6.9469342  56.5178328  44.0223447
   5.4625222  56.6815453  43.7741615  16.7191412  67.3064226  45.0139658
  17.2631316  67.9194184  44.5194613  16.1378257  67.8643805  45.5306671
   3.0962846  58.7077680  29.3404278   3.3916287  57.7988359  29.2871331
   2.1950882  58.6865420  29.0185280  15.0048925  70.4284944  36.1454686
  14.8800065  69.6274684  35.6365631  15.6628016  70.9231138  35.6568656
   6.6257093  56.7833677  35.3231826   5.9043679  57.3969644  35.1839299
   7.4150349  57.3191442  35.2448472  17.0683834  68.2293964  37.7734236
  16.1214169  68.1099315  37.7012563  17.4166607  67.3416462  37.8560497
   9.4283407  54.1188103  41.5972478   9.9517809  54.3650400  42.3598787
   9.2095740  54.9508138  41.1775615   4.8250688  56.3891778  29.4643603
   4.4963394  55.5089157  29.2818709   5.1790059  56.3339446  30.3519992
  14.0730267  68.0246681  33.9738588  13.9255229  67.0963388  34.1546158
  14.8983760  68.0466771  33.4895663   7.9392511  56.6764748  29.8319080
   8.2788584  57.2050669  29.1097689   8.3864632  57.0145154  30.6077647
  17.6764389  68.8475239  35.0603461  18.6010936  68.6418101  34.9227912
  17.5079692  68.5991640  35.9692802  10.6335952  55.0601798  39.2822148
  10.2932772  54.2609611  39.6842828   9.9274958  55.3603509  38.7098982
  11.2852424  52.1451111  37.7349471  12.1078493  51.6711589  37.6128362
  11.5290487  52.9241594  38.2348158   9.9260658  55.1739369  28.0312373
  10.6469021  55.5520622  27.5276090   9.3025962  55.8928246  28.1347351
  14.0691781  55.8784518  28.9670705  14.2855396  56.7609156  28.6659534
  13.5885848  55.4870732  28.2376347   8.8091003  58.8370231  35.5441450
   8.6635583  59.1510534  36.4365732   8.3316206  59.4555132  34.9912349
  10.6687385  55.8272779  35.5922340  10.6548954  54.9313873  35.2554638
  11.3859814  55.8343443  36.2260626  12.5213516  56.2610120  37.6375467
  12.2631294  57.1827190  37.6359797  11.9898557  55.8640554  38.3275931
  17.4659705  69.3660907  30.4165552  17.6396582  68.8007329  29.6639405
  17.9588596  70.1661802  30.2345042   3.2836665  61.3775576  38.4829111
   2.7390133  62.1535384  38.6149386   4.1616015  61.7246380  38.3248233
  10.0724281  54.7087160  30.8609910  10.1940193  53.7803806  31.0600797
   9.7826324  54.7225846  29.9488225  12.9415472  52.3942070  33.9976630
  12.9637169  52.4581403  33.0428609  13.3583531  51.5546579  34.1917136
  23.3199096  62.1297330  32.0355852  23.7630242  61.3804655  31.6374975
  22.4425606  62.1207466  31.6529584  18.4534877  68.6827671  27.5162451
  19.1485782  69.3034364  27.7349765  18.7958028  67.8323022  27.7914829
   4.0702687  60.5045472  41.3759268   3.3284423  60.6528107  41.9623899
   3.7495431  60.7653738  40.5126018  20.3526300  66.1327377  29.0449782
  20.8777625  66.4714649  28.3199102  20.2648653  65.1974392  28.8612916
  12.0146349  70.0461450  41.1739658  12.3233476  69.8010597  42.0462358
  12.8121831  70.2508089  40.6858528  12.0366961  72.1999360  33.4045035
  11.5971952  71.7075739  34.0977891  12.7875078  71.6572328  33.1637110
   4.5159300  68.3910901  33.4069663   5.3417320  68.0914673  33.0268306
   4.1653352  67.6218523  33.8559451   9.4840833  67.7437369  35.4767336
   8.8620843  67.0808074  35.1769564  10.1545700  67.7698501  34.7940984
   2.7167905  66.3097227  34.3658596   1.8799814  65.8819402  34.1842598
   2.6891551  66.5029671  35.3029388   9.5565361  56.2219157  45.0699842
   9.6053516  57.0981280  44.6877612  10.0987875  55.6796550  44.4971486
  20.0420207  66.7660280  44.3500979  19.2515750  66.7484419  43.8105479
  19.8053561  67.3048574  45.1050016  20.1618082  63.6152747  41.6633708
  20.2116087  63.4502754  42.6049231  20.0532005  62.7480006  41.2731589
   9.0454340  66.2941292  28.9525797   9.1942461  66.9776757  28.2992470
   9.8520784  66.2746382  29.4675253  17.4521844  59.5983675  42.9793015
  18.3531707  59.4590140  42.6877013  17.5269819  59.7638129  43.9191192
  11.7864649  56.9750529  41.8246201  10.9167959  57.2684095  41.5528790
  12.0224130  57.5590974  42.5453465  21.6636278  66.0349688  41.9075730
  21.3721087  66.3979669  42.7439191  21.0508410  65.3216696  41.7289062
  22.8631961  63.6002568  34.4278300  23.6978852  64.0392372  34.5915860
  22.9991090  63.1241221  33.6086546  19.9123467  61.1582303  40.3755788
  20.3877588  61.3509949  39.5674639  18.9889032  61.2141489  40.1299171
   6.8006973  62.3206470  29.9586866   6.5553015  61.4168800  30.1567076
   6.9702888  62.3223620  29.0166344  14.4903683  53.1930146  39.3411621
  15.0085627  53.9291173  39.0158110  14.1358816  53.4994140  40.1758381
   6.0702621  58.0534828  27.4573027   5.3771866  58.1279183  26.8013063
   5.8254373  57.2895171  27.9794544  14.7416277  49.6130429  34.8612518
  15.0218031  48.9453618  35.4872945  15.5266884  49.8059524  34.3487182
  12.5449746  68.7889423  26.4237544  11.9723713  69.4079610  25.9708016
  13.1182539  69.3388784  26.9577466  18.6125136  58.0348063  38.6084093
  19.5642559  58.1346161  38.6296317  18.4428586  57.2426331  39.1182177
  16.6339515  55.1203646  38.7943494  16.0389447  55.4008659  38.0989983
  16.3489212  55.6097547  39.5660235  15.7647006  69.0726573  27.5546127
  16.6977679  69.0072135  27.7579002  15.6770218  69.9082840  27.0960659
  18.3935022  68.3892443  24.5150074  18.3148654  68.0552307  25.4085832
  19.2144689  68.8814211  24.5141547  21.0913213  61.2554183  37.7226393
  21.0589534  60.3170183  37.9086077  21.7013837  61.3338219  36.9892218
  12.9296544  60.1250236  23.7653597  13.8755649  59.9956444  23.8342015
  12.5510789  59.3864897  24.2423025  21.2407702  58.0465226  37.7684676
  20.7246751  57.2623683  37.5814605  22.1247650  57.7183943  37.9331195
  18.9018429  51.7906242  33.7280489  18.7043250  51.4821330  34.6123821
  19.5118134  52.5167880  33.8578418  26.9089763  62.3170189  36.8632430
  27.6393152  62.0555478  37.4240133  26.2996709  61.5798911  36.9034498
  24.9905060  60.4578052  37.4606881  24.2638224  60.3234017  36.8523372
  24.5752347  60.7654881  38.2663599  12.8135237  64.1767982  45.2254254
  13.7338246  64.3546581  45.4194300  12.7784820  63.2324027  45.0733953
  11.1139461  58.0500212  23.7008482  10.2070917  57.7533325  23.7771196
  11.3915442  57.7530030  22.8342768   2.0317402  59.3706575  34.1507528
   1.7120186  58.5171884  33.8581902   1.4850830  59.5855153  34.9065496
   5.8097309  62.0869016  37.8677035   6.0283319  63.0186124  37.8865069
   6.2223083  61.7276991  38.6531839  12.7301527  52.5937102  29.8552723
  11.9202256  52.2484187  30.2307969  13.4185944  52.2844645  30.4440335
  14.6592075  51.6715148  31.4777020  15.2123114  52.0910602  32.1367043
  14.8962162  50.7450897  31.5199976  10.6825175  57.6602222  47.2579784
  10.5821902  58.6096579  47.1891875  10.4646717  57.3320461  46.3855854
   9.8838246  54.9087147  23.8420461  10.7457410  55.2342045  24.1016279
  10.0688590  54.1218643  23.3293527   1.9005662  62.9909487  36.1200650
   1.2069133  62.5763440  35.6070604   2.6478653  63.0330023  35.5234069
  18.0370883  53.7815674  30.9855684  17.4569552  54.4400478  30.6033737
  17.7706815  52.9593018  30.5743102  16.4874449  53.1820731  33.1877005
  16.9874227  53.2937266  32.3791323  17.1310057  52.8781784  33.8277813
  10.5456445  61.0899361  46.0744846  10.0623526  61.8899721  46.2808735
  10.6317384  61.1007306  45.1212290   3.8142404  62.9227741  33.9966665
   3.7913092  63.0215428  33.0448548   4.1243041  63.7692891  34.3183831
   6.4729782  64.9803896  38.1113279   7.4273036  64.9487838  38.0443211
   6.2742306  64.5194519  38.9263505   7.0629164  63.5505012  40.6784077
   7.8822053  64.0449090  40.7018914   7.3365972  62.6336980  40.6501644
  16.8195761  55.9415764  30.0412033  15.9321616  56.2265415  29.8232227
  17.2349750  55.7809527  29.1939309  20.1710297  55.9662285  33.7566372
  20.9470687  56.4558737  34.0290989  19.4458431  56.3920339  34.2138241
  22.6082855  56.6789904  34.8140312  23.2027346  56.4385640  34.1033621
  22.6809439  55.9597035  35.4413849   4.8280011  70.5223515  35.1283477
   4.6934479  69.7623916  34.5621475   4.4112073  71.2464415  34.6612266
  15.9638974  65.7060439  24.1360052  16.6674824  65.9110441  24.7517708
  15.2401623  66.2737201  24.4009136  16.7936784  61.4570300  30.2562323
  16.7371986  61.9138851  29.4169955  17.3465127  60.6960985  30.0785165
  20.6041590  57.2460032  31.0812442  20.3478524  56.8456667  31.9120650
  19.9794458  57.9603826  30.9562581  24.9153928  59.9856105  33.5883734
  24.3553486  60.0549294  34.3615296  24.3097431  59.8097090  32.8683230
   7.9849137  71.4192832  35.3401920   7.8681521  72.3638265  35.2380610
   7.1641583  71.1166394  35.7287719  17.8725671  66.1442968  26.1858513
  18.7071275  65.7124166  26.0035987  17.7110014  65.9724982  27.1135407
  17.5271564  62.6475081  27.5514852  17.4720367  62.4819353  26.6103296
  16.9017619  63.3551114  27.7077042   2.3164079  57.8843146  41.3776274
   2.9622942  57.3742100  41.8663499   2.1081230  58.6211827  41.9519699
  14.8417471  64.9523993  46.8768415  15.7108630  65.1264645  46.5155050
  14.3624222  65.7718410  46.7544144  10.8367689  52.1483190  27.1300170
  10.8246359  53.0925030  27.2868441  11.7291111  51.9653336  26.8359631
   9.0103651  72.0721094  38.5557848   9.9130898  72.1044704  38.8724343
   8.7841021  71.1421545  38.5704184  10.7657253  70.8252081  35.2167927
   9.8152884  70.8253942  35.1032299  11.0689739  70.0784815  34.7003962
  14.6519809  48.7425967  31.3846107  13.8852204  48.1884454  31.5302789
  15.0630514  48.8147836  32.2460259   6.6561570  55.0310763  45.4751288
   7.5193031  54.6747567  45.6854613   6.0826980  54.6924657  46.1626693
  26.5009947  76.6612619  36.2813689  27.1388357  76.5419366  35.5777029
  26.3830789  77.6093463  36.3401641  23.3099653  76.6140047  36.2175214
  22.9718164  76.4981112  35.3295749  24.1789421  76.2131212  36.1976220
  19.1686469  78.4675523  32.2072105  18.6051334  78.3765460  31.4388393
  19.0538864  77.6475428  32.6874597  23.7919436  77.7674899  42.1761420
  23.7808077  77.3727697  41.3041923  23.9540075  77.0340971  42.7695191
  16.7150900  79.9626715  35.0456325  17.5072192  79.6217540  34.6302625
  16.9547551  80.0721690  35.9658479  24.7486027  82.1346491  27.5186570
  24.0974007  82.7200572  27.1320584  25.5430390  82.6652686  27.5781607
  18.6741654  79.2235628  27.9173704  19.4472530  78.6764615  27.7786580
  19.0267053  80.0879878  28.1288166  20.5126697  80.5512011  41.1240603
  20.2216563  81.4557641  41.0087270  21.1483681  80.5928538  41.8384673
  21.4382904  77.9288859  37.7141963  22.0346476  77.7044882  36.9998926
  21.4957875  77.1873605  38.3167411  21.0107932  75.3828294  25.5492154
  21.2633453  74.8609816  24.7875617  20.0732491  75.2194440  25.6518838
  26.0551215  74.3864073  33.3566897  26.8414304  73.9683496  33.0057314
  26.3189919  75.2910165  33.5248546  26.2261292  79.8236923  28.0555554
  25.5907125  79.8971550  28.7676459  25.8958699  80.4130522  27.3774633
  31.4559642  74.3239306  34.2599876  32.1884814  73.7538523  34.4937705
  30.6998998  73.9360906  34.7006381  20.7304221  77.2856400  27.7516529
  20.6140479  76.6101304  28.4197613  20.8406481  76.7988774  26.9348682
  23.0735762  76.7466548  31.4563218  22.7093969  76.2197168  32.1676140
  23.9302878  76.3565017  31.2829704  28.9785063  68.0360880  38.7194484
  28.6468387  68.9056291  38.4955699  28.3830676  67.7197164  39.3988515
  22.7141249  71.7756447  26.4524567  22.8815651  72.6436684  26.8195038
  22.5238418  71.9383729  25.5285856  25.4716582  80.2373426  38.1190397
  25.1717305  81.1398465  38.0106204  25.1267642  79.9705609  38.9711550
  18.9229064  76.6887223  34.1527102  17.9979560  76.5563437  34.3604793
  19.1713477  77.4681442  34.6497044  28.8713726  72.7555966  35.7987834
  27.9630603  72.6871375  35.5046595  28.8201322  73.2327911  36.6269660
  22.6930470  74.2314105  27.4371234  22.5730095  74.6771155  28.2756714
  21.9983058  74.5799422  26.8784772  16.2837875  76.3320497  34.9870891
  16.4130256  76.5854975  35.9010302  15.6035326  76.9248205  34.6675546
  20.4537362  87.0017746  31.0861365  20.3761392  87.9525572  31.1649845
  19.8499005  86.6563619  31.7436291  22.9454592  74.1745612  43.7422732
  22.1687926  74.7339532  43.7325596  23.5845155  74.6602395  44.2637602
  30.7375372  70.9572405  37.5765708  30.0949752  71.2504938  36.9305503
  30.2330301  70.8425325  38.3818905  28.3915536  74.7035578  28.2651568
  29.3033392  74.9362965  28.0899265  27.8825183  75.2872622  27.7026646
  21.2000964  76.9831065  43.3040699  21.9415648  77.5216109  43.0275522
  20.4937949  77.6097354  43.4612251  26.6756304  79.1260206  41.9012860
  27.0839660  78.6842616  41.1567493  25.9533565  78.5512833  42.1547053
  23.0287374  74.0632812  39.2746417  23.8748569  74.4872226  39.4181066
  22.9686011  73.4066437  39.9684980  26.9985118  79.6861396  35.6565149
  26.3693981  79.8507110  34.9541217  26.6110780  80.1003006  36.4276113
  30.8774350  80.6215834  33.0109513  30.1925388  81.0014736  32.4606546
  30.9618199  81.2311161  33.7441461  26.1786819  71.7237181  40.9327591
  25.9347751  72.4779241  40.3961867  26.4546749  72.1022528  41.7674838
  28.1325282  78.2675793  39.6104856  28.3442177  78.9107553  38.9339238
  28.0855030  77.4338110  39.1426787  25.7351511  70.8793614  36.5141429
  24.8735990  71.1774867  36.8058166  25.7613945  71.0964013  35.5822461
  22.5513080  79.4235804  32.9215234  23.0151426  79.7023507  32.1319857
  22.2869878  78.5219249  32.7388325  19.4437161  78.9707286  35.8594997
  20.0138518  79.3994554  35.2212482  20.0345273  78.6889871  36.5579183
  21.4881966  75.5458957  29.7304799  22.1906009  75.9980000  30.1978726
  21.1562595  74.9042776  30.3584693  19.9362328  74.1370713  44.1056009
  19.3060988  74.8186994  44.3391406  19.8298416  74.0253795  43.1609147
  15.2307300  73.8042509  35.0321933  14.4406354  74.0600038  34.5562044
  15.7218547  74.6190847  35.1373973  29.2471110  81.1447749  37.7827214
  30.0688553  80.7427936  37.5009895  29.2433513  81.0415983  38.7343330
  17.1822045  74.1687089  31.9905410  16.3853209  74.2805783  32.5088905
  16.9547638  74.5073741  31.1246300  23.0127713  80.6931792  39.9387924
  23.0772146  81.1552199  40.7746096  22.3038637  80.0629157  40.0670234
  13.5145003  74.0573000  37.4636924  13.7653042  74.9420010  37.7294500
  14.0504551  73.8777601  36.6912016  37.3377103  77.4886497  34.1312185
  36.5840811  76.9193895  33.9756190  37.4724644  77.4549162  35.0782820
  22.7275731  82.3599899  29.8066905  22.5921406  83.2051435  30.2351752
  23.2685543  82.5619177  29.0432838  19.2143070  68.4391479  46.4681260
  18.8210016  67.8857678  47.1428904  20.0309211  68.7502058  46.8587777
  16.1805128  79.8775337  30.3794830  16.6929649  80.6718588  30.5300394
  16.8327841  79.1801628  30.3128431  17.9900013  82.9941094  32.4617583
  18.1666641  83.9159058  32.2738567  18.7856846  82.6799513  32.8911963
  22.1311031  69.8549358  44.0601516  22.8720745  70.4556511  43.9805979
  22.3628954  69.1126996  43.5019559  17.2752369  75.0405726  42.3379746
  17.1605885  74.1390983  42.6386845  16.4196887  75.2869422  41.9864563
  24.3544207  82.9823466  43.9367247  23.9108061  82.1959844  43.6188151
  25.0161421  83.1702616  43.2711137  19.1131328  84.5119268  38.4627925
  19.6638753  84.3836331  37.6904919  18.2742804  84.8114157  38.1122818
  26.4525445  83.2626266  41.9648648  26.4343921  84.0835147  41.4728917
  27.3745365  83.1380341  42.1898789  22.9098499  80.7770395  42.8072156
  23.4426836  80.0158684  42.5771464  22.3812580  80.4844047  43.5496311
  26.0768194  65.8830461  38.3365798  25.7332464  66.7732103  38.2604909
  26.4447157  65.6932119  37.4735383  14.1454045  78.2063992  31.1554400
  14.9829267  78.6161000  30.9388108  14.3232313  77.2663434  31.1254594
  26.0418477  75.8739072  26.8438233  25.5265100  76.6443677  27.0826621
  25.7695786  75.2004209  27.4671295  23.6265588  70.7188773  31.9023472
  22.7707184  70.3295624  31.7229110  24.0392540  70.7980734  31.0423257
  25.1564735  68.2535116  36.3015031  24.6529530  68.2165252  35.4882837
  25.4495342  69.1627859  36.3611688  21.4007621  68.3373846  35.3081213
  22.2660617  68.1416655  34.9487103  21.4685130  68.1084198  36.2350570
  31.0152751  78.6271427  28.7791407  30.2382194  78.2882587  28.3346569
  31.6944232  78.6324050  28.1046372  25.8304780  73.7466165  28.6698014
  25.5254916  74.0612314  29.5208158  26.7835222  73.8247584  28.7125347
  24.2751212  79.9056388  30.3190968  23.7472574  79.1709147  30.0064206
  23.7738715  80.6831064  30.0730937  29.2544058  78.1005408  35.4358015
  28.5967733  78.7904670  35.5238143  30.0584457  78.4901840  35.7792001
  19.0069940  70.5676054  32.6797580  19.5813692  70.3451236  31.9470773
  19.5940922  70.6364749  33.4326181  28.0649517  76.4549781  33.4861956
  28.5781399  77.0879773  33.9883666  28.7150741  75.8550977  33.1205316
  19.3339527  72.5980515  26.6993465  18.4976839  72.9355202  27.0202740
  19.1944296  72.4629495  25.7620602  21.3092607  67.4417303  31.4072649
  20.6557020  67.1266320  30.7829264  21.2673082  66.8193043  32.1332472
  22.4203812  77.7236598  23.3225941  21.5130874  77.4925852  23.5217090
  22.9174844  76.9274217  23.5099923  25.3271891  86.4334105  26.2422628
  24.6533590  86.7365802  26.8507585  25.7137713  87.2363186  25.8928085
  24.5430348  73.9299237  35.7320297  23.6252909  74.1514184  35.5741985
  24.9590491  74.0045547  34.8732004  25.3265396  75.3290652  30.8622977
  26.0737214  75.8412049  30.5530099  25.5956985  75.0074705  31.7227371
  23.5992046  77.8249193  27.8449931  22.6903265  77.5408226  27.9422401
  23.6287130  78.2448272  26.9853238  28.8311313  81.4355782  31.6141099
  28.3773640  80.5946692  31.6706289  28.2005280  82.0717181  31.9515879
  27.7744233  72.3647768  32.8441766  27.0366989  71.8525155  33.1752009
  28.0271006  71.9248150  32.0325043  27.2744252  83.2732279  32.5490917
  27.5667227  83.8337336  31.8303283  27.7842873  83.5660840  33.3044076
  27.8755860  65.1424020  33.4383536  28.1814737  64.2821384  33.1509451
  28.6008465  65.7341641  33.2382530  14.1680216  75.5454707  31.8265134
  13.9704616  74.9524068  31.1016200  13.6126880  75.2406917  32.5441072
  22.1476940  75.4377814  33.9459727  22.2025550  74.4851650  33.8702203
  21.3368142  75.5937253  34.4301025  23.2968134  79.3657937  25.1838010
  22.8587563  78.6493796  24.7243647  24.0378574  79.5934051  24.6223101
  20.0869300  74.0554873  31.7050106  19.2737165  74.3549044  32.1115298
  20.5828294  73.6610562  32.4224588  22.2377878  84.0512630  33.6384370
  22.1954056  84.2773477  32.7092902  23.1540576  83.8176005  33.7870172
  25.6843511  74.5196698  40.5365000  26.0392899  74.7468171  41.3959465
  26.3315643  74.8515075  39.9142255  31.4141248  77.6415134  31.2414329
  31.2759147  77.8316730  30.3135518  31.0577467  78.4034516  31.6982380
  19.5783374  71.6273229  37.3211341  20.2182754  71.4861988  36.6234304
  18.7460905  71.3407742  36.9449943  31.4410628  79.7091661  36.2525600
  31.8747135  79.6166950  37.1008654  32.1542209  79.6849161  35.6145616
  20.3543678  80.9275659  33.4346333  21.1484277  80.4325979  33.2328908
  19.6435371  80.3993522  33.0714039  25.1738523  83.3093755  37.7858701
  25.2275545  83.8784691  38.5536417  24.3053304  83.4795640  37.4212738
  16.6626442  75.0718741  29.5106086  15.7324030  75.0103196  29.7276048
  16.7583914  74.5494694  28.7142727  16.5811991  71.5973554  32.0984327
  16.8418808  72.5118887  31.9893488  17.4029163  71.1297996  32.2480940
  18.0536916  73.0111311  39.2683152  18.7259970  72.8028673  38.6195801
  17.2266703  72.8133397  38.8288384  32.3026177  79.7515361  38.7858486
  32.4962068  80.6561172  39.0317760  32.2026796  79.2922780  39.6197071
  23.9562488  69.6373252  41.2848813  23.3090403  70.3363202  41.1913289
  24.7263504  70.0709396  41.6525061  27.3641286  79.9022104  44.3599366
  27.2126793  79.6732656  43.4429450  27.3545966  80.8592705  44.3730711
  24.1326623  77.4754017  39.3445633  25.0618683  77.6265176  39.1714600
  23.7117653  77.5638038  38.4894279  22.9314954  81.5004681  37.1144170
  22.7926040  81.1323466  37.9870108  22.1429551  82.0152321  36.9428128
  23.5263106  86.6013778  28.4569707  23.7014862  86.1301821  29.2715329
  22.8395894  87.2279544  28.6850967  24.4820169  80.8786284  34.5033008
  24.1470002  80.8387054  35.3990658  23.9824115  80.2131000  34.0303418
  18.4564413  76.2853914  40.0285589  18.3184211  75.5534153  40.6297128
  19.3669337  76.1962814  39.7469777  27.4179361  78.2242318  24.7770068
  26.8008532  77.4989146  24.6803120  26.9495850  78.9851679  24.4337142
  21.0846714  75.9973873  39.5169269  21.7946333  75.3567065  39.4755887
  21.0416022  76.2486768  40.4395450  29.0733493  82.9341227  42.4375848
  29.0146039  82.2500447  41.7706431  29.4753011  83.6760217  41.9856474
  19.7975648  72.9839091  41.3364908  19.2613005  72.5329830  41.9886505
  19.2092357  73.1185000  40.5935373  18.0924192  89.7503140  35.2309567
  18.3320790  90.3821665  35.9088585  17.2493388  89.3991180  35.5174926
  19.2077907  72.4427743  23.8991372  18.3307373  72.3216543  23.5353619
  19.6835660  71.6513821  23.6470261  29.0750900  80.8980811  40.6689828
  28.1877679  80.5606732  40.7916227  29.6449451  80.1663842  40.9058593
  10.7280047  77.2304902  33.9932879  11.4151087  76.9166632  33.4053894
  10.5728176  78.1346267  33.7200130  15.5314769  72.1195099  38.4217903
  15.4472958  71.5120768  37.6868313  14.7097476  72.6104117  38.4227399
  22.6052053  85.5582263  37.6351071  22.5322225  86.3637234  38.1470375
  22.1629447  85.7574229  36.8099092  22.3941833  84.7954033  31.1453892
  21.6109355  85.3375713  31.2392117  23.0934578  85.3128013  31.5448134
  25.7038483  70.6048662  33.7888098  26.2007183  69.8518625  33.4689168
  24.9325465  70.6412979  33.2231307  33.5568241  76.3089028  35.4306389
  33.5458117  77.1913743  35.0600322  32.6885620  75.9560579  35.2360926
  25.0650737  85.4569097  39.7909230  25.7778709  86.0916562  39.7185131
  24.5740766  85.5532963  38.9749231  26.7868264  79.3620350  31.3626521
  25.8524543  79.4821812  31.1931226  26.9644932  78.4592816  31.0986531
  22.2873452  72.7466045  33.5159782  21.9171239  72.1937086  34.2040688
  22.7832544  72.1424179  32.9634782  30.1740815  75.2037669  31.8976555
  30.6401267  76.0365660  31.8236858  30.6248316  74.7382650  32.6021814
  20.1162650  83.2063540  40.6114800  20.8172110  83.8400023  40.7644195
  19.6457765  83.5478272  39.8510440  28.2417046  81.5481490  28.8962707
  28.5176890  81.4338085  29.8056581  27.3721545  81.1498975  28.8574880
  28.1457478  67.5718256  35.9367457  27.2320558  67.8022483  36.1049664
  28.5750579  67.6556700  36.7881489  27.9163936  75.7608148  38.4367351
  27.2635387  76.0084055  37.7819803  28.2944316  74.9472286  38.1029828
  24.8771110  85.7967841  32.5395521  25.0593505  84.9789497  33.0023273
  25.7004096  86.0135533  32.1020411  25.2113276  84.7236026  29.8010569
  25.7401042  84.2128481  29.1880732  25.4741495  84.4078556  30.6656103
  23.9651509  76.5027959  44.9233388  23.2892147  76.4022088  45.5935763
  24.7879143  76.3467173  45.3869385  15.7130369  82.7399895  37.5445903
  16.2983805  81.9943583  37.6773807  15.5155207  83.0503852  38.4282567
  18.5669024  85.7751143  32.5608345  17.8979399  86.2597270  32.0772385
  18.4281893  86.0220363  33.4751724  10.3048023  75.3105496  36.2650346
  10.3432123  74.7769086  37.0587464   9.7988316  74.7840701  35.6461323
  22.7074292  87.8094886  39.1591004  23.2592600  87.9726508  39.9240089
  23.0480486  88.3999324  38.4871029  17.6838786  70.1570036  39.7612888
  17.7480112  71.0184867  39.3490286  17.6205906  69.5444038  39.0285247
  17.1591058  72.2293169  43.4085923  17.7863097  71.8470246  44.0223447
  16.3018977  72.0107371  43.7741615  27.5585167  82.6356144  45.0139658
  28.1025071  83.2486102  44.5194613  26.9772012  83.1935722  45.5306671
  13.9356601  74.0369598  29.3404278  14.2310042  73.1280276  29.2871331
  13.0344637  74.0157337  29.0185280  25.8442680  85.7576862  36.1454686
  25.7193819  84.9566602  35.6365631  26.5021771  86.2523055  35.6568656
  17.4650848  72.1125594  35.3231826  16.7437434  72.7261562  35.1839299
  18.2544104  72.6483359  35.2448472  27.9077588  83.5585882  37.7734236
  26.9607924  83.4391233  37.7012563  28.2560361  82.6708380  37.8560497
  20.2677161  69.4480021  41.5972478  20.7911563  69.6942317  42.3598787
  20.0489495  70.2800056  41.1775615  15.6644442  71.7183695  29.4643603
  15.3357149  70.8381074  29.2818709  16.0183813  71.6631364  30.3519992
  24.9124021  83.3538598  33.9738588  24.7648984  82.4255306  34.1546158
  25.7377515  83.3758689  33.4895663  18.7786266  72.0056665  29.8319080
  19.1182338  72.5342587  29.1097689  19.2258386  72.3437071  30.6077647
  28.5158143  84.1767157  35.0603461  29.4404691  83.9710018  34.9227912
  28.3473447  83.9283558  35.9692802  21.4729706  70.3893716  39.2822148
  21.1326527  69.5901529  39.6842828  20.7668713  70.6895427  38.7098982
  22.1246178  67.4743028  37.7349471  22.9472248  67.0003507  37.6128362
  22.3684242  68.2533512  38.2348158  20.7654413  70.5031287  28.0312373
  21.4862775  70.8812540  27.5276090  20.1419717  71.2220164  28.1347351
  24.9085536  71.2076436  28.9670705  25.1249150  72.0901074  28.6659534
  24.4279603  70.8162649  28.2376347  19.6484757  74.1662149  35.5441450
  19.5029338  74.4802452  36.4365732  19.1709961  74.7847049  34.9912349
  21.5081140  71.1564697  35.5922340  21.4942709  70.2605790  35.2554638
  22.2253568  71.1635361  36.2260626  23.3607271  71.5902037  37.6375467
  23.1025048  72.5119108  37.6359797  22.8292311  71.1932472  38.3275931
  28.3053459  84.6952824  30.4165552  28.4790337  84.1299247  29.6639405
  28.7982351  85.4953719  30.2345042  14.1230419  76.7067493  38.4829111
  13.5783887  77.4827301  38.6149386  15.0009769  77.0538298  38.3248233
  20.9118036  70.0379077  30.8609910  21.0333947  69.1095723  31.0600797
  20.6220078  70.0517763  29.9488225  23.7809226  67.7233988  33.9976630
  23.8030923  67.7873321  33.0428609  24.1977285  66.8838496  34.1917136
  34.1592851  77.4589247  32.0355852  34.6023997  76.7096573  31.6374975
  33.2819361  77.4499384  31.6529584  29.2928632  84.0119589  27.5162451
  29.9879536  84.6326281  27.7349765  29.6351782  83.1614940  27.7914829
  14.9096441  75.8337390  41.3759268  14.1678177  75.9820025  41.9623899
  14.5889185  76.0945655  40.5126018  31.1920055  81.4619294  29.0449782
  31.7171379  81.8006567  28.3199102  31.1042408  80.5266310  28.8612916
  22.8540104  85.3753368  41.1739658  23.1627230  85.1302515  42.0462358
  23.6515586  85.5800006  40.6858528  22.8760716  87.5291278  33.4045035
  22.4365706  87.0367656  34.0977891  23.6268833  86.9864245  33.1637110
  15.3553055  83.7202818  33.4069663  16.1811075  83.4206590  33.0268306
  15.0047107  82.9510441  33.8559451  20.3234588  83.0729287  35.4767336
  19.7014597  82.4099992  35.1769564  20.9939455  83.0990419  34.7940984
  13.5561660  81.6389145  34.3658596  12.7193568  81.2111319  34.1842598
  13.5285305  81.8321588  35.3029388  20.3959115  71.5511075  45.0699842
  20.4447271  72.4273197  44.6877612  20.9381630  71.0088468  44.4971486
  30.8813961  82.0952198  44.3500979  30.0909505  82.0776337  43.8105479
  30.6447316  82.6340492  45.1050016  31.0011836  78.9444664  41.6633708
  31.0509841  78.7794672  42.6049231  30.8925759  78.0771923  41.2731589
  19.8848095  81.6233210  28.9525797  20.0336215  82.3068674  28.2992470
  20.6914538  81.6038300  29.4675253  28.2915598  74.9275592  42.9793015
  29.1925461  74.7882057  42.6877013  28.3663573  75.0930047  43.9191192
  22.6258404  72.3042447  41.8246201  21.7561713  72.5976013  41.5528790
  22.8617884  72.8882892  42.5453465  32.5030033  81.3641606  41.9075730
  32.2114841  81.7271586  42.7439191  31.8902164  80.6508614  41.7289062
  33.7025715  78.9294486  34.4278300  34.5372607  79.3684290  34.5915860
  33.8384844  78.4533139  33.6086546  30.7517221  76.4874220  40.3755788
  31.2271343  76.6801867  39.5674639  29.8282787  76.5433406  40.1299171
  17.6400728  77.6498388  29.9586866  17.3946770  76.7460718  30.1567076
  17.8096642  77.6515538  29.0166344  25.3297438  68.5222064  39.3411621
  25.8479382  69.2583091  39.0158110  24.9752570  68.8286057  40.1758381
  16.9096375  73.3826745  27.4573027  16.2165620  73.4571100  26.8013063
  16.6648127  72.6187089  27.9794544  25.5810032  64.9422347  34.8612518
  25.8611786  64.2745536  35.4872945  26.3660639  65.1351442  34.3487182
  23.3843500  84.1181340  26.4237544  22.8117467  84.7371528  25.9708016
  23.9576294  84.6680702  26.9577466  29.4518890  73.3639981  38.6084093
  30.4036313  73.4638078  38.6296317  29.2822341  72.5718249  39.1182177
  27.4733270  70.4495564  38.7943494  26.8783202  70.7300576  38.0989983
  27.1882966  70.9389465  39.5660235  26.6040760  84.4018491  27.5546127
  27.5371433  84.3364052  27.7579002  26.5163973  85.2374757  27.0960659
  29.2328777  83.7184361  24.5150074  29.1542408  83.3844225  25.4085832
  30.0538444  84.2106129  24.5141547  31.9306968  76.5846100  37.7226393
  31.8983288  75.6462101  37.9086077  32.5407592  76.6630137  36.9892218
  23.7690299  75.4542153  23.7653597  24.7149404  75.3248361  23.8342015
  23.3904544  74.7156815  24.2423025  32.0801456  73.3757144  37.7684676
  31.5640505  72.5915600  37.5814605  32.9641405  73.0475860  37.9331195
  29.7412183  67.1198159  33.7280489  29.5437004  66.8113247  34.6123821
  30.3511889  67.8459798  33.8578418  37.7483518  77.6462107  36.8632430
  38.4786906  77.3847395  37.4240133  37.1390463  76.9090829  36.9034498
  35.8298815  75.7869970  37.4606881  35.1031979  75.6525935  36.8523372
  35.4146102  76.0946798  38.2663599  23.6528991  79.5059899  45.2254254
  24.5732001  79.6838498  45.4194300  23.6178574  78.5615945  45.0733953
  21.9533216  73.3792130  23.7008482  21.0464671  73.0825242  23.7771196
  22.2309197  73.0821948  22.8342768  12.8711156  74.6998493  34.1507528
  12.5513941  73.8463801  33.8581902  12.3244585  74.9147071  34.9065496
  16.6491064  77.4160934  37.8677035  16.8677074  78.3478042  37.8865069
  17.0616838  77.0568908  38.6531839  23.5695282  67.9229019  29.8552723
  22.7596010  67.5776104  30.2307969  24.2579699  67.6136563  30.4440335
  25.4985830  67.0007066  31.4777020  26.0516869  67.4202520  32.1367043
  25.7355916  66.0742814  31.5199976  21.5218929  72.9894140  47.2579784
  21.4215656  73.9388497  47.1891875  21.3040471  72.6612379  46.3855854
  20.7232001  70.2379065  23.8420461  21.5851165  70.5633963  24.1016279
  20.9082345  69.4510561  23.3293527  12.7399416  78.3201404  36.1200650
  12.0462888  77.9055357  35.6070604  13.4872407  78.3621941  35.5234069
  28.8764637  69.1107591  30.9855684  28.2963306  69.7692395  30.6033737
  28.6100570  68.2884936  30.5743102  27.3268203  68.5112649  33.1877005
  27.8267982  68.6229184  32.3791323  27.9703811  68.2073702  33.8277813
  21.3850199  76.4191279  46.0744846  20.9017281  77.2191639  46.2808735
  21.4711138  76.4299223  45.1212290  14.6536159  78.2519658  33.9966665
  14.6306847  78.3507346  33.0448548  14.9636795  79.0984809  34.3183831
  17.3123537  80.3095813  38.1113279  18.2666790  80.2779756  38.0443211
  17.1136060  79.8486437  38.9263505  17.9022919  78.8796929  40.6784077
  18.7215808  79.3741008  40.7018914  18.1759727  77.9628897  40.6501644
  27.6589515  71.2707682  30.0412033  26.7715370  71.5557332  29.8232227
  28.0743504  71.1101445  29.1939309  31.0104051  71.2954203  33.7566372
  31.7864441  71.7850655  34.0290989  30.2852185  71.7212257  34.2138241
  33.4476610  72.0081822  34.8140312  34.0421101  71.7677558  34.1033621
  33.5203194  71.2888952  35.4413849  15.6673766  85.8515433  35.1283477
  15.5328233  85.0915834  34.5621475  15.2505828  86.5756333  34.6612266
  26.8032729  81.0352356  24.1360052  27.5068579  81.2402359  24.7517708
  26.0795377  81.6029118  24.4009136  27.6330539  76.7862218  30.2562323
  27.5765740  77.2430769  29.4169955  28.1858881  76.0252902  30.0785165
  31.4435345  72.5751949  31.0812442  31.1872279  72.1748585  31.9120650
  30.8188213  73.2895743  30.9562581  35.7547683  75.3148023  33.5883734
  35.1947241  75.3841212  34.3615296  35.1491186  75.1389007  32.8683230
  18.8242891  86.7484750  35.3401920  18.7075276  87.6930182  35.2380610
  18.0035338  86.4458311  35.7287719  28.7119426  81.4734886  26.1858513
  29.5465030  81.0416084  26.0035987  28.5503769  81.3016899  27.1135407
  28.3665318  77.9766999  27.5514852  28.3114122  77.8111270  26.6103296
  27.7411373  78.6843032  27.7077042  13.1557833  73.2135063  41.3776274
  13.8016697  72.7034017  41.8663499  12.9474984  73.9503745  41.9519699
  25.6811225  80.2815911  46.8768415  26.5502385  80.4556563  46.5155050
  25.2017977  81.1010328  46.7544144  21.6761444  67.4775108  27.1300170
  21.6640113  68.4216948  27.2868441  22.5684865  67.2945253  26.8359631
  19.8497406  87.4013012  38.5557848  20.7524652  87.4336622  38.8724343
  19.6234776  86.4713463  38.5704184  21.6051008  86.1543998  35.2167927
  20.6546639  86.1545860  35.1032299  21.9083494  85.4076733  34.7003962
  25.4913563  64.0717884  31.3846107  24.7245959  63.5176371  31.5302789
  25.9024268  64.1439753  32.2460259  17.4955324  70.3602680  45.4751288
  18.3586786  70.0039485  45.6854613  16.9220735  70.0216575  46.1626693
  37.3403701  91.9904537  36.2813689  37.9782111  91.8711284  35.5777029
  37.2224544  92.9385381  36.3401641  34.1493407  91.9431965  36.2175214
  33.8111919  91.8273029  35.3295749  35.0183176  91.5423130  36.1976220
  30.0080223  93.7967441  32.2072105  29.4445088  93.7057378  31.4388393
  29.8932618  92.9767346  32.6874597  34.6313190  93.0966816  42.1761420
  34.6201831  92.7019615  41.3041923  34.7933830  92.3632889  42.7695191
  27.5544655  95.2918633  35.0456325  28.3465947  94.9509457  34.6302625
  27.7941305  95.4013608  35.9658479  35.5879782  97.4638409  27.5186570
  34.9367762  98.0492489  27.1320584  36.3824145  97.9944604  27.5781607
  29.5135409  94.5527546  27.9173704  30.2866285  94.0056533  27.7786580
  29.8660808  95.4171795  28.1288166  31.3520451  95.8803928  41.1240603
  31.0610317  96.7849559  41.0087270  31.9877436  95.9220456  41.8384673
  32.2776658  93.2580777  37.7141963  32.8740231  93.0336799  36.9998926
  32.3351630  92.5165522  38.3167411  31.8501687  90.7120212  25.5492154
  32.1027207  90.1901733  24.7875617  30.9126246  90.5486358  25.6518838
  36.8944970  89.7155990  33.3566897  37.6808059  89.2975414  33.0057314
  37.1583674  90.6202083  33.5248546  37.0655047  95.1528841  28.0555554
  36.4300880  95.2263467  28.7676459  36.7352453  95.7422440  27.3774633
  42.2953397  89.6531224  34.2599876  43.0278569  89.0830440  34.4937705
  41.5392752  89.2652824  34.7006381  31.5697975  92.6148318  27.7516529
  31.4534234  91.9393221  28.4197613  31.6800235  92.1280692  26.9348682
  33.9129516  92.0758465  31.4563218  33.5487724  91.5489086  32.1676140
  34.7696632  91.6856934  31.2829704  39.8178817  83.3652798  38.7194484
  39.4862142  84.2348209  38.4955699  39.2224430  83.0489082  39.3988515
  33.5535003  87.1048365  26.4524567  33.7209406  87.9728601  26.8195038
  33.3632172  87.2675647  25.5285856  36.3110337  95.5665344  38.1190397
  36.0111060  96.4690383  38.0106204  35.9661396  95.2997527  38.9711550
  29.7622818  92.0179141  34.1527102  28.8373315  91.8855355  34.3604793
  30.0107231  92.7973360  34.6497044  39.7107480  88.0847884  35.7987834
  38.8024358  88.0163292  35.5046595  39.6595076  88.5619829  36.6269660
  33.5324224  89.5606022  27.4371234  33.4123849  90.0063073  28.2756714
  32.8376813  89.9091340  26.8784772  27.1231629  91.6612414  34.9870891
  27.2524010  91.9146893  35.9010302  26.4429080  92.2540122  34.6675546
  31.2931116 102.3309664  31.0861365  31.2155146 103.2817489  31.1649845
  30.6892760 101.9855537  31.7436291  33.7848346  89.5037530  43.7422732
  33.0081680  90.0631450  43.7325596  34.4238909  89.9894313  44.2637602
  41.5769127  86.2864322  37.5765708  40.9343507  86.5796856  36.9305503
  41.0724055  86.1717243  38.3818905  39.2309290  90.0327496  28.2651568
  40.1427147  90.2654882  28.0899265  38.7218937  90.6164540  27.7026646
  32.0394718  92.3122983  43.3040699  32.7809403  92.8508027  43.0275522
  31.3331704  92.9389272  43.4612251  37.5150058  94.4552123  41.9012860
  37.9233414  94.0134534  41.1567493  36.7927320  93.8804751  42.1547053
  33.8681128  89.3924730  39.2746417  34.7142323  89.8164144  39.4181066
  33.8079766  88.7358354  39.9684980  37.8378873  95.0153314  35.6565149
  37.2087735  95.1799028  34.9541217  37.4504535  95.4294924  36.4276113
  41.7168105  95.9507752  33.0109513  41.0319143  96.3306653  32.4606546
  41.8011954  96.5603079  33.7441461  37.0180573  87.0529099  40.9327591
  36.7741505  87.8071159  40.3961867  37.2940504  87.4314446  41.7674838
  38.9719036  93.5967711  39.6104856  39.1835931  94.2399471  38.9339238
  38.9248784  92.7630027  39.1426787  36.5745265  86.2085532  36.5141429
  35.7129744  86.5066785  36.8058166  36.6007700  86.4255930  35.5822461
  33.3906835  94.7527722  32.9215234  33.8545180  95.0315425  32.1319857
  33.1263633  93.8511167  32.7388325  30.2830916  94.2999204  35.8594997
  30.8532273  94.7286472  35.2212482  30.8739027  94.0181788  36.5579183
  32.3275721  90.8750874  29.7304799  33.0299764  91.3271918  30.1978726
  31.9956349  90.2334693  30.3584693  30.7756082  89.4662631  44.1056009
  30.1454743  90.1478912  44.3391406  30.6692170  89.3545713  43.1609147
  26.0701055  89.1334427  35.0321933  25.2800109  89.3891956  34.5562044
  26.5612302  89.9482765  35.1373973  40.0864864  96.4739666  37.7827214
  40.9082308  96.0719854  37.5009895  40.0827267  96.3707900  38.7343330
  28.0215800  89.4979006  31.9905410  27.2246963  89.6097701  32.5088905
  27.7941392  89.8365659  31.1246300  33.8521468  96.0223710  39.9387924
  33.9165900  96.4844117  40.7746096  33.1432391  95.3921075  40.0670234
  24.3538758  89.3864918  37.4636924  24.6046796  90.2711927  37.7294500
  24.8898306  89.2069519  36.6912016  48.1770857  92.8178415  34.1312185
  47.4234566  92.2485813  33.9756190  48.3118398  92.7841079  35.0782820
  33.5669485  97.6891817  29.8066905  33.4315160  98.5343353  30.2351752
  34.1079298  97.8911095  29.0432838  30.0536825  83.7683397  46.4681260
  29.6603770  83.2149595  47.1428904  30.8702965  84.0793975  46.8587777
  27.0198883  95.2067255  30.3794830  27.5323403  96.0010505  30.5300394
  27.6721595  94.5093546  30.3128431  28.8293767  98.3233011  32.4617583
  29.0060396  99.2450976  32.2738567  29.6250601  98.0091431  32.8911963
  32.9704786  85.1841276  44.0601516  33.7114499  85.7848429  43.9805979
  33.2022709  84.4418914  43.5019559  28.1146124  90.3697643  42.3379746
  27.9999639  89.4682901  42.6386845  27.2590642  90.6161340  41.9864563
  35.1937962  98.3115384  43.9367247  34.7501816  97.5251762  43.6188151
  35.8555175  98.4994534  43.2711137  29.9525083  99.8411185  38.4627925
  30.5032508  99.7128249  37.6904919  29.1136559 100.1406074  38.1122818
  37.2919200  98.5918184  41.9648648  37.2737675  99.4127065  41.4728917
  38.2139120  98.4672259  42.1898789  33.7492254  96.1062313  42.8072156
  34.2820591  95.3450601  42.5771464  33.2206335  95.8135965  43.5496311
  36.9161949  81.2122379  38.3365798  36.5726218  82.1024021  38.2604909
  37.2840911  81.0224037  37.4735383  24.9847799  93.5355909  31.1554400
  25.8223021  93.9452918  30.9388108  25.1626067  92.5955352  31.1254594
  36.8812232  91.2030990  26.8438233  36.3658855  91.9735595  27.0826621
  36.6089540  90.5296126  27.4671295  34.4659343  86.0480691  31.9023472
  33.6100939  85.6587541  31.7229110  34.8786294  86.1272652  31.0423257
  35.9958489  83.5827034  36.3015031  35.4923285  83.5457169  35.4882837
  36.2889096  84.4919777  36.3611688  32.2401375  83.6665764  35.3081213
  33.1054372  83.4708573  34.9487103  32.3078884  83.4376116  36.2350570
  41.8546506  93.9563345  28.7791407  41.0775948  93.6174504  28.3346569
  42.5337987  93.9615968  28.1046372  36.6698535  89.0758082  28.6698014
  36.3648670  89.3904231  29.5208158  37.6228977  89.1539502  28.7125347
  35.1144967  95.2348305  30.3190968  34.5866328  94.5001065  30.0064206
  34.6132469  96.0122982  30.0730937  40.0937813  93.4297326  35.4358015
  39.4361487  94.1196587  35.5238143  40.8978212  93.8193758  35.7792001
  29.8463694  85.8967972  32.6797580  30.4207446  85.6743153  31.9470773
  30.4334677  85.9656666  33.4326181  38.9043271  91.7841699  33.4861956
  39.4175153  92.4171691  33.9883666  39.5544495  91.1842894  33.1205316
  30.1733281  87.9272433  26.6993465  29.3370594  88.2647119  27.0202740
  30.0338051  87.7921413  25.7620602  32.1486362  82.7709221  31.4072649
  31.4950774  82.4558238  30.7829264  32.1066836  82.1484961  32.1332472
  33.2597567  93.0528516  23.3225941  32.3524628  92.8217769  23.5217090
  33.7568599  92.2566135  23.5099923  36.1665646 101.7626023  26.2422628
  35.4927344 102.0657720  26.8507585  36.5531468 102.5655103  25.8928085
  35.3824102  89.2591154  35.7320297  34.4646664  89.4806101  35.5741985
  35.7984246  89.3337465  34.8732004  36.1659150  90.6582570  30.8622977
  36.9130969  91.1703967  30.5530099  36.4350740  90.3366623  31.7227371
  34.4385800  93.1541111  27.8449931  33.5297019  92.8700143  27.9422401
  34.4680884  93.5740189  26.9853238  39.6705068  96.7647700  31.6141099
  39.2167395  95.9238610  31.6706289  39.0399034  97.4009098  31.9515879
  38.6137987  87.6939686  32.8441766  37.8760744  87.1817072  33.1752009
  38.8664761  87.2540068  32.0325043  38.1138007  98.6024197  32.5490917
  38.4060981  99.1629254  31.8303283  38.6236627  98.8952758  33.3044076
  38.7149614  80.4715938  33.4383536  39.0208491  79.6113302  33.1509451
  39.4402219  81.0633558  33.2382530  25.0073971  90.8746625  31.8265134
  24.8098370  90.2815985  31.1016200  24.4520635  90.5698835  32.5441072
  32.9870694  90.7669731  33.9459727  33.0419304  89.8143568  33.8702203
  32.1761896  90.9229170  34.4301025  34.1361888  94.6949854  25.1838010
  33.6981318  93.9785713  24.7243647  34.8772329  94.9225969  24.6223101
  30.9263054  89.3846791  31.7050106  30.1130920  89.6840962  32.1115298
  31.4222048  88.9902480  32.4224588  33.0771632  99.3804548  33.6384370
  33.0347811  99.6065394  32.7092902  33.9934331  99.1467922  33.7870172
  36.5237266  89.8488615  40.5365000  36.8786654  90.0760089  41.3959465
  37.1709397  90.1806992  39.9142255  42.2535003  92.9707051  31.2414329
  42.1152901  93.1608647  30.3135518  41.8971222  93.7326434  31.6982380
  30.4177129  86.9565146  37.3211341  31.0576508  86.8153906  36.6234304
  29.5854659  86.6699660  36.9449943  42.2804382  95.0383578  36.2525600
  42.7140889  94.9458867  37.1008654  42.9935963  95.0141079  35.6145616
  31.1937433  96.2567577  33.4346333  31.9878031  95.7617897  33.2328908
  30.4829125  95.7285440  33.0714039  36.0132277  98.6385672  37.7858701
  36.0669300  99.2076609  38.5536417  35.1447059  98.8087557  37.4212738
  27.5020196  90.4010659  29.5106086  26.5717784  90.3395114  29.7276048
  27.5977668  89.8786611  28.7142727  27.4205745  86.9265471  32.0984327
  27.6812563  87.8410805  31.9893488  28.2422918  86.4589914  32.2480940
  28.8930671  88.3403229  39.2683152  29.5653724  88.1320591  38.6195801
  28.0660457  88.1425315  38.8288384  43.1419932  95.0807279  38.7858486
  43.3355822  95.9853089  39.0317760  43.0420550  94.6214698  39.6197071
  34.7956243  84.9665170  41.2848813  34.1484158  85.6655119  41.1913289
  35.5657258  85.4001313  41.6525061  38.2035041  95.2314022  44.3599366
  38.0520547  95.0024573  43.4429450  38.1939720  96.1884623  44.3730711
  34.9720377  92.8045934  39.3445633  35.9012437  92.9557094  39.1714600
  34.5511407  92.8929955  38.4894279  33.7708709  96.8296599  37.1144170
  33.6319795  96.4615383  37.9870108  32.9823305  97.3444238  36.9428128
  34.3656861 101.9305695  28.4569707  34.5408616 101.4593739  29.2715329
  33.6789649 102.5571462  28.6850967  35.3213924  96.2078202  34.5033008
  34.9863757  96.1678972  35.3990658  34.8217870  95.5422918  34.0303418
  29.2958168  91.6145832  40.0285589  29.1577966  90.8826070  40.6297128
  30.2063091  91.5254732  39.7469777  38.2573116  93.5534236  24.7770068
  37.6402286  92.8281064  24.6803120  37.7889604  94.3143596  24.4337142
  31.9240469  91.3265791  39.5169269  32.6340087  90.6858983  39.4755887
  31.8809777  91.5778686  40.4395450  39.9127247  98.2633144  42.4375848
  39.8539793  97.5792364  41.7706431  40.3146766  99.0052134  41.9856474
  30.6369403  88.3131009  41.3364908  30.1006760  87.8621747  41.9886505
  30.0486111  88.4476918  40.5935373  28.9317946 105.0795058  35.2309567
  29.1714544 105.7113582  35.9088585  28.0887143 104.7283098  35.5174926
  30.0471662  87.7719660  23.8991372  29.1701128  87.6508461  23.5353619
  30.5229415  86.9805739  23.6470261  39.9144655  96.2272728  40.6689828
  39.0271433  95.8898650  40.7916227  40.4843206  95.4955759  40.9058593
  21.5673802  92.5596820  33.9932879  22.2544841  92.2458550  33.4053894
  21.4121930  93.4638185  33.7200130  26.3708524  87.4487017  38.4217903
  26.2866713  86.8412686  37.6868313  25.5491230  87.9396035  38.4227399
  33.4445808 100.8874181  37.6351071  33.3715979 101.6929152  38.1470375
  33.0023201 101.0866146  36.8099092  33.2335588 100.1245951  31.1453892
  32.4503109 100.6667631  31.2392117  33.9328333 100.6419930  31.5448134
  36.5432238  85.9340580  33.7888098  37.0400937  85.1810542  33.4689168
  35.7719219  85.9704897  33.2231307  44.3961995  91.6380946  35.4306389
  44.3851871  92.5205661  35.0600322  43.5279375  91.2852496  35.2360926
  35.9044491 100.7861015  39.7909230  36.6172464 101.4208479  39.7185131
  35.4134520 100.8824881  38.9749231  37.6262018  94.6912267  31.3626521
  36.6918297  94.8113730  31.1931226  37.8038687  93.7884734  31.0986531
  33.1267206  88.0757963  33.5159782  32.7564994  87.5229003  34.2040688
  33.6226299  87.4716097  32.9634782  41.0134570  90.5329587  31.8976555
  41.4795022  91.3657578  31.8236858  41.4642070  90.0674568  32.6021814
  30.9556405  98.5355458  40.6114800  31.6565864  99.1691941  40.7644195
  30.4851520  98.8770190  39.8510440  39.0810801  96.8773408  28.8962707
  39.3570645  96.7630002  29.8056581  38.2115300  96.4790893  28.8574880
  38.9851232  82.9010174  35.9367457  38.0714312  83.1314400  36.1049664
  39.4144334  82.9848618  36.7881489  38.7557691  91.0900066  38.4367351
  38.1029141  91.3375973  37.7819803  39.1338071  90.2764204  38.1029828
  35.7164865 101.1259759  32.5395521  35.8987259 100.3081415  33.0023273
  36.5397851 101.3427451  32.1020411  36.0507030 100.0527944  29.8010569
  36.5794797  99.5420398  29.1880732  36.3135250  99.7370474  30.6656103
  34.8045264  91.8319877  44.9233388  34.1285901  91.7314006  45.5935763
  35.6272898  91.6759090  45.3869385  26.5524123  98.0691813  37.5445903
  27.1377560  97.3235501  37.6773807  26.3548961  98.3795770  38.4282567
  29.4062778 101.1043061  32.5608345  28.7373154 101.5889188  32.0772385
  29.2675648 101.3512281  33.4751724  21.1441778  90.6397413  36.2650346
  21.1825877  90.1061004  37.0587464  20.6382071  90.1132619  35.6461323
  33.5468047 103.1386804  39.1591004  34.0986355 103.3018426  39.9240089
  33.8874240 103.7291242  38.4871029  28.5232540  85.4861954  39.7612888
  28.5873867  86.3476785  39.3490286  28.4599660  84.8735955  39.0285247
  27.9984813  87.5585086  43.4085923  28.6256851  87.1762164  44.0223447
  27.1412731  87.3399288  43.7741615  38.3978921  97.9648062  45.0139658
  38.9418825  98.5778020  44.5194613  37.8165766  98.5227640  45.5306671
  24.7750355  89.3661515  29.3404278  25.0703796  88.4572194  29.2871331
  23.8738391  89.3449255  29.0185280  36.6836434 101.0868780  36.1454686
  36.5587574 100.2858519  35.6365631  37.3415525 101.5814973  35.6568656
  28.3044602  87.4417512  35.3231826  27.5831188  88.0553480  35.1839299
  29.0937858  87.9775277  35.2448472  38.7471343  98.8877800  37.7734236
  37.8001678  98.7683151  37.7012563  39.0954116  98.0000298  37.8560497
  31.1070916  84.7771939  41.5972478  31.6305318  85.0234235  42.3598787
  30.8883249  85.6091973  41.1775615  26.5038197  87.0475613  29.4643603
  26.1750903  86.1672992  29.2818709  26.8577568  86.9923282  30.3519992
  35.7517776  98.6830516  33.9738588  35.6042738  97.7547223  34.1546158
  36.5771269  98.7050607  33.4895663  29.6180020  87.3348583  29.8319080
  29.9576093  87.8634504  29.1097689  30.0652141  87.6728989  30.6077647
  39.3551898  99.5059075  35.0603461  40.2798445  99.3001936  34.9227912
  39.1867201  99.2575476  35.9692802  32.3123461  85.7185634  39.2822148
  31.9720281  84.9193447  39.6842828  31.6062467  86.0187345  38.7098982
  32.9639933  82.8034946  37.7349471  33.7866002  82.3295424  37.6128362
  33.2077996  83.5825430  38.2348158  31.6048167  85.8323205  28.0312373
  32.3256530  86.2104457  27.5276090  30.9813471  86.5512081  28.1347351
  35.7479290  86.5368354  28.9670705  35.9642905  87.4192991  28.6659534
  35.2673357  86.1454567  28.2376347  30.4878512  89.4954067  35.5441450
  30.3423092  89.8094370  36.4365732  30.0103715  90.1138967  34.9912349
  32.3474894  86.4856615  35.5922340  32.3336463  85.5897708  35.2554638
  33.0647323  86.4927278  36.2260626  34.2001025  86.9193955  37.6375467
  33.9418803  87.8411026  37.6359797  33.6686065  86.5224389  38.3275931
  39.1447214 100.0244742  30.4165552  39.3184091  99.4591165  29.6639405
  39.6376105 100.8245637  30.2345042  24.9624174  92.0359411  38.4829111
  24.4177642  92.8119219  38.6149386  25.8403524  92.3830216  38.3248233
  31.7511790  85.3670995  30.8609910  31.8727702  84.4387641  31.0600797
  31.4613833  85.3809681  29.9488225  34.6202981  83.0525905  33.9976630
  34.6424678  83.1165239  33.0428609  35.0371040  82.2130414  34.1917136
  44.9986605  92.7881165  32.0355852  45.4417751  92.0388490  31.6374975
  44.1213115  92.7791301  31.6529584  40.1322386  99.3411506  27.5162451
  40.8273291  99.9618199  27.7349765  40.4745536  98.4906858  27.7914829
  25.7490196  91.1629307  41.3759268  25.0071932  91.3111943  41.9623899
  25.4282940  91.4237573  40.5126018  42.0313809  96.7911212  29.0449782
  42.5565134  97.1298485  28.3199102  41.9436162  95.8558227  28.8612916
  33.6933858 100.7045286  41.1739658  34.0020985 100.4594432  42.0462358
  34.4909340 100.9091924  40.6858528  33.7154470 102.8583195  33.4045035
  33.2759461 102.3659574  34.0977891  34.4662587 102.3156163  33.1637110
  26.1946809  99.0494736  33.4069663  27.0204829  98.7498508  33.0268306
  25.8440861  98.2802359  33.8559451  31.1628342  98.4021204  35.4767336
  30.5408352  97.7391909  35.1769564  31.8333209  98.4282336  34.7940984
  24.3955414  96.9681063  34.3658596  23.5587323  96.5403237  34.1842598
  24.3679060  97.1613506  35.3029388  31.2352870  86.8802992  45.0699842
  31.2841025  87.7565115  44.6877612  31.7775384  86.3380385  44.4971486
  41.7207716  97.4244116  44.3500979  40.9303259  97.4068254  43.8105479
  41.4841070  97.9632409  45.1050016  41.8405591  94.2736582  41.6633708
  41.8903596  94.1086589  42.6049231  41.7319514  93.4063841  41.2731589
  30.7241849  96.9525128  28.9525797  30.8729970  97.6360592  28.2992470
  31.5308293  96.9330218  29.4675253  39.1309353  90.2567510  42.9793015
  40.0319216  90.1173975  42.6877013  39.2057327  90.4221965  43.9191192
  33.4652158  87.6334365  41.8246201  32.5955468  87.9267931  41.5528790
  33.7011639  88.2174810  42.5453465  43.3423787  96.6933524  41.9075730
  43.0508596  97.0563504  42.7439191  42.7295919  95.9800532  41.7289062
  44.5419470  94.2586403  34.4278300  45.3766361  94.6976207  34.5915860
  44.6778599  93.7825056  33.6086546  41.5910976  91.8166138  40.3755788
  42.0665097  92.0093784  39.5674639  40.6676541  91.8725324  40.1299171
  28.4794482  92.9790305  29.9586866  28.2340524  92.0752635  30.1567076
  28.6490397  92.9807456  29.0166344  36.1691192  83.8513982  39.3411621
  36.6873136  84.5875009  39.0158110  35.8146325  84.1577975  40.1758381
  27.7490130  88.7118663  27.4573027  27.0559375  88.7863018  26.8013063
  27.5041882  87.9479007  27.9794544  36.4203786  80.2714264  34.8612518
  36.7005540  79.6037453  35.4872945  37.2054393  80.4643360  34.3487182
  34.2237255  99.4473258  26.4237544  33.6511222 100.0663445  25.9708016
  34.7970048  99.9972620  26.9577466  40.2912645  88.6931898  38.6084093
  41.2430068  88.7929996  38.6296317  40.1216095  87.9010167  39.1182177
  38.3127024  85.7787481  38.7943494  37.7176956  86.0592494  38.0989983
  38.0276721  86.2681382  39.5660235  37.4434515  99.7310408  27.5546127
  38.3765188  99.6655970  27.7579002  37.3557727 100.5666675  27.0960659
  40.0722531  99.0476279  24.5150074  39.9936163  98.7136142  25.4085832
  40.8932198  99.5398047  24.5141547  42.7700722  91.9138018  37.7226393
  42.7377043  90.9754019  37.9086077  43.3801346  91.9922055  36.9892218
  34.6084053  90.7834071  23.7653597  35.5543158  90.6540279  23.8342015
  34.2298298  90.0448733  24.2423025  42.9195211  88.7049061  37.7684676
  42.4034260  87.9207518  37.5814605  43.8035159  88.3767778  37.9331195
  40.5805938  82.4490077  33.7280489  40.3830759  82.1405165  34.6123821
  41.1905643  83.1751716  33.8578418  48.5877272  92.9754025  36.8632430
  49.3180661  92.7139313  37.4240133  47.9784218  92.2382747  36.9034498
  46.6692569  91.1161887  37.4606881  45.9425733  90.9817852  36.8523372
  46.2539856  91.4238716  38.2663599  34.4922746  94.8351817  45.2254254
  35.4125755  95.0130416  45.4194300  34.4572329  93.8907862  45.0733953
  32.7926970  88.7084047  23.7008482  31.8858426  88.4117160  23.7771196
  33.0702951  88.4113865  22.8342768  23.7104911  90.0290411  34.1507528
  23.3907695  89.1755719  33.8581902  23.1638339  90.2438989  34.9065496
  27.4884818  92.7452852  37.8677035  27.7070828  93.6769959  37.8865069
  27.9010592  92.3860826  38.6531839  34.4089036  83.2520937  29.8552723
  33.5989765  82.9068022  30.2307969  35.0973453  82.9428481  30.4440335
  36.3379584  82.3298984  31.4777020  36.8910623  82.7494437  32.1367043
  36.5749671  81.4034732  31.5199976  32.3612684  88.3186057  47.2579784
  32.2609411  89.2680414  47.1891875  32.1434226  87.9904296  46.3855854
  31.5625755  85.5670982  23.8420461  32.4244919  85.8925881  24.1016279
  31.7476099  84.7802478  23.3293527  23.5793171  93.6493322  36.1200650
  22.8856642  93.2347275  35.6070604  24.3266162  93.6913859  35.5234069
  39.7158392  84.4399509  30.9855684  39.1357061  85.0984313  30.6033737
  39.4494324  83.6176854  30.5743102  38.1661958  83.8404567  33.1877005
  38.6661736  83.9521101  32.3791323  38.8097566  83.5365620  33.8277813
  32.2243954  91.7483196  46.0744846  31.7411035  92.5483556  46.2808735
  32.3104893  91.7591141  45.1212290  25.4929913  93.5811576  33.9966665
  25.4700601  93.6799263  33.0448548  25.8030550  94.4276727  34.3183831
  28.1517291  95.6387731  38.1113279  29.1060545  95.6071673  38.0443211
  27.9529815  95.1778355  38.9263505  28.7416673  94.2088847  40.6784077
  29.5609562  94.7032926  40.7018914  29.0153481  93.2920815  40.6501644
  38.4983270  86.5999599  30.0412033  37.6109125  86.8849250  29.8232227
  38.9137259  86.4393363  29.1939309  41.8497806  86.6246120  33.7566372
  42.6258196  87.1142573  34.0290989  41.1245940  87.0504175  34.2138241
  44.2870364  87.3373740  34.8140312  44.8814855  87.0969475  34.1033621
  44.3596948  86.6180870  35.4413849  26.5067520 101.1807350  35.1283477
  26.3721988 100.4207751  34.5621475  26.0899582 101.9048250  34.6612266
  37.6426483  96.3644274  24.1360052  38.3462333  96.5694277  24.7517708
  36.9189132  96.9321036  24.4009136  38.4724293  92.1154135  30.2562323
  38.4159495  92.5722687  29.4169955  39.0252636  91.3544820  30.0785165
  42.2829099  87.9043867  31.0812442  42.0266033  87.5040503  31.9120650
  41.6581967  88.6187661  30.9562581  46.5941437  90.6439940  33.5883734
  46.0340995  90.7133130  34.3615296  45.9884940  90.4680925  32.8683230
  29.6636646 102.0776667  35.3401920  29.5469030 103.0222100  35.2380610
  28.8429092 101.7750229  35.7287719  39.5513180  96.8026803  26.1858513
  40.3858784  96.3708002  26.0035987  39.3897523  96.6308817  27.1135407
  39.2059073  93.3058917  27.5514852  39.1507876  93.1403188  26.6103296
  38.5805128  94.0134949  27.7077042  23.9951588  88.5426981  41.3776274
  24.6410451  88.0325935  41.8663499  23.7868739  89.2795663  41.9519699
  36.5204980  95.6107828  46.8768415  37.3896139  95.7848481  46.5155050
  36.0411731  96.4302245  46.7544144  32.5155198  82.8067026  27.1300170
  32.5033868  83.7508865  27.2868441  33.4078620  82.6237171  26.8359631
  30.6891160 102.7304929  38.5557848  31.5918407 102.7628540  38.8724343
  30.4628530 101.8005380  38.5704184  32.4444762 101.4835916  35.2167927
  31.4940393 101.4837778  35.1032299  32.7477248 100.7368650  34.7003962
  36.3307318  79.4009802  31.3846107  35.5639713  78.8468289  31.5302789
  36.7418023  79.4731671  32.2460259  28.3349079  85.6894598  45.4751288
  29.1980540  85.3331403  45.6854613  27.7614489  85.3508493  46.1626693
  48.1797456 107.3196454  36.2813689  48.8175865 107.2003202  35.5777029
  48.0618298 108.2677298  36.3401641  44.9887162 107.2723882  36.2175214
  44.6505673 107.1564947  35.3295749  45.8576930 106.8715048  36.1976220
  40.8473978 109.1259359  32.2072105  40.2838843 109.0349296  31.4388393
  40.7326373 108.3059263  32.6874597  45.4706945 108.4258734  42.1761420
  45.4595586 108.0311532  41.3041923  45.6327584 107.6924807  42.7695191
  38.3938409 110.6210550  35.0456325  39.1859701 110.2801375  34.6302625
  38.6335060 110.7305525  35.9658479  46.4273536 112.7930327  27.5186570
  45.7761516 113.3784407  27.1320584  47.2217899 113.3236521  27.5781607
  40.3529163 109.8819464  27.9173704  41.1260039 109.3348451  27.7786580
  40.7054562 110.7463713  28.1288166  42.1914206 111.2095846  41.1240603
  41.9004072 112.1141477  41.0087270  42.8271190 111.2512374  41.8384673
  43.1170413 108.5872694  37.7141963  43.7133985 108.3628717  36.9998926
  43.1745384 107.8457440  38.3167411  42.6895441 106.0412130  25.5492154
  42.9420962 105.5193651  24.7875617  41.7520000 105.8778275  25.6518838
  47.7338724 105.0447908  33.3566897  48.5201813 104.6267331  33.0057314
  47.9977428 105.9494000  33.5248546  47.9048801 110.4820758  28.0555554
  47.2694634 110.5555385  28.7676459  47.5746208 111.0714357  27.3774633
  53.1347151 104.9823141  34.2599876  53.8672323 104.4122358  34.4937705
  52.3786507 104.5944742  34.7006381  42.4091730 107.9440236  27.7516529
  42.2927988 107.2685139  28.4197613  42.5193990 107.4572610  26.9348682
  44.7523271 107.4050383  31.4563218  44.3881478 106.8781004  32.1676140
  45.6090387 107.0148852  31.2829704  50.6572571  98.6944715  38.7194484
  50.3255896  99.5640126  38.4955699  50.0618185  98.3780999  39.3988515
  44.3928758 102.4340283  26.4524567  44.5603160 103.3020519  26.8195038
  44.2025927 102.5967564  25.5285856  47.1504091 110.8957261  38.1190397
  46.8504814 111.7982300  38.0106204  46.8055151 110.6289445  38.9711550
  40.6016573 107.3471058  34.1527102  39.6767069 107.2147272  34.3604793
  40.8500986 108.1265278  34.6497044  50.5501235 103.4139802  35.7987834
  49.6418112 103.3455210  35.5046595  50.4988831 103.8911747  36.6269660
  44.3717979 104.8897940  27.4371234  44.2517604 105.3354991  28.2756714
  43.6770567 105.2383258  26.8784772  37.9625384 106.9904332  34.9870891
  38.0917765 107.2438811  35.9010302  37.2822835 107.5832040  34.6675546
  42.1324871 117.6601582  31.0861365  42.0548901 118.6109407  31.1649845
  41.5286514 117.3147454  31.7436291  44.6242101 104.8329447  43.7422732
  43.8475435 105.3923367  43.7325596  45.2632664 105.3186230  44.2637602
  52.4162881 101.6156240  37.5765708  51.7737261 101.9088773  36.9305503
  51.9117810 101.5009160  38.3818905  50.0703045 105.3619413  28.2651568
  50.9820901 105.5946800  28.0899265  49.5612692 105.9456457  27.7026646
  42.8788473 107.6414901  43.3040699  43.6203157 108.1799945  43.0275522
  42.1725458 108.2681189  43.4612251  48.3543813 109.7844041  41.9012860
  48.7627169 109.3426452  41.1567493  47.6321074 109.2096669  42.1547053
  44.7074883 104.7216648  39.2746417  45.5536078 105.1456061  39.4181066
  44.6473520 104.0650272  39.9684980  48.6772627 110.3445232  35.6565149
  48.0481490 110.5090946  34.9541217  48.2898289 110.7586841  36.4276113
  52.5561859 111.2799670  33.0109513  51.8712897 111.6598571  32.4606546
  52.6405708 111.8894996  33.7441461  47.8574328 102.3821016  40.9327591
  47.6135260 103.1363077  40.3961867  48.1334258 102.7606364  41.7674838
  49.8112791 108.9259629  39.6104856  50.0229686 109.5691388  38.9339238
  49.7642539 108.0921945  39.1426787  47.4139020 101.5377449  36.5141429
  46.5523499 101.8358703  36.8058166  47.4401454 101.7547848  35.5822461
  44.2300589 110.0819640  32.9215234  44.6938935 110.3607343  32.1319857
  43.9657387 109.1803084  32.7388325  41.1224670 109.6291121  35.8594997
  41.6926027 110.0578390  35.2212482  41.7132782 109.3473706  36.5579183
  43.1669475 106.2042792  29.7304799  43.8693518 106.6563836  30.1978726
  42.8350104 105.5626611  30.3584693  41.6149837 104.7954549  44.1056009
  40.9848497 105.4770830  44.3391406  41.5085925 104.6837630  43.1609147
  36.9094809 104.4626345  35.0321933  36.1193863 104.7183873  34.5562044
  37.4006056 105.2774683  35.1373973  50.9258619 111.8031584  37.7827214
  51.7476062 111.4011771  37.5009895  50.9221022 111.6999818  38.7343330
  38.8609554 104.8270924  31.9905410  38.0640718 104.9389618  32.5088905
  38.6335147 105.1657576  31.1246300  44.6915222 111.3515627  39.9387924
  44.7559655 111.8136035  40.7746096  43.9826146 110.7212992  40.0670234
  35.1932512 104.7156835  37.4636924  35.4440550 105.6003845  37.7294500
  35.7292060 104.5361437  36.6912016  59.0164612 108.1470332  34.1312185
  58.2628320 107.5777731  33.9756190  59.1512153 108.1132997  35.0782820
  44.4063240 113.0183735  29.8066905  44.2708915 113.8635270  30.2351752
  44.9473052 113.2203012  29.0432838  40.8930579  99.0975315  46.4681260
  40.4997525  98.5441513  47.1428904  41.7096720  99.4085893  46.8587777
  37.8592637 110.5359173  30.3794830  38.3717158 111.3302423  30.5300394
  38.5115350 109.8385463  30.3128431  39.6687522 113.6524929  32.4617583
  39.8454150 114.5742894  32.2738567  40.4644355 113.3383348  32.8911963
  43.8098540 100.5133194  44.0601516  44.5508254 101.1140347  43.9805979
  44.0416463  99.7710832  43.5019559  38.9539878 105.6989561  42.3379746
  38.8393394 104.7974818  42.6386845  38.0984396 105.9453258  41.9864563
  46.0331716 113.6407301  43.9367247  45.5895570 112.8543680  43.6188151
  46.6948930 113.8286452  43.2711137  40.7918837 115.1703103  38.4627925
  41.3426262 115.0420166  37.6904919  39.9530313 115.4697992  38.1122818
  48.1312954 113.9210101  41.9648648  48.1131430 114.7418982  41.4728917
  49.0532874 113.7964176  42.1898789  44.5886008 111.4354231  42.8072156
  45.1214345 110.6742519  42.5771464  44.0600089 111.1427883  43.5496311
  47.7555703  96.5414297  38.3365798  47.4119973  97.4315938  38.2604909
  48.1234666  96.3515954  37.4735383  35.8241554 108.8647827  31.1554400
  36.6616776 109.2744835  30.9388108  36.0019822 107.9247269  31.1254594
  47.7205986 106.5322908  26.8438233  47.2052609 107.3027512  27.0826621
  47.4483294 105.8588044  27.4671295  45.3053097 101.3772609  31.9023472
  44.4494693 100.9879459  31.7229110  45.7180049 101.4564569  31.0423257
  46.8352244  98.9118952  36.3015031  46.3317039  98.8749087  35.4882837
  47.1282851  99.8211695  36.3611688  43.0795130  98.9957682  35.3081213
  43.9448126  98.8000490  34.9487103  43.1472638  98.7668033  36.2350570
  52.6940260 109.2855262  28.7791407  51.9169703 108.9466422  28.3346569
  53.3731741 109.2907886  28.1046372  47.5092289 104.4050000  28.6698014
  47.2042425 104.7196149  29.5208158  48.4622731 104.4831420  28.7125347
  45.9538721 110.5640223  30.3190968  45.4260083 109.8292983  30.0064206
  45.4526224 111.3414900  30.0730937  50.9331567 108.7589244  35.4358015
  50.2755242 109.4488505  35.5238143  51.7371966 109.1485676  35.7792001
  40.6857449 101.2259889  32.6797580  41.2601201 101.0035071  31.9470773
  41.2728431 101.2948584  33.4326181  49.7437026 107.1133616  33.4861956
  50.2568908 107.7463608  33.9883666  50.3938250 106.5134812  33.1205316
  41.0127036 103.2564350  26.6993465  40.1764348 103.5939037  27.0202740
  40.8731805 103.1213330  25.7620602  42.9880116  98.1001138  31.4072649
  42.3344529  97.7850156  30.7829264  42.9460591  97.4776879  32.1332472
  44.0991321 108.3820433  23.3225941  43.1918383 108.1509687  23.5217090
  44.5962353 107.5858053  23.5099923  47.0059400 117.0917941  26.2422628
  46.3321099 117.3949637  26.8507585  47.3925222 117.8947021  25.8928085
  46.2217857 104.5883072  35.7320297  45.3040418 104.8098019  35.5741985
  46.6378000 104.6629382  34.8732004  47.0052904 105.9874488  30.8622977
  47.7524723 106.4995885  30.5530099  47.2744494 105.6658540  31.7227371
  45.2779555 108.4833028  27.8449931  44.3690774 108.1992061  27.9422401
  45.3074638 108.9032107  26.9853238  50.5098822 112.0939618  31.6141099
  50.0561149 111.2530528  31.6706289  49.8792789 112.7301016  31.9515879
  49.4531742 103.0231604  32.8441766  48.7154498 102.5108990  33.1752009
  49.7058515 102.5831985  32.0325043  48.9531761 113.9316114  32.5490917
  49.2454736 114.4921172  31.8303283  49.4630382 114.2244675  33.3044076
  49.5543369  95.8007856  33.4383536  49.8602246  94.9405219  33.1509451
  50.2795974  96.3925476  33.2382530  35.8467725 106.2038542  31.8265134
  35.6492125 105.6107903  31.1016200  35.2914389 105.8990753  32.5441072
  43.8264449 106.0961649  33.9459727  43.8813058 105.1435485  33.8702203
  43.0155651 106.2521088  34.4301025  44.9755642 110.0241772  25.1838010
  44.5375072 109.3077631  24.7243647  45.7166083 110.2517887  24.6223101
  41.7656809 104.7138709  31.7050106  40.9524674 105.0132879  32.1115298
  42.2615803 104.3194397  32.4224588  43.9165387 114.7096466  33.6384370
  43.8741565 114.9357312  32.7092902  44.8328085 114.4759840  33.7870172
  47.3631020 105.1780533  40.5365000  47.7180408 105.4052006  41.3959465
  48.0103152 105.5098910  39.9142255  53.0928757 108.2998969  31.2414329
  52.9546656 108.4900565  30.3135518  52.7364976 109.0618352  31.6982380
  41.2570883 102.2857064  37.3211341  41.8970263 102.1445823  36.6234304
  40.4248414 101.9991578  36.9449943  53.1198137 110.3675496  36.2525600
  53.5534644 110.2750785  37.1008654  53.8329718 110.3432996  35.6145616
  42.0331187 111.5859495  33.4346333  42.8271786 111.0909815  33.2328908
  41.3222880 111.0577358  33.0714039  46.8526032 113.9677590  37.7858701
  46.9063054 114.5368526  38.5536417  45.9840813 114.1379475  37.4212738
  38.3413951 105.7302576  29.5106086  37.4111539 105.6687032  29.7276048
  38.4371423 105.2078529  28.7142727  38.2599500 102.2557389  32.0984327
  38.5206317 103.1702722  31.9893488  39.0816672 101.7881832  32.2480940
  39.7324425 103.6695146  39.2683152  40.4047479 103.4612508  38.6195801
  38.9054212 103.4717232  38.8288384  53.9813686 110.4099197  38.7858486
  54.1749577 111.3145007  39.0317760  53.8814305 109.9506616  39.6197071
  45.6349997 100.2957087  41.2848813  44.9877912 100.9947037  41.1913289
  46.4051013 100.7293231  41.6525061  49.0428795 110.5605939  44.3599366
  48.8914302 110.3316491  43.4429450  49.0333475 111.5176541  44.3730711
  45.8114132 108.1337852  39.3445633  46.7406192 108.2849012  39.1714600
  45.3905162 108.2221873  38.4894279  44.6102463 112.1588517  37.1144170
  44.4713549 111.7907301  37.9870108  43.8217060 112.6736156  36.9428128
  45.2050615 117.2597613  28.4569707  45.3802371 116.7885656  29.2715329
  44.5183403 117.8863379  28.6850967  46.1607678 111.5370119  34.5033008
  45.8257511 111.4970889  35.3990658  45.6611624 110.8714835  34.0303418
  40.1351922 106.9437749  40.0285589  39.9971720 106.2117988  40.6297128
  41.0456846 106.8546649  39.7469777  49.0966870 108.8826154  24.7770068
  48.4796041 108.1572982  24.6803120  48.6283359 109.6435514  24.4337142
  42.7634223 106.6557709  39.5169269  43.4733842 106.0150901  39.4755887
  42.7203531 106.9070603  40.4395450  50.7521002 113.5925062  42.4375848
  50.6933548 112.9084282  41.7706431  51.1540520 114.3344052  41.9856474
  41.4763157 103.6422927  41.3364908  40.9400514 103.1913665  41.9886505
  40.8879866 103.7768835  40.5935373  40.8865416 103.1011578  23.8991372
  40.0094882 102.9800379  23.5353619  41.3623169 102.3097656  23.6470261
  50.7538409 111.5564646  40.6689828  49.8665188 111.2190568  40.7916227
  51.3236960 110.8247677  40.9058593  32.4067556 107.8888738  33.9932879
  33.0938596 107.5750468  33.4053894  32.2515685 108.7930102  33.7200130
  37.2102278 102.7778934  38.4217903  37.1260467 102.1704604  37.6868313
  36.3884985 103.2687953  38.4227399  44.2839562 116.2166098  37.6351071
  44.2109734 117.0221070  38.1470375  43.8416956 116.4158064  36.8099092
  44.0729342 115.4537868  31.1453892  43.2896864 115.9959548  31.2392117
  44.7722087 115.9711848  31.5448134  47.3825992 101.2632498  33.7888098
  47.8794692 100.5102460  33.4689168  46.6112974 101.2996814  33.2231307
  55.2355750 106.9672863  35.4306389  55.2245626 107.8497579  35.0600322
  54.3673129 106.6144414  35.2360926  46.7438246 116.1152932  39.7909230
  47.4566218 116.7500397  39.7185131  46.2528275 116.2116798  38.9749231
  48.4655773 110.0204185  31.3626521  47.5312052 110.1405647  31.1931226
  48.6432441 109.1176652  31.0986531  43.9660961 103.4049881  33.5159782
  43.5958748 102.8520921  34.2040688  44.4620053 102.8008014  32.9634782
  51.8528324 105.8621504  31.8976555  52.3188776 106.6949496  31.8236858
  52.3035825 105.3966486  32.6021814  41.7950159 113.8647376  40.6114800
  42.4959619 114.4983859  40.7644195  41.3245274 114.2062107  39.8510440
  49.9204555 112.2065326  28.8962707  50.1964399 112.0921920  29.8056581
  49.0509054 111.8082810  28.8574880  49.8244987  98.2302091  35.9367457
  48.9108067  98.4606318  36.1049664  50.2538088  98.3140535  36.7881489
  49.5951445 106.4191983  38.4367351  48.9422896 106.6667891  37.7819803
  49.9731825 105.6056121  38.1029828  46.5558619 116.4551676  32.5395521
  46.7381014 115.6373332  33.0023273  47.3791605 116.6719369  32.1020411
  46.8900785 115.3819862  29.8010569  47.4188551 114.8712316  29.1880732
  47.1529004 115.0662392  30.6656103  45.6439018 107.1611794  44.9233388
  44.9679655 107.0605924  45.5935763  46.4666652 107.0051008  45.3869385
  37.3917878 113.3983731  37.5445903  37.9771314 112.6527419  37.6773807
  37.1942716 113.7087688  38.4282567  40.2456533 116.4334978  32.5608345
  39.5766908 116.9181106  32.0772385  40.1069402 116.6804199  33.4751724
  31.9835532 105.9689331  36.2650346  32.0219632 105.4352922  37.0587464
  31.4775825 105.4424537  35.6461323  44.3861801 118.4678722  39.1591004
  44.9380109 118.6310343  39.9240089  44.7267995 119.0583160  38.4871029
  39.3626295 100.8153872  39.7612888  39.4267621 101.6768702  39.3490286
  39.2993415 100.2027873  39.0285247  38.8378567 102.8877004  43.4085923
  39.4650606 102.5054081  44.0223447  37.9806486 102.6691206  43.7741615
  49.2372676 113.2939979  45.0139658  49.7812580 113.9069937  44.5194613
  48.6559521 113.8519558  45.5306671  35.6144110 104.6953433  29.3404278
  35.9097551 103.7864112  29.2871331  34.7132146 104.6741173  29.0185280
  47.5230189 116.4160697  36.1454686  47.3981328 115.6150437  35.6365631
  48.1809280 116.9106891  35.6568656  39.1438357 102.7709430  35.3231826
  38.4224943 103.3845397  35.1839299  39.9331613 103.3067195  35.2448472
  49.5865097 114.2169717  37.7734236  48.6395433 114.0975069  37.7012563
  49.9347870 113.3292215  37.8560497  41.9464670 100.1063856  41.5972478
  42.4699072 100.3526153  42.3598787  41.7277004 100.9383891  41.1775615
  37.3431951 102.3767531  29.4643603  37.0144658 101.4964910  29.2818709
  37.6971322 102.3215200  30.3519992  46.5911530 114.0122434  33.9738588
  46.4436493 113.0839141  34.1546158  47.4165024 114.0342524  33.4895663
  40.4573775 102.6640501  29.8319080  40.7969847 103.1926422  29.1097689
  40.9045895 103.0020907  30.6077647  50.1945652 114.8350992  35.0603461
  51.1192200 114.6293854  34.9227912  50.0260956 114.5867393  35.9692802
  43.1517215 101.0477551  39.2822148  42.8114036 100.2485364  39.6842828
  42.4456222 101.3479262  38.7098982  43.8033687  98.1326864  37.7349471
  44.6259757  97.6587342  37.6128362  44.0471751  98.9117348  38.2348158
  42.4441922 101.1615122  28.0312373  43.1650284 101.5396375  27.5276090
  41.8207226 101.8803999  28.1347351  46.5873045 101.8660271  28.9670705
  46.8036659 102.7484909  28.6659534  46.1067112 101.4746485  28.2376347
  41.3272266 104.8245984  35.5441450  41.1816847 105.1386287  36.4365732
  40.8497470 105.4430885  34.9912349  43.1868649 101.8148532  35.5922340
  43.1730218 100.9189626  35.2554638  43.9041077 101.8219196  36.2260626
  45.0394780 102.2485873  37.6375467  44.7812557 103.1702943  37.6359797
  44.5079820 101.8516307  38.3275931  49.9840968 115.3536660  30.4165552
  50.1577846 114.7883082  29.6639405  50.4769860 116.1537555  30.2345042
  35.8017928 107.3651329  38.4829111  35.2571396 108.1411137  38.6149386
  36.6797278 107.7122133  38.3248233  42.5905545 100.6962913  30.8609910
  42.7121456  99.7679559  31.0600797  42.3007587 100.7101599  29.9488225
  45.4596735  98.3817823  33.9976630  45.4818432  98.4457156  33.0428609
  45.8764794  97.5422332  34.1917136  55.8380360 108.1173083  32.0355852
  56.2811506 107.3680408  31.6374975  54.9606870 108.1083219  31.6529584
  50.9716141 114.6703424  27.5162451  51.6667045 115.2910117  27.7349765
  51.3139291 113.8198775  27.7914829  36.5883950 106.4921225  41.3759268
  35.8465686 106.6403860  41.9623899  36.2676694 106.7529491  40.5126018
  52.8707564 112.1203130  29.0449782  53.3958888 112.4590402  28.3199102
  52.7829917 111.1850145  28.8612916  44.5327613 116.0337203  41.1739658
  44.8414739 115.7886350  42.0462358  45.3303095 116.2383842  40.6858528
  44.5548225 118.1875113  33.4045035  44.1153215 117.6951492  34.0977891
  45.3056342 117.6448081  33.1637110  37.0340564 114.3786654  33.4069663
  37.8598584 114.0790426  33.0268306  36.6834616 113.6094276  33.8559451
  42.0022097 113.7313122  35.4767336  41.3802106 113.0683827  35.1769564
  42.6726964 113.7574254  34.7940984  35.2349169 112.2972980  34.3658596
  34.3981077 111.8695155  34.1842598  35.2072814 112.4905424  35.3029388
  42.0746624 102.2094910  45.0699842  42.1234780 103.0857033  44.6877612
  42.6169139 101.6672303  44.4971486  52.5601470 112.7536033  44.3500979
  51.7697014 112.7360172  43.8105479  52.3234825 113.2924327  45.1050016
  52.6799345 109.6028500  41.6633708  52.7297350 109.4378507  42.6049231
  52.5713268 108.7355759  41.2731589  41.5635604 112.2817045  28.9525797
  41.7123724 112.9652510  28.2992470  42.3702047 112.2622135  29.4675253
  49.9703107 105.5859428  42.9793015  50.8712970 105.4465893  42.6877013
  50.0451082 105.7513883  43.9191192  44.3045913 102.9626282  41.8246201
  43.4349222 103.2559849  41.5528790  44.5405393 103.5466727  42.5453465
  54.1817542 112.0225441  41.9075730  53.8902350 112.3855422  42.7439191
  53.5689673 111.3092449  41.7289062  55.3813224 109.5878321  34.4278300
  56.2160116 110.0268125  34.5915860  55.5172353 109.1116974  33.6086546
  52.4304730 107.1458056  40.3755788  52.9058852 107.3385702  39.5674639
  51.5070296 107.2017242  40.1299171  39.3188237 108.3082223  29.9586866
  39.0734279 107.4044553  30.1567076  39.4884151 108.3099373  29.0166344
  47.0084947  99.1805899  39.3411621  47.5266890  99.9166926  39.0158110
  46.6540079  99.4869893  40.1758381  38.5883884 104.0410581  27.4573027
  37.8953129 104.1154936  26.8013063  38.3435636 103.2770924  27.9794544
  47.2597541  95.6006182  34.8612518  47.5399295  94.9329371  35.4872945
  48.0448148  95.7935278  34.3487182  45.0631009 114.7765176  26.4237544
  44.4904976 115.3955363  25.9708016  45.6363803 115.3264537  26.9577466
  51.1306399 104.0223816  38.6084093  52.0823822 104.1221914  38.6296317
  50.9609850 103.2302084  39.1182177  49.1520779 101.1079399  38.7943494
  48.5570711 101.3884412  38.0989983  48.8670475 101.5973300  39.5660235
  48.2828269 115.0602326  27.5546127  49.2158942 114.9947888  27.7579002
  48.1951482 115.8958593  27.0960659  50.9116286 114.3768196  24.5150074
  50.8329917 114.0428060  25.4085832  51.7325953 114.8689964  24.5141547
  53.6094477 107.2429936  37.7226393  53.5770797 106.3045936  37.9086077
  54.2195101 107.3213972  36.9892218  45.4477808 106.1125989  23.7653597
  46.3936913 105.9832197  23.8342015  45.0692053 105.3740650  24.2423025
  53.7588965 104.0340979  37.7684676  53.2428014 103.2499436  37.5814605
  54.6428914 103.7059696  37.9331195  51.4199692  97.7781995  33.7280489
  51.2224513  97.4697083  34.6123821  52.0299398  98.5043633  33.8578418
  59.4271027 108.3045942  36.8632430  60.1574415 108.0431231  37.4240133
  58.8177972 107.5674664  36.9034498  57.5086324 106.4453805  37.4606881
  56.7819487 106.3109770  36.8523372  57.0933611 106.7530634  38.2663599
  45.3316500 110.1643735  45.2254254  46.2519510 110.3422334  45.4194300
  45.2966083 109.2199780  45.0733953  43.6320725 104.0375965  23.7008482
  42.7252180 103.7409078  23.7771196  43.9096706 103.7405783  22.8342768
  34.5498665 105.3582328  34.1507528  34.2301450 104.5047637  33.8581902
  34.0032094 105.5730907  34.9065496  38.3278573 108.0744769  37.8677035
  38.5464583 109.0061877  37.8865069  38.7404347 107.7152744  38.6531839
  45.2482791  98.5812855  29.8552723  44.4383519  98.2359940  30.2307969
  45.9367208  98.2720398  30.4440335  47.1773339  97.6590901  31.4777020
  47.7304378  98.0786355  32.1367043  47.4143425  96.7326650  31.5199976
  43.2006438 103.6477975  47.2579784  43.1003165 104.5972332  47.1891875
  42.9827980 103.3196214  46.3855854  42.4019510 100.8962900  23.8420461
  43.2638674 101.2217798  24.1016279  42.5869854 100.1094396  23.3293527
  34.4186925 108.9785240  36.1200650  33.7250397 108.5639193  35.6070604
  35.1659916 109.0205776  35.5234069  50.5552146  99.7691427  30.9855684
  49.9750815 100.4276231  30.6033737  50.2888079  98.9468771  30.5743102
  49.0055712  99.1696484  33.1877005  49.5055491  99.2813019  32.3791323
  49.6491320  98.8657537  33.8277813  43.0637708 107.0775114  46.0744846
  42.5804790 107.8775474  46.2808735  43.1498647 107.0883059  45.1212290
  36.3323668 108.9103494  33.9966665  36.3094356 109.0091181  33.0448548
  36.6424304 109.7568644  34.3183831  38.9911046 110.9679649  38.1113279
  39.9454299 110.9363591  38.0443211  38.7923569 110.5070272  38.9263505
  39.5810428 109.5380765  40.6784077  40.4003317 110.0324843  40.7018914
  39.8547236 108.6212733  40.6501644  49.3377024 101.9291517  30.0412033
  48.4502879 102.2141168  29.8232227  49.7531013 101.7685280  29.1939309
  52.6891560 101.9538038  33.7566372  53.4651950 102.4434490  34.0290989
  51.9639694 102.3796092  34.2138241  55.1264119 102.6665657  34.8140312
  55.7208610 102.4261393  34.1033621  55.1990703 101.9472788  35.4413849
  37.3461275 116.5099268  35.1283477  37.2115742 115.7499669  34.5621475
  36.9293337 117.2340168  34.6612266  48.4820238 111.6936192  24.1360052
  49.1856088 111.8986194  24.7517708  47.7582886 112.2612954  24.4009136
  49.3118048 107.4446053  30.2562323  49.2553249 107.9014604  29.4169955
  49.8646390 106.6836738  30.0785165  53.1222854 103.2335785  31.0812442
  52.8659788 102.8332420  31.9120650  52.4975722 103.9479579  30.9562581
  57.4335192 105.9731858  33.5883734  56.8734750 106.0425047  34.3615296
  56.8278695 105.7972843  32.8683230  40.5030400 117.4068585  35.3401920
  40.3862785 118.3514018  35.2380610  39.6822847 117.1042147  35.7287719
  50.3906935 112.1318721  26.1858513  51.2252539 111.6999919  26.0035987
  50.2291278 111.9600735  27.1135407  50.0452827 108.6350834  27.5514852
  49.9901631 108.4695106  26.6103296  49.4198882 109.3426867  27.7077042
  34.8345342 103.8718899  41.3776274  35.4804206 103.3617853  41.8663499
  34.6262493 104.6087580  41.9519699  47.3598734 110.9399746  46.8768415
  48.2289894 111.1140398  46.5155050  46.8805486 111.7594163  46.7544144
  43.3548953  98.1358943  27.1300170  43.3427622  99.0800783  27.2868441
  44.2472374  97.9529089  26.8359631  41.5284915 118.0596847  38.5557848
  42.4312161 118.0920457  38.8724343  41.3022285 117.1297298  38.5704184
  43.2838517 116.8127834  35.2167927  42.3334148 116.8129695  35.1032299
  43.5871003 116.0660568  34.7003962  47.1701072  94.7301720  31.3846107
  46.4033468  94.1760207  31.5302789  47.5811777  94.8023589  32.2460259
  39.1742833 101.0186516  45.4751288  40.0374295 100.6623320  45.6854613
  38.6008244 100.6800410  46.1626693  59.0191210 122.6488372  36.2813689
  59.6569620 122.5295119  35.5777029  58.9012053 123.5969216  36.3401641
  55.8280916 122.6015800  36.2175214  55.4899428 122.4856865  35.3295749
  56.6970685 122.2006965  36.1976220  56.3100699 123.7550652  42.1761420
  56.2989340 123.3603450  41.3041923  56.4721339 123.0216724  42.7695191
  53.5289196 121.3704047  25.5492154  53.7814716 120.8485569  24.7875617
  52.5913755 121.2070193  25.6518838  58.5732479 120.3739826  33.3566897
  59.3595568 119.9559249  33.0057314  58.8371183 121.2785918  33.5248546
  63.9740906 120.3115059  34.2599876  64.7066078 119.7414276  34.4937705
  63.2180261 119.9236659  34.7006381  55.5917025 122.7342301  31.4563218
  55.2275233 122.2072922  32.1676140  56.4484141 122.3440770  31.2829704
  61.4966326 114.0236633  38.7194484  61.1649651 114.8932044  38.4955699
  60.9011939 113.7072917  39.3988515  55.2322512 117.7632200  26.4524567
  55.3996915 118.6312437  26.8195038  55.0419681 117.9259482  25.5285856
  61.3894989 118.7431719  35.7987834  60.4811867 118.6747128  35.5046595
  61.3382585 119.2203664  36.6269660  55.2111733 120.2189858  27.4371234
  55.0911358 120.6646909  28.2756714  54.5164322 120.5675175  26.8784772
  55.4635855 120.1621365  43.7422732  54.6869189 120.7215285  43.7325596
  56.1026418 120.6478148  44.2637602  63.2556636 116.9448158  37.5765708
  62.6131016 117.2380691  36.9305503  62.7511564 116.8301078  38.3818905
  60.9096799 120.6911331  28.2651568  61.8214655 120.9238718  28.0899265
  60.4006446 121.2748375  27.7026646  59.1937567 125.1135959  41.9012860
  59.6020923 124.6718369  41.1567493  58.4714829 124.5388586  42.1547053
  55.5468637 120.0508566  39.2746417  56.3929832 120.4747979  39.4181066
  55.4867275 119.3942190  39.9684980  58.6968082 117.7112934  40.9327591
  58.4529014 118.4654994  40.3961867  58.9728013 118.0898281  41.7674838
  60.6506545 124.2551546  39.6104856  60.8623440 124.8983306  38.9339238
  60.6036293 123.4213863  39.1426787  58.2532774 116.8669367  36.5141429
  57.3917253 117.1650620  36.8058166  58.2795209 117.0839766  35.5822461
  54.0063230 121.5334710  29.7304799  54.7087273 121.9855753  30.1978726
  53.6743858 120.8918529  30.3584693  52.4543591 120.1246466  44.1056009
  51.8242252 120.8062747  44.3391406  52.3479679 120.0129548  43.1609147
  47.7488564 119.7918262  35.0321933  46.9587618 120.0475791  34.5562044
  48.2399811 120.6066600  35.1373973  49.7003309 120.1562842  31.9905410
  48.9034472 120.2681536  32.5088905  49.4728901 120.4949494  31.1246300
  69.8558366 123.4762250  34.1312185  69.1022075 122.9069648  33.9756190
  69.9905907 123.4424915  35.0782820  51.7324334 114.4267232  46.4681260
  51.3391279 113.8733431  47.1428904  52.5490474 114.7377811  46.8587777
  54.6492295 115.8425111  44.0601516  55.3902008 116.4432265  43.9805979
  54.8810218 115.1002749  43.5019559  49.7933633 121.0281479  42.3379746
  49.6787148 120.1266736  42.6386845  48.9378151 121.2745175  41.9864563
  58.5949458 111.8706214  38.3365798  58.2513727 112.7607856  38.2604909
  58.9628420 111.6807872  37.4735383  58.5599741 121.8614825  26.8438233
  58.0446364 122.6319430  27.0826621  58.2877049 121.1879962  27.4671295
  56.1446852 116.7064526  31.9023472  55.2888448 116.3171377  31.7229110
  56.5573803 116.7856487  31.0423257  57.6745998 114.2410869  36.3015031
  57.1710794 114.2041005  35.4882837  57.9676605 115.1503612  36.3611688
  53.9188884 114.3249599  35.3081213  54.7841881 114.1292408  34.9487103
  53.9866393 114.0959951  36.2350570  63.5334015 124.6147180  28.7791407
  62.7563457 124.2758340  28.3346569  64.2125496 124.6199803  28.1046372
  58.3486044 119.7341918  28.6698014  58.0436179 120.0488067  29.5208158
  59.3016486 119.8123337  28.7125347  61.7725322 124.0881161  35.4358015
  61.1148996 124.7780423  35.5238143  62.5765721 124.4777593  35.7792001
  51.5251203 116.5551807  32.6797580  52.0994955 116.3326989  31.9470773
  52.1122186 116.6240502  33.4326181  60.5830780 122.4425534  33.4861956
  61.0962662 123.0755526  33.9883666  61.2332004 121.8426730  33.1205316
  51.8520790 118.5856268  26.6993465  51.0158103 118.9230955  27.0202740
  51.7125560 118.4505248  25.7620602  53.8273871 113.4293056  31.4072649
  53.1738283 113.1142073  30.7829264  53.7854345 112.8068796  32.1332472
  54.9385076 123.7112351  23.3225941  54.0312137 123.4801605  23.5217090
  55.4356108 122.9149970  23.5099923  57.0611611 119.9174990  35.7320297
  56.1434173 120.1389937  35.5741985  57.4771755 119.9921300  34.8732004
  57.8446659 121.3166405  30.8622977  58.5918478 121.8287802  30.5530099
  58.1138249 120.9950458  31.7227371  56.1173309 123.8124946  27.8449931
  55.2084528 123.5283979  27.9422401  56.1468393 124.2324025  26.9853238
  60.2925496 118.3523522  32.8441766  59.5548253 117.8400908  33.1752009
  60.5452270 117.9123903  32.0325043  60.3937123 111.1299774  33.4383536
  60.6996000 110.2697137  33.1509451  61.1189728 111.7217394  33.2382530
  54.6658203 121.4253567  33.9459727  54.7206813 120.4727403  33.8702203
  53.8549405 121.5813006  34.4301025  52.6050563 120.0430626  31.7050106
  51.7918429 120.3424797  32.1115298  53.1009557 119.6486315  32.4224588
  58.2024775 120.5072451  40.5365000  58.5574163 120.7343924  41.3959465
  58.8496906 120.8390828  39.9142255  63.9322512 123.6290887  31.2414329
  63.7940410 123.8192483  30.3135518  63.5758731 124.3910270  31.6982380
  52.0964638 117.6148982  37.3211341  52.7364017 117.4737741  36.6234304
  51.2642168 117.3283495  36.9449943  63.9591891 125.6967414  36.2525600
  64.3928398 125.6042703  37.1008654  64.6723472 125.6724914  35.6145616
  49.1807705 121.0594494  29.5106086  48.2505293 120.9978949  29.7276048
  49.2765177 120.5370447  28.7142727  49.0993254 117.5849307  32.0984327
  49.3600072 118.4994640  31.9893488  49.9210427 117.1173749  32.2480940
  50.5718180 118.9987064  39.2683152  51.2441233 118.7904426  38.6195801
  49.7447966 118.8009150  38.8288384  64.8207441 125.7391114  38.7858486
  65.0143331 126.6436925  39.0317760  64.7208059 125.2798533  39.6197071
  56.4743752 115.6249005  41.2848813  55.8271667 116.3238955  41.1913289
  57.2444767 116.0585149  41.6525061  56.6507886 123.4629770  39.3445633
  57.5799946 123.6140929  39.1714600  56.2298916 123.5513791  38.4894279
  50.9745677 122.2729667  40.0285589  50.8365475 121.5409906  40.6297128
  51.8850600 122.1838567  39.7469777  59.9360625 124.2118071  24.7770068
  59.3189795 123.4864899  24.6803120  59.4677113 124.9727432  24.4337142
  53.6027978 121.9849626  39.5169269  54.3127596 121.3442819  39.4755887
  53.5597286 122.2362521  40.4395450  52.3156912 118.9714844  41.3364908
  51.7794269 118.5205583  41.9886505  51.7273620 119.1060753  40.5935373
  51.7259170 118.4303496  23.8991372  50.8488637 118.3092296  23.5353619
  52.2016924 117.6389574  23.6470261  48.0496033 118.1070852  38.4217903
  47.9654222 117.4996521  37.6868313  47.2278739 118.5979870  38.4227399
  58.2219747 116.5924415  33.7888098  58.7188446 115.8394378  33.4689168
  57.4506728 116.6288732  33.2231307  66.0749504 122.2964781  35.4306389
  66.0639380 123.1789496  35.0600322  65.2066883 121.9436332  35.2360926
  54.8054715 118.7341798  33.5159782  54.4352503 118.1812839  34.2040688
  55.3013808 118.1299932  32.9634782  62.6922079 121.1913422  31.8976555
  63.1582531 122.0241414  31.8236858  63.1429579 120.7258403  32.6021814
  60.6638741 113.5594009  35.9367457  59.7501821 113.7898236  36.1049664
  61.0931843 113.6432453  36.7881489  60.4345200 121.7483901  38.4367351
  59.7816650 121.9959808  37.7819803  60.8125580 120.9348039  38.1029828
  56.4832773 122.4903712  44.9233388  55.8073410 122.3897841  45.5935763
  57.3060407 122.3342926  45.3869385  50.2020049 116.1445789  39.7612888
  50.2661376 117.0060620  39.3490286  50.1387169 115.5319791  39.0285247
  49.6772322 118.2168922  43.4085923  50.3044360 117.8345999  44.0223447
  48.8200240 117.9983124  43.7741615  46.4537864 120.0245351  29.3404278
  46.7491305 119.1156029  29.2871331  45.5525900 120.0033090  29.0185280
  49.9832111 118.1001347  35.3231826  49.2618697 118.7137315  35.1839299
  50.7725367 118.6359112  35.2448472  52.7858425 115.4355774  41.5972478
  53.3092827 115.6818070  42.3598787  52.5670758 116.2675809  41.1775615
  48.1825706 117.7059448  29.4643603  47.8538412 116.8256827  29.2818709
  48.5365077 117.6507117  30.3519992  51.2967529 117.9932418  29.8319080
  51.6363602 118.5218340  29.1097689  51.7439650 118.3312824  30.6077647
  53.9910970 116.3769469  39.2822148  53.6507790 115.5777282  39.6842828
  53.2849976 116.6771180  38.7098982  54.6427442 113.4618781  37.7349471
  55.4653511 112.9879260  37.6128362  54.8865505 114.2409265  38.2348158
  53.2835676 116.4907040  28.0312373  54.0044039 116.8688293  27.5276090
  52.6600980 117.2095917  28.1347351  57.4266799 117.1952189  28.9670705
  57.6430413 118.0776827  28.6659534  56.9460866 116.8038402  28.2376347
  52.1666020 120.1537902  35.5441450  52.0210601 120.4678205  36.4365732
  51.6891224 120.7722802  34.9912349  54.0262403 117.1440450  35.5922340
  54.0123972 116.2481543  35.2554638  54.7434831 117.1511114  36.2260626
  55.8788534 117.5777790  37.6375467  55.6206312 118.4994861  37.6359797
  55.3473574 117.1808225  38.3275931  53.4299299 116.0254830  30.8609910
  53.5515210 115.0971477  31.0600797  53.1401342 116.0393516  29.9488225
  56.2990490 113.7109741  33.9976630  56.3212187 113.7749074  33.0428609
  56.7158549 112.8714249  34.1917136  66.6774114 123.4465000  32.0355852
  67.1205260 122.6972326  31.6374975  65.8000624 123.4375137  31.6529584
  52.9140379 117.5386828  45.0699842  52.9628534 118.4148951  44.6877612
  53.4562893 116.9964221  44.4971486  63.5193100 124.9320417  41.6633708
  63.5691104 124.7670425  42.6049231  63.4107023 124.0647676  41.2731589
  60.8096862 120.9151345  42.9793015  61.7106725 120.7757810  42.6877013
  60.8844836 121.0805800  43.9191192  55.1439667 118.2918200  41.8246201
  54.2742977 118.5851766  41.5528790  55.3799148 118.8758645  42.5453465
  66.2206979 124.9170239  34.4278300  67.0553870 125.3560043  34.5915860
  66.3566108 124.4408892  33.6086546  63.2698485 122.4749973  40.3755788
  63.7452606 122.6677620  39.5674639  62.3464050 122.5309159  40.1299171
  57.8478701 114.5097817  39.3411621  58.3660645 115.2458844  39.0158110
  57.4933834 114.8161810  40.1758381  49.4277639 119.3702498  27.4573027
  48.7346884 119.4446853  26.8013063  49.1829391 118.6062842  27.9794544
  58.0991295 110.9298100  34.8612518  58.3793049 110.2621289  35.4872945
  58.8841902 111.1227195  34.3487182  61.9700154 119.3515734  38.6084093
  62.9217577 119.4513831  38.6296317  61.8003604 118.5594002  39.1182177
  59.9914533 116.4371317  38.7943494  59.3964465 116.7176330  38.0989983
  59.7064230 116.9265218  39.5660235  64.4488231 122.5721853  37.7226393
  64.4164552 121.6337854  37.9086077  65.0588855 122.6505890  36.9892218
  56.2871562 121.4417906  23.7653597  57.2330667 121.3124114  23.8342015
  55.9085807 120.7032568  24.2423025  64.5982720 119.3632897  37.7684676
  64.0821769 118.5791353  37.5814605  65.4822668 119.0351613  37.9331195
  62.2593447 113.1073912  33.7280489  62.0618268 112.7989000  34.6123821
  62.8693152 113.8335551  33.8578418  70.2664781 123.6337860  36.8632430
  70.9968170 123.3723148  37.4240133  69.6571727 122.8966582  36.9034498
  68.3480078 121.7745723  37.4606881  67.6213242 121.6401688  36.8523372
  67.9327365 122.0822551  38.2663599  54.4714479 119.3667883  23.7008482
  53.5645935 119.0700995  23.7771196  54.7490460 119.0697701  22.8342768
  56.0876545 113.9104772  29.8552723  55.2777273 113.5651857  30.2307969
  56.7760962 113.6012316  30.4440335  58.0167093 112.9882819  31.4777020
  58.5698132 113.4078273  32.1367043  58.2537180 112.0618567  31.5199976
  54.0400193 118.9769893  47.2579784  53.9396920 119.9264250  47.1891875
  53.8221735 118.6488132  46.3855854  53.2413264 116.2254818  23.8420461
  54.1032428 116.5509716  24.1016279  53.4263608 115.4386314  23.3293527
  61.3945901 115.0983344  30.9855684  60.8144570 115.7568148  30.6033737
  61.1281833 114.2760689  30.5743102  59.8449467 114.4988402  33.1877005
  60.3449245 114.6104937  32.3791323  60.4885075 114.1949455  33.8277813
  53.9031463 122.4067032  46.0744846  53.4198544 123.2067392  46.2808735
  53.9892402 122.4174976  45.1212290  60.1770779 117.2583435  30.0412033
  59.2896634 117.5433085  29.8232227  60.5924768 117.0977198  29.1939309
  63.5285315 117.2829956  33.7566372  64.3045705 117.7726408  34.0290989
  62.8033449 117.7088010  34.2138241  65.9657873 117.9957575  34.8140312
  66.5602364 117.7553311  34.1033621  66.0384457 117.2764705  35.4413849
  60.1511802 122.7737971  30.2562323  60.0947004 123.2306522  29.4169955
  60.7040145 122.0128655  30.0785165  63.9616608 118.5627702  31.0812442
  63.7053542 118.1624338  31.9120650  63.3369476 119.2771496  30.9562581
  68.2728946 121.3023776  33.5883734  67.7128504 121.3716965  34.3615296
  67.6672449 121.1264760  32.8683230  60.8846582 123.9642752  27.5514852
  60.8295385 123.7987023  26.6103296  60.2592637 124.6718785  27.7077042
  45.6739097 119.2010816  41.3776274  46.3197960 118.6909770  41.8663499
  45.4656248 119.9379498  41.9519699  54.1942707 113.4650861  27.1300170
  54.1821377 114.4092701  27.2868441  55.0866129 113.2821006  26.8359631
  58.0094827 110.0593638  31.3846107  57.2427222 109.5052124  31.5302789
  58.4205531 110.1315506  32.2460259  50.0136588 116.3478433  45.4751288
  50.8768049 115.9915238  45.6854613  49.4401998 116.0092328  46.1626693
  69.4343212 127.1998132  38.3365798  69.0907482 128.0899774  38.2604909
  69.8022175 127.0099790  37.4735383  71.2330878 126.4591691  33.4383536
  71.5389755 125.5989055  33.1509451  71.9583483 127.0509311  33.2382530
  71.5032496 128.8885927  35.9367457  70.5895576 129.1190153  36.1049664
  71.9325597 128.9724371  36.7881489  68.9385050 126.2590017  34.8612518
  69.2186804 125.5913206  35.4872945  69.7235657 126.4519113  34.3487182
  73.0987201 128.4365830  33.7280489  72.9012022 128.1280918  34.6123821
  73.7086907 129.1627469  33.8578418  68.8560848 128.3174737  31.4777020
  69.4091887 128.7370190  32.1367043  69.0930934 127.3910485  31.5199976
  68.8488581 125.3885555  31.3846107  68.0820977 124.8344042  31.5302789
  69.2599286 125.4607424  32.2460259   2.6756699  29.3301753  30.6612553
   2.2320554  28.5438132  30.3433458   3.3373913  29.5180904  29.9956444
   4.7737937  29.6104553  28.6893955   4.7556413  30.4313434  28.1974224
   5.6957858  29.4858628  28.9144096   5.6853778  26.2500391  31.0844673
   5.5339285  26.0210943  30.1674756   5.6758458  27.2070993  31.0976018
   7.3945985  29.2819514  29.1621155   7.3358531  28.5978734  28.4951738
   7.7965503  30.0238504  28.7101781   5.8797659  28.9834431  31.7384965
   6.4237563  29.5964389  31.2439920   5.2984504  29.5414010  32.2551978
   9.2026453  28.4430485  31.0746286   8.4121997  28.4254624  30.5350786
   8.9659808  28.9818779  31.8295323  10.8242525  27.7119893  28.6321036
  10.5327334  28.0749874  29.4684497  10.2114656  26.9986901  28.4534368
   4.0023718  26.6294198  33.6013721   4.8714877  26.8034850  33.2400356
   3.5230469  27.4488615  33.4789451  15.6616193  38.3382824  23.0058996
  16.2994603  38.2189571  22.3022336  15.5437036  39.2863668  23.0646948
  12.4705900  38.2910252  22.9420521  12.1324411  38.1751317  22.0541055
  13.3395668  37.8901417  22.9221527  12.9525683  39.4445104  28.9006726
  12.9414323  39.0497902  28.0287230  13.1146322  38.7111176  29.4940498
   5.8757147  41.6396920  21.7701632   6.6678439  41.2987745  21.3547931
   6.1153797  41.7491895  22.6903785   9.6732944  42.2282216  27.8485910
   9.3822810  43.1327846  27.7332576  10.3089928  42.2698743  28.5629980
  10.5989151  39.6059064  24.4387270  11.1952723  39.3815086  23.7244233
  10.6564122  38.8643810  25.0412718  20.6165889  36.0009511  20.9845182
  21.3491061  35.4308728  21.2183012  19.8605245  35.6131111  21.4251688
  18.1391309  29.7131085  25.4439791  17.8074634  30.5826496  25.2201006
  17.5436923  29.3967369  26.1233821  14.6322829  41.9143631  24.8435704
  14.3323552  42.8168670  24.7351511  14.2873888  41.6475814  25.6956857
  18.0319973  34.4326171  22.5233141  17.1236850  34.3641580  22.2291902
  17.9807568  34.9098116  23.3514967   9.6143609  48.6787951  17.8106672
   9.5367638  49.6295776  17.8895152   9.0105252  48.3333824  18.4681598
  12.1060838  35.8515817  30.4668038  11.3294172  36.4109737  30.4570903
  12.7451401  36.3372600  30.9882909  19.8981619  32.6342610  24.3011015
  19.2555999  32.9275143  23.6550810  19.3936548  32.5195530  25.1064212
  10.3607211  38.6601270  30.0286005  11.1021895  39.1986314  29.7520829
   9.6544196  39.2867559  30.1857557  15.8362550  40.8030411  28.6258167
  16.2445906  40.3612821  27.8812799  15.1139812  40.2283038  28.8792360
  12.1893620  35.7403017  25.9991724  13.0354816  36.1642431  26.1426373
  12.1292258  35.0836642  26.6930287  16.1591365  41.3631601  22.3810456
  15.5300227  41.5277315  21.6786524  15.7717027  41.7773211  23.1521420
  20.0380597  42.2986039  19.7354820  19.3531635  42.6784940  19.1851853
  20.1224446  42.9081366  20.4686767  15.3393066  33.4007386  27.6572897
  15.0953998  34.1549446  27.1207173  15.6152996  33.7792733  28.4920145
  17.2931528  39.9445998  26.3350163  17.5048424  40.5877758  25.6584544
  17.2461277  39.1108315  25.8672093  11.7119327  41.1006009  19.6460541
  12.1757672  41.3793712  18.8565163  11.4476125  40.1989454  19.4633632
   8.6043408  40.6477491  22.5840304   9.1744765  41.0764759  21.9457789
   9.1951520  40.3660076  23.2824490   9.0968574  35.8140918  30.8301315
   8.4667235  36.4957199  31.0636712   8.9904662  35.7024000  29.8854454
  18.4077356  42.8217954  24.5072520  19.2294800  42.4198141  24.2255202
  18.4039759  42.7186188  25.4588636  12.1733960  42.3701997  26.6633231
  12.2378392  42.8322404  27.4991403  11.4644884  41.7399362  26.7915541
  26.4983349  39.1656702  20.8557492  25.7447058  38.5964100  20.7001496
  26.6330891  39.1319367  21.8028127   8.3749317  30.1161684  33.1926566
   7.9816263  29.5627883  33.8674211   9.1915458  30.4272263  33.5833084
   7.1506260  44.6711299  19.1862890   7.3272888  45.5929263  18.9983873
   7.9463093  44.3569718  19.6157269  11.2917278  31.5319563  30.7846823
  12.0326992  32.1326716  30.7051285  11.5235201  30.7897201  30.2264866
   6.4358616  36.7175931  29.0625053   6.3212131  35.8161188  29.3632152
   5.5803134  36.9639627  28.7109869  13.5150454  44.6593671  30.6612553
  13.0714308  43.8730049  30.3433458  14.1767668  44.8472821  29.9956444
   8.2737575  46.1889472  25.1873232   8.8245000  46.0606536  24.4150226
   7.4349051  46.4884361  24.8368125  15.6131692  44.9396471  28.6893955
  15.5950167  45.7605352  28.1974224  16.5351612  44.8150546  28.9144096
  12.0704746  42.4540600  29.5317463  12.6033083  41.6928888  29.3016771
  11.5418827  42.1614252  30.2741617  18.4150305  39.7775613  22.1603321
  17.7573979  40.4674875  22.2483450  19.2190704  40.1672045  22.5037308
  17.2255764  38.1319986  20.2107263  17.7387645  38.7649978  20.7128973
  17.8756988  37.5321181  19.8450623  13.7036595  35.6069441  22.4565604
  12.7859156  35.8284388  22.2987292  14.1196738  35.6815752  21.5977311
  17.9917560  43.1125987  18.3386406  17.5379887  42.2716897  18.3951596
  17.3611527  43.7487386  18.6761186  16.4350499  44.9502484  19.2736224
  16.7273473  45.5107541  18.5548589  16.9449120  45.2431045  20.0289383
  11.3984124  45.7282835  20.3629677  11.3560303  45.9543681  19.4338209
  12.3146823  45.4946210  20.5115478  14.8449758  36.1966903  27.2610306
  15.1999146  36.4238376  28.1204772  15.4921889  36.5285279  26.6387562
  20.5747495  39.3185339  17.9659635  20.4365394  39.5086935  17.0380824
  20.2183714  40.0804721  18.4227686  20.6016875  41.3861866  22.9770907
  21.0353381  41.2937155  23.8253961  21.3148455  41.3619366  22.3390923
   9.5149925  42.6045864  20.1591640  10.3090524  42.1096184  19.9574215
   8.8041617  42.0763727  19.7959345  14.3344770  44.9863960  24.5104007
  14.3881792  45.5554896  25.2781723  13.4659551  45.1565845  24.1458044
   7.2143163  34.6881516  25.9928459   7.8866216  34.4798878  25.3441108
   6.3872949  34.4903602  25.5533691  21.4632424  41.4285566  25.5103792
  21.6568314  42.3331377  25.7563067  21.3633042  40.9692985  26.3442377
  13.1168735  31.3143457  28.0094119  12.4696650  32.0133406  27.9158596
  13.8869750  31.7479601  28.3770368  16.5247533  41.5792309  31.0844673
  16.3733039  41.3502861  30.1674756  16.5152212  42.5362910  31.0976018
  13.2932869  39.1524222  26.0690939  14.2224929  39.3035381  25.8959907
  12.8723899  39.2408243  25.2139586  12.0921201  43.1774886  23.8389477
  11.9532287  42.8093671  24.7115415  11.3035797  43.6922526  23.6673435
  12.6869353  48.2783983  15.1815013  12.8621109  47.8072026  15.9960636
  12.0002141  48.9049749  15.4096274  13.6426416  42.5556489  21.2278315
  13.3076249  42.5157259  22.1235964  13.1430362  41.8901205  20.7548725
   7.6170660  37.9624119  26.7530896   7.4790458  37.2304358  27.3542435
   8.5275584  37.8733019  26.4715084  10.2452961  37.6744078  26.2414575
  10.9552579  37.0337270  26.2001194  10.2022269  37.9256973  27.1640756
  18.2339740  44.6111432  29.1621155  18.1752286  43.9270652  28.4951738
  18.6359258  45.3530422  28.7101781   8.9581895  34.6609296  28.0610215
   8.4219252  34.2100035  28.7131811   8.3698603  34.7955205  27.3180679
   7.2530438  51.4273345  21.9554874   7.4927037  52.0591870  22.6333892
   6.4099635  51.0761385  22.2420233  18.2357147  42.5751015  27.3935134
  17.3483926  42.2376937  27.5161533  18.8055698  41.8434047  27.6303900
  11.7658300  47.2352468  24.3596378  11.6928472  48.0407439  24.8715682
  11.3235693  47.4344434  23.5344399  11.5548080  46.4724238  17.8699199
  10.7715602  47.0145918  17.9637424  12.2540825  46.9898217  18.2693440
  22.7174487  37.9859233  22.1551696  22.7064364  38.8683948  21.7845629
  21.8491867  37.6330784  21.9606233  14.2256984  47.1339302  26.5154536
  14.9384956  47.7686767  26.4430438  13.7347012  47.2303168  25.6994538
  15.9474511  41.0390555  18.0871828  15.0130789  41.1592017  17.9176532
  16.1251179  40.1363021  17.8231838  19.3347062  36.8807874  18.6221862
  19.8007514  37.7135865  18.5482165  19.7854562  36.4152855  19.3267120
   9.2768897  44.8833745  27.3360107   9.9778357  45.5170228  27.4889501
   8.8064012  45.2248477  26.5755746  17.0770183  37.4378353  25.1612657
  16.4241633  37.6854260  24.5065110  17.4550563  36.6242491  24.8275135
  14.0377357  47.4738046  19.2640828  14.2199752  46.6559702  19.7268580
  14.8610343  47.6905738  18.8265718  14.3719523  46.4006231  16.5255876
  14.9007289  45.8898686  15.9126038  14.6347742  46.0848761  17.3901409
  13.1257756  38.1798164  31.6478694  12.4498393  38.0792293  32.3181070
  13.9485390  38.0237378  32.1114692   4.8736615  44.4170100  24.2691210
   5.4590052  43.6713788  24.4019114   4.6761454  44.7274057  25.1527874
   7.7275271  47.4521348  19.2853652   7.0585646  47.9367475  18.8017692
   7.5888140  47.6990568  20.1997031  11.8680539  49.4865091  25.8836310
  12.4198847  49.6496713  26.6485396  12.2086733  50.0769529  25.2116335
   6.3197305  33.9063374  30.1331229   6.9469344  33.5240451  30.7468754
   5.4625224  33.6877576  30.4986922  16.7191413  44.3126349  31.7384965
  17.2631317  44.9256307  31.2439920  16.1378258  44.8705927  32.2551978
  15.0048926  47.4347067  22.8699993  14.8800066  46.6336807  22.3610938
  15.6628018  47.9293260  22.3813963  17.0683835  45.2356087  24.4979543
  16.1214170  45.1161438  24.4257869  17.4166608  44.3478585  24.5805804
   9.4283408  31.1250226  28.3217785   9.9517810  31.3712522  29.0844094
   9.2095741  31.9570261  27.9020922  14.0730268  45.0308803  20.6983895
  13.9255231  44.1025511  20.8791465  14.8983762  45.0528894  20.2140970
  17.6764390  45.8537362  21.7848768  18.6010937  45.6480223  21.6473219
  17.5079693  45.6053763  22.6938109  10.6335953  32.0663921  26.0067455
  10.2932774  31.2671734  26.4088135   9.9274959  32.3665632  25.4344288
  12.5213517  33.2672242  24.3620774  12.2631295  34.1889313  24.3605104
  11.9898558  32.8702677  25.0521238  17.4659706  46.3723029  17.1410859
  17.6396584  45.8069452  16.3884712  17.9588597  47.1723924  16.9590349
   3.2836666  38.3837698  25.2074418   2.7390134  39.1597506  25.3394692
   4.1616016  38.7308503  25.0493539  23.3199097  39.1359452  18.7601159
  23.7630243  38.3866777  18.3620282  22.4425608  39.1269589  18.3774891
  18.4534879  45.6889794  14.2407757  19.1485783  46.3096486  14.4595072
  18.7958029  44.8385145  14.5160135   4.0702688  37.5107595  28.1004575
   3.3284424  37.6590230  28.6869205   3.7495432  37.7715860  27.2371324
  20.3526302  43.1389499  15.7695088  20.8777626  43.4776772  15.0444408
  20.2648654  42.2036515  15.5858223  12.0146350  47.0523573  27.8984965
  12.3233477  46.8072720  28.7707664  12.8121832  47.2570211  27.4103835
  12.0366962  49.2061482  20.1290341  11.5971953  48.7137861  20.8223198
  12.7875079  48.6634450  19.8882417   4.5159301  45.3973023  20.1314969
   5.3417321  45.0976795  19.7513613   4.1653353  44.6280646  20.5804758
   9.4840835  44.7499492  22.2012643   8.8620844  44.0870197  21.9014871
  10.1545702  44.7760623  21.5186291   9.5565362  33.2281280  31.7945149
   9.6053518  34.1043402  31.4122919  10.0987876  32.6858673  31.2216792
  20.0420208  43.7722403  31.0746286  19.2515752  43.7546542  30.5350786
  19.8053562  44.3110697  31.8295323  20.1618083  40.6214869  28.3879015
  20.2116088  40.4564877  29.3294537  20.0532006  39.7542128  27.9976895
  17.4521845  36.6045797  29.7038321  18.3531708  36.4652262  29.4122319
  17.5269820  36.7700252  30.6436499  11.7864651  33.9812652  28.5491508
  10.9167960  34.2746218  28.2774096  12.0224131  34.5653097  29.2698771
  21.6636280  43.0411811  28.6321036  21.3721088  43.4041791  29.4684497
  21.0508411  42.3278819  28.4534368  22.8631962  40.6064691  21.1523606
  23.6978853  41.0454495  21.3161167  22.9991091  40.1303344  20.3331852
  19.9123468  38.1644425  27.1001094  20.3877590  38.3572072  26.2919946
  18.9889033  38.2203611  26.8544478  14.4903684  30.1992269  26.0656928
  15.0085628  30.9353296  25.7403417  14.1358817  30.5056262  26.9003687
  18.6125137  35.0410185  25.3329400  19.5642560  35.1408283  25.3541624
  18.4428587  34.2488454  25.8427484  16.6339516  32.1265769  25.5188801
  16.0389449  32.4070781  24.8235289  16.3489213  32.6159670  26.2905542
  21.0913215  38.2616305  24.4471699  21.0589535  37.3232306  24.6331383
  21.7013838  38.3400342  23.7137524  21.2407703  35.0527349  24.4929983
  20.7246752  34.2685805  24.3059911  22.1247652  34.7246065  24.6576502
  26.9089765  39.3232312  23.5877736  27.6393153  39.0617600  24.1485440
  26.2996710  38.5861034  23.6279804  24.9905062  37.4640175  24.1852187
  24.2638225  37.3296140  23.5768679  24.5752349  37.7717003  24.9908905
  12.8135238  41.1830104  31.9499560  13.7338248  41.3608703  32.1439607
  12.7784821  40.2386150  31.7979260   5.8097311  39.0931139  24.5922342
   6.0283320  40.0248247  24.6110375   6.2223084  38.7339113  25.3777145
  10.6825176  34.6664345  33.9825091  10.5821903  35.6158702  33.9137182
  10.4646718  34.3382584  33.1101161  10.5456446  38.0961484  32.7990152
  10.0623528  38.8961844  33.0054041  10.6317385  38.1069428  31.8457596
   6.4729784  41.9866018  24.8358586   7.4273037  41.9549961  24.7688518
   6.2742307  41.5256642  25.6508812   7.0629166  40.5567134  27.4029384
   7.8822055  41.0511213  27.4264221   7.3365973  39.6399102  27.3746951
  20.1710298  32.9724408  20.4811678  20.9470688  33.4620860  20.7536295
  19.4458432  33.3982462  20.9383548  22.6082857  33.6852027  21.5385619
  23.2027347  33.4447763  20.8278927  22.6809440  32.9659157  22.1659155
   4.8280012  47.5285638  21.8528784   4.6934480  46.7686039  21.2866782
   4.4112075  48.2526538  21.3857573  24.9153929  36.9918228  20.3129040
  24.3553487  37.0611417  21.0860602  24.3097433  36.8159212  19.5928536
   7.9849138  48.4254955  22.0647226   7.8681522  49.3700387  21.9625917
   7.1641584  48.1228516  22.4533026   2.3164080  34.8905268  28.1021581
   2.9622943  34.3804222  28.5908806   2.1081231  35.6273950  28.6765006
  14.8417472  41.9586116  33.6013721  15.7108632  42.1326768  33.2400356
  14.3624224  42.7780532  33.4789451   9.0103652  49.0783217  25.2803155
   9.9130899  49.1106827  25.5969650   8.7841022  48.1483668  25.2949491
  10.7657254  47.8314203  21.9413234   9.8152885  47.8316065  21.8277606
  11.0689740  47.0846938  21.4249268   6.6561571  32.0372885  32.1996595
   7.5193032  31.6809690  32.4099920   6.0826982  31.6986780  32.8871999
  26.5009948  53.6674742  23.0058996  27.1388358  53.5481489  22.3022336
  26.3830791  54.6155586  23.0646948  23.3099654  53.6202170  22.9420521
  22.9718166  53.5043234  22.0541055  24.1789422  53.2193335  22.9221527
  19.1686470  55.4737646  18.9317412  18.6051335  55.3827583  18.1633699
  19.0538865  54.6537551  19.4119904  23.7919437  54.7737021  28.9006726
  23.7808078  54.3789820  28.0287230  23.9540077  54.0403094  29.4940498
  16.7150902  56.9688838  21.7701632  17.5072194  56.6279662  21.3547931
  16.9547552  57.0783813  22.6903785  24.7486029  59.1408614  14.2431876
  24.0974008  59.7262694  13.8565890  25.5430391  59.6714809  14.3026914
  18.6741656  56.2297751  14.6419011  19.4472532  55.6826738  14.5031887
  19.0267055  57.0942000  14.8533472  20.5126698  57.5574133  27.8485910
  20.2216564  58.4619764  27.7332576  21.1483683  57.5990661  28.5629980
  21.4382905  54.9350982  24.4387270  22.0346477  54.7107004  23.7244233
  21.4957877  54.1935727  25.0412718  21.0107933  52.3890417  12.2737461
  21.2633454  51.8671938  11.5120924  20.0732493  52.2256562  12.3764144
  26.0551216  51.3926195  20.0812204  26.8414306  50.9745619  19.7302621
  26.3189921  52.2972288  20.2493852  26.2261294  56.8299046  14.7800861
  25.5907127  56.9033672  15.4921765  25.8958700  57.4192645  14.1019940
  31.4559643  51.3301429  20.9845182  32.1884815  50.7600645  21.2183012
  30.6998999  50.9423029  21.4251688  20.7304222  54.2918523  14.4761836
  20.6140480  53.6163426  15.1442920  20.8406482  53.8050897  13.6593989
  23.0735763  53.7528670  18.1808525  22.7093970  53.2259291  18.8921446
  23.9302879  53.3627139  18.0075010  28.9785064  45.0423003  25.4439791
  28.6468389  45.9118414  25.2201006  28.3830677  44.7259287  26.1233821
  22.7141250  48.7818570  13.1769873  22.8815652  49.6498806  13.5440345
  22.5238419  48.9445852  12.2531163  25.4716583  57.2435549  24.8435704
  25.1717306  58.1460588  24.7351511  25.1267643  56.9767732  25.6956857
  18.9229065  53.6949346  20.8772408  17.9979561  53.5625560  21.0850100
  19.1713478  54.4743565  21.3742351  28.8713727  49.7618089  22.5233141
  27.9630604  49.6933497  22.2291902  28.8201323  50.2390034  23.3514967
  22.6930471  51.2376227  14.1616540  22.5730096  51.6833278  15.0002021
  21.9983059  51.5861545  13.6030078  16.2837876  53.3382619  21.7116197
  16.4130257  53.5917098  22.6255609  15.6035327  53.9310327  21.3920852
  20.4537363  64.0079869  17.8106672  20.3761393  64.9587694  17.8895152
  19.8499007  63.6625742  18.4681598  22.9454593  51.1807734  30.4668038
  22.1687927  51.7401655  30.4570903  23.5845156  51.6664517  30.9882909
  30.7375374  47.9634527  24.3011015  30.0949754  48.2567060  23.6550810
  30.2330302  47.8487448  25.1064212  28.3915537  51.7097700  14.9896874
  29.3033393  51.9425087  14.8144572  27.8825184  52.2934745  14.4271953
  21.2000965  53.9893188  30.0286005  21.9415650  54.5278232  29.7520829
  20.4937951  54.6159477  30.1857557  26.6756305  56.1322328  28.6258167
  27.0839661  55.6904739  27.8812799  25.9533566  55.5574956  28.8792360
  23.0287375  51.0694935  25.9991724  23.8748570  51.4934349  26.1426373
  22.9686013  50.4128559  26.6930287  26.9985119  56.6923519  22.3810456
  26.3693982  56.8569233  21.6786524  26.6110782  57.1065128  23.1521420
  30.8774351  57.6277957  19.7354820  30.1925390  58.0076858  19.1851853
  30.9618201  58.2373283  20.4686767  26.1786820  48.7299303  27.6572897
  25.9347752  49.4841364  27.1207173  26.4546751  49.1084651  28.4920145
  28.1325283  55.2737916  26.3350163  28.3442178  55.9169676  25.6584544
  28.0855031  54.4400232  25.8672093  25.7351512  47.8855736  23.2386735
  24.8735991  48.1836990  23.5303473  25.7613947  48.1026135  22.3067768
  22.5513081  56.4297927  19.6460541  23.0151427  56.7085630  18.8565163
  22.2869879  55.5281372  19.4633632  19.4437162  55.9769409  22.5840304
  20.0138519  56.4056677  21.9457789  20.0345274  55.6951993  23.2824490
  21.4881967  52.5521079  16.4550106  22.1906011  53.0042123  16.9224032
  21.1562596  51.9104898  17.0829999  19.9362329  51.1432836  30.8301315
  19.3060990  51.8249117  31.0636712  19.8298417  51.0315918  29.8854454
  15.2307301  50.8104632  21.7567240  14.4406355  51.0662161  21.2807350
  15.7218549  51.6252970  21.8619280  29.2471111  58.1509871  24.5072520
  30.0688555  57.7490059  24.2255202  29.2433514  58.0478105  25.4588636
  17.1822047  51.1749211  18.7150716  16.3853210  51.2867906  19.2334212
  16.9547639  51.5135864  17.8491607  23.0127714  57.6993915  26.6633231
  23.0772147  58.1614322  27.4991403  22.3038638  57.0691279  26.7915541
  13.5145004  51.0635122  24.1882230  13.7653043  51.9482132  24.4539806
  14.0504553  50.8839724  23.4157322  37.3377104  54.4948620  20.8557492
  36.5840812  53.9256018  20.7001496  37.4724645  54.4611284  21.8028127
  22.7275732  59.3662022  16.5312211  22.5921407  60.2113558  16.9597059
  23.2685545  59.5681300  15.7678145  19.2143072  45.4453602  33.1926566
  18.8210017  44.8919800  33.8674211  20.0309212  45.7564180  33.5833084
  16.1805129  56.8837460  17.1040136  16.6929650  57.6780710  17.2545701
  16.8327842  56.1863751  17.0373738  17.9900014  60.0003216  19.1862890
  18.1666642  60.9221181  18.9983873  18.7856848  59.6861636  19.6157269
  22.1311033  46.8611481  30.7846823  22.8720746  47.4618634  30.7051285
  22.3628955  46.1189119  30.2264866  17.2752371  52.0467848  29.0625053
  17.1605886  51.1453105  29.3632152  16.4196888  52.2931545  28.7109869
  24.3544208  59.9885589  30.6612553  23.9108063  59.2021967  30.3433458
  25.0161422  60.1764739  29.9956444  19.1131330  61.5181390  25.1873232
  19.6638755  61.3898453  24.4150226  18.2742805  61.8176279  24.8368125
  26.4525446  60.2688388  28.6893955  26.4343922  61.0897269  28.1974224
  27.3745367  60.1442464  28.9144096  22.9098501  57.7832518  29.5317463
  23.4426837  57.0220806  29.3016771  22.3812582  57.4906170  30.2741617
  26.0768196  42.8892584  25.0611105  25.7332465  43.7794226  24.9850215
  26.4447158  42.6994242  24.1980690  14.1454046  55.2126114  17.8799707
  14.9829268  55.6223123  17.6633415  14.3232314  54.2725557  17.8499901
  26.0418478  52.8801195  13.5683540  25.5265102  53.6505800  13.8071927
  25.7695787  52.2066331  14.1916601  23.6265589  47.7250896  18.6268778
  22.7707186  47.3357746  18.4474417  24.0392541  47.8042857  17.7668564
  25.1564736  45.2597239  23.0260338  24.6529532  45.2227374  22.2128143
  25.4495343  46.1689982  23.0856995  21.4007622  45.3435969  22.0326520
  22.2660619  45.1478777  21.6732409  21.4685131  45.1146321  22.9595876
  31.0152752  55.6333550  15.5036713  30.2382195  55.2944709  15.0591875
  31.6944233  55.6386173  14.8291678  25.8304781  50.7528287  15.3943321
  25.5254917  51.0674436  16.2453464  26.7835224  50.8309707  15.4370654
  24.2751213  56.9118510  17.0436275  23.7472575  56.1771270  16.7309512
  23.7738716  57.6893187  16.7976243  29.2544059  55.1067531  22.1603321
  28.5967734  55.7966792  22.2483450  30.0584459  55.4963963  22.5037308
  19.0069941  47.5738177  19.4042886  19.5813693  47.3513358  18.6716079
  19.5940923  47.6426871  20.1571488  28.0649518  53.4611904  20.2107263
  28.5781400  54.0941895  20.7128973  28.7150742  52.8613099  19.8450623
  19.3339528  49.6042638  13.4238772  18.4976840  49.9417324  13.7448046
  19.1944298  49.4691618  12.4865909  21.3092609  44.4479426  18.1317956
  20.6557021  44.1328443  17.5074571  21.2673083  43.8255166  18.8577779
  22.4203814  54.7298721  10.0471248  21.5130875  54.4987974  10.2462397
  22.9174846  53.9336340  10.2345230  25.3271892  63.4396228  12.9667934
  24.6533591  63.7427925  13.5752892  25.7137714  64.2425308  12.6173391
  24.5430349  50.9361359  22.4565604  23.6252910  51.1576306  22.2987292
  24.9590493  51.0107670  21.5977311  25.3265397  52.3352775  17.5868284
  26.0737216  52.8474172  17.2775406  25.5956986  52.0136828  18.4472677
  23.5992047  54.8311316  14.5695238  22.6903266  54.5470348  14.6667708
  23.6287131  55.2510394  13.7098545  28.8311314  58.4417905  18.3386406
  28.3773641  57.6008815  18.3951596  28.2005281  59.0779303  18.6761186
  27.7744234  49.3709891  19.5687073  27.0366991  48.8587277  19.8997316
  28.0271007  48.9310273  18.7570350  27.2744254  60.2794402  19.2736224
  27.5667228  60.8399459  18.5548589  27.7842874  60.5722963  20.0289383
  27.8755861  42.1486143  20.1628842  28.1814738  41.2883507  19.8754757
  28.6008466  42.7403763  19.9627836  14.1680217  52.5516830  18.5510440
  13.9704617  51.9586190  17.8261507  13.6126881  52.2469040  19.2686379
  22.1476941  52.4439936  20.6705033  22.2025551  51.4913773  20.5947510
  21.3368143  52.5999375  21.1546332  23.2968135  56.3720059  11.9083317
  22.8587565  55.6555918  11.4488954  24.0378576  56.5996174  11.3468408
  20.0869301  51.0616996  18.4295412  19.2737166  51.3611166  18.8360604
  20.5828295  50.6672685  19.1469895  22.2377879  61.0574753  20.3629677
  22.1954058  61.2835599  19.4338209  23.1540578  60.8238127  20.5115478
  25.6843513  51.5258820  27.2610306  26.0392900  51.7530294  28.1204772
  26.3315644  51.8577197  26.6387562  31.4141250  54.6477256  17.9659635
  31.2759148  54.8378852  17.0380824  31.0577468  55.4096639  18.4227686
  19.5783376  48.6335351  24.0456647  20.2182755  48.4924111  23.3479611
  18.7460906  48.3469865  23.6695249  31.4410629  56.7153783  22.9770907
  31.8747136  56.6229072  23.8253961  32.1542210  56.6911284  22.3390923
  20.3543680  57.9337782  20.1591640  21.1484278  57.4388102  19.9574215
  19.6435372  57.4055645  19.7959345  25.1738524  60.3155877  24.5104007
  25.2275546  60.8846814  25.2781723  24.3053305  60.4857762  24.1458044
  16.6626443  52.0780864  16.2351392  15.7324031  52.0165319  16.4521355
  16.7583915  51.5556816  15.4388034  16.5811992  48.6035676  18.8229634
  16.8418809  49.5181010  18.7138795  17.4029164  48.1360119  18.9726247
  18.0536917  50.0173434  25.9928459  18.7259971  49.8090796  25.3441108
  17.2266704  49.8195520  25.5533691  32.3026179  56.7577484  25.5103792
  32.4962069  57.6623294  25.7563067  32.2026797  56.2984903  26.3442377
  23.9562489  46.6435374  28.0094119  23.3090404  47.3425324  27.9158596
  24.7263505  47.0771518  28.3770368  27.3641287  56.9084227  31.0844673
  27.2126794  56.6794778  30.1674756  27.3545967  57.8654828  31.0976018
  24.1326624  54.4816139  26.0690939  25.0618684  54.6327299  25.8959907
  23.7117654  54.5700160  25.2139586  22.9314956  58.5066804  23.8389477
  22.7926041  58.1385588  24.7115415  22.1429552  59.0214443  23.6673435
  23.5263108  63.6075900  15.1815013  23.7014863  63.1363943  15.9960636
  22.8395896  64.2341666  15.4096274  24.4820171  57.8848407  21.2278315
  24.1470003  57.8449176  22.1235964  23.9824116  57.2193122  20.7548725
  18.4564415  53.2916037  26.7530896  18.3184213  52.5596275  27.3542435
  19.3669338  53.2024937  26.4715084  27.4179362  55.2304441  11.5015374
  26.8008533  54.5051269  11.4048427  26.9495851  55.9913801  11.1582449
  21.0846715  53.0035996  26.2414575  21.7946334  52.3629188  26.2001194
  21.0416024  53.2548891  27.1640756  29.0733494  59.9403349  29.1621155
  29.0146040  59.2562569  28.4951738  29.4753012  60.6822339  28.7101781
  19.7975649  49.9901214  28.0610215  19.2613006  49.5391952  28.7131811
  19.2092358  50.1247123  27.3180679  18.0924193  66.7565263  21.9554874
  18.3320791  67.3883787  22.6333892  17.2493389  66.4053303  22.2420233
  29.0750901  57.9042933  27.3935134  28.1877680  57.5668855  27.5161533
  29.6449452  57.1725964  27.6303900  10.7280048  54.2367025  20.7178186
  11.4151088  53.9228755  20.1299201  10.5728177  55.1408390  20.4445437
  15.5314771  49.1257221  25.1463209  15.4472959  48.5182891  24.4113619
  14.7097477  49.6166240  25.1472706  22.6052055  62.5644385  24.3596378
  22.5322226  63.3699357  24.8715682  22.1629448  62.7636351  23.5344399
  22.3941834  61.8016156  17.8699199  21.6109356  62.3437836  17.9637424
  23.0934579  62.3190135  18.2693440  25.7038484  47.6110785  20.5133404
  26.2007184  46.8580747  20.1934475  24.9325466  47.6475102  19.9476614
  33.5568242  53.3151151  22.1551696  33.5458118  54.1975866  21.7845629
  32.6885621  52.9622701  21.9606233  25.0650738  62.4631220  26.5154536
  25.7778710  63.0978684  26.4430438  24.5740767  62.5595086  25.6994538
  26.7868265  56.3682472  18.0871828  25.8524544  56.4883935  17.9176532
  26.9644934  55.4654939  17.8231838  22.2873453  49.7528168  20.2405089
  21.9171241  49.1999208  20.9285995  22.7832546  49.1486301  19.6880089
  30.1740816  52.2099791  18.6221862  30.6401269  53.0427783  18.5482165
  30.6248317  51.7444773  19.3267120  20.1162652  60.2125663  27.3360107
  20.8172111  60.8462146  27.4889501  19.6457767  60.5540395  26.5755746
  28.2417048  58.5543613  15.6208014  28.5176891  58.4400207  16.5301888
  27.3721546  58.1561098  15.5820187  28.1457479  44.5780378  22.6612763
  27.2320559  44.8084605  22.8294970  28.5750581  44.6618823  23.5126796
  27.9163938  52.7670270  25.1612657  27.2635388  53.0146178  24.5065110
  28.2944318  51.9534409  24.8275135  24.8771112  62.8029964  19.2640828
  25.0593506  61.9851620  19.7268580  25.7004098  63.0197656  18.8265718
  25.2113277  61.7298149  16.5255876  25.7401044  61.2190603  15.9126038
  25.4741497  61.4140679  17.3901409  23.9651511  53.5090081  31.6478694
  23.2892148  53.4084211  32.3181070  24.7879145  53.3529295  32.1114692
  15.7130370  59.7462018  24.2691210  16.2983807  59.0005706  24.4019114
  15.5155208  60.0565975  25.1527874  18.5669025  62.7813265  19.2853652
  17.8979400  63.2659393  18.8017692  18.4281895  63.0282486  20.1997031
  10.3048025  52.3167618  22.9895653  10.3432124  51.7831209  23.7832771
   9.7988317  51.7902824  22.3706630  22.7074294  64.8157009  25.8836310
  23.2592602  64.9788630  26.6485396  23.0480487  65.4061447  25.2116335
  17.6838787  47.1632159  26.4858195  17.7480113  48.0246990  26.0735593
  17.6205907  46.5506160  25.7530554  17.1591059  49.2355291  30.1331229
  17.7863098  48.8532369  30.7468754  16.3018978  49.0169493  30.4986922
  27.5585168  59.6418266  31.7384965  28.1025072  60.2548225  31.2439920
  26.9772013  60.1997845  32.2551978  13.9356602  51.0431720  16.0649584
  14.2310043  50.1342399  16.0116638  13.0344638  51.0219460  15.7430587
  25.8442681  62.7638984  22.8699993  25.7193820  61.9628724  22.3610938
  26.5021772  63.2585178  22.3813963  17.4650849  49.1187717  22.0477133
  16.7437435  49.7323685  21.9084606  18.2544105  49.6545482  21.9693779
  27.9077589  60.5648005  24.4979543  26.9607925  60.4453356  24.4257869
  28.2560362  59.6770503  24.5805804  20.2677163  46.4542143  28.3217785
  20.7911564  46.7004440  29.0844094  20.0489496  47.2862178  27.9020922
  15.6644444  48.7245818  16.1888909  15.3357150  47.8443197  16.0064015
  16.0183814  48.6693487  17.0765299  24.9124023  60.3600721  20.6983895
  24.7648985  59.4317428  20.8791465  25.7377516  60.3820811  20.2140970
  18.7786267  49.0118788  16.5564387  19.1182339  49.5404709  15.8342995
  19.2258387  49.3499194  17.3322954  28.5158144  61.1829280  21.7848768
  29.4404692  60.9772141  21.6473219  28.3473448  60.9345681  22.6938109
  21.4729708  47.3955839  26.0067455  21.1326528  46.5963652  26.4088135
  20.7668714  47.6957549  25.4344288  22.1246180  44.4805151  24.4594778
  22.9472249  44.0065629  24.3373668  22.3684243  45.2595635  24.9593464
  20.7654414  47.5093409  14.7557680  21.4862777  47.8874662  14.2521397
  20.1419718  48.2282286  14.8592658  24.9085537  48.2138558  15.6916012
  25.1249151  49.0963196  15.3904840  24.4279604  47.8224772  14.9621654
  19.6484758  51.1724272  22.2686757  19.5029339  51.4864575  23.1611038
  19.1709962  51.7909172  21.7157655  21.5081141  48.1626820  22.3167646
  21.4942710  47.2667913  21.9799944  22.2253569  48.1697483  22.9505932
  23.3607272  48.5964160  24.3620774  23.1025050  49.5181230  24.3605104
  22.8292312  48.1994594  25.0521238  28.3053461  61.7014947  17.1410859
  28.4790338  61.1361369  16.3884712  28.7982352  62.5015842  16.9590349
  14.1230420  53.7129616  25.2074418  13.5783889  54.4889424  25.3394692
  15.0009770  54.0600421  25.0493539  20.9118037  47.0441200  17.5855216
  21.0333948  46.1157846  17.7846104  20.6220079  47.0579886  16.6733532
  23.7809227  44.7296110  20.7221936  23.8030924  44.7935443  19.7673916
  24.1977286  43.8900619  20.9162442  34.1592852  54.4651370  18.7601159
  34.6023998  53.7158695  18.3620282  33.2819362  54.4561506  18.3774891
  29.2928633  61.0181711  14.2407757  29.9879538  61.6388404  14.4595072
  29.6351783  60.1677063  14.5160135  14.9096442  52.8399512  28.1004575
  14.1678178  52.9882148  28.6869205  14.5889187  53.1007778  27.2371324
  31.1920056  58.4681417  15.7695088  31.7171380  58.8068690  15.0444408
  31.1042409  57.5328432  15.5858223  22.8540105  62.3815491  27.8984965
  23.1627231  62.1364637  28.7707664  23.6515587  62.5862129  27.4103835
  22.8760717  64.5353400  20.1290341  22.4365707  64.0429779  20.8223198
  23.6268834  63.9926368  19.8882417  15.3553056  60.7264941  20.1314969
  16.1811076  60.4268713  19.7513613  15.0047108  59.9572563  20.5804758
  20.3234589  60.0791409  22.2012643  19.7014598  59.4162114  21.9014871
  20.9939456  60.1052541  21.5186291  13.5561661  58.6451267  21.0903903
  12.7193569  58.2173442  20.9087904  13.5285306  58.8383711  22.0274694
  20.3959117  48.5573197  31.7945149  20.4447272  49.4335320  31.4122919
  20.9381631  48.0150590  31.2216792  30.8813962  59.1014321  31.0746286
  30.0909506  59.0838459  30.5350786  30.6447317  59.6402614  31.8295323
  31.0011837  55.9506787  28.3879015  31.0509842  55.7856794  29.3294537
  30.8925761  55.0834046  27.9976895  19.8848096  58.6295333  15.6771104
  20.0336216  59.3130797  15.0237776  20.6914540  58.6100423  16.1920559
  28.2915600  51.9337715  29.7038321  29.1925463  51.7944180  29.4122319
  28.3663574  52.0992170  30.6436499  22.6258405  49.3104570  28.5491508
  21.7561714  49.6038136  28.2774096  22.8617885  49.8945015  29.2698771
  32.5030034  58.3703728  28.6321036  32.2114842  58.7333709  29.4684497
  31.8902165  57.6570737  28.4534368  33.7025716  55.9356608  21.1523606
  34.5372608  56.3746412  21.3161167  33.8384845  55.4595261  20.3331852
  30.7517222  53.4936343  27.1001094  31.2271344  53.6863989  26.2919946
  29.8282788  53.5495529  26.8544478  17.6400729  54.6560510  16.6832172
  17.3946771  53.7522840  16.8812383  17.8096644  54.6577661  15.7411650
  25.3297439  45.5284187  26.0656928  25.8479383  46.2645214  25.7403417
  24.9752572  45.8348180  26.9003687  16.9096377  50.3888868  14.1818334
  16.2165622  50.4633223  13.5258370  16.6648128  49.6249211  14.7039851
  25.5810033  41.9484469  21.5857825  25.8611787  41.2807658  22.2118251
  26.3660640  42.1413565  21.0732488  23.3843502  61.1243463  13.1482851
  22.8117469  61.7433650  12.6953323  23.9576295  61.6742825  13.6822773
  29.4518891  50.3702103  25.3329400  30.4036314  50.4700201  25.3541624
  29.2822342  49.5780372  25.8427484  27.4733271  47.4557686  25.5188801
  26.8783203  47.7362699  24.8235289  27.1882968  47.9451587  26.2905542
  26.6040761  61.4080613  14.2791433  27.5371435  61.3426175  14.4824309
  26.5163974  62.2436880  13.8205966  29.2328778  60.7246484  11.2395381
  29.1542410  60.3906347  12.1331139  30.0538445  61.2168251  11.2386853
  31.9306969  53.5908223  24.4471699  31.8983289  52.6524224  24.6331383
  32.5407593  53.6692260  23.7137524  23.7690300  52.4604276  10.4898903
  24.7149405  52.3310484  10.5587321  23.3904545  51.7218938  10.9668332
  32.0801458  50.3819266  24.4929983  31.5640506  49.5977723  24.3059911
  32.9641406  50.0537983  24.6576502  29.7412185  44.1260282  20.4525795
  29.5437006  43.8175370  21.3369127  30.3511890  44.8521921  20.5823725
  37.7483519  54.6524230  23.5877736  38.4786908  54.3909518  24.1485440
  37.1390465  53.9152952  23.6279804  35.8298816  52.7932092  24.1852187
  35.1031980  52.6588057  23.5768679  35.4146103  53.1008921  24.9908905
  23.6528993  56.5122022  31.9499560  24.5732002  56.6900621  32.1439607
  23.6178576  55.5678067  31.7979260  21.9533217  50.3854252  10.4253789
  21.0464673  50.0887365  10.5016502  22.2309198  50.0884070   9.5588075
  12.8711158  51.7060616  20.8752835  12.5513942  50.8525924  20.5827209
  12.3244586  51.9209194  21.6310802  16.6491065  54.4223057  24.5922342
  16.8677075  55.3540164  24.6110375  17.0616839  54.0631031  25.3777145
  23.5695283  44.9291142  16.5798030  22.7596011  44.5838227  16.9553276
  24.2579700  44.6198686  17.1685642  25.4985831  44.0069189  18.2022327
  26.0516870  44.4264642  18.8612350  25.7355918  43.0804937  18.2445283
  21.5218930  49.9956262  33.9825091  21.4215657  50.9450619  33.9137182
  21.3040473  49.6674501  33.1101161  12.7399418  55.3263527  22.8445957
  12.0462889  54.9117480  22.3315911  13.4872409  55.3684064  22.2479376
  28.8764638  46.1169714  17.7100991  28.2963307  46.7754518  17.3279043
  28.6100571  45.2947058  17.2988408  27.3268205  45.5174772  19.9122311
  27.8267983  45.6291306  19.1036630  27.9703813  45.2135824  20.5523120
  21.3850201  53.4253401  32.7990152  20.9017282  54.2253761  33.0054041
  21.4711140  53.4361346  31.8457596  14.6536160  55.2581781  20.7211972
  14.6306848  55.3569468  19.7693855  14.9636797  56.1046932  21.0429138
  17.3123538  57.3157936  24.8358586  18.2666792  57.2841878  24.7688518
  17.1136062  56.8548560  25.6508812  17.9022920  55.8859052  27.4029384
  18.7215809  56.3803131  27.4264221  18.1759728  54.9691020  27.3746951
  27.6589516  48.2769804  16.7657339  26.7715371  48.5619455  16.5477534
  28.0743505  48.1163568  15.9184616  31.0104052  48.3016325  20.4811678
  31.7864443  48.7912778  20.7536295  30.2852187  48.7274379  20.9383548
  33.4476611  49.0143944  21.5385619  34.0421102  48.7739680  20.8278927
  33.5203195  48.2951075  22.1659155  15.6673767  62.8577555  21.8528784
  15.5328235  62.0977956  21.2866782  15.2505829  63.5818455  21.3857573
  26.8032730  58.0414479  10.8605359  27.5068580  58.2464481  11.4763015
  26.0795379  58.6091241  11.1254443  27.6330540  53.7924340  16.9807629
  27.5765741  54.2492892  16.1415262  28.1858883  53.0315025  16.8030472
  31.4435346  49.5814072  17.8057749  31.1872280  49.1810708  18.6365956
  30.8188214  50.2957866  17.6807888  35.7547684  52.3210145  20.3129040
  35.1947242  52.3903335  21.0860602  35.1491187  52.1451130  19.5928536
  18.8242893  63.7546872  22.0647226  18.7075277  64.6992305  21.9625917
  18.0035339  63.4520434  22.4533026  28.7119427  58.4797008  12.9103819
  29.5465031  58.0478207  12.7281294  28.5503770  58.3079022  13.8380714
  28.3665319  54.9829121  14.2760158  28.3114123  54.8173393  13.3348603
  27.7411375  55.6905154  14.4322348  13.1557834  50.2197186  28.1021581
  13.8016698  49.7096140  28.5908806  12.9474986  50.9565867  28.6765006
  25.6811227  57.2878033  33.6013721  26.5502386  57.4618686  33.2400356
  25.2017978  58.1072450  33.4789451  21.6761445  44.4837230  13.8545477
  21.6640115  45.4279070  14.0113748  22.5684867  44.3007376  13.5604938
  19.8497407  64.4075134  25.2803155  20.7524654  64.4398745  25.5969650
  19.6234777  63.4775585  25.2949491  21.6051009  63.1606121  21.9413234
  20.6546640  63.1607982  21.8277606  21.9083495  62.4138855  21.4249268
  25.4913564  41.0780007  18.1091414  24.7245960  40.5238494  18.2548096
  25.9024269  41.1501876  18.9705565  17.4955325  47.3664803  32.1996595
  18.3586787  47.0101608  32.4099920  16.9220736  47.0278698  32.8871999
  37.3403702  68.9966659  23.0058996  37.9782112  68.8773407  22.3022336
  37.2224545  69.9447503  23.0646948  34.1493409  68.9494087  22.9420521
  33.8111920  68.8335152  22.0541055  35.0183177  68.5485252  22.9221527
  30.0080224  70.8029564  18.9317412  29.4445089  70.7119501  18.1633699
  29.8932619  69.9829468  19.4119904  34.6313192  70.1028939  28.9006726
  34.6201832  69.7081737  28.0287230  34.7933831  69.3695012  29.4940498
  27.5544656  72.2980755  21.7701632  28.3465948  71.9571580  21.3547931
  27.7941306  72.4075730  22.6903785  35.5879783  74.4700531  14.2431876
  34.9367763  75.0554612  13.8565890  36.3824146  75.0006726  14.3026914
  29.5135410  71.5589669  14.6419011  30.2866286  71.0118656  14.5031887
  29.8660809  72.4233918  14.8533472  31.3520453  72.8866051  27.8485910
  31.0610319  73.7911682  27.7332576  31.9877437  72.9282578  28.5629980
  32.2776660  70.2642899  24.4387270  32.8740232  70.0398922  23.7244233
  32.3351631  69.5227645  25.0412718  31.8501688  67.7182335  12.2737461
  32.1027209  67.1963856  11.5120924  30.9126247  67.5548480  12.3764144
  36.8944971  66.7218113  20.0812204  37.6808060  66.3037536  19.7302621
  37.1583675  67.6264205  20.2493852  37.0655048  72.1590963  14.7800861
  36.4300881  72.2325590  15.4921765  36.7352455  72.7484562  14.1019940
  42.2953398  66.6593346  20.9845182  43.0278570  66.0892563  21.2183012
  41.5392754  66.2714947  21.4251688  31.5697977  69.6210441  14.4761836
  31.4534235  68.9455344  15.1442920  31.6800237  69.1342815  13.6593989
  33.9129518  69.0820588  18.1808525  33.5487725  68.5551209  18.8921446
  34.7696634  68.6919057  18.0075010  39.8178818  60.3714920  25.4439791
  39.4862143  61.2410331  25.2201006  39.2224432  60.0551204  26.1233821
  33.5535005  64.1110487  13.1769873  33.7209407  64.9790724  13.5440345
  33.3632174  64.2737769  12.2531163  36.3110338  72.5727466  24.8435704
  36.0111061  73.4752505  24.7351511  35.9661397  72.3059650  25.6956857
  29.7622819  69.0241263  20.8772408  28.8373316  68.8917477  21.0850100
  30.0107232  69.8035482  21.3742351  39.7107482  65.0910007  22.5233141
  38.8024359  65.0225415  22.2291902  39.6595077  65.5681952  23.3514967
  33.5324226  66.5668145  14.1616540  33.4123851  67.0125196  15.0002021
  32.8376814  66.9153463  13.6030078  27.1231630  68.6674537  21.7116197
  27.2524011  68.9209016  22.6255609  26.4429082  69.2602245  21.3920852
  31.2931118  79.3371787  17.8106672  31.2155147  80.2879612  17.8895152
  30.6892761  78.9917659  18.4681598  33.7848347  66.5099652  30.4668038
  33.0081681  67.0693572  30.4570903  34.4238910  66.9956435  30.9882909
  41.5769128  63.2926445  24.3011015  40.9343508  63.5858978  23.6550810
  41.0724057  63.1779365  25.1064212  39.2309292  67.0389618  14.9896874
  40.1427148  67.2717005  14.8144572  38.7218939  67.6226662  14.4271953
  32.0394720  69.3185106  30.0286005  32.7809404  69.8570149  29.7520829
  31.3331705  69.9451394  30.1857557  37.5150059  71.4614246  28.6258167
  37.9233415  71.0196657  27.8812799  36.7927321  70.8866873  28.8792360
  33.8681129  66.3986853  25.9991724  34.7142325  66.8226266  26.1426373
  33.8079767  65.7420477  26.6930287  37.8378874  72.0215437  22.3810456
  37.2087736  72.1861151  21.6786524  37.4504536  72.4357046  23.1521420
  41.7168106  72.9569874  19.7354820  41.0319144  73.3368776  19.1851853
  41.8011955  73.5665201  20.4686767  37.0180575  64.0591221  27.6572897
  36.7741507  64.8133282  27.1207173  37.2940505  64.4376569  28.4920145
  38.9719037  70.6029833  26.3350163  39.1835933  71.2461593  25.6584544
  38.9248786  69.7692150  25.8672093  36.5745266  63.2147654  23.2386735
  35.7129745  63.5128908  23.5303473  36.6007701  63.4318053  22.3067768
  33.3906836  71.7589845  19.6460541  33.8545181  72.0377548  18.8565163
  33.1263634  70.8573289  19.4633632  30.2830917  71.3061326  22.5840304
  30.8532274  71.7348595  21.9457789  30.8739029  71.0243911  23.2824490
  32.3275722  67.8812997  16.4550106  33.0299765  68.3334041  16.9224032
  31.9956350  67.2396816  17.0829999  30.7756083  66.4724754  30.8301315
  30.1454744  67.1541035  31.0636712  30.6692171  66.3607835  29.8854454
  26.0701056  66.1396550  21.7567240  25.2800110  66.3954078  21.2807350
  26.5612303  66.9544888  21.8619280  40.0864865  73.4801789  24.5072520
  40.9082309  73.0781976  24.2255202  40.0827268  73.3770023  25.4588636
  28.0215801  66.5041129  18.7150716  27.2246965  66.6159823  19.2334212
  27.7941393  66.8427781  17.8491607  33.8521469  73.0285832  26.6633231
  33.9165901  73.4906239  27.4991403  33.1432393  72.3983197  26.7915541
  24.3538759  66.3927040  24.1882230  24.6046797  67.2774050  24.4539806
  24.8898307  66.2131642  23.4157322  48.1770858  69.8240537  20.8557492
  47.4234567  69.2547935  20.7001496  48.3118400  69.7903202  21.8028127
  33.5669487  74.6953940  16.5312211  33.4315161  75.5405475  16.9597059
  34.1079299  74.8973217  15.7678145  30.0536826  60.7745520  33.1926566
  29.6603772  60.2211718  33.8674211  30.8702966  61.0856098  33.5833084
  27.0198884  72.2129378  17.1040136  27.5323404  73.0072628  17.2545701
  27.6721597  71.5155668  17.0373738  28.8293769  75.3295134  19.1862890
  29.0060397  76.2513099  18.9983873  29.6250602  75.0153553  19.6157269
  32.9704787  62.1903399  30.7846823  33.7114501  62.7910552  30.7051285
  33.2022710  61.4481036  30.2264866  28.1146125  67.3759766  29.0625053
  27.9999640  66.4745023  29.3632152  27.2590643  67.6223463  28.7109869
  35.1937963  75.3177506  30.6612553  34.7501817  74.5313885  30.3433458
  35.8555176  75.5056657  29.9956444  29.9525084  76.8473308  25.1873232
  30.5032509  76.7190371  24.4150226  29.1136560  77.1468197  24.8368125
  37.2919201  75.5980306  28.6893955  37.2737676  76.4189187  28.1974224
  38.2139121  75.4734381  28.9144096  33.7492255  73.1124436  29.5317463
  34.2820592  72.3512724  29.3016771  33.2206336  72.8198087  30.2741617
  36.9161950  58.2184502  25.0611105  36.5726219  59.1086143  24.9850215
  37.2840913  58.0286159  24.1980690  24.9847801  70.5418032  17.8799707
  25.8223023  70.9515040  17.6633415  25.1626068  69.6017474  17.8499901
  36.8812233  68.2093113  13.5683540  36.3658856  68.9797717  13.8071927
  36.6089541  67.5358249  14.1916601  34.4659344  63.0542813  18.6268778
  33.6100940  62.6649664  18.4474417  34.8786296  63.1334774  17.7668564
  35.9958490  60.5889157  23.0260338  35.4923286  60.5519292  22.2128143
  36.2889097  61.4981899  23.0856995  32.2401376  60.6727886  22.0326520
  33.1054373  60.4770695  21.6732409  32.3078885  60.4438238  22.9595876
  41.8546507  70.9625467  15.5036713  41.0775950  70.6236627  15.0591875
  42.5337988  70.9678090  14.8291678  36.6698536  66.0820205  15.3943321
  36.3648672  66.3966354  16.2453464  37.6228978  66.1601625  15.4370654
  35.1144968  72.2410428  17.0436275  34.5866329  71.5063188  16.7309512
  34.6132471  73.0185104  16.7976243  40.0937814  70.4359449  22.1603321
  39.4361488  71.1258710  22.2483450  40.8978213  70.8255881  22.5037308
  29.8463695  62.9030094  19.4042886  30.4207447  62.6805276  18.6716079
  30.4334678  62.9718789  20.1571488  38.9043273  68.7903821  20.2107263
  39.4175154  69.4233813  20.7128973  39.5544497  68.1905017  19.8450623
  30.1733283  64.9334555  13.4238772  29.3370595  65.2709242  13.7448046
  30.0338052  64.7983535  12.4865909  32.1486363  59.7771343  18.1317956
  31.4950775  59.4620360  17.5074571  32.1066837  59.1547084  18.8577779
  33.2597568  70.0590638  10.0471248  32.3524630  69.8279892  10.2462397
  33.7568600  69.2628258  10.2345230  36.1665647  78.7688146  12.9667934
  35.4927346  79.0719842  13.5752892  36.5531469  79.5717226  12.6173391
  35.3824104  66.2653277  22.4565604  34.4646665  66.4868224  22.2987292
  35.7984247  66.3399587  21.5977311  36.1659151  67.6644692  17.5868284
  36.9130970  68.1766090  17.2775406  36.4350741  67.3428745  18.4472677
  34.4385801  70.1603233  14.5695238  33.5297021  69.8762266  14.6667708
  34.4680885  70.5802312  13.7098545  39.6705069  73.7709823  18.3386406
  39.2167396  72.9300733  18.3951596  39.0399036  74.4071221  18.6761186
  38.6137988  64.7001809  19.5687073  37.8760745  64.1879195  19.8997316
  38.8664762  64.2602190  18.7570350  38.1138008  75.6086319  19.2736224
  38.4060982  76.1691377  18.5548589  38.6236629  75.9014880  20.0289383
  38.7149616  57.4778061  20.1628842  39.0208493  56.6175424  19.8754757
  39.4402221  58.0695681  19.9627836  25.0073972  67.8808747  18.5510440
  24.8098372  67.2878108  17.8261507  24.4520636  67.5760958  19.2686379
  32.9870695  67.7731854  20.6705033  33.0419305  66.8205690  20.5947510
  32.1761898  67.9291293  21.1546332  34.1361889  71.7011977  11.9083317
  33.6981319  70.9847836  11.4488954  34.8772330  71.9288092  11.3468408
  30.9263055  66.3908914  18.4295412  30.1130921  66.6903084  18.8360604
  31.4222050  65.9964602  19.1469895  33.0771633  76.3866670  20.3629677
  33.0347812  76.6127517  19.4338209  33.9934332  76.1530045  20.5115478
  36.5237267  66.8550738  27.2610306  36.8786655  67.0822211  28.1204772
  37.1709398  67.1869115  26.6387562  42.2535004  69.9769174  17.9659635
  42.1152903  70.1670770  17.0380824  41.8971223  70.7388557  18.4227686
  30.4177130  63.9627269  24.0456647  31.0576509  63.8216028  23.3479611
  29.5854661  63.6761782  23.6695249  42.2804384  72.0445701  22.9770907
  42.7140890  71.9520990  23.8253961  42.9935964  72.0203201  22.3390923
  31.1937434  73.2629700  20.1591640  31.9878033  72.7680020  19.9574215
  30.4829126  72.7347563  19.7959345  36.0132279  75.6447795  24.5104007
  36.0669301  76.2138731  25.2781723  35.1447060  75.8149680  24.1458044
  27.5020198  67.4072781  16.2351392  26.5717786  67.3457237  16.4521355
  27.5977670  66.8848734  15.4388034  27.4205747  63.9327594  18.8229634
  27.6812564  64.8472927  18.7138795  28.2422919  63.4652037  18.9726247
  28.8930672  65.3465351  25.9928459  29.5653725  65.1382713  25.3441108
  28.0660458  65.1487437  25.5533691  43.1419933  72.0869402  25.5103792
  43.3355823  72.9915212  25.7563067  43.0420551  71.6276821  26.3442377
  34.7956244  61.9727292  28.0094119  34.1484159  62.6717242  27.9158596
  35.5657259  62.4063436  28.3770368  38.2035042  72.2376144  31.0844673
  38.0520548  72.0086696  30.1674756  38.1939721  73.1946746  31.0976018
  34.9720378  69.8108057  26.0690939  35.9012438  69.9619217  25.8959907
  34.5511408  69.8992078  25.2139586  33.7708710  73.8358721  23.8389477
  33.6319796  73.4677506  24.7115415  32.9823306  74.3506361  23.6673435
  34.3656862  78.9367818  15.1815013  34.5408618  78.4655861  15.9960636
  33.6789650  79.5633584  15.4096274  35.3213925  73.2140324  21.2278315
  34.9863758  73.1741094  22.1235964  34.8217871  72.5485040  20.7548725
  29.2958169  68.6207954  26.7530896  29.1577967  67.8888193  27.3542435
  30.2063093  68.5316854  26.4715084  38.2573117  70.5596359  11.5015374
  37.6402287  69.8343187  11.4048427  37.7889605  71.3205719  11.1582449
  31.9240470  68.3327914  26.2414575  32.6340088  67.6921106  26.2001194
  31.8809778  68.5840808  27.1640756  39.9127249  75.2695267  29.1621155
  39.8539795  74.5854487  28.4951738  40.3146767  76.0114257  28.7101781
  30.6369404  65.3193131  28.0610215  30.1006761  64.8683870  28.7131811
  30.0486112  65.4539040  27.3180679  28.9317947  82.0857181  21.9554874
  29.1714546  82.7175705  22.6333892  28.0887144  81.7345221  22.2420233
  30.0471663  64.7781783  10.6236679  29.1701129  64.6570584  10.2598925
  30.5229416  63.9867861  10.3715567  39.9144656  73.2334851  27.3935134
  39.0271435  72.8960773  27.5161533  40.4843207  72.5017882  27.6303900
  21.5673803  69.5658943  20.7178186  22.2544843  69.2520673  20.1299201
  21.4121932  70.4700307  20.4445437  26.3708525  64.4549139  25.1463209
  26.2866714  63.8474809  24.4113619  25.5491231  64.9458157  25.1472706
  33.4445809  77.8936303  24.3596378  33.3715981  78.6991275  24.8715682
  33.0023202  78.0928269  23.5344399  33.2335589  77.1308073  17.8699199
  32.4503111  77.6729753  17.9637424  33.9328334  77.6482053  18.2693440
  36.5432239  62.9402703  20.5133404  37.0400938  62.1872665  20.1934475
  35.7719220  62.9767019  19.9476614  44.3961996  68.6443068  22.1551696
  44.3851873  69.5267784  21.7845629  43.5279376  68.2914619  21.9606233
  35.9044493  77.7923137  26.5154536  36.6172465  78.4270602  26.4430438
  35.4134521  77.8887003  25.6994538  37.6262020  71.6974390  18.0871828
  36.6918298  71.8175852  17.9176532  37.8038688  70.7946857  17.8231838
  33.1267208  65.0820086  20.2405089  32.7564995  64.5291126  20.9285995
  33.6226300  64.4778219  19.6880089  41.0134571  67.5391709  18.6221862
  41.4795023  68.3719701  18.5482165  41.4642071  67.0736691  19.3267120
  30.9556406  75.5417581  27.3360107  31.6565866  76.1754064  27.4889501
  30.4851521  75.8832312  26.5755746  39.0810802  73.8835530  15.6208014
  39.3570646  73.7692125  16.5301888  38.2115301  73.4853015  15.5820187
  38.9851234  59.9072296  22.6612763  38.0714314  60.1376523  22.8294970
  39.4144335  59.9910740  23.5126796  38.7557692  68.0962188  25.1612657
  38.1029142  68.3438096  24.5065110  39.1338072  67.2826326  24.8275135
  35.7164866  78.1321881  19.2640828  35.8987261  77.3143537  19.7268580
  36.5397852  78.3489574  18.8265718  36.0507032  77.0590066  16.5255876
  36.5794798  76.5482521  15.9126038  36.3135251  76.7432597  17.3901409
  34.8045265  68.8381999  31.6478694  34.1285902  68.7376129  32.3181070
  35.6272899  68.6821213  32.1114692  26.5524124  75.0753936  24.2691210
  27.1377561  74.3297624  24.4019114  26.3548963  75.3857892  25.1527874
  29.4062780  78.1105183  19.2853652  28.7373155  78.5951311  18.8017692
  29.2675649  78.3574404  20.1997031  21.1441779  67.6459536  22.9895653
  21.1825879  67.1123127  23.7832771  20.6382072  67.1194741  22.3706630
  33.5468048  80.1448927  25.8836310  34.0986356  80.3080548  26.6485396
  33.8874242  80.7353364  25.2116335  28.5232541  62.4924076  26.4858195
  28.5873868  63.3538907  26.0735593  28.4599662  61.8798078  25.7530554
  27.9984814  64.5647209  30.1331229  28.6256853  64.1824286  30.7468754
  27.1412733  64.3461411  30.4986922  38.3978922  74.9710184  31.7384965
  38.9418826  75.5840142  31.2439920  37.8165767  75.5289763  32.2551978
  24.7750357  66.3723638  16.0649584  25.0703798  65.4634316  16.0116638
  23.8738392  66.3511378  15.7430587  36.6836435  78.0930902  22.8699993
  36.5587575  77.2920642  22.3610938  37.3415526  78.5877096  22.3813963
  28.3044604  64.4479635  22.0477133  27.5831189  65.0615602  21.9084606
  29.0937859  64.9837399  21.9693779  38.7471344  75.8939922  24.4979543
  37.8001679  75.7745273  24.4257869  39.0954117  75.0062420  24.5805804
  31.1070917  61.7834061  28.3217785  31.6305319  62.0296358  29.0844094
  30.8883250  62.6154096  27.9020922  26.5038198  64.0537736  16.1888909
  26.1750904  63.1735115  16.0064015  26.8577569  63.9985404  17.0765299
  35.7517777  75.6892638  20.6983895  35.6042739  74.7609346  20.8791465
  36.5771271  75.7112729  20.2140970  29.6180021  64.3410706  16.5564387
  29.9576094  64.8696627  15.8342995  30.0652142  64.6791112  17.3322954
  39.3551899  76.5121197  21.7848768  40.2798446  76.3064059  21.6473219
  39.1867202  76.2637598  22.6938109  32.3123462  62.7247756  26.0067455
  31.9720283  61.9255569  26.4088135  31.6062468  63.0249467  25.4344288
  32.9639934  59.8097069  24.4594778  33.7866003  59.3357547  24.3373668
  33.2077998  60.5887552  24.9593464  31.6048169  62.8385327  14.7557680
  32.3256531  63.2166580  14.2521397  30.9813473  63.5574204  14.8592658
  35.7479291  63.5430476  15.6916012  35.9642906  64.4255114  15.3904840
  35.2673359  63.1516690  14.9621654  30.4878513  66.5016189  22.2686757
  30.3423093  66.8156492  23.1611038  30.0103716  67.1201090  21.7157655
  32.3474896  63.4918737  22.3167646  32.3336464  62.5959831  21.9799944
  33.0647324  63.4989401  22.9505932  34.2001026  63.9256078  24.3620774
  33.9418804  64.8473148  24.3605104  33.6686067  63.5286512  25.0521238
  39.1447215  77.0306865  17.1410859  39.3184093  76.4653287  16.3884712
  39.6376106  77.8307760  16.9590349  24.9624175  69.0421534  25.2074418
  24.4177643  69.8181342  25.3394692  25.8403525  69.3892338  25.0493539
  31.7511792  62.3733118  17.5855216  31.8727703  61.4449764  17.7846104
  31.4613834  62.3871804  16.6733532  34.6202982  60.0588028  20.7221936
  34.6424679  60.1227361  19.7673916  35.0371041  59.2192537  20.9162442
  44.9986606  69.7943288  18.7601159  45.4417752  69.0450613  18.3620282
  44.1213117  69.7853424  18.3774891  40.1322388  76.3473629  14.2407757
  40.8273292  76.9680322  14.4595072  40.4745538  75.4968980  14.5160135
  25.7490197  68.1691430  28.1004575  25.0071933  68.3174065  28.6869205
  25.4282941  68.4299696  27.2371324  42.0313811  73.7973335  15.7695088
  42.5565135  74.1360607  15.0444408  41.9436163  72.8620350  15.5858223
  33.6933859  77.7107408  27.8984965  34.0020986  77.4656555  28.7707664
  34.4909341  77.9154047  27.4103835  33.7154471  79.8645318  20.1290341
  33.2759462  79.3721697  20.8223198  34.4662588  79.3218286  19.8882417
  26.1946810  76.0556859  20.1314969  27.0204830  75.7560631  19.7513613
  25.8440862  75.2864481  20.5804758  31.1628344  75.4083327  22.2012643
  30.5408353  74.7454032  21.9014871  31.8333211  75.4344459  21.5186291
  24.3955416  73.9743185  21.0903903  23.5587324  73.5465360  20.9087904
  24.3679061  74.1675629  22.0274694  31.2352871  63.8865115  31.7945149
  31.2841027  64.7627238  31.4122919  31.7775385  63.3442508  31.2216792
  41.7207717  74.4306238  31.0746286  40.9303261  74.4130377  30.5350786
  41.4841071  74.9694532  31.8295323  41.8405592  71.2798705  28.3879015
  41.8903597  71.1148712  29.3294537  41.7319515  70.4125964  27.9976895
  30.7241851  73.9587250  15.6771104  30.8729971  74.6422715  15.0237776
  31.5308294  73.9392340  16.1920559  39.1309354  67.2629633  29.7038321
  40.0319217  67.1236097  29.4122319  39.2057329  67.4284087  30.6436499
  33.4652160  64.6396487  28.5491508  32.5955469  64.9330053  28.2774096
  33.7011640  65.2236932  29.2698771  43.3423789  73.6995646  28.6321036
  43.0508597  74.0625627  29.4684497  42.7295920  72.9862654  28.4534368
  44.5419471  71.2648526  21.1523606  45.3766362  71.7038330  21.3161167
  44.6778600  70.7887179  20.3331852  41.5910977  68.8228261  27.1001094
  42.0665099  69.0155907  26.2919946  40.6676542  68.8787447  26.8544478
  28.4794484  69.9852428  16.6832172  28.2340525  69.0814758  16.8812383
  28.6490398  69.9869578  15.7411650  36.1691193  60.8576104  26.0656928
  36.6873137  61.5937131  25.7403417  35.8146326  61.1640098  26.9003687
  27.7490131  65.7180785  14.1818334  27.0559376  65.7925140  13.5258370
  27.5041883  64.9541129  14.7039851  36.4203788  57.2776387  21.5857825
  36.7005541  56.6099576  22.2118251  37.2054394  57.4705482  21.0732488
  34.2237256  76.4535381  13.1482851  33.6511223  77.0725568  12.6953323
  34.7970050  77.0034742  13.6822773  40.2912646  65.6994021  25.3329400
  41.2430069  65.7992118  25.3541624  40.1216096  64.9072289  25.8427484
  38.3127025  62.7849604  25.5188801  37.7176957  63.0654617  24.8235289
  38.0276722  63.2743505  26.2905542  37.4434516  76.7372531  14.2791433
  38.3765189  76.6718093  14.4824309  37.3557729  77.5728798  13.8205966
  40.0722533  76.0538401  11.2395381  39.9936164  75.7198265  12.1331139
  40.8932199  76.5460169  11.2386853  42.7700724  68.9200141  24.4471699
  42.7377044  67.9816141  24.6331383  43.3801347  68.9984177  23.7137524
  34.6084055  67.7896193  10.4898903  35.5543159  67.6602402  10.5587321
  34.2298300  67.0510855  10.9668332  42.9195212  65.7111184  24.4929983
  42.4034261  64.9269641  24.3059911  43.8035161  65.3829901  24.6576502
  40.5805939  59.4552200  20.4525795  40.3830760  59.1467288  21.3369127
  41.1905645  60.1813838  20.5823725  48.5877274  69.9816147  23.5877736
  49.3180662  69.7201435  24.1485440  47.9784219  69.2444869  23.6279804
  46.6692571  68.1224010  24.1852187  45.9425734  67.9879975  23.5768679
  46.2539858  68.4300839  24.9908905  34.4922747  71.8413940  31.9499560
  35.4125757  72.0192539  32.1439607  34.4572330  70.8969985  31.7979260
  32.7926972  65.7146170  10.4253789  31.8858427  65.4179283  10.5016502
  33.0702953  65.4175988   9.5588075  23.7104912  67.0352533  20.8752835
  23.3907696  66.1817841  20.5827209  23.1638340  67.2501111  21.6310802
  27.4884820  69.7514974  24.5922342  27.7070829  70.6832082  24.6110375
  27.9010593  69.3922949  25.3777145  34.4089037  60.2583060  16.5798030
  33.5989766  59.9130145  16.9553276  35.0973454  59.9490603  17.1685642
  36.3379586  59.3361106  18.2022327  36.8910624  59.7556560  18.8612350
  36.5749672  58.4096855  18.2445283  32.3612685  65.3248180  33.9825091
  32.2609412  66.2742537  33.9137182  32.1434227  64.9966419  33.1101161
  31.5625756  62.5733105  10.5665768  32.4244920  62.8988003  10.8261585
  31.7476100  61.7864601  10.0538834  23.5793172  70.6555445  22.8445957
  22.8856644  70.2409398  22.3315911  24.3266163  70.6975981  22.2479376
  39.7158393  61.4461632  17.7100991  39.1357062  62.1046436  17.3279043
  39.4494326  60.6238976  17.2988408  38.1661959  60.8466689  19.9122311
  38.6661738  60.9583224  19.1036630  38.8097567  60.5427742  20.5523120
  32.2243955  68.7545319  32.7990152  31.7411037  69.5545679  33.0054041
  32.3104894  68.7653264  31.8457596  25.4929915  70.5873699  20.7211972
  25.4700603  70.6861386  19.7693855  25.8030551  71.4338849  21.0429138
  28.1517293  72.6449854  24.8358586  29.1060546  72.6133796  24.7688518
  27.9529816  72.1840477  25.6508812  28.7416675  71.2150970  27.4029384
  29.5609564  71.7095048  27.4264221  29.0153482  70.2982938  27.3746951
  38.4983271  63.6061722  16.7657339  37.6109126  63.8911373  16.5477534
  38.9137260  63.4455485  15.9184616  41.8497807  63.6308243  20.4811678
  42.6258197  64.1204695  20.7536295  41.1245941  64.0566297  20.9383548
  44.2870366  64.3435862  21.5385619  44.8814856  64.1031598  20.8278927
  44.3596949  63.6242993  22.1659155  26.5067521  78.1869473  21.8528784
  26.3721989  77.4269874  21.2866782  26.0899584  78.9110373  21.3857573
  37.6426484  73.3706397  10.8605359  38.3462334  73.5756399  11.4763015
  36.9189133  73.9383158  11.1254443  38.4724295  69.1216258  16.9807629
  38.4159496  69.5784809  16.1415262  39.0252637  68.3606942  16.8030472
  42.2829100  64.9105990  17.8057749  42.0266035  64.5102625  18.6365956
  41.6581969  65.6249784  17.6807888  46.5941438  67.6502063  20.3129040
  46.0340996  67.7195252  21.0860602  45.9884942  67.4743048  19.5928536
  29.6636647  79.0838790  22.0647226  29.5469031  80.0284223  21.9625917
  28.8429093  78.7812352  22.4533026  39.5513182  73.8088926  12.9103819
  40.3858786  73.3770124  12.7281294  39.3897525  73.6370939  13.8380714
  39.2059074  70.3121039  14.2760158  39.1507878  70.1465311  13.3348603
  38.5805129  71.0197072  14.4322348  23.9951589  65.5489103  28.1021581
  24.6410452  65.0388057  28.5908806  23.7868740  66.2857785  28.6765006
  36.5204981  72.6169951  33.6013721  37.3896141  72.7910603  33.2400356
  36.0411733  73.4364368  33.4789451  32.5155199  59.8129148  13.8545477
  32.5033869  60.7570988  14.0113748  33.4078621  59.6299294  13.5604938
  30.6891161  79.7367052  25.2803155  31.5918408  79.7690662  25.5969650
  30.4628531  78.8067503  25.2949491  32.4444763  78.4898039  21.9413234
  31.4940394  78.4899900  21.8277606  32.7477249  77.7430773  21.4249268
  36.3307319  56.4071925  18.1091414  35.5639715  55.8530411  18.2548096
  36.7418024  56.4793794  18.9705565  28.3349080  62.6956721  32.1996595
  29.1980541  62.3393525  32.4099920  27.7614491  62.3570615  32.8871999
  48.1797457  84.3258577  23.0058996  48.8175867  84.2065324  22.3022336
  48.0618300  85.2739421  23.0646948  44.9887163  84.2786005  22.9420521
  44.6505675  84.1627070  22.0541055  45.8576931  83.8777170  22.9221527
  40.8473979  86.1321481  18.9317412  40.2838844  86.0411418  18.1633699
  40.7326374  85.3121386  19.4119904  45.4706946  85.4320857  28.9006726
  45.4595587  85.0373655  28.0287230  45.6327586  84.6986929  29.4940498
  38.3938411  87.6272673  21.7701632  39.1859703  87.2863498  21.3547931
  38.6335061  87.7367648  22.6903785  46.4273538  89.7992449  14.2431876
  45.7761517  90.3846530  13.8565890  47.2217900  90.3298644  14.3026914
  40.3529165  86.8881586  14.6419011  41.1260041  86.3410573  14.5031887
  40.7054564  87.7525836  14.8533472  42.1914207  88.2157969  27.8485910
  41.9004073  89.1203599  27.7332576  42.8271192  88.2574496  28.5629980
  43.1170414  85.5934817  24.4387270  43.7133986  85.3690839  23.7244233
  43.1745386  84.8519563  25.0412718  42.6895442  83.0474252  12.2737461
  42.9420963  82.5255774  11.5120924  41.7520002  82.8840398  12.3764144
  47.7338725  82.0510031  20.0812204  48.5201815  81.6329454  19.7302621
  47.9977430  82.9556123  20.2493852  47.9048803  87.4882881  14.7800861
  47.2694636  87.5617508  15.4921765  47.5746209  88.0776480  14.1019940
  53.1347152  81.9885264  20.9845182  53.8672324  81.4184481  21.2183012
  52.3786508  81.6006864  21.4251688  42.4091731  84.9502358  14.4761836
  42.2927989  84.2747262  15.1442920  42.5193991  84.4634732  13.6593989
  44.7523272  84.4112505  18.1808525  44.3881479  83.8843126  18.8921446
  45.6090388  84.0210975  18.0075010  50.6572573  75.7006838  25.4439791
  50.3255898  76.5702249  25.2201006  50.0618186  75.3843122  26.1233821
  44.3928759  79.4402405  13.1769873  44.5603161  80.3082642  13.5440345
  44.2025928  79.6029687  12.2531163  47.1504092  87.9019384  24.8435704
  46.8504815  88.8044423  24.7351511  46.8055152  87.6351567  25.6956857
  40.6016574  84.3533181  20.8772408  39.6767070  84.2209395  21.0850100
  40.8500987  85.1327400  21.3742351  50.5501236  80.4201924  22.5233141
  49.6418113  80.3517333  22.2291902  50.4988832  80.8973869  23.3514967
  44.3717980  81.8960063  14.1616540  44.2517605  82.3417113  15.0002021
  43.6770568  82.2445380  13.6030078  37.9625385  83.9966454  21.7116197
  38.0917766  84.2500933  22.6255609  37.2822836  84.5894162  21.3920852
  42.1324872  94.6663704  17.8106672  42.0548902  95.6171529  17.8895152
  41.5286516  94.3209577  18.4681598  44.6242102  81.8391570  30.4668038
  43.8475436  82.3985490  30.4570903  45.2632665  82.3248353  30.9882909
  52.4162882  78.6218363  24.3011015  51.7737263  78.9150896  23.6550810
  51.9117811  78.5071283  25.1064212  50.0703046  82.3681536  14.9896874
  50.9820902  82.6008923  14.8144572  49.5612693  82.9518580  14.4271953
  42.8788474  84.6477023  30.0286005  43.6203159  85.1862067  29.7520829
  42.1725460  85.2743312  30.1857557  48.3543814  86.7906164  28.6258167
  48.7627170  86.3488574  27.8812799  47.6321075  86.2158791  28.8792360
  44.7074884  81.7278770  25.9991724  45.5536079  82.1518184  26.1426373
  44.6473522  81.0712395  26.6930287  48.6772628  87.3507354  22.3810456
  48.0481491  87.5153068  21.6786524  48.2898291  87.7648964  23.1521420
  52.5561860  88.2861792  19.7354820  51.8712899  88.6660693  19.1851853
  52.6405710  88.8957119  20.4686767  47.8574329  79.3883139  27.6572897
  47.6135261  80.1425199  27.1207173  48.1334260  79.7668486  28.4920145
  49.8112792  85.9321751  26.3350163  50.0229687  86.5753511  25.6584544
  49.7642540  85.0984068  25.8672093  47.4139021  78.5439572  23.2386735
  46.5523500  78.8420825  23.5303473  47.4401456  78.7609971  22.3067768
  44.2300590  87.0881762  19.6460541  44.6938936  87.3669465  18.8565163
  43.9657388  86.1865207  19.4633632  41.1224671  86.6353244  22.5840304
  41.6926028  87.0640512  21.9457789  41.7132783  86.3535829  23.2824490
  43.1669476  83.2104915  16.4550106  43.8693520  83.6625958  16.9224032
  42.8350105  82.5688734  17.0829999  41.6149838  81.8016671  30.8301315
  40.9848498  82.4832952  31.0636712  41.5085926  81.6899753  29.8854454
  36.9094810  81.4688467  21.7567240  36.1193864  81.7245996  21.2807350
  37.4006058  82.2836805  21.8619280  50.9258620  88.8093707  24.5072520
  51.7476064  88.4073894  24.2255202  50.9221023  88.7061941  25.4588636
  38.8609556  81.8333047  18.7150716  38.0640719  81.9451741  19.2334212
  38.6335148  82.1719699  17.8491607  44.6915223  88.3577750  26.6633231
  44.7559656  88.8198157  27.4991403  43.9826147  87.7275115  26.7915541
  35.1932513  81.7218958  24.1882230  35.4440552  82.6065968  24.4539806
  35.7292062  81.5423559  23.4157322  59.0164613  85.1532455  20.8557492
  58.2628321  84.5839853  20.7001496  59.1512154  85.1195120  21.8028127
  44.4063241  90.0245857  16.5312211  44.2708916  90.8697393  16.9597059
  44.9473054  90.2265135  15.7678145  40.8930581  76.1037437  33.1926566
  40.4997526  75.5503636  33.8674211  41.7096721  76.4148016  33.5833084
  37.8592638  87.5421295  17.1040136  38.3717159  88.3364546  17.2545701
  38.5115351  86.8447586  17.0373738  39.6687523  90.6587052  19.1862890
  39.8454151  91.5805016  18.9983873  40.4644357  90.3445471  19.6157269
  43.8098542  77.5195316  30.7846823  44.5508255  78.1202469  30.7051285
  44.0416464  76.7772954  30.2264866  38.9539880  82.7051684  29.0625053
  38.8393395  81.8036941  29.3632152  38.0984397  82.9515380  28.7109869
  46.0331717  90.6469424  30.6612553  45.5895572  89.8605802  30.3433458
  46.6948931  90.8348574  29.9956444  40.7918839  92.1765225  25.1873232
  41.3426264  92.0482289  24.4150226  39.9530314  92.4760114  24.8368125
  48.1312955  90.9272224  28.6893955  48.1131431  91.7481105  28.1974224
  49.0532876  90.8026299  28.9144096  44.5886010  88.4416353  29.5317463
  45.1214346  87.6804641  29.3016771  44.0600091  88.1490005  30.2741617
  47.7555705  73.5476419  25.0611105  47.4119974  74.4378061  24.9850215
  48.1234667  73.3578077  24.1980690  35.8241555  85.8709950  17.8799707
  36.6616777  86.2806958  17.6633415  36.0019823  84.9309392  17.8499901
  47.7205987  83.5385030  13.5683540  47.2052611  84.3089635  13.8071927
  47.4483296  82.8650167  14.1916601  45.3053098  78.3834731  18.6268778
  44.4494695  77.9941582  18.4474417  45.7180050  78.4626692  17.7668564
  46.8352245  75.9181074  23.0260338  46.3317041  75.8811210  22.2128143
  47.1282852  76.8273817  23.0856995  43.0795131  76.0019804  22.0326520
  43.9448128  75.8062613  21.6732409  43.1472640  75.7730156  22.9595876
  52.6940261  86.2917385  15.5036713  51.9169704  85.9528544  15.0591875
  53.3731742  86.2970008  14.8291678  47.5092290  81.4112122  15.3943321
  47.2042426  81.7258272  16.2453464  48.4622733  81.4893542  15.4370654
  45.9538722  87.5702346  17.0436275  45.4260084  86.8355105  16.7309512
  45.4526225  88.3477022  16.7976243  50.9331568  85.7651366  22.1603321
  50.2755243  86.4550628  22.2483450  51.7371968  86.1547798  22.5037308
  40.6857450  78.2322012  19.4042886  41.2601202  78.0097194  18.6716079
  41.2728432  78.3010707  20.1571488  49.7437027  84.1195739  20.2107263
  50.2568909  84.7525731  20.7128973  50.3938251  83.5196934  19.8450623
  41.0127037  80.2626473  13.4238772  40.1764349  80.6001160  13.7448046
  40.8731807  80.1275453  12.4865909  42.9880118  75.1063261  18.1317956
  42.3344530  74.7912278  17.5074571  42.9460592  74.4839001  18.8577779
  44.0991322  85.3882556  10.0471248  43.1918384  85.1571809  10.2462397
  44.5962354  84.5920175  10.2345230  47.0059401  94.0980063  12.9667934
  46.3321100  94.4011760  13.5752892  47.3925223  94.9009144  12.6173391
  46.2217858  81.5945194  22.4565604  45.3040419  81.8160141  22.2987292
  46.6378002  81.6691505  21.5977311  47.0052906  82.9936610  17.5868284
  47.7524725  83.5058007  17.2775406  47.2744495  82.6720663  18.4472677
  45.2779556  85.4895151  14.5695238  44.3690775  85.2054184  14.6667708
  45.3074640  85.9094229  13.7098545  50.5098823  89.1001740  18.3386406
  50.0561150  88.2592650  18.3951596  49.8792790  89.7363139  18.6761186
  49.4531743  80.0293726  19.5687073  48.7154500  79.5171113  19.8997316
  49.7058516  79.5894108  18.7570350  48.9531763  90.9378237  19.2736224
  49.2454737  91.4983294  18.5548589  49.4630383  91.2306798  20.0289383
  49.5543370  72.8069978  20.1628842  49.8602247  71.9467342  19.8754757
  50.2795975  73.3987599  19.9627836  35.8467726  83.2100665  18.5510440
  35.6492126  82.6170026  17.8261507  35.2914390  82.9052875  19.2686379
  43.8264450  83.1023771  20.6705033  43.8813060  82.1497608  20.5947510
  43.0155652  83.2583211  21.1546332  44.9755644  87.0303895  11.9083317
  44.5375074  86.3139753  11.4488954  45.7166085  87.2580009  11.3468408
  41.7656810  81.7200831  18.4295412  40.9524675  82.0195002  18.8360604
  42.2615804  81.3256520  19.1469895  43.9165388  91.7158588  20.3629677
  43.8741567  91.9419434  19.4338209  44.8328087  91.4821963  20.5115478
  47.3631022  82.1842656  27.2610306  47.7180409  82.4114129  28.1204772
  48.0103153  82.5161033  26.6387562  53.0928759  85.3061092  17.9659635
  52.9546657  85.4962688  17.0380824  52.7364977  86.0680474  18.4227686
  41.2570885  79.2919187  24.0456647  41.8970264  79.1507946  23.3479611
  40.4248415  79.0053700  23.6695249  53.1198138  87.3737619  22.9770907
  53.5534645  87.2812908  23.8253961  53.8329719  87.3495119  22.3390923
  42.0331189  88.5921617  20.1591640  42.8271787  88.0971937  19.9574215
  41.3222881  88.0639480  19.7959345  46.8526033  90.9739713  24.5104007
  46.9063055  91.5430649  25.2781723  45.9840814  91.1441598  24.1458044
  38.3413952  82.7364699  16.2351392  37.4111540  82.6749154  16.4521355
  38.4371424  82.2140652  15.4388034  38.2599501  79.2619512  18.8229634
  38.5206318  80.1764845  18.7138795  39.0816673  78.7943954  18.9726247
  39.7324426  80.6757269  25.9928459  40.4047480  80.4674631  25.3441108
  38.9054213  80.4779355  25.5533691  53.9813688  87.4161319  25.5103792
  54.1749578  88.3207130  25.7563067  53.8814306  86.9568738  26.3442377
  45.6349998  77.3019210  28.0094119  44.9877913  78.0009160  27.9158596
  46.4051014  77.7355354  28.3770368  49.0428796  87.5668062  31.0844673
  48.8914303  87.3378614  30.1674756  49.0333476  88.5238663  31.0976018
  45.8114133  85.1399975  26.0690939  46.7406193  85.2911134  25.8959907
  45.3905163  85.2283996  25.2139586  44.6102465  89.1650639  23.8389477
  44.4713550  88.7969424  24.7115415  43.8217061  89.6798279  23.6673435
  45.2050617  94.2659736  15.1815013  45.3802372  93.7947779  15.9960636
  44.5183405  94.8925502  15.4096274  46.1607680  88.5432242  21.2278315
  45.8257512  88.5033012  22.1235964  45.6611625  87.8776958  20.7548725
  40.1351924  83.9499872  26.7530896  39.9971722  83.2180111  27.3542435
  41.0456847  83.8608772  26.4715084  49.0966871  85.8888276  11.5015374
  48.4796042  85.1635104  11.4048427  48.6283360  86.6497636  11.1582449
  42.7634224  83.6619831  26.2414575  43.4733843  83.0213023  26.2001194
  42.7203532  83.9132726  27.1640756  50.7521003  90.5987185  29.1621155
  50.6933549  89.9146405  28.4951738  51.1540521  91.3406175  28.7101781
  41.4763158  80.6485049  28.0610215  40.9400515  80.1975788  28.7131811
  40.8879867  80.7830958  27.3180679  39.7711702  97.4149098  21.9554874
  40.0108300  98.0467623  22.6333892  38.9280898  97.0637138  22.2420233
  40.8865417  80.1073701  10.6236679  40.0094884  79.9862501  10.2598925
  41.3623170  79.3159779  10.3715567  50.7538410  88.5626769  27.3935134
  49.8665189  88.2252690  27.5161533  51.3236961  87.8309800  27.6303900
  32.4067557  84.8950860  20.7178186  33.0938597  84.5812590  20.1299201
  32.2515686  85.7992225  20.4445437  37.2102280  79.7841057  25.1463209
  37.1260468  79.1766726  24.4113619  36.3884986  80.2750075  25.1472706
  44.2839564  93.2228221  24.3596378  44.2109735  94.0283192  24.8715682
  43.8416957  93.4220187  23.5344399  44.0729343  92.4599991  17.8699199
  43.2896865  93.0021671  17.9637424  44.7722088  92.9773971  18.2693440
  47.3825993  78.2694620  20.5133404  47.8794693  77.5164583  20.1934475
  46.6112975  78.3058937  19.9476614  55.2355751  83.9734986  22.1551696
  55.2245627  84.8559701  21.7845629  54.3673130  83.6206537  21.9606233
  46.7438247  93.1215055  26.5154536  47.4566219  93.7562520  26.4430438
  46.2528276  93.2178921  25.6994538  48.4655774  87.0266308  18.0871828
  47.5312053  87.1467770  17.9176532  48.6432443  86.1238774  17.8231838
  43.9660962  80.4112003  20.2405089  43.5958750  79.8583044  20.9285995
  44.4620055  79.8070137  19.6880089  51.8528325  82.8683627  18.6221862
  52.3188778  83.7011618  18.5482165  52.3035826  82.4028608  19.3267120
  41.7950161  90.8709498  27.3360107  42.4959620  91.5045981  27.4889501
  41.3245276  91.2124230  26.5755746  49.9204557  89.2127448  15.6208014
  50.1964400  89.0984043  16.5301888  49.0509055  88.8144933  15.5820187
  49.8244988  75.2364214  22.6612763  48.9108068  75.4668441  22.8294970
  50.2538090  75.3202658  23.5126796  49.5951447  83.4254106  25.1612657
  48.9422897  83.6730013  24.5065110  49.9731827  82.6118244  24.8275135
  46.5558621  93.4613799  19.2640828  46.7381015  92.6435455  19.7268580
  47.3791607  93.6781491  18.8265718  46.8900786  92.3881984  16.5255876
  47.4188552  91.8774439  15.9126038  47.1529006  92.0724514  17.3901409
  45.6439020  84.1673917  31.6478694  44.9679657  84.0668046  32.3181070
  46.4666654  84.0113131  32.1114692  37.3917879  90.4045853  24.2691210
  37.9771316  89.6589541  24.4019114  37.1942717  90.7149810  25.1527874
  40.2456534  93.4397101  19.2853652  39.5766909  93.9243228  18.8017692
  40.1069404  93.6866321  20.1997031  31.9835534  82.9751454  22.9895653
  32.0219633  82.4415044  23.7832771  31.4775826  82.4486659  22.3706630
  44.3861803  95.4740844  25.8836310  44.9380111  95.6372466  26.6485396
  44.7267996  96.0645282  25.2116335  39.3626296  77.8215994  26.4858195
  39.4267622  78.6830825  26.0735593  39.2993416  77.2089996  25.7530554
  38.8378568  79.8939127  30.1331229  39.4650607  79.5116204  30.7468754
  37.9806487  79.6753329  30.4986922  49.2372677  90.3002102  31.7384965
  49.7812581  90.9132060  31.2439920  48.6559522  90.8581680  32.2551978
  35.6144111  81.7015556  16.0649584  35.9097552  80.7926234  16.0116638
  34.7132147  81.6803295  15.7430587  47.5230190  93.4222820  22.8699993
  47.3981329  92.6212560  22.3610938  48.1809281  93.9169013  22.3813963
  39.1438358  79.7771552  22.0477133  38.4224944  80.3907520  21.9084606
  39.9331614  80.3129317  21.9693779  49.5865098  91.2231840  24.4979543
  48.6395434  91.1037191  24.4257869  49.9347871  90.3354338  24.5805804
  41.9464672  77.1125979  28.3217785  42.4699073  77.3588275  29.0844094
  41.7277005  77.9446014  27.9020922  37.3431953  79.3829653  16.1888909
  37.0144659  78.5027032  16.0064015  37.6971323  79.3277322  17.0765299
  46.5911532  91.0184556  20.6983895  46.4436494  90.0901264  20.8791465
  47.4165025  91.0404647  20.2140970  40.4573776  79.6702623  16.5564387
  40.7969848  80.1988544  15.8342995  40.9045896  80.0083029  17.3322954
  50.1945653  91.8413115  21.7848768  51.1192201  91.6355976  21.6473219
  50.0260957  91.5929516  22.6938109  43.1517217  78.0539674  26.0067455
  42.8114037  77.2547487  26.4088135  42.4456223  78.3541385  25.4344288
  43.8033688  75.1388986  24.4594778  44.6259758  74.6649465  24.3373668
  44.0471752  75.9179470  24.9593464  42.4441923  78.1677245  14.7557680
  43.1650285  78.5458498  14.2521397  41.8207227  78.8866122  14.8592658
  46.5873046  78.8722394  15.6916012  46.8036660  79.7547032  15.3904840
  46.1067113  78.4808607  14.9621654  41.3272267  81.8308107  22.2686757
  41.1816848  82.1448410  23.1611038  40.8497471  82.4493007  21.7157655
  43.1868650  78.8210655  22.3167646  43.1730219  77.9251748  21.9799944
  43.9041078  78.8281319  22.9505932  45.0394781  79.2547995  24.3620774
  44.7812559  80.1765066  24.3605104  44.5079821  78.8578430  25.0521238
  49.9840970  92.3598782  17.1410859  50.1577847  91.7945205  16.3884712
  50.4769861  93.1599677  16.9590349  35.8017929  84.3713451  25.2074418
  35.2571397  85.1473259  25.3394692  36.6797279  84.7184256  25.0493539
  42.5905546  77.7025035  17.5855216  42.7121457  76.7741681  17.7846104
  42.3007588  77.7163721  16.6733532  45.4596736  75.3879946  20.7221936
  45.4818433  75.4519279  19.7673916  45.8764795  74.5484454  20.9162442
  55.8380361  85.1235205  18.7601159  56.2811507  84.3742530  18.3620282
  54.9606871  85.1145342  18.3774891  50.9716142  91.6765547  14.2407757
  51.6667047  92.2972239  14.4595072  51.3139292  90.8260898  14.5160135
  36.5883951  83.4983348  28.1004575  35.8465687  83.6465983  28.6869205
  36.2676696  83.7591613  27.2371324  52.8707565  89.1265252  15.7695088
  53.3958889  89.4652525  15.0444408  52.7829918  88.1912268  15.5858223
  44.5327614  93.0399326  27.8984965  44.8414740  92.7948473  28.7707664
  45.3303096  93.2445964  27.4103835  44.5548226  95.1937236  20.1290341
  44.1153216  94.7013614  20.8223198  45.3056343  94.6510203  19.8882417
  37.0340565  91.3848776  20.1314969  37.8598585  91.0852548  19.7513613
  36.6834617  90.6156399  20.5804758  42.0022098  90.7375245  22.2012643
  41.3802107  90.0745950  21.9014871  42.6726965  90.7636377  21.5186291
  35.2349170  89.3035103  21.0903903  34.3981078  88.8757277  20.9087904
  35.2072815  89.4967546  22.0274694  42.0746626  79.2157033  31.7945149
  42.1234781  80.0919155  31.4122919  42.6169140  78.6734426  31.2216792
  52.5601471  89.7598156  31.0746286  51.7697015  89.7422295  30.5350786
  52.3234826  90.2986450  31.8295323  52.6799346  86.6090622  28.3879015
  52.7297351  86.4440630  29.3294537  52.5713270  85.7417881  27.9976895
  41.5635605  89.2879168  15.6771104  41.7123725  89.9714632  15.0237776
  42.3702048  89.2684258  16.1920559  49.9703109  82.5921550  29.7038321
  50.8712971  82.4528015  29.4122319  50.0451083  82.7576005  30.6436499
  44.3045914  79.9688405  28.5491508  43.4349223  80.2621971  28.2774096
  44.5405394  80.5528850  29.2698771  54.1817543  89.0287564  28.6321036
  53.8902351  89.3917544  29.4684497  53.5689674  88.3154572  28.4534368
  55.3813225  86.5940444  21.1523606  56.2160117  87.0330248  21.3161167
  55.5172354  86.1179097  20.3331852  52.4304731  84.1520178  27.1001094
  52.9058853  84.3447825  26.2919946  51.5070297  84.2079364  26.8544478
  39.3188238  85.3144346  16.6832172  39.0734280  84.4106676  16.8812383
  39.4884153  85.3161496  15.7411650  47.0084948  76.1868022  26.0656928
  47.5266892  76.9229049  25.7403417  46.6540081  76.4932015  26.9003687
  38.5883886  81.0472703  14.1818334  37.8953130  81.1217058  13.5258370
  38.3435637  80.2833047  14.7039851  47.2597542  72.6068305  21.5857825
  47.5399296  71.9391494  22.2118251  48.0448149  72.7997400  21.0732488
  45.0631011  91.7827298  13.1482851  44.4904978  92.4017486  12.6953323
  45.6363804  92.3326660  13.6822773  51.1306400  81.0285938  25.3329400
  52.0823823  81.1284036  25.3541624  50.9609851  80.2364207  25.8427484
  49.1520780  78.1141522  25.5188801  48.5570712  78.3946534  24.8235289
  48.8670477  78.6035423  26.2905542  48.2828270  92.0664449  14.2791433
  49.2158943  92.0010010  14.4824309  48.1951483  92.9020715  13.8205966
  50.9116287  91.3830319  11.2395381  50.8329919  91.0490182  12.1331139
  51.7325954  91.8752087  11.2386853  53.6094478  84.2492058  24.4471699
  53.5770798  83.3108059  24.6331383  54.2195102  84.3276095  23.7137524
  45.4477809  83.1188111  10.4898903  46.3936914  82.9894319  10.5587321
  45.0692054  82.3802773  10.9668332  53.7588967  81.0403102  24.4929983
  53.2428015  80.2561558  24.3059911  54.6428915  80.7121818  24.6576502
  51.4199694  74.7844117  20.4525795  51.2224515  74.4759205  21.3369127
  52.0299399  75.5105756  20.5823725  59.4271028  85.3108065  23.5877736
  60.1574417  85.0493353  24.1485440  58.8177974  84.5736787  23.6279804
  57.5086325  83.4515928  24.1852187  56.7819489  83.3171893  23.5768679
  57.0933612  83.7592756  24.9908905  45.3316502  87.1705857  31.9499560
  46.2519511  87.3484456  32.1439607  45.2966085  86.2261903  31.7979260
  43.6320726  81.0438088  10.4253789  42.7252182  80.7471200  10.5016502
  43.9096707  80.7467906   9.5588075  34.5498667  82.3644451  20.8752835
  34.2301451  81.5109759  20.5827209  34.0032095  82.5793029  21.6310802
  38.3278574  85.0806892  24.5922342  38.5464584  86.0124000  24.6110375
  38.7404348  84.7214866  25.3777145  45.2482792  75.5874977  16.5798030
  44.4383520  75.2422062  16.9553276  45.9367209  75.2782521  17.1685642
  47.1773340  74.6653024  18.2022327  47.7304379  75.0848477  18.8612350
  47.4143427  73.7388772  18.2445283  43.2006439  80.6540098  33.9825091
  43.1003166  81.6034455  33.9137182  42.9827981  80.3258337  33.1101161
  42.4019511  77.9025023  10.5665768  43.2638675  78.2279921  10.8261585
  42.5869855  77.1156519  10.0538834  34.4186927  85.9847362  22.8445957
  33.7250398  85.5701315  22.3315911  35.1659918  86.0267899  22.2479376
  50.5552147  76.7753549  17.7100991  49.9750816  77.4338353  17.3279043
  50.2888080  75.9530894  17.2988408  49.0055714  76.1758607  19.9122311
  49.5055492  76.2875141  19.1036630  49.6491322  75.8719660  20.5523120
  43.0637710  84.0837237  32.7990152  42.5804791  84.8837597  33.0054041
  43.1498649  84.0945181  31.8457596  36.3323669  85.9165616  20.7211972
  36.3094357  86.0153303  19.7693855  36.6424306  86.7630767  21.0429138
  38.9911047  87.9741771  24.8358586  39.9454301  87.9425714  24.7688518
  38.7923571  87.5132395  25.6508812  39.5810429  86.5442887  27.4029384
  40.4003318  87.0386966  27.4264221  39.8547237  85.6274855  27.3746951
  49.3377025  78.9353640  16.7657339  48.4502880  79.2203290  16.5477534
  49.7531014  78.7747403  15.9184616  52.6891561  78.9600161  20.4811678
  53.4651952  79.4496613  20.7536295  51.9639696  79.3858215  20.9383548
  55.1264120  79.6727780  21.5385619  55.7208611  79.4323516  20.8278927
  55.1990704  78.9534910  22.1659155  37.3461276  93.5161391  21.8528784
  37.2115744  92.7561792  21.2866782  36.9293338  94.2402291  21.3857573
  48.4820239  88.6998314  10.8605359  49.1856089  88.9048317  11.4763015
  47.7582888  89.2675076  11.1254443  49.3118049  84.4508176  16.9807629
  49.2553250  84.9076727  16.1415262  49.8646392  83.6898860  16.8030472
  53.1222855  80.2397907  17.8057749  52.8659789  79.8394543  18.6365956
  52.4975723  80.9541701  17.6807888  57.4335193  82.9793981  20.3129040
  56.8734751  83.0487170  21.0860602  56.8278696  82.8034965  19.5928536
  40.5030402  94.4130708  22.0647226  40.3862786  95.3576140  21.9625917
  39.6822848  94.1104269  22.4533026  50.3906936  89.1380843  12.9103819
  51.2252540  88.7062042  12.7281294  50.2291279  88.9662857  13.8380714
  50.0452828  85.6412957  14.2760158  49.9901632  85.4757228  13.3348603
  49.4198884  86.3488990  14.4322348  34.8345343  80.8781021  28.1021581
  35.4804207  80.3679975  28.5908806  34.6262494  81.6149703  28.6765006
  47.3598736  87.9461869  33.6013721  48.2289895  88.1202521  33.2400356
  46.8805487  88.7656285  33.4789451  43.3548954  75.1421066  13.8545477
  43.3427624  76.0862906  14.0113748  44.2472376  74.9591211  13.5604938
  41.5284916  95.0658970  25.2803155  42.4312162  95.0982580  25.5969650
  41.3022286  94.1359421  25.2949491  43.2838518  93.8189956  21.9413234
  42.3334149  93.8191818  21.8277606  43.5871004  93.0722691  21.4249268
  47.1701073  71.7363842  18.1091414  46.4033469  71.1822329  18.2548096
  47.5811778  71.8085711  18.9705565  39.1742834  78.0248638  32.1996595
  40.0374296  77.6685443  32.4099920  38.6008245  77.6862533  32.8871999
  59.0191211  99.6550495  23.0058996  59.6569621  99.5357242  22.3022336
  58.9012054 100.6031339  23.0646948  55.8280918  99.6077923  22.9420521
  55.4899429  99.4918987  22.0541055  56.6970686  99.2069088  22.9221527
  51.6867733 101.4613399  18.9317412  51.1232598 101.3703336  18.1633699
  51.5720128 100.6413304  19.4119904  56.3100701 100.7612774  28.9006726
  56.2989341 100.3665573  28.0287230  56.4721340 100.0278847  29.4940498
  49.2332165 102.9564591  21.7701632  50.0253457 102.6155415  21.3547931
  49.4728815 103.0659566  22.6903785  57.2667292 105.1284367  14.2431876
  56.6155272 105.7138447  13.8565890  58.0611655 105.6590562  14.3026914
  51.1922919 102.2173504  14.6419011  51.9653795 101.6702491  14.5031887
  51.5448318 103.0817753  14.8533472  53.0307962 103.5449886  27.8485910
  52.7397828 104.4495517  27.7332576  53.6664946 103.5866414  28.5629980
  53.9564169 100.9226735  24.4387270  54.5527741 100.6982757  23.7244233
  54.0139140 100.1811480  25.0412718  53.5289197  98.3766170  12.2737461
  53.7814718  97.8547691  11.5120924  52.5913756  98.2132316  12.3764144
  58.5732480  97.3801948  20.0812204  59.3595569  96.9621372  19.7302621
  58.8371184  98.2848041  20.2493852  58.7442557 102.8174799  14.7800861
  58.1088390 102.8909425  15.4921765  58.4139964 103.4068398  14.1019940
  63.9740907  97.3177182  20.9845182  64.7066079  96.7476398  21.2183012
  63.2180263  96.9298782  21.4251688  53.2485486 100.2794276  14.4761836
  53.1321744  99.6039179  15.1442920  53.3587746  99.7926650  13.6593989
  55.5917027  99.7404423  18.1808525  55.2275234  99.2135044  18.8921446
  56.4484143  99.3502892  18.0075010  61.4966327  91.0298756  25.4439791
  61.1649652  91.8994167  25.2201006  60.9011941  90.7135040  26.1233821
  55.2322514  94.7694323  13.1769873  55.3996916  95.6374559  13.5440345
  55.0419683  94.9321605  12.2531163  57.9897847 103.2311302  24.8435704
  57.6898570 104.1336341  24.7351511  57.6448906 102.9643485  25.6956857
  51.4410328  99.6825099  20.8772408  50.5160825  99.5501313  21.0850100
  51.6894741 100.4619318  21.3742351  61.3894991  95.7493842  22.5233141
  60.4811868  95.6809250  22.2291902  61.3382586  96.2265787  23.3514967
  55.2111734  97.2251980  14.1616540  55.0911360  97.6709031  15.0002021
  54.5164323  97.5737298  13.6030078  48.8019139  99.3258372  21.7116197
  48.9311520  99.5792851  22.6255609  48.1216591  99.9186080  21.3920852
  52.9718627 109.9955622  17.8106672  52.8942656 110.9463447  17.8895152
  52.3680270 109.6501495  18.4681598  55.4635856  97.1683488  30.4668038
  54.6869190  97.7277408  30.4570903  56.1026419  97.6540270  30.9882909
  63.2556637  93.9510280  24.3011015  62.6131017  94.2442813  23.6550810
  62.7511566  93.8363201  25.1064212  60.9096801  97.6973454  14.9896874
  61.8214657  97.9300840  14.8144572  60.4006448  98.2810498  14.4271953
  53.7182229  99.9768941  30.0286005  54.4596913 100.5153985  29.7520829
  53.0119214 100.6035230  30.1857557  59.1937568 102.1198081  28.6258167
  59.6020924 101.6780492  27.8812799  58.4714830 101.5450709  28.8792360
  55.5468638  97.0570688  25.9991724  56.3929834  97.4810102  26.1426373
  55.4867276  96.4004312  26.6930287  59.5166383 102.6799272  22.3810456
  58.8875245 102.8444986  21.6786524  59.1292045 103.0940882  23.1521420
  63.3955615 103.6153710  19.7354820  62.7106653 103.9952611  19.1851853
  63.4799464 104.2249036  20.4686767  58.6968084  94.7175056  27.6572897
  58.4529016  95.4717117  27.1207173  58.9728014  95.0960404  28.4920145
  60.6506546 101.2613669  26.3350163  60.8623442 101.9045429  25.6584544
  60.6036295 100.4275985  25.8672093  58.2532775  93.8731489  23.2386735
  57.3917254  94.1712743  23.5303473  58.2795210  94.0901888  22.3067768
  55.0694345 102.4173680  19.6460541  55.5332690 102.6961383  18.8565163
  54.8051143 101.5157125  19.4633632  51.9618426 101.9645162  22.5840304
  52.5319783 102.3932430  21.9457789  52.5526538 101.6827746  23.2824490
  54.0063231  98.5396832  16.4550106  54.7087274  98.9917876  16.9224032
  53.6743859  97.8980651  17.0829999  52.4543592  97.1308589  30.8301315
  51.8242253  97.8124870  31.0636712  52.3479680  97.0191671  29.8854454
  47.7488565  96.7980385  21.7567240  46.9587619  97.0537914  21.2807350
  48.2399812  97.6128723  21.8619280  61.7652374 104.1385624  24.5072520
  62.5869818 103.7365812  24.2255202  61.7614777 104.0353858  25.4588636
  49.7003310  97.1624964  18.7150716  48.9034473  97.2743659  19.2334212
  49.4728902  97.5011617  17.8491607  55.5308978 103.6869668  26.6633231
  55.5953410 104.1490075  27.4991403  54.8219902 103.0567032  26.7915541
  46.0326268  97.0510876  24.1882230  46.2834306  97.9357885  24.4539806
  46.5685816  96.8715477  23.4157322  69.8558367 100.4824373  20.8557492
  69.1022076  99.9131771  20.7001496  69.9905909 100.4487037  21.8028127
  55.2456995 105.3537775  16.5312211  55.1102670 106.1989311  16.9597059
  55.7866808 105.5557053  15.7678145  51.7324335  91.4329355  33.1926566
  51.3391281  90.8795553  33.8674211  52.5490475  91.7439933  33.5833084
  48.6986393 102.8713213  17.1040136  49.2110913 103.6656463  17.2545701
  49.3509106 102.1739504  17.0373738  50.5081278 105.9878969  19.1862890
  50.6847906 106.9096934  18.9983873  51.3038111 105.6737389  19.6157269
  54.6492296  92.8487234  30.7846823  55.3902009  93.4494387  30.7051285
  54.8810219  92.1064872  30.2264866  49.7933634  98.0343601  29.0625053
  49.6787149  97.1328858  29.3632152  48.9378152  98.2807298  28.7109869
  56.8725472 105.9761342  30.6612553  56.4289326 105.1897720  30.3433458
  57.5342685 106.1640492  29.9956444  51.6312593 107.5057143  25.1873232
  52.1820018 107.3774207  24.4150226  50.7924069 107.8052032  24.8368125
  58.9706710 106.2564141  28.6893955  58.9525185 107.0773023  28.1974224
  59.8926630 106.1318217  28.9144096  55.4279764 103.7708271  29.5317463
  55.9608101 103.0096559  29.3016771  54.8993845 103.4781923  30.2741617
  58.5949459  88.8768337  25.0611105  58.2513728  89.7669979  24.9850215
  58.9628422  88.6869995  24.1980690  46.6635310 101.2001867  17.8799707
  47.5010532 101.6098876  17.6633415  46.8413577 100.2601310  17.8499901
  58.5599742  98.8676948  13.5683540  58.0446365  99.6381553  13.8071927
  58.2877050  98.1942084  14.1916601  56.1446853  93.7126649  18.6268778
  55.2888449  93.3233499  18.4474417  56.5573805  93.7918610  17.7668564
  57.6745999  91.2472992  23.0260338  57.1710795  91.2103127  22.2128143
  57.9676606  92.1565735  23.0856995  53.9188885  91.3311722  22.0326520
  54.7841882  91.1354530  21.6732409  53.9866394  91.1022074  22.9595876
  63.5334016 101.6209303  15.5036713  62.7563459 101.2820462  15.0591875
  64.2125497 101.6261926  14.8291678  58.3486045  96.7404040  15.3943321
  58.0436181  97.0550189  16.2453464  59.3016487  96.8185460  15.4370654
  56.7932477 102.8994263  17.0436275  56.2653838 102.1647023  16.7309512
  56.2919980 103.6768940  16.7976243  61.7725323 101.0943284  22.1603321
  61.1148997 101.7842545  22.2483450  62.5765722 101.4839716  22.5037308
  51.5251204  93.5613930  19.4042886  52.0994956  93.3389111  18.6716079
  52.1122187  93.6302624  20.1571488  60.5830782  99.4487657  20.2107263
  61.0962663 100.0817648  20.7128973  61.2332006  98.8488852  19.8450623
  51.8520792  95.5918391  13.4238772  51.0158104  95.9293077  13.7448046
  51.7125561  95.4567371  12.4865909  53.8273872  90.4355179  18.1317956
  53.1738284  90.1204196  17.5074571  53.7854346  89.8130919  18.8577779
  54.9385077 100.7174474  10.0471248  54.0312139 100.4863727  10.2462397
  55.4356109  99.9212093  10.2345230  57.0611612  96.9237112  22.4565604
  56.1434174  97.1452059  22.2987292  57.4771756  96.9983423  21.5977311
  57.8446660  98.3228528  17.5868284  58.5918479  98.8349925  17.2775406
  58.1138250  98.0012581  18.4472677  56.1173310 100.8187069  14.5695238
  55.2084530 100.5346101  14.6667708  56.1468394 101.2386147  13.7098545
  61.3492578 104.4293658  18.3386406  60.8954905 103.5884568  18.3951596
  60.7186545 105.0655056  18.6761186  60.2925497  95.3585644  19.5687073
  59.5548254  94.8463030  19.8997316  60.5452271  94.9186026  18.7570350
  59.7925517 106.2670155  19.2736224  60.0848491 106.8275212  18.5548589
  60.3024138 106.5598716  20.0289383  60.3937125  88.1361896  20.1628842
  60.6996002  87.2759260  19.8754757  61.1189730  88.7279516  19.9627836
  46.6861481  98.5392583  18.5510440  46.4885881  97.9461943  17.8261507
  46.1308145  98.2344793  19.2686379  54.6658204  98.4315689  20.6705033
  54.7206814  97.4789526  20.5947510  53.8549406  98.5875128  21.1546332
  55.8149398 102.3595812  11.9083317  55.3768828 101.6431671  11.4488954
  56.5559839 102.5871927  11.3468408  52.6050564  97.0492749  18.4295412
  51.7918430  97.3486919  18.8360604  53.1009559  96.6548438  19.1469895
  54.7559142 107.0450506  20.3629677  54.7135321 107.2711352  19.4338209
  55.6721841 106.8113880  20.5115478  58.2024776  97.5134573  27.2610306
  58.5574164  97.7406047  28.1204772  58.8496907  97.8452950  26.6387562
  63.9322513 100.6353009  17.9659635  63.7940412 100.8254605  17.0380824
  63.5758732 101.3972392  18.4227686  52.0964639  94.6211104  24.0456647
  52.7364018  94.4799864  23.3479611  51.2642170  94.3345618  23.6695249
  63.9591893 102.7029536  22.9770907  64.3928399 102.6104825  23.8253961
  64.6723473 102.6787037  22.3390923  52.8724943 103.9213535  20.1591640
  53.6665542 103.4263855  19.9574215  52.1616635 103.3931398  19.7959345
  57.6919788 106.3031630  24.5104007  57.7456810 106.8722567  25.2781723
  56.8234569 106.4733515  24.1458044  49.1807707  98.0656617  16.2351392
  48.2505295  98.0041072  16.4521355  49.2765179  97.5432569  15.4388034
  49.0993256  94.5911429  18.8229634  49.3600073  95.5056763  18.7138795
  49.9210428  94.1235872  18.9726247  50.5718181  96.0049187  25.9928459
  51.2441234  95.7966549  25.3441108  49.7447967  95.8071273  25.5533691
  64.8207442 102.7453237  25.5103792  65.0143332 103.6499047  25.7563067
  64.7208060 102.2860656  26.3442377  56.4743753  92.6311128  28.0094119
  55.8271668  93.3301077  27.9158596  57.2444768  93.0647271  28.3770368
  59.8822551 102.8959980  31.0844673  59.7308057 102.6670531  30.1674756
  59.8727230 103.8530581  31.0976018  56.6507887 100.4691892  26.0690939
  57.5799947 100.6203052  25.8959907  56.2298917 100.5575913  25.2139586
  55.4496219 104.4942557  23.8389477  55.3107305 104.1261341  24.7115415
  54.6610815 105.0090196  23.6673435  56.0444371 109.5951653  15.1815013
  56.2196127 109.1239697  15.9960636  55.3577159 110.2217420  15.4096274
  57.0001434 103.8724160  21.2278315  56.6651267 103.8324930  22.1235964
  56.5005380 103.2068875  20.7548725  50.9745678  99.2791790  26.7530896
  50.8365476  98.5472028  27.3542435  51.8850602  99.1900690  26.4715084
  59.9360626 101.2180194  11.5015374  59.3189796 100.4927022  11.4048427
  59.4677114 101.9789554  11.1582449  53.6027979  98.9911749  26.2414575
  54.3127597  98.3504941  26.2001194  53.5597287  99.2424644  27.1640756
  61.5914757 105.9279102  29.1621155  61.5327304 105.2438322  28.4951738
  61.9934276 106.6698092  28.7101781  52.3156913  95.9776967  28.0610215
  51.7794270  95.5267705  28.7131811  51.7273621  96.1122876  27.3180679
  50.6105456 112.7441016  21.9554874  50.8502055 113.3759540  22.6333892
  49.7674653 112.3929056  22.2420233  51.7259172  95.4365618  10.6236679
  50.8488638  95.3154419  10.2598925  52.2016925  94.6451696  10.3715567
  61.5932165 103.8918686  27.3935134  60.7058944 103.5544608  27.5161533
  62.1630716 103.1601717  27.6303900  43.2461312 100.2242778  20.7178186
  43.9332352  99.9104508  20.1299201  43.0909441 101.1284143  20.4445437
  48.0496034  95.1132974  25.1463209  47.9654223  94.5058644  24.4113619
  47.2278740  95.6041993  25.1472706  55.1233318 108.5520139  24.3596378
  55.0503490 109.3575110  24.8715682  54.6810711 108.7512104  23.5344399
  54.9123098 107.7891909  17.8699199  54.1290620 108.3313589  17.9637424
  55.6115843 108.3065888  18.2693440  58.2219748  93.5986538  20.5133404
  58.7188447  92.8456500  20.1934475  57.4506729  93.6350855  19.9476614
  66.0749505  99.3026904  22.1551696  66.0639382 100.1851619  21.7845629
  65.2066885  98.9498454  21.9606233  57.5832002 108.4506973  26.5154536
  58.2959974 109.0854437  26.4430438  57.0922030 108.5470839  25.6994538
  59.3049529 102.3558225  18.0871828  58.3705807 102.4759688  17.9176532
  59.4826197 101.4530692  17.8231838  54.8054717  95.7403921  20.2405089
  54.4352504  95.1874961  20.9285995  55.3013809  95.1362054  19.6880089
  62.6922080  98.1975545  18.6221862  63.1582532  99.0303536  18.5482165
  63.1429580  97.7320526  19.3267120  52.6343915 106.2001416  27.3360107
  53.3353375 106.8337899  27.4889501  52.1639030 106.5416148  26.5755746
  60.7598311 104.5419366  15.6208014  61.0358155 104.4275960  16.5301888
  59.8902810 104.1436851  15.5820187  60.6638743  90.5656132  22.6612763
  59.7501822  90.7960358  22.8294970  61.0931844  90.6494576  23.5126796
  60.4345201  98.7546023  25.1612657  59.7816651  99.0021931  24.5065110
  60.8125581  97.9410162  24.8275135  57.3952375 108.7905717  19.2640828
  57.5774770 107.9727373  19.7268580  58.2185361 109.0073409  18.8265718
  57.7294541 107.7173902  16.5255876  58.2582307 107.2066356  15.9126038
  57.9922760 107.4016432  17.3901409  56.4832774  99.4965835  31.6478694
  55.8073411  99.3959964  32.3181070  57.3060408  99.3405048  32.1114692
  48.2311633 105.7337771  24.2691210  48.8165070 104.9881459  24.4019114
  48.0336472 106.0441728  25.1527874  51.0850288 108.7689018  19.2853652
  50.4160664 109.2535146  18.8017692  50.9463158 109.0158239  20.1997031
  42.8229288  98.3043371  22.9895653  42.8613388  97.7706962  23.7832771
  42.3169581  97.7778577  22.3706630  55.2255557 110.8032762  25.8836310
  55.7773865 110.9664383  26.6485396  55.5661751 111.3937200  25.2116335
  50.2020050  93.1507912  26.4858195  50.2661377  94.0122743  26.0735593
  50.1387171  92.5381913  25.7530554  49.6772323  95.2231044  30.1331229
  50.3044362  94.8408122  30.7468754  48.8200242  95.0045246  30.4986922
  60.0766431 105.6294019  31.7384965  60.6206335 106.2423978  31.2439920
  59.4953276 106.1873598  32.2551978  46.4537866  97.0307473  16.0649584
  46.7491307  96.1218152  16.0116638  45.5525901  97.0095213  15.7430587
  58.3623944 108.7514738  22.8699993  58.2375084 107.9504477  22.3610938
  59.0203035 109.2460931  22.3813963  49.9832113  95.1063470  22.0477133
  49.2618698  95.7199438  21.9084606  50.7725368  95.6421235  21.9693779
  60.4258853 106.5523758  24.4979543  59.4789188 106.4329109  24.4257869
  60.7741626 105.6646256  24.5805804  52.7858426  92.4417897  28.3217785
  53.3092828  92.6880193  29.0844094  52.5670759  93.2737931  27.9020922
  48.1825707  94.7121571  16.1888909  47.8538413  93.8318950  16.0064015
  48.5365078  94.6569240  17.0765299  57.4305286 106.3476474  20.6983895
  57.2830248 105.4193181  20.8791465  58.2558780 106.3696565  20.2140970
  51.2967530  94.9994541  16.5564387  51.6363603  95.5280462  15.8342995
  51.7439651  95.3374947  17.3322954  61.0339408 107.1705033  21.7848768
  61.9585955 106.9647894  21.6473219  60.8654711 106.9221434  22.6938109
  53.9910971  93.3831592  26.0067455  53.6507792  92.5839405  26.4088135
  53.2849977  93.6833302  25.4344288  54.6427443  90.4680904  24.4594778
  55.4653512  89.9941382  24.3373668  54.8865507  91.2471388  24.9593464
  53.2835677  93.4969162  14.7557680  54.0044040  93.8750415  14.2521397
  52.6600982  94.2158039  14.8592658  57.4266800  94.2014311  15.6916012
  57.6430415  95.0838949  15.3904840  56.9460868  93.8100525  14.9621654
  52.1666022  97.1600025  22.2686757  52.0210602  97.4740328  23.1611038
  51.6891225  97.7784925  21.7157655  54.0262405  94.1502573  22.3167646
  54.0123973  93.2543666  21.9799944  54.7434833  94.1573236  22.9505932
  55.8788535  94.5839913  24.3620774  55.6206313  95.5056984  24.3605104
  55.3473576  94.1870347  25.0521238  60.8234724 107.6890700  17.1410859
  60.9971602 107.1237122  16.3884712  61.3163615 108.4891595  16.9590349
  46.6411684  99.7005369  25.2074418  46.0965152 100.4765177  25.3394692
  47.5191034 100.0476174  25.0493539  53.4299301  93.0316953  17.5855216
  53.5515212  92.1033599  17.7846104  53.1401343  93.0455639  16.6733532
  56.2990491  90.7171863  20.7221936  56.3212188  90.7811196  19.7673916
  56.7158550  89.8776372  20.9162442  66.6774115 100.4527123  18.7601159
  67.1205261  99.7034448  18.3620282  65.8000626 100.4437259  18.3774891
  61.8109897 107.0057464  14.2407757  62.5060801 107.6264157  14.4595072
  62.1533047 106.1552816  14.5160135  47.4277706  98.8275265  28.1004575
  46.6859442  98.9757901  28.6869205  47.1070450  99.0883531  27.2371324
  63.7101320 104.4557170  15.7695088  64.2352644 104.7944443  15.0444408
  63.6223672 103.5204185  15.5858223  55.3721368 108.3691244  27.8984965
  55.6808495 108.1240390  28.7707664  56.1696850 108.5737882  27.4103835
  55.3941980 110.5229153  20.1290341  54.9546971 110.0305532  20.8223198
  56.1450097 109.9802121  19.8882417  47.8734319 106.7140694  20.1314969
  48.6992339 106.4144466  19.7513613  47.5228371 105.9448316  20.5804758
  52.8415853 106.0667162  22.2012643  52.2195862 105.4037867  21.9014871
  53.5120720 106.0928294  21.5186291  46.0742924 104.6327021  21.0903903
  45.2374833 104.2049195  20.9087904  46.0466570 104.8259464  22.0274694
  52.9140380  94.5448950  31.7945149  52.9628536  95.4211073  31.4122919
  53.4562894  94.0026343  31.2216792  63.3995226 105.0890074  31.0746286
  62.6090769 105.0714212  30.5350786  63.1628580 105.6278367  31.8295323
  63.5193101 101.9382540  28.3879015  63.5691106 101.7732547  29.3294537
  63.4107024 101.0709799  27.9976895  52.4029360 104.6171086  15.6771104
  52.5517480 105.3006550  15.0237776  53.2095803 104.5976176  16.1920559
  60.8096863  97.9213468  29.7038321  61.7106726  97.7819933  29.4122319
  60.8844838  98.0867923  30.6436499  55.1439669  95.2980323  28.5491508
  54.2742978  95.5913889  28.2774096  55.3799149  95.8820768  29.2698771
  65.0211298 104.3579481  28.6321036  64.7296106 104.7209462  29.4684497
  64.4083429 103.6446490  28.4534368  66.2206980 101.9232361  21.1523606
  67.0553871 102.3622165  21.3161167  66.3566109 101.4471014  20.3331852
  63.2698486  99.4812096  27.1001094  63.7452607  99.6739742  26.2919946
  62.3464051  99.5371282  26.8544478  50.1581992 100.6436263  16.6832172
  49.9128034  99.7398593  16.8812383  50.3277907 100.6453414  15.7411650
  57.8478702  91.5159940  26.0656928  58.3660646  92.2520967  25.7403417
  57.4933835  91.8223933  26.9003687  49.4277640  96.3764621  14.1818334
  48.7346885  96.4508976  13.5258370  49.1829392  95.6124964  14.7039851
  58.0991297  87.9360222  21.5857825  58.3793050  87.2683411  22.2118251
  58.8841903  88.1289318  21.0732488  55.9024765 107.1119216  13.1482851
  55.3298732 107.7309403  12.6953323  56.4757559 107.6618578  13.6822773
  61.9700155  96.3577856  25.3329400  62.9217578  96.4575954  25.3541624
  61.8003605  95.5656125  25.8427484  59.9914534  93.4433439  25.5188801
  59.3964466  93.7238452  24.8235289  59.7064231  93.9327340  26.2905542
  59.1222025 107.3956366  14.2791433  60.0552698 107.3301928  14.4824309
  59.0345238 108.2312633  13.8205966  64.4488233  99.5783976  24.4471699
  64.4164553  98.6399977  24.6331383  65.0588856  99.6568013  23.7137524
  56.2871564  98.4480029  10.4898903  57.2330668  98.3186237  10.5587321
  55.9085808  97.7094691  10.9668332  64.5982721  96.3695019  24.4929983
  64.0821770  95.5853476  24.3059911  65.4822670  96.0413736  24.6576502
  62.2593448  90.1136035  20.4525795  62.0618269  89.8051123  21.3369127
  62.8693154  90.8397674  20.5823725  70.2664783 100.6399983  23.5877736
  70.9968171 100.3785271  24.1485440  69.6571728  99.9028705  23.6279804
  68.3480080  98.7807845  24.1852187  67.6213243  98.6463810  23.5768679
  67.9327367  99.0884674  24.9908905  56.1710256 102.4997775  31.9499560
  57.0913266 102.6776374  32.1439607  56.1359839 101.5553820  31.7979260
  54.4714481  96.3730005  10.4253789  53.5645936  96.0763118  10.5016502
  54.7490462  96.0759823   9.5588075  45.3892421  97.6936369  20.8752835
  45.0695205  96.8401677  20.5827209  44.8425849  97.9084947  21.6310802
  49.1672329 100.4098810  24.5922342  49.3858338 101.3415917  24.6110375
  49.5798102 100.0506784  25.3777145  56.0876546  90.9166895  16.5798030
  55.2777275  90.5713980  16.9553276  56.7760963  90.6074439  17.1685642
  58.0167095  89.9944942  18.2022327  58.5698133  90.4140395  18.8612350
  58.2537181  89.0680690  18.2445283  54.0400194  95.9832015  33.9825091
  53.9396921  96.9326372  33.9137182  53.8221736  95.6550254  33.1101161
  53.2413265  93.2316940  10.5665768  54.1032429  93.5571839  10.8261585
  53.4263609  92.4448436  10.0538834  45.2580681 101.3139280  22.8445957
  44.5644153 100.8993233  22.3315911  46.0053672 101.3559817  22.2479376
  61.3945902  92.1045467  17.7100991  60.8144571  92.7630271  17.3279043
  61.1281834  91.2822811  17.2988408  59.8449468  91.5050525  19.9122311
  60.3449247  91.6167059  19.1036630  60.4885076  91.2011577  20.5523120
  53.9031464  99.4129154  32.7990152  53.4198546 100.2129514  33.0054041
  53.9892403  99.4237099  31.8457596  47.1717424 101.2457534  20.7211972
  47.1488112 101.3445221  19.7693855  47.4818060 102.0922685  21.0429138
  49.8304801 103.3033689  24.8358586  50.7848055 103.2717631  24.7688518
  49.6317325 102.8424313  25.6508812  50.4204184 101.8734805  27.4029384
  51.2397073 102.3678884  27.4264221  50.6940991 100.9566773  27.3746951
  60.1770780  94.2645557  16.7657339  59.2896635  94.5495208  16.5477534
  60.5924769  94.1039321  15.9184616  63.5285316  94.2892078  20.4811678
  64.3045706  94.7788531  20.7536295  62.8033450  94.7150132  20.9383548
  65.9657875  95.0019697  21.5385619  66.5602365  94.7615433  20.8278927
  66.0384458  94.2826828  22.1659155  48.1855030 108.8453308  21.8528784
  48.0509498 108.0853709  21.2866782  47.7687093 109.5694208  21.3857573
  59.3213993 104.0290232  10.8605359  60.0249843 104.2340234  11.4763015
  58.5976642 104.5966994  11.1254443  60.1511804  99.7800093  16.9807629
  60.0947005 100.2368645  16.1415262  60.7040146  99.0190778  16.8030472
  63.9616609  95.5689825  17.8057749  63.7053544  95.1686461  18.6365956
  63.3369478  96.2833619  17.6807888  68.2728947  98.3085898  20.3129040
  67.7128505  98.3779088  21.0860602  67.6672451  98.1326883  19.5928536
  51.3424156 109.7422625  22.0647226  51.2256540 110.6868058  21.9625917
  50.5216602 109.4396187  22.4533026  61.2300691 104.4672761  12.9103819
  62.0646295 104.0353960  12.7281294  61.0685034 104.2954775  13.8380714
  60.8846583 100.9704874  14.2760158  60.8295387 100.8049146  13.3348603
  60.2592638 101.6780907  14.4322348  45.6739098  96.2072939  28.1021581
  46.3197961  95.6971893  28.5908806  45.4656249  96.9441620  28.6765006
  58.1992490 103.2753786  33.6013721  59.0683650 103.4494439  33.2400356
  57.7199242 104.0948203  33.4789451  54.1942708  90.4712983  13.8545477
  54.1821378  91.4154823  14.0113748  55.0866130  90.2883129  13.5604938
  52.3678670 110.3950887  25.2803155  53.2705917 110.4274498  25.5969650
  52.1416040 109.4651338  25.2949491  54.1232272 109.1481874  21.9413234
  53.1727903 109.1483735  21.8277606  54.4264758 108.4014608  21.4249268
  58.0094828  87.0655760  18.1091414  57.2427224  86.5114247  18.2548096
  58.4205533  87.1377629  18.9705565  50.0136589  93.3540556  32.1996595
  50.8768050  92.9977361  32.4099920  49.4402000  93.0154451  32.8871999
  69.8584966 114.9842412  23.0058996  70.4963376 114.8649160  22.3022336
  69.7405809 115.9323256  23.0646948  66.6674672 114.9369840  22.9420521
  66.3293184 114.8210905  22.0541055  67.5364440 114.5361005  22.9221527
  67.1494455 116.0904692  28.9006726  67.1383096 115.6957490  28.0287230
  67.3115095 115.3570765  29.4940498  60.0725920 118.2856508  21.7701632
  60.8647212 117.9447333  21.3547931  60.3122570 118.3951483  22.6903785
  63.8701716 118.8741804  27.8485910  63.5791582 119.7787435  27.7332576
  64.5058701 118.9158332  28.5629980  64.7957923 116.2518652  24.4387270
  65.3921495 116.0274675  23.7244233  64.8532895 115.5103398  25.0412718
  69.4126234 112.7093866  20.0812204  70.1989323 112.2913289  19.7302621
  69.6764939 113.6139958  20.2493852  72.3360082 106.3590673  25.4439791
  72.0043407 107.2286084  25.2201006  71.7405695 106.0426957  26.1233821
  68.8291601 118.5603219  24.8435704  68.5292324 119.4628258  24.7351511
  68.4842661 118.2935403  25.6956857  62.2804083 115.0117016  20.8772408
  61.3554579 114.8793230  21.0850100  62.5288496 115.7911235  21.3742351
  72.2288745 111.0785760  22.5233141  71.3205622 111.0101168  22.2291902
  72.1776341 111.5557705  23.3514967  59.6412894 114.6550290  21.7116197
  59.7705275 114.9084769  22.6255609  58.9610345 115.2477998  21.3920852
  66.3029611 112.4975405  30.4668038  65.5262945 113.0569325  30.4570903
  66.9420174 112.9832188  30.9882909  74.0950391 109.2802198  24.3011015
  73.4524772 109.5734731  23.6550810  73.5905320 109.1655118  25.1064212
  64.5575983 115.3060859  30.0286005  65.2990668 115.8445903  29.7520829
  63.8512969 115.9327147  30.1857557  70.0331323 117.4489999  28.6258167
  70.4414679 117.0072410  27.8812799  69.3108584 116.8742627  28.8792360
  66.3862393 112.3862606  25.9991724  67.2323588 112.8102019  26.1426373
  66.3261031 111.7296230  26.6930287  69.5361838 110.0466974  27.6572897
  69.2922770 110.8009035  27.1207173  69.8121769 110.4252322  28.4920145
  71.4900301 116.5905587  26.3350163  71.7017196 117.2337346  25.6584544
  71.4430049 115.7567903  25.8672093  69.0926530 109.2023407  23.2386735
  68.2311009 109.5004661  23.5303473  69.1188965 109.4193806  22.3067768
  62.8012180 117.2937079  22.5840304  63.3713537 117.7224348  21.9457789
  63.3920292 117.0119664  23.2824490  63.2937347 112.4600507  30.8301315
  62.6636007 113.1416788  31.0636712  63.1873435 112.3483588  29.8854454
  58.5882319 112.1272303  21.7567240  57.7981373 112.3829831  21.2807350
  59.0793567 112.9420641  21.8619280  60.5397065 112.4916882  18.7150716
  59.7428228 112.6035576  19.2334212  60.3122657 112.8303534  17.8491607
  66.3702732 119.0161585  26.6633231  66.4347165 119.4781992  27.4991403
  65.6613656 118.3858950  26.7915541  56.8720022 112.3802793  24.1882230
  57.1228061 113.2649803  24.4539806  57.4079571 112.2007395  23.4157322
  62.5718090 106.7621273  33.1926566  62.1785035 106.2087471  33.8674211
  63.3884230 107.0731851  33.5833084  65.4886051 108.1779152  30.7846823
  66.2295764 108.7786305  30.7051285  65.7203973 107.4356789  30.2264866
  60.6327389 113.3635519  29.0625053  60.5180904 112.4620776  29.3632152
  59.7771906 113.6099216  28.7109869  67.7119226 121.3053259  30.6612553
  67.2683081 120.5189638  30.3433458  68.3736440 121.4932410  29.9956444
  62.4706348 122.8349061  25.1873232  63.0213773 122.7066124  24.4150226
  61.6317823 123.1343950  24.8368125  69.8100464 121.5856059  28.6893955
  69.7918940 122.4064940  28.1974224  70.7320384 121.4610134  28.9144096
  66.2673519 119.1000189  29.5317463  66.8001855 118.3388477  29.3016771
  65.7387600 118.8073840  30.2741617  69.4343214 104.2060255  25.0611105
  69.0907483 105.0961896  24.9850215  69.8022176 104.0161912  24.1980690
  57.5029064 116.5293785  17.8799707  58.3404286 116.9390793  17.6633415
  57.6807332 115.5893227  17.8499901  66.9840607 109.0418566  18.6268778
  66.1282204 108.6525417  18.4474417  67.3967559 109.1210527  17.7668564
  68.5139754 106.5764910  23.0260338  68.0104550 106.5395045  22.2128143
  68.8070361 107.4857652  23.0856995  64.7582640 106.6603639  22.0326520
  65.6235637 106.4646448  21.6732409  64.8260149 106.4313991  22.9595876
  62.3644959 108.8905847  19.4042886  62.9388711 108.6681029  18.6716079
  62.9515941 108.9594542  20.1571488  64.6667627 105.7647096  18.1317956
  64.0132039 105.4496113  17.5074571  64.6248101 105.1422837  18.8577779
  67.9005367 112.2529030  22.4565604  66.9827928 112.4743977  22.2987292
  68.3165511 112.3275340  21.5977311  71.2330879 103.4653814  20.1628842
  71.5389756 102.6051177  19.8754757  71.9583484 104.0571434  19.9627836
  57.5255235 113.8684500  18.5510440  57.3279635 113.2753861  17.8261507
  56.9701899 113.5636711  19.2686379  65.5051959 113.7607607  20.6705033
  65.5600569 112.8081443  20.5947510  64.6943161 113.9167046  21.1546332
  63.4444319 112.3784667  18.4295412  62.6312184 112.6778837  18.8360604
  63.9403313 111.9840355  19.1469895  69.0418531 112.8426491  27.2610306
  69.3967918 113.0697964  28.1204772  69.6890662 113.1744868  26.6387562
  62.9358394 109.9503022  24.0456647  63.5757773 109.8091781  23.3479611
  62.1035924 109.6637536  23.6695249  68.5313542 121.6323548  24.5104007
  68.5850564 122.2014484  25.2781723  67.6628323 121.8025433  24.1458044
  59.9387010 109.9203347  18.8229634  60.1993827 110.8348680  18.7138795
  60.7604182 109.4527790  18.9726247  61.4111935 111.3341104  25.9928459
  62.0834989 111.1258466  25.3441108  60.5841722 111.1363190  25.5533691
  67.3137507 107.9603045  28.0094119  66.6665422 108.6592995  27.9158596
  68.0838523 108.3939189  28.3770368  70.7216305 118.2251897  31.0844673
  70.5701812 117.9962449  30.1674756  70.7120985 119.1822499  31.0976018
  67.4901642 115.7983810  26.0690939  68.4193702 115.9494970  25.8959907
  67.0692672 115.8867831  25.2139586  66.2889974 119.8234475  23.8389477
  66.1501059 119.4553259  24.7115415  65.5004570 120.3382114  23.6673435
  61.8139433 114.6083707  26.7530896  61.6759231 113.8763946  27.3542435
  62.7244356 114.5192607  26.4715084  64.4421733 114.3203667  26.2414575
  65.1521352 113.6796859  26.2001194  64.3991041 114.5716561  27.1640756
  72.4308512 121.2571020  29.1621155  72.3721058 120.5730240  28.4951738
  72.8328030 121.9990010  28.7101781  63.1550667 111.3068884  28.0610215
  62.6188024 110.8559623  28.7131811  62.5667376 111.4414793  27.3180679
  72.4325919 119.2210604  27.3935134  71.5452698 118.8836526  27.5161533
  73.0024470 118.4893635  27.6303900  54.0855066 115.5534696  20.7178186
  54.7726106 115.2396426  20.1299201  53.9303195 116.4576060  20.4445437
  58.8889789 110.4424892  25.1463209  58.8047977 109.8350562  24.4113619
  58.0672495 110.9333910  25.1472706  69.0613502 108.9278456  20.5133404
  69.5582202 108.1748418  20.1934475  68.2900484 108.9642772  19.9476614
  68.4225756 123.7798890  26.5154536  69.1353728 124.4146355  26.4430438
  67.9315785 123.8762756  25.6994538  65.6448471 111.0695839  20.2405089
  65.2746259 110.5166879  20.9285995  66.1407564 110.4653972  19.6880089
  63.4737670 121.5293334  27.3360107  64.1747129 122.1629817  27.4889501
  63.0032785 121.8708065  26.5755746  71.5032497 105.8948049  22.6612763
  70.5895577 106.1252276  22.8294970  71.9325599 105.9786493  23.5126796
  71.2738956 114.0837941  25.1612657  70.6210406 114.3313849  24.5065110
  71.6519336 113.2702079  24.8275135  67.3226529 114.8257752  31.6478694
  66.6467166 114.7251882  32.3181070  68.1454163 114.6696966  32.1114692
  59.0705388 121.0629689  24.2691210  59.6558825 120.3173377  24.4019114
  58.8730226 121.3733645  25.1527874  53.6623043 113.6335289  22.9895653
  53.7007142 113.0998880  23.7832771  53.1563335 113.1070494  22.3706630
  61.0413805 108.4799829  26.4858195  61.1055131 109.3414660  26.0735593
  60.9780925 107.8673831  25.7530554  60.5166077 110.5522962  30.1331229
  61.1438116 110.1700039  30.7468754  59.6593996 110.3337164  30.4986922
  70.9160186 120.9585937  31.7384965  71.4600090 121.5715895  31.2439920
  70.3347031 121.5165516  32.2551978  57.2931620 112.3599391  16.0649584
  57.5885061 111.4510070  16.0116638  56.3919656 112.3387131  15.7430587
  60.8225867 110.4355388  22.0477133  60.1012453 111.0491355  21.9084606
  61.6119123 110.9713153  21.9693779  63.6252181 107.7709814  28.3217785
  64.1486582 108.0172111  29.0844094  63.4064514 108.6029849  27.9020922
  59.0219462 110.0413489  16.1888909  58.6932168 109.1610868  16.0064015
  59.3758832 109.9861157  17.0765299  62.1361285 110.3286459  16.5564387
  62.4757357 110.8572380  15.8342995  62.5833405 110.6666865  17.3322954
  64.8304726 108.7123509  26.0067455  64.4901546 107.9131322  26.4088135
  64.1243732 109.0125220  25.4344288  65.4821197 105.7972822  24.4594778
  66.3047267 105.3233300  24.3373668  65.7259261 106.5763305  24.9593464
  63.0059776 112.4891942  22.2686757  62.8604357 112.8032245  23.1611038
  62.5284980 113.1076843  21.7157655  64.8656159 109.4794490  22.3167646
  64.8517728 108.5835584  21.9799944  65.5828587 109.4865154  22.9505932
  66.7182290 109.9131831  24.3620774  66.4600068 110.8348901  24.3605104
  66.1867330 109.5162265  25.0521238  57.4805438 115.0297287  25.2074418
  56.9358906 115.8057095  25.3394692  58.3584788 115.3768091  25.0493539
  64.2693055 108.3608871  17.5855216  64.3908966 107.4325517  17.7846104
  63.9795097 108.3747557  16.6733532  67.1384245 106.0463781  20.7221936
  67.1605942 106.1103114  19.7673916  67.5552304 105.2068290  20.9162442
  58.2671460 114.1567183  28.1004575  57.5253196 114.3049818  28.6869205
  57.9464205 114.4175449  27.2371324  66.2115123 123.6983161  27.8984965
  66.5202249 123.4532308  28.7707664  67.0090605 123.9029800  27.4103835
  56.9136679 119.9618938  21.0903903  56.0768587 119.5341113  20.9087904
  56.8860324 120.1551382  22.0274694  63.7534135 109.8740868  31.7945149
  63.8022290 110.7502991  31.4122919  64.2956649 109.3318261  31.2216792
  74.2388980 120.4181991  31.0746286  73.4484524 120.4006130  30.5350786
  74.0022335 120.9570285  31.8295323  74.3586855 117.2674458  28.3879015
  74.4084860 117.1024465  29.3294537  74.2500779 116.4001717  27.9976895
  71.6490618 113.2505386  29.7038321  72.5500480 113.1111850  29.4122319
  71.7238592 113.4159840  30.6436499  65.9833423 110.6272240  28.5491508
  65.1136732 110.9205806  28.2774096  66.2192903 111.2112685  29.2698771
  75.8605052 119.6871399  28.6321036  75.5689860 120.0501380  29.4684497
  75.2477183 118.9738407  28.4534368  74.1092240 114.8104014  27.1001094
  74.5846362 115.0031660  26.2919946  73.1857806 114.8663200  26.8544478
  68.6872457 106.8451857  26.0656928  69.2054401 107.5812884  25.7403417
  68.3327590 107.1515851  26.9003687  68.9385051 103.2652140  21.5857825
  69.2186805 102.5975329  22.2118251  69.7235658 103.4581235  21.0732488
  72.8093909 111.6869774  25.3329400  73.7611332 111.7867872  25.3541624
  72.6397360 110.8948042  25.8427484  70.8308289 108.7725357  25.5188801
  70.2358221 109.0530370  24.8235289  70.5457986 109.2619258  26.2905542
  75.2881987 114.9075894  24.4471699  75.2558307 113.9691894  24.6331383
  75.8982611 114.9859930  23.7137524  75.4376476 111.6986937  24.4929983
  74.9215524 110.9145394  24.3059911  76.3216424 111.3705654  24.6576502
  73.0987203 105.4427953  20.4525795  72.9012024 105.1343041  21.3369127
  73.7086908 106.1689591  20.5823725  67.0104011 117.8289693  31.9499560
  67.9307020 118.0068292  32.1439607  66.9753594 116.8845738  31.7979260
  56.2286176 113.0228286  20.8752835  55.9088960 112.1693595  20.5827209
  55.6819604 113.2376864  21.6310802  60.0066083 115.7390727  24.5922342
  60.2252093 116.6707835  24.6110375  60.4191857 115.3798702  25.3777145
  66.9270301 106.2458813  16.5798030  66.1171029 105.9005898  16.9553276
  67.6154718 105.9366356  17.1685642  68.8560849 105.3236859  18.2022327
  69.4091888 105.7432313  18.8612350  69.0930936 104.3972608  18.2445283
  64.8793948 111.3123933  33.9825091  64.7790675 112.2618290  33.9137182
  64.6615490 110.9842172  33.1101161  56.0974436 116.6431198  22.8445957
  55.4037907 116.2285151  22.3315911  56.8447427 116.6851734  22.2479376
  70.6843223 106.8342442  19.9122311  71.1843001 106.9458977  19.1036630
  71.3278831 106.5303495  20.5523120  64.7425218 114.7421072  32.7990152
  64.2592300 115.5421432  33.0054041  64.8286158 114.7529017  31.8457596
  58.0111178 116.5749452  20.7211972  57.9881866 116.6737139  19.7693855
  58.3211815 117.4214602  21.0429138  60.6698556 118.6325607  24.8358586
  61.6241810 118.6009549  24.7688518  60.4711080 118.1716230  25.6508812
  61.2597938 117.2026723  27.4029384  62.0790827 117.6970801  27.4264221
  61.5334746 116.2858691  27.3746951  74.3679070 109.6183996  20.4811678
  75.1439461 110.1080448  20.7536295  73.6427205 110.0442050  20.9383548
  56.5132852 111.5364857  28.1021581  57.1591716 111.0263810  28.5908806
  56.3050003 112.2733538  28.6765006  69.0386245 118.6045704  33.6013721
  69.9077404 118.7786356  33.2400356  68.5592996 119.4240121  33.4789451
  63.2072425 125.7242805  25.2803155  64.1099671 125.7566415  25.5969650
  62.9809795 124.7943256  25.2949491  68.8488582 102.3947678  18.1091414
  68.0820978 101.8406164  18.2548096  69.2599287 102.4669547  18.9705565
  60.8530343 108.6832474  32.1996595  61.7161805 108.3269278  32.4099920
  60.2795754 108.3446368  32.8871999  73.4111844 122.0913190  33.1926566
  73.0178790 121.5379389  33.8674211  74.2277984 122.4023769  33.5833084
  76.3279805 123.5071069  30.7846823  77.0689518 124.1078222  30.7051285
  76.5597728 122.7648707  30.2264866  71.3559832 125.8814880  30.1331229
  71.9831871 125.4991957  30.7468754  70.4987751 125.6629082  30.4986922
  74.5927889 125.2032786  31.7945149  74.6416045 126.0794908  31.4122919
  75.1350403 124.6610179  31.2216792  75.7187703 126.6415851  33.9825091
  75.6184430 127.5910208  33.9137182  75.5009245 126.3134090  33.1101161
  67.3526607 126.8656774  28.1021581  67.9985470 126.3555728  28.5908806
  67.1443758 127.6025456  28.6765006  71.6924098 124.0124391  32.1996595
  72.5555559 123.6561196  32.4099920  71.1189508 123.6738286  32.8871999
  24.3544210  36.9947711  17.3857860  23.9108064  36.2084090  17.0678764
  25.0161423  37.1826862  16.7201751  26.4525448  37.2750511  15.4139261
  26.4343923  38.0959392  14.9219530  27.3745368  37.1504586  15.6389402
  27.3641289  33.9146349  17.8089979  27.2126795  33.6856901  16.8920063
  27.3545968  34.8716951  17.8221324  29.0733495  36.9465472  15.8866461
  29.0146041  36.2624692  15.2197044  29.4753014  37.6884462  15.4347087
  27.5585169  36.6480389  18.4630271  28.1025073  37.2610347  17.9685226
  26.9772014  37.2059967  18.9797284  30.8813964  36.1076443  17.7991593
  30.0909507  36.0900582  17.2596092  30.6447318  36.6464737  18.5540629
  32.5030035  35.3765851  15.3566343  32.2114844  35.7395832  16.1929804
  31.8902167  34.6632859  15.1779675  25.6811228  34.2940156  20.3259028
  26.5502387  34.4680808  19.9645663  25.2017979  35.1134573  20.2034757
  37.3403704  46.0028782   9.7304303  37.9782114  45.8835529   9.0267643
  37.2224546  46.9509626   9.7892255  34.1493410  45.9556210   9.6665827
  33.8111921  45.8397275   8.7786362  35.0183178  45.5547375   9.6466833
  34.6313193  47.1091062  15.6252033  34.6201834  46.7143860  14.7532536
  34.7933832  46.3757134  16.2185804  27.5544657  49.3042878   8.4946939
  28.3465949  48.9633703   8.0793238  27.7941308  49.4137853   9.4149092
  31.3520454  49.8928173  14.5731217  31.0610320  50.7973804  14.4577883
  31.9877438  49.9344701  15.2875286  32.2776661  47.2705022  11.1632576
  32.8740233  47.0461044  10.4489539  32.3351632  46.5289767  11.7658024
  42.2953399  43.6655469   7.7090489  43.0278571  43.0954686   7.9428319
  41.5392755  43.2777069   8.1496995  39.8178820  37.3777043  12.1685098
  39.4862144  38.2472454  11.9446313  39.2224433  37.0613327  12.8479128
  36.3110339  49.5789589  11.5681010  36.0111062  50.4814628  11.4596818
  35.9661399  49.3121772  12.4202163  39.7107483  42.0972129   9.2478448
  38.8024360  42.0287538   8.9537209  39.6595079  42.5744074  10.0760273
  31.2931119  56.3433909   4.5351978  31.2155149  57.2941734   4.6140459
  30.6892762  55.9979782   5.1926904  33.7848349  43.5161775  17.1913345
  33.0081683  44.0755695  17.1816210  34.4238912  44.0018558  17.7128215
  41.5769129  40.2988568  11.0256322  40.9343509  40.5921101  10.3796116
  41.0724058  40.1841488  11.8309518  32.0394721  46.3247228  16.7531312
  32.7809405  46.8632272  16.4766136  31.3331706  46.9513517  16.9102864
  37.5150061  48.4676369  15.3503474  37.9233417  48.0258779  14.6058106
  36.7927322  47.8928996  15.6037666  33.8681131  43.4048975  12.7237030
  34.7142326  43.8288389  12.8671679  33.8079768  42.7482600  13.4175594
  37.8378875  49.0277559   9.1055762  37.2087738  49.1923273   8.4031830
  37.4504537  49.4419169   9.8766726  41.7168107  49.9631997   6.4600126
  41.0319145  50.3430898   5.9097159  41.8011956  50.5727324   7.1932074
  37.0180576  41.0653344  14.3818204  36.7741508  41.8195404  13.8452480
  37.2940506  41.4438691  15.2165451  38.9719039  47.6091956  13.0595470
  39.1835934  48.2523716  12.3829851  38.9248787  46.7754273  12.5917400
  33.3906837  48.7651967   6.3705848  33.8545183  49.0439670   5.5810470
  33.1263635  47.8635412   6.1878938  30.2830918  48.3123449   9.3085611
  30.8532275  48.7410717   8.6703095  30.8739030  48.0306034  10.0069796
  30.7756085  43.4786876  17.5546622  30.1454745  44.1603157  17.7882019
  30.6692173  43.3669958  16.6099760  40.0864867  50.4863912  11.2317827
  40.9082310  50.0844099  10.9500509  40.0827270  50.3832146  12.1833943
  33.8521470  50.0347955  13.3878538  33.9165903  50.4968362  14.2236709
  33.1432394  49.4045320  13.5160847  48.1770860  46.8302660   7.5802799
  47.4234568  46.2610058   7.4246803  48.3118401  46.7965324   8.5273433
  30.0536827  37.7807642  19.9171873  29.6603773  37.2273841  20.5919517
  30.8702968  38.0918221  20.3078391  28.8293770  52.3357257   5.9108196
  29.0060398  53.2575221   5.7229180  29.6250603  52.0215676   6.3402576
  32.9704788  39.1965521  17.5092130  33.7114502  39.7972674  17.4296592
  33.2022711  38.4543159  16.9510172  28.1146126  44.3821888  15.7870359
  27.9999642  43.4807146  16.0877458  27.2590644  44.6285585  15.4355176
  35.1937964  52.3239629  17.3857860  34.7501818  51.5376007  17.0678764
  35.8555178  52.5118779  16.7201751  29.9525085  53.8535430  11.9118538
  30.5032510  53.7252494  11.1395532  29.1136561  54.1530319  11.5613431
  37.2919202  52.6042429  15.4139261  37.2737678  53.4251310  14.9219530
  38.2139122  52.4796504  15.6389402  33.7492256  50.1186558  16.2562770
  34.2820593  49.3574846  16.0262078  33.2206337  49.8260210  16.9986924
  40.0937815  47.4421571   8.8848628  39.4361490  48.1320833   8.9728757
  40.8978214  47.8318003   9.2282614  38.9043274  45.7965944   6.9352570
  39.4175156  46.4295936   7.4374279  39.5544498  45.1967139   6.5695930
  35.3824105  43.2715399   9.1810910  34.4646666  43.4930346   9.0232598
  35.7984248  43.3461710   8.3222618  39.6705070  50.7771945   5.0631712
  39.2167397  49.9362855   5.1196903  39.0399037  51.4133344   5.4006492
  38.1138009  52.6148442   5.9981530  38.4060984  53.1753499   5.2793896
  38.6236630  52.9077003   6.7534690  33.0771635  53.3928793   7.0874984
  33.0347813  53.6189639   6.1583516  33.9934333  53.1592168   7.2360785
  36.5237268  43.8612861  13.9855613  36.8786656  44.0884334  14.8450079
  37.1709400  44.1931237  13.3632868  42.2535005  46.9831297   4.6904942
  42.1152904  47.1732893   3.7626131  41.8971224  47.7450679   5.1472993
  42.2804385  49.0507824   9.7016213  42.7140892  48.9583113  10.5499267
  42.9935966  49.0265324   9.0636229  31.1937435  50.2691822   6.8836946
  31.9878034  49.7742142   6.6819521  30.4829128  49.7409685   6.5204652
  36.0132280  52.6509918  11.2349314  36.0669302  53.2200854  12.0027030
  35.1447061  52.8211803  10.8703351  28.8930673  42.3527474  12.7173765
  29.5653727  42.1444836  12.0686414  28.0660460  42.1549560  12.2778998
  43.1419934  49.0931524  12.2349099  43.3355825  49.9977335  12.4808374
  43.0420553  48.6338943  13.0687684  34.7956245  38.9789415  14.7339426
  34.1484160  39.6779364  14.6403903  35.5657261  39.4125559  15.1015674
  38.2035043  49.2438267  17.8089979  38.0520550  49.0148819  16.8920063
  38.1939723  50.2008868  17.8221324  34.9720380  46.8170180  12.7936246
  35.9012440  46.9681339  12.6205213  34.5511410  46.9054200  11.9384892
  33.7708711  50.8420844  10.5634783  33.6319797  50.4739628  11.4360722
  32.9823308  51.3568484  10.3918741  34.3656863  55.9429941   1.9060320
  34.5408619  55.4717984   2.7205943  33.6789651  56.5695707   2.1341581
  35.3213926  50.2202447   7.9523621  34.9863759  50.1803217   8.8481271
  34.8217872  49.5547163   7.4794031  29.2958170  45.6270077  13.4776202
  29.1577968  44.8950316  14.0787741  30.2063094  45.5378977  13.1960390
  31.9240471  45.3390036  12.9659882  32.6340090  44.6983228  12.9246500
  31.8809779  45.5902931  13.8886063  39.9127250  52.2757389  15.8866461
  39.8539796  51.5916610  15.2197044  40.3146768  53.0176379  15.4347087
  30.6369405  42.3255254  14.7855522  30.1006762  41.8745992  15.4377118
  30.0486114  42.4601163  14.0425986  28.9317949  59.0919303   8.6800180
  29.1714547  59.7237827   9.3579199  28.0887145  58.7407343   8.9665539
  39.9144657  50.2396973  14.1180441  39.0271436  49.9022895  14.2406840
  40.4843208  49.5080005  14.3549206  33.4445810  54.8998426  11.0841684
  33.3715982  55.7053397  11.5960989  33.0023204  55.0990392  10.2589706
  33.2335590  54.1370196   4.5944506  32.4503112  54.6791876   4.6882730
  33.9328335  54.6544175   4.9938747  44.3961998  45.6505191   8.8797003
  44.3851874  46.5329906   8.5090936  43.5279377  45.2976742   8.6851540
  35.9044494  54.7985260  13.2399843  36.6172466  55.4332725  13.1675744
  35.4134523  54.8949126  12.4239845  37.6262021  48.7036512   4.8117134
  36.6918300  48.8237975   4.6421839  37.8038689  47.8008979   4.5477144
  41.0134572  44.5453832   5.3467169  41.4795024  45.3781823   5.2727471
  41.4642073  44.0798813   6.0512427  30.9556407  52.5479703  14.0605414
  31.6565867  53.1816186  14.2134808  30.4851522  52.8894435  13.3001053
  38.7557693  45.1024311  11.8857964  38.1029144  45.3500218  11.2310417
  39.1338073  44.2888449  11.5520441  35.7164867  55.1384004   5.9886134
  35.8987262  54.3205660   6.4513887  36.5397853  55.3551696   5.5511024
  36.0507033  54.0652189   3.2501183  36.5794799  53.5544644   2.6371345
  36.3135252  53.7494719   4.1146716  34.8045266  45.8444122  18.3724001
  34.1285904  45.7438251  19.0426376  35.6272900  45.6883336  18.8359998
  26.5524126  52.0816058  10.9936516  27.1377562  51.3359746  11.1264421
  26.3548964  52.3920015  11.8773180  29.4062781  55.1167306   6.0098959
  28.7373156  55.6013433   5.5262999  29.2675650  55.3636526   6.9242337
  33.5468049  57.1511049  12.6081617  34.0986357  57.3142671  13.3730702
  33.8874243  57.7415487  11.9361642  27.9984815  41.5709332  16.8576536
  28.6256854  41.1886409  17.4714060  27.1412734  41.3523534  17.2232229
  38.3978924  51.9772307  18.4630271  38.9418828  52.5902265  17.9685226
  37.8165769  52.5351885  18.9797284  36.6836437  55.0993025   9.5945299
  36.5587576  54.2982765   9.0856245  37.3415528  55.5939218   9.1059269
  38.7471345  52.9002045  11.2224849  37.8001681  52.7807396  11.1503176
  39.0954118  52.0124543  11.3051111  31.1070918  38.7896184  15.0463091
  31.6305320  39.0358480  15.8089401  30.8883252  39.6216219  14.6266229
  35.7517778  52.6954761   7.4229202  35.6042741  51.7671468   7.6036772
  36.5771272  52.7174852   6.9386277  39.3551900  53.5183320   8.5094074
  40.2798448  53.3126181   8.3718525  39.1867204  53.2699721   9.4183416
  32.3123463  39.7309879  12.7312762  31.9720284  38.9317692  13.1333442
  31.6062470  40.0311590  12.1589595  34.2001028  40.9318200  11.0866080
  33.9418805  41.8535271  11.0850411  33.6686068  40.5348635  11.7766544
  39.1447216  54.0368987   3.8656166  39.3184094  53.4715410   3.1130018
  39.6376108  54.8369882   3.6835656  24.9624176  46.0483656  11.9319725
  24.4177644  46.8243464  12.0639999  25.8403526  46.3954461  11.7738846
  44.9986608  46.8005410   5.4846465  45.4417754  46.0512735   5.0865589
  44.1213118  46.7915547   5.1020197  40.1322389  53.3535752   0.9653064
  40.8273293  53.9742444   1.1840379  40.4745539  52.5031103   1.2405442
  25.7490198  45.1753553  14.8249881  25.0071934  45.3236188  15.4114512
  25.4282942  45.4361818  13.9616631  42.0313812  50.8035457   2.4940395
  42.5565136  51.1422730   1.7689715  41.9436165  49.8682472   2.3103529
  33.6933861  54.7169531  14.6230271  34.0020987  54.4718678  15.4952971
  34.4909343  54.9216169  14.1349142  33.7154473  56.8707440   6.8535648
  33.2759463  56.3783819   7.5468505  34.4662590  56.3280408   6.6127723
  26.1946812  53.0618981   6.8560276  27.0204832  52.7622753   6.4758920
  25.8440864  52.2926604   7.3050065  31.1628345  52.4145450   8.9257950
  30.5408354  51.7516155   8.6260178  31.8333212  52.4406581   8.2431597
  31.2352872  40.8927238  18.5190456  31.2841028  41.7689360  18.1368225
  31.7775387  40.3504631  17.9462099  41.7207718  51.4368361  17.7991593
  40.9303262  51.4192500  17.2596092  41.4841073  51.9756654  18.5540629
  41.8405593  48.2860827  15.1124321  41.8903598  48.1210835  16.0539844
  41.7319516  47.4188086  14.7222202  39.1309356  44.2691755  16.4283628
  40.0319218  44.1298220  16.1367626  39.2057330  44.4346210  17.3681805
  33.4652161  41.6458610  15.2736814  32.5955470  41.9392176  15.0019403
  33.7011641  42.2299055  15.9944078  43.3423790  50.7057769  15.3566343
  43.0508598  51.0687749  16.1929804  42.7295921  49.9924777  15.1779675
  44.5419472  48.2710648   7.8768913  45.3766364  48.7100453   8.0406473
  44.6778601  47.7949302   7.0577159  41.5910978  45.8290383  13.8246401
  42.0665100  46.0218030  13.0165252  40.6676544  45.8849569  13.5789784
  36.1691195  37.8638227  12.7902235  36.6873139  38.5999254  12.4648723
  35.8146327  38.1702220  13.6248994  40.2912647  42.7056143  12.0574706
  41.2430070  42.8054241  12.0786930  40.1216098  41.9134412  12.5672791
  38.3127027  39.7911727  12.2434107  37.7176959  40.0716739  11.5480596
  38.0276723  40.2805628  13.0150848  42.7700725  45.9262263  11.1717006
  42.7377045  44.9878264  11.3576690  43.3801349  46.0046300  10.4382831
  42.9195213  42.7173307  11.2175289  42.4034262  41.9331763  11.0305218
  43.8035162  42.3892023  11.3821809  48.5877275  46.9878270  10.3123043
  49.3180663  46.7263558  10.8730746  47.9784220  46.2506992  10.3525111
  46.6692572  45.1286133  10.9097494  45.9425736  44.9942097  10.3013986
  46.2539859  45.4362961  11.7154212  34.4922748  48.8476062  18.6744867
  35.4125758  49.0254661  18.8684914  34.4572331  47.9032108  18.5224566
  27.4884821  46.7577097  11.3167648  27.7070831  47.6894205  11.3355682
  27.9010595  46.3985071  12.1022452  32.3612686  42.3310303  20.7070397
  32.2609413  43.2804660  20.6382488  32.1434228  42.0028542  19.8346467
  32.2243956  45.7607441  19.5235459  31.7411038  46.5607802  19.7299348
  32.3104895  45.7715386  18.5702903  28.1517294  49.6511976  11.5603893
  29.1060547  49.6195919  11.4933824  27.9529817  49.1902600  12.3754119
  28.7416676  48.2213092  14.1274690  29.5609565  48.7157171  14.1509528
  29.0153484  47.3045060  14.0992258  41.8497808  40.6370366   7.2056985
  42.6258198  41.1266818   7.4781602  41.1245942  41.0628420   7.6628855
  44.2870367  41.3497985   8.2630926  44.8814858  41.1093721   7.5524234
  44.3596951  40.6305115   8.8904462  26.5067523  55.1931596   8.5774090
  26.3721990  54.4331997   8.0112089  26.0899585  55.9172496   8.1102879
  46.5941440  44.6564186   7.0374347  46.0340998  44.7257375   7.8105909
  45.9884943  44.4805170   6.3173843  29.6636648  56.0900913   8.7892533
  29.5469033  57.0346345   8.6871223  28.8429095  55.7874474   9.1778332
  23.9951590  42.5551226  14.8266887  24.6410454  42.0450180  15.3154113
  23.7868741  43.2919908  15.4010313  36.5204982  49.6232074  20.3259028
  37.3896142  49.7972726  19.9645663  36.0411734  50.4426490  20.2034757
  30.6891163  56.7429175  12.0048462  31.5918409  56.7752785  12.3214957
  30.4628533  55.8129626  12.0194797  32.4444765  55.4960161   8.6658540
  31.4940396  55.4962023   8.5522912  32.7477251  54.7492896   8.1494575
  28.3349081  39.7018843  18.9241902  29.1980543  39.3455648  19.1345226
  27.7614492  39.3632738  19.6117306  48.1797458  61.3320700   9.7304303
  48.8175868  61.2127447   9.0267643  48.0618301  62.2801543   9.7892255
  44.9887164  61.2848128   9.6665827  44.6505676  61.1689192   8.7786362
  45.8576933  60.8839293   9.6466833  40.8473980  63.1383604   5.6562718
  40.2838845  63.0473541   4.8879006  40.7326375  62.3183508   6.1365211
  45.4706947  62.4382979  15.6252033  45.4595588  62.0435778  14.7532536
  45.6327587  61.7049052  16.2185804  38.3938412  64.6334796   8.4946939
  39.1859704  64.2925620   8.0793238  38.6335062  64.7429771   9.4149092
  46.4273539  66.8054572   0.9677183  45.7761519  67.3908652   0.5811197
  47.2217902  67.3360767   1.0272221  40.3529166  63.8943709   1.3664317
  41.1260042  63.3472696   1.2277193  40.7054565  64.7587958   1.5778779
  42.1914208  65.2220091  14.5731217  41.9004074  66.1265722  14.4577883
  42.8271193  65.2636619  15.2875286  43.1170415  62.5996940  11.1632576
  43.7133988  62.3752962  10.4489539  43.1745387  61.8581685  11.7658024
  42.6895444  60.0536375  -1.0017233  42.9420964  59.5317896  -1.7633770
  41.7520003  59.8902520  -0.8990549  47.7338727  59.0572153   6.8057511
  48.5201816  58.6391577   6.4547928  47.9977431  59.9618246   6.9739159
  47.9048804  64.4945004   1.5046167  47.2694637  64.5679630   2.2167072
  47.5746210  65.0838603   0.8265247  53.1347154  58.9947387   7.7090489
  53.8672326  58.4246603   7.9428319  52.3786509  58.6068987   8.1496995
  42.4091732  61.9564481   1.2007142  42.2927991  61.2809384   1.8688227
  42.5193992  61.4696855   0.3839295  44.7523273  61.4174628   4.9053832
  44.3881481  60.8905249   5.6166753  45.6090389  61.0273097   4.7320317
  50.6572574  52.7068961  12.1685098  50.3255899  53.5764372  11.9446313
  50.0618187  52.3905245  12.8479128  44.3928760  56.4464528  -0.0984820
  44.5603163  57.3144764   0.2685651  44.2025929  56.6091809  -1.0223531
  47.1504094  64.9081507  11.5681010  46.8504817  65.8106545  11.4596818
  46.8055153  64.6413690  12.4202163  40.6016575  61.3595304   7.6017715
  39.6767072  61.2271518   7.8095407  40.8500988  62.1389523   8.0987657
  50.5501237  57.4264047   9.2478448  49.6418115  57.3579455   8.9537209
  50.4988833  57.9035992  10.0760273  44.3717981  58.9022185   0.8861847
  44.2517606  59.3479236   1.7247327  43.6770570  59.2507503   0.3275385
  37.9625386  61.0028577   8.4361504  38.0917767  61.2563056   9.3500916
  37.2822837  61.5956285   8.1166159  42.1324873  71.6725827   4.5351978
  42.0548903  72.6233652   4.6140459  41.5286517  71.3271700   5.1926904
  44.6242103  58.8453692  17.1913345  43.8475437  59.4047613  17.1816210
  45.2632666  59.3310475  17.7128215  52.4162884  55.6280485  11.0256322
  51.7737264  55.9213018  10.3796116  51.9117812  55.5133406  11.8309518
  50.0703047  59.3743658   1.7142181  50.9820904  59.6071045   1.5389879
  49.5612694  59.9580703   1.1517260  42.8788475  61.6539146  16.7531312
  43.6203160  62.1924190  16.4766136  42.1725461  62.2805435  16.9102864
  48.3543815  63.7968286  15.3503474  48.7627171  63.3550697  14.6058106
  47.6321077  63.2220914  15.6037666  44.7074885  58.7340893  12.7237030
  45.5536080  59.1580307  12.8671679  44.6473523  58.0774517  13.4175594
  48.6772630  64.3569477   9.1055762  48.0481492  64.5215191   8.4031830
  48.2898292  64.7711086   9.8766726  52.5561862  65.2923915   6.4600126
  51.8712900  65.6722816   5.9097159  52.6405711  65.9019241   7.1932074
  47.8574330  56.3945261  14.3818204  47.6135262  57.1487322  13.8452480
  48.1334261  56.7730609  15.2165451  49.8112793  62.9383874  13.0595470
  50.0229688  63.5815634  12.3829851  49.7642541  62.1046190  12.5917400
  47.4139022  55.5501694   9.9632042  46.5523501  55.8482948  10.2548779
  47.4401457  55.7672093   9.0313074  44.2300592  64.0943885   6.3705848
  44.6938937  64.3731588   5.5810470  43.9657390  63.1927330   6.1878938
  41.1224673  63.6415367   9.3085611  41.6926030  64.0702635   8.6703095
  41.7132785  63.3597951  10.0069796  43.1669478  60.2167037   3.1795413
  43.8693521  60.6688081   3.6469339  42.8350106  59.5750856   3.8075306
  41.6149839  58.8078794  17.5546622  40.9848500  59.4895075  17.7882019
  41.5085927  58.6961876  16.6099760  36.9094812  58.4750590   8.4812546
  36.1193866  58.7308119   8.0052657  37.4006059  59.2898928   8.5864587
  50.9258621  65.8155829  11.2317827  51.7476065  65.4136016  10.9500509
  50.9221024  65.7124063  12.1833943  38.8609557  58.8395169   5.4396023
  38.0640720  58.9513864   5.9579519  38.6335149  59.1781821   4.5736913
  44.6915225  65.3639872  13.3878538  44.7559657  65.8260280  14.2236709
  43.9826148  64.7337237  13.5160847  35.1932515  58.7281080  10.9127537
  35.4440553  59.6128090  11.1785113  35.7292063  58.5485682  10.1402629
  59.0164614  62.1594578   7.5802799  58.2628323  61.5901976   7.4246803
  59.1512155  62.1257242   8.5273433  44.4063242  67.0307980   3.2557518
  44.2708917  67.8759516   3.6842366  44.9473055  67.2327258   2.4923452
  40.8930582  53.1099560  19.9171873  40.4997527  52.5565758  20.5919517
  41.7096722  53.4210138  20.3078391  37.8592640  64.5483418   3.8285443
  38.3717160  65.3426668   3.9791008  38.5115352  63.8509708   3.7619044
  39.6687524  67.6649174   5.9108196  39.8454153  68.5867139   5.7229180
  40.4644358  67.3507593   6.3402576  43.8098543  54.5257439  17.5092130
  44.5508256  55.1264592  17.4296592  44.0416466  53.7835077  16.9510172
  38.9539881  59.7113806  15.7870359  38.8393396  58.8099063  16.0877458
  38.0984399  59.9577503  15.4355176  46.0331719  67.6531546  17.3857860
  45.5895573  66.8667925  17.0678764  46.6948932  67.8410697  16.7201751
  40.7918840  69.1827348  11.9118538  41.3426265  69.0544411  11.1395532
  39.9530316  69.4822237  11.5613431  48.1312957  67.9334346  15.4139261
  48.1131432  68.7543227  14.9219530  49.0532877  67.8088422  15.6389402
  44.5886011  65.4478476  16.2562770  45.1214348  64.6866764  16.0262078
  44.0600092  65.1552128  16.9986924  47.7555706  50.5538542  11.7856411
  47.4119975  51.4440184  11.7095522  48.1234668  50.3640199  10.9225996
  35.8241556  62.8772072   4.6045013  36.6616778  63.2869081   4.3878721
  36.0019824  61.9371514   4.5745207  47.7205989  60.5447153   0.2928846
  47.2052612  61.3151758   0.5317234  47.4483297  59.8712289   0.9161908
  45.3053100  55.3896854   5.3514085  44.4494696  55.0003704   5.1719724
  45.7180051  55.4688815   4.4913870  46.8352246  52.9243197   9.7505645
  46.3317042  52.8873332   8.9373450  47.1282853  53.8335940   9.8102301
  43.0795132  53.0081927   8.7571826  43.9448129  52.8124735   8.3977716
  43.1472641  52.7792278   9.6841183  52.6940263  63.2979508   2.2282020
  51.9169705  62.9590667   1.7837182  53.3731744  63.3032131   1.5536985
  47.5092292  58.4174245   2.1188628  47.2042427  58.7320394   2.9698771
  48.4622734  58.4955665   2.1615961  45.9538724  64.5764468   3.7681582
  45.4260085  63.8417228   3.4554819  45.4526226  65.3539145   3.5221550
  50.9331570  62.7713489   8.8848628  50.2755244  63.4612750   8.9728757
  51.7371969  63.1609921   9.2282614  40.6857451  55.2384135   6.1288193
  41.2601203  55.0159316   5.3961386  41.2728434  55.3072829   6.8816794
  49.7437028  61.1257862   6.9352570  50.2568910  61.7587853   7.4374279
  50.3938252  60.5259057   6.5695930  41.0127038  57.2688596   0.1484078
  40.1764351  57.6063282   0.4693353  40.8731808  57.1337575  -0.7888785
  42.9880119  52.1125384   4.8563263  42.3344531  51.7974401   4.2319877
  42.9460593  51.4901124   5.5823085  44.0991324  62.3944679  -3.2283445
  43.1918385  62.1633932  -3.0292296  44.5962356  61.5982298  -3.0409464
  47.0059403  71.1042186  -0.3086759  46.3321101  71.4073883   0.2998199
  47.3925225  71.9071266  -0.6581302  46.2217859  58.6007317   9.1810910
  45.3040421  58.8222264   9.0232598  46.6378003  58.6753628   8.3222618
  47.0052907  59.9998733   4.3113590  47.7524726  60.5120130   4.0020712
  47.2744497  59.6782785   5.1717984  45.2779557  62.4957273   1.2940545
  44.3690776  62.2116306   1.3913014  45.3074641  62.9156352   0.4343852
  50.5098825  66.1063863   5.0631712  50.0561152  65.2654773   5.1196903
  49.8792791  66.7425261   5.4006492  49.4531744  57.0355849   6.2932380
  48.7154501  56.5233235   6.6242622  49.7058518  56.5956231   5.4815657
  48.9531764  67.9440360   5.9981530  49.2454738  68.5045417   5.2793896
  49.4630384  68.2368921   6.7534690  49.5543371  49.8132101   6.8874149
  49.8602248  48.9529464   6.6000064  50.2795976  50.4049721   6.6873143
  35.8467728  60.2162788   5.2755747  35.6492127  59.6232148   4.5506814
  35.2914392  59.9114998   5.9931686  43.8264451  60.1085894   7.3950340
  43.8813061  59.1559730   7.3192817  43.0155653  60.2645333   7.8791639
  44.9755645  64.0366017  -1.3671377  44.5375075  63.3201876  -1.8265739
  45.7166086  64.2642132  -1.9286285  41.7656811  58.7262954   5.1540719
  40.9524677  59.0257124   5.5605911  42.2615805  58.3318643   5.8715201
  43.9165389  68.7220711   7.0874984  43.8741568  68.9481557   6.1583516
  44.8328088  68.4884085   7.2360785  47.3631023  59.1904778  13.9855613
  47.7180411  59.4176251  14.8450079  48.0103154  59.5223155  13.3632868
  53.0928760  62.3123214   4.6904942  52.9546658  62.5024810   3.7626131
  52.7364979  63.0742597   5.1472993  41.2570886  56.2981309  10.7701954
  41.8970265  56.1570068  10.0724917  40.4248416  56.0115823  10.3940556
  53.1198139  64.3799741   9.7016213  53.5534646  64.2875030  10.5499267
  53.8329720  64.3557242   9.0636229  42.0331190  65.5983740   6.8836946
  42.8271788  65.1034060   6.6819521  41.3222882  65.0701603   6.5204652
  46.8526034  67.9801835  11.2349314  46.9063057  68.5492772  12.0027030
  45.9840816  68.1503720  10.8703351  38.3413953  59.7426822   2.9596699
  37.4111541  59.6811277   3.1766661  38.4371425  59.2202774   2.1633340
  38.2599502  56.2681634   5.5474941  38.5206320  57.1826968   5.4384101
  39.0816675  55.8006077   5.6971554  39.7324428  57.6819392  12.7173765
  40.4047481  57.4736754  12.0686414  38.9054214  57.4841478  12.2778998
  53.9813689  64.4223442  12.2349099  54.1749579  65.3269252  12.4808374
  53.8814307  63.9630861  13.0687684  45.6350000  54.3081332  14.7339426
  44.9877915  55.0071282  14.6403903  46.4051015  54.7417476  15.1015674
  49.0428798  64.5730185  17.8089979  48.8914304  64.3440736  16.8920063
  49.0333477  65.5300786  17.8221324  45.8114134  62.1462097  12.7936246
  46.7406194  62.2973257  12.6205213  45.3905164  62.2346118  11.9384892
  44.6102466  66.1712762  10.5634783  44.4713552  65.8031546  11.4360722
  43.8217062  66.6860401  10.3918741  45.2050618  71.2721858   1.9060320
  45.3802373  70.8009901   2.7205943  44.5183406  71.8987624   2.1341581
  46.1607681  65.5494364   7.9523621  45.8257514  65.5095134   8.8481271
  45.6611627  64.8839080   7.4794031  40.1351925  60.9561994  13.4776202
  39.9971723  60.2242233  14.0787741  41.0456848  60.8670895  13.1960390
  49.0966873  62.8950399  -1.7739319  48.4796043  62.1697227  -1.8706266
  48.6283361  63.6559759  -2.1172245  42.7634226  60.6681954  12.9659882
  43.4733844  60.0275146  12.9246500  42.7203534  60.9194849  13.8886063
  50.7521004  67.6049307  15.8866461  50.6933550  66.9208527  15.2197044
  51.1540523  68.3468297  15.4347087  41.4763160  57.6547172  14.7855522
  40.9400517  57.2037910  15.4377118  40.8879868  57.7893081  14.0425986
  39.7711703  74.4211221   8.6800180  40.0108301  75.0529745   9.3579199
  38.9280900  74.0699261   8.9665539  50.7538412  65.5688891  14.1180441
  49.8665190  65.2314813  14.2406840  51.3236963  64.8371922  14.3549206
  32.4067559  61.9012983   7.4423492  33.0938598  61.5874713   6.8544508
  32.2515687  62.8054347   7.1690744  37.2102281  56.7903179  11.8708516
  37.1260470  56.1828849  11.1358926  36.3884987  57.2812198  11.8718012
  44.2839565  70.2290343  11.0841684  44.2109736  71.0345315  11.5960989
  43.8416958  70.4282309  10.2589706  44.0729345  69.4662113   4.5944506
  43.2896866  70.0083794   4.6882730  44.7722090  69.9836093   4.9938747
  47.3825995  55.2756743   7.2378711  47.8794694  54.5226705   6.9179781
  46.6112976  55.3121060   6.6721920  55.2355752  60.9797108   8.8797003
  55.2245628  61.8621824   8.5090936  54.3673132  60.6268659   8.6851540
  46.7438248  70.1277177  13.2399843  47.4566221  70.7624642  13.1675744
  46.2528277  70.2241043  12.4239845  48.4655775  64.0328430   4.8117134
  47.5312054  64.1529893   4.6421839  48.6432444  63.1300897   4.5477144
  43.9660963  57.4174126   6.9650396  43.5958751  56.8645166   7.6531301
  44.4620056  56.8132259   6.4125396  51.8528327  59.8745749   5.3467169
  52.3188779  60.7073741   5.2727471  52.3035827  59.4090731   6.0512427
  41.7950162  67.8771621  14.0605414  42.4959621  68.5108104  14.2134808
  41.3245277  68.2186352  13.3001053  49.9204558  66.2189571   2.3453321
  50.1964402  66.1046165   3.2547195  49.0509057  65.8207056   2.3065494
  49.8244989  52.2426336   9.3858070  48.9108069  52.4730563   9.5540277
  50.2538091  52.3264780  10.2372102  49.5951448  60.4316228  11.8857964
  48.9422898  60.6792136  11.2310417  49.9731828  59.6180367  11.5520441
  46.5558622  70.4675922   5.9886134  46.7381016  69.6497577   6.4513887
  47.3791608  70.6843614   5.5511024  46.8900787  69.3944107   3.2501183
  47.4188554  68.8836561   2.6371345  47.1529007  69.0786637   4.1146716
  45.6439021  61.1736039  18.3724001  44.9679658  61.0730169  19.0426376
  46.4666655  61.0175253  18.8359998  37.3917880  67.4107976  10.9936516
  37.9771317  66.6651664  11.1264421  37.1942719  67.7211933  11.8773180
  40.2456535  70.4459223   6.0098959  39.5766911  70.9305351   5.5262999
  40.1069405  70.6928444   6.9242337  31.9835535  59.9813576   9.7140959
  32.0219634  59.4477167  10.5078078  31.4775828  59.4548782   9.0951937
  44.3861804  72.4802967  12.6081617  44.9380112  72.6434588  13.3730702
  44.7267997  73.0707405  11.9361642  39.3626297  54.8278117  13.2103502
  39.4267624  55.6892948  12.7980899  39.2993417  54.2152118  12.4775860
  38.8378570  56.9001249  16.8576536  39.4650608  56.5178327  17.4714060
  37.9806488  56.6815451  17.2232229  49.2372678  67.3064224  18.4630271
  49.7812582  67.9194183  17.9685226  48.6559523  67.8643803  18.9797284
  35.6144112  58.7077678   2.7894891  35.9097553  57.7988357   2.7361945
  34.7132148  58.6865418   2.4675893  47.5230191  70.4284942   9.5945299
  47.3981331  69.6274682   9.0856245  48.1809282  70.9231136   9.1059269
  39.1438359  56.7833675   8.7722439  38.4224945  57.3969643   8.6329913
  39.9331615  57.3191440   8.6939085  49.5865100  68.2293963  11.2224849
  48.6395435  68.1099314  11.1503176  49.9347873  67.3416461  11.3051111
  41.9464673  54.1188101  15.0463091  42.4699075  54.3650398  15.8089401
  41.7277006  54.9508136  14.6266229  37.3431954  56.3891776   2.9134216
  37.0144660  55.5089155   2.7309322  37.6971325  56.3339445   3.8010605
  46.5911533  68.0246679   7.4229202  46.4436495  67.0963386   7.6036772
  47.4165026  68.0466769   6.9386277  40.4573777  56.6764746   3.2809694
  40.7969850  57.2050667   2.5588302  40.9045898  57.0145152   4.0568260
  50.1945655  68.8475237   8.5094074  51.1192202  68.6418099   8.3718525
  50.0260958  68.5991639   9.4183416  43.1517218  55.0601797  12.7312762
  42.8114038  54.2609610  13.1333442  42.4456224  55.3603507  12.1589595
  43.8033690  52.1451109  11.1840085  44.6259759  51.6711587  11.0618975
  44.0471753  52.9241593  11.6838771  42.4441924  55.1739367   1.4802986
  43.1650287  55.5520620   0.9766703  41.8207228  55.8928244   1.5837964
  46.5873047  55.8784516   2.4161319  46.8036662  56.7609154   2.1150147
  46.1067114  55.4870730   1.6866961  41.3272269  58.8370230   8.9932063
  41.1816849  59.1510533   9.8856345  40.8497472  59.4555130   8.4402962
  43.1868651  55.8272778   9.0412953  43.1730220  54.9313871   8.7045251
  43.9041080  55.8343441   9.6751239  45.0394782  56.2610118  11.0866080
  44.7812560  57.1827188  11.0850411  44.5079822  55.8640552  11.7766544
  49.9840971  69.3660905   3.8656166  50.1577848  68.8007327   3.1130018
  50.4769862  70.1661800   3.6835656  35.8017931  61.3775574  11.9319725
  35.2571399  62.1535382  12.0639999  36.6797281  61.7246378  11.7738846
  42.5905547  54.7087158   4.3100523  42.7121459  53.7803804   4.5091411
  42.3007590  54.7225844   3.3978838  45.4596738  52.3942068   7.4467243
  45.4818435  52.4581401   6.4919222  45.8764797  51.5546577   7.6407749
  55.8380362  62.1297328   5.4846465  56.2811508  61.3804653   5.0865589
  54.9606872  62.1207464   5.1020197  50.9716143  68.6827669   0.9653064
  51.6667048  69.3034362   1.1840379  51.3139293  67.8323021   1.2405442
  36.5883953  60.5045470  14.8249881  35.8465689  60.6528106  15.4114512
  36.2676697  60.7653736  13.9616631  52.8707566  66.1327375   2.4940395
  53.3958891  66.4714648   1.7689715  52.7829919  65.1974390   2.3103529
  44.5327615  70.0461448  14.6230271  44.8414742  69.8010595  15.4952971
  45.3303097  70.2508087  14.1349142  44.5548227  72.1999358   6.8535648
  44.1153218  71.7075737   7.5468505  45.3056344  71.6572326   6.6127723
  37.0340566  68.3910899   6.8560276  37.8598586  68.0914671   6.4758920
  36.6834618  67.6218521   7.3050065  42.0022099  67.7437367   8.9257950
  41.3802109  67.0808072   8.6260178  42.6726966  67.7698499   8.2431597
  35.2349171  66.3097225   7.8149210  34.3981080  65.8819400   7.6333211
  35.2072817  66.5029669   8.7520001  42.0746627  56.2219155  18.5190456
  42.1234782  57.0981278  18.1368225  42.6169141  55.6796548  17.9462099
  52.5601473  66.7660278  17.7991593  51.7697016  66.7484417  17.2596092
  52.3234827  67.3048572  18.5540629  52.6799348  63.6152745  15.1124321
  52.7297353  63.4502752  16.0539844  52.5713271  62.7480004  14.7222202
  41.5635606  66.2941291   2.4016410  41.7123727  66.9776755   1.7483083
  42.3702050  66.2746381   2.9165866  49.9703110  59.5983673  16.4283628
  50.8712973  59.4590138  16.1367626  50.0451084  59.7638128  17.3681805
  44.3045915  56.9750528  15.2736814  43.4349225  57.2684094  15.0019403
  44.5405396  57.5590973  15.9944078  54.1817544  66.0349686  15.3566343
  53.8902353  66.3979667  16.1929804  53.5689676  65.3216695  15.1779675
  55.3813227  63.6002566   7.8768913  56.2160118  64.0392370   8.0406473
  55.5172356  63.1241219   7.0577159  52.4304733  61.1582301  13.8246401
  52.9058854  61.3509947  13.0165252  51.5070298  61.2141487  13.5789784
  39.3188239  62.3206468   3.4077479  39.0734281  61.4168798   3.6057689
  39.4884154  62.3223619   2.4656957  47.0084949  53.1930145  12.7902235
  47.5266893  53.9291171  12.4648723  46.6540082  53.4994138  13.6248994
  38.5883887  58.0534826   0.9063641  37.8953132  58.1279181   0.2503677
  38.3435639  57.2895169   1.4285157  47.2597543  49.6130427   8.3103131
  47.5399297  48.9453616   8.9363558  48.0448150  49.8059523   7.7977795
  45.0631012  68.7889421  -0.1271842  44.4904979  69.4079608  -0.5801371
  45.6363805  69.3388783   0.4068080  51.1306402  58.0348061  12.0574706
  52.0823825  58.1346159  12.0786930  50.9609852  57.2426330  12.5672791
  49.1520781  55.1203644  12.2434107  48.5570713  55.4008657  11.5480596
  48.8670478  55.6097545  13.0150848  48.2828272  69.0726571   1.0036740
  49.2158945  69.0072133   1.2069615  48.1951484  69.9082838   0.5451273
  50.9116288  68.3892441  -2.0359313  50.8329920  68.0552305  -1.1423555
  51.7325955  68.8814209  -2.0367840  53.6094479  61.2554181  11.1717006
  53.5770800  60.3170182  11.3576690  54.2195103  61.3338217  10.4382831
  45.4477810  60.1250234  -2.7855790  46.3936915  59.9956442  -2.7167372
  45.0692055  59.3864896  -2.3086362  53.7588968  58.0465224  11.2175289
  53.2428017  57.2623681  11.0305218  54.6428916  57.7183941  11.3821809
  51.4199695  51.7906240   7.1771102  51.2224516  51.4821328   8.0614434
  52.0299400  52.5167879   7.3069032  59.4271029  62.3170188  10.3123043
  60.1574418  62.0555476  10.8730746  58.8177975  61.5798910  10.3525111
  57.5086326  60.4578050  10.9097494  56.7819490  60.3234015  10.3013986
  57.0933613  60.7654879  11.7154212  45.3316503  64.1767980  18.6744867
  46.2519512  64.3546579  18.8684914  45.2966086  63.2324025  18.5224566
  43.6320727  58.0500210  -2.8500905  42.7252183  57.7533323  -2.7738191
  43.9096708  57.7530028  -3.7166618  34.5498668  59.3706574   7.5998142
  34.2301452  58.5171882   7.3072516  34.0032096  59.5855152   8.3556109
  38.3278575  62.0869015  11.3167648  38.5464585  63.0186122  11.3355682
  38.7404349  61.7276989  12.1022452  45.2482793  52.5937100   3.3043337
  44.4383522  52.2484185   3.6798583  45.9367210  52.2844644   3.8930948
  47.1773341  51.6715147   4.9267633  47.7304380  52.0910600   5.5857656
  47.4143428  50.7450895   4.9690589  43.2006441  57.6602220  20.7070397
  43.1003168  58.6096577  20.6382488  42.9827983  57.3320459  19.8346467
  34.4186928  62.9909485   9.5691263  33.7250399  62.5763438   9.0561218
  35.1659919  63.0330022   8.9724682  50.5552149  53.7815672   4.4346298
  49.9750818  54.4400476   4.0524350  50.2888081  52.9593016   4.0233715
  49.0055715  53.1820730   6.6367618  49.5055493  53.2937264   5.8281937
  49.6491323  52.8781782   7.2768426  43.0637711  61.0899359  19.5235459
  42.5804792  61.8899719  19.7299348  43.1498650  61.1007304  18.5702903
  36.3323670  62.9227739   7.4457278  36.3094358  63.0215426   6.4939161
  36.6424307  63.7692890   7.7674444  38.9911048  64.9803894  11.5603893
  39.9454302  64.9487836  11.4933824  38.7923572  64.5194518  12.3754119
  39.5810430  63.5505010  14.1274690  40.4003319  64.0449089  14.1509528
  39.8547238  62.6336978  14.0992258  49.3377027  55.9415762   3.4902646
  48.4502882  56.2265413   3.2722841  49.7531016  55.7809526   2.6429923
  52.6891563  55.9662283   7.2056985  53.4651953  56.4558736   7.4781602
  51.9639697  56.3920337   7.6628855  55.1264121  56.6789902   8.2630926
  55.7208612  56.4385638   7.5524234  55.1990705  55.9597033   8.8904462
  37.3461277  70.5223513   8.5774090  37.2115745  69.7623914   8.0112089
  36.9293339  71.2464413   8.1102879  48.4820240  65.7060437  -2.4149334
  49.1856090  65.9110439  -1.7991679  47.7582889  66.2737199  -2.1500251
  49.3118050  61.4570298   3.7052936  49.2553252  61.9138850   2.8660568
  49.8646393  60.6960983   3.5275779  53.1222856  57.2460030   4.5303055
  52.8659790  56.8456666   5.3611263  52.4975724  57.9603824   4.4053195
  57.4335194  59.9856103   7.0374347  56.8734752  60.0549293   7.8105909
  56.8278697  59.8097088   6.3173843  40.5030403  71.4192830   8.7892533
  40.3862787  72.3638263   8.6871223  39.6822849  71.1166392   9.1778332
  50.3906937  66.1442966  -0.3650874  51.2252541  65.7124165  -0.5473399
  50.2291280  65.9724980   0.5626020  50.0452830  62.6475079   1.0005465
  49.9901633  62.4819351   0.0593909  49.4198885  63.3551112   1.1567655
  34.8345345  57.8843144  14.8266887  35.4804208  57.3742098  15.3154113
  34.6262496  58.6211825  15.4010313  47.3598737  64.9523991  20.3259028
  48.2289896  65.1264644  19.9645663  46.8805488  65.7718408  20.2034757
  43.3548955  52.1483188   0.5790784  43.3427625  53.0925028   0.7359054
  44.2472377  51.9653334   0.2850245  41.5284917  72.0721092  12.0048462
  42.4312164  72.1044703  12.3214957  41.3022287  71.1421543  12.0194797
  43.2838519  70.8252079   8.6658540  42.3334150  70.8253940   8.5522912
  43.5871005  70.0784813   8.1494575  47.1701075  48.7425965   4.8336720
  46.4033470  48.1884452   4.9793403  47.5811780  48.8147834   5.6950872
  39.1742836  55.0310761  18.9241902  40.0374297  54.6747566  19.1345226
  38.6008246  54.6924656  19.6117306  59.0191213  76.6612617   9.7304303
  59.6569622  76.5419365   9.0267643  58.9012055  77.6093461   9.7892255
  55.8280919  76.6140045   9.6665827  55.4899430  76.4981110   8.7786362
  56.6970687  76.2131210   9.6466833  51.6867735  78.4675522   5.6562718
  51.1232600  78.3765459   4.8879006  51.5720130  77.6475426   6.1365211
  56.3100702  77.7674897  15.6252033  56.2989343  77.3727695  14.7532536
  56.4721341  77.0340970  16.2185804  49.2332166  79.9626713   8.4946939
  50.0253458  79.6217538   8.0793238  49.4728817  80.0721688   9.4149092
  57.2667293  82.1346489   0.9677183  56.6155273  82.7200570   0.5811197
  58.0611656  82.6652684   1.0272221  51.1922920  79.2235627   1.3664317
  51.9653796  78.6764614   1.2277193  51.5448319  80.0879876   1.5778779
  53.0307963  80.5512009  14.5731217  52.7397829  81.4557640  14.4577883
  53.6664947  80.5928536  15.2875286  53.9564170  77.9288857  11.1632576
  54.5527742  77.7044880  10.4489539  54.0139141  77.1873603  11.7658024
  53.5289198  75.3828293  -1.0017233  53.7814719  74.8609814  -1.7633770
  52.5913757  75.2194438  -0.8990549  58.5732481  74.3864071   6.8057511
  59.3595570  73.9683494   6.4547928  58.8371185  75.2910163   6.9739159
  58.7442558  79.8236921   1.5046167  58.1088391  79.8971548   2.2167072
  58.4139965  80.4130520   0.8265247  63.9740908  74.3239304   7.7090489
  64.7066080  73.7538521   7.9428319  63.2180264  73.9360905   8.1496995
  53.2485487  77.2856399   1.2007142  53.1321745  76.6101302   1.8688227
  53.3587747  76.7988773   0.3839295  55.5917028  76.7466546   4.9053832
  55.2275235  76.2197167   5.6166753  56.4484144  76.3565015   4.7320317
  61.4966329  68.0360878  12.1685098  61.1649653  68.9056289  11.9446313
  60.9011942  67.7197162  12.8479128  55.2322515  71.7756445  -0.0984820
  55.3996917  72.6436682   0.2685651  55.0419684  71.9383727  -1.0223531
  57.9897848  80.2373424  11.5681010  57.6898571  81.1398463  11.4596818
  57.6448908  79.9705608  12.4202163  51.4410330  76.6887221   7.6017715
  50.5160826  76.5563435   7.8095407  51.6894743  77.4681440   8.0987657
  61.3894992  72.7555965   9.2478448  60.4811869  72.6871373   8.9537209
  61.3382588  73.2327909  10.0760273  55.2111736  74.2314103   0.8861847
  55.0911361  74.6771154   1.7247327  54.5164324  74.5799421   0.3275385
  48.8019141  76.3320495   8.4361504  48.9311522  76.5854974   9.3500916
  48.1216592  76.9248203   8.1166159  52.9718628  87.0017745   4.5351978
  52.8942658  87.9525570   4.6140459  52.3680271  86.6563617   5.1926904
  55.4635858  74.1745610  17.1913345  54.6869192  74.7339530  17.1816210
  56.1026421  74.6602393  17.7128215  63.2556638  70.9572403  11.0256322
  62.6131018  71.2504936  10.3796116  62.7511567  70.8425323  11.8309518
  60.9096802  74.7035576   1.7142181  61.8214658  74.9362963   1.5389879
  60.4006449  75.2872620   1.1517260  53.7182230  76.9831063  16.7531312
  54.4596914  77.5216107  16.4766136  53.0119215  77.6097352  16.9102864
  59.1937570  79.1260204  15.3503474  59.6020926  78.6842614  14.6058106
  58.4714831  78.5512831  15.6037666  55.5468640  74.0632811  12.7237030
  56.3929835  74.4872224  12.8671679  55.4867277  73.4066435  13.4175594
  59.5166384  79.6861395   9.1055762  58.8875247  79.8507109   8.4031830
  59.1292046  80.1003004   9.8766726  63.3955616  80.6215832   6.4600126
  62.7106654  81.0014734   5.9097159  63.4799465  81.2311159   7.1932074
  58.6968085  71.7237179  14.3818204  58.4529017  72.4779240  13.8452480
  58.9728015  72.1022527  15.2165451  60.6506548  78.2675791  13.0595470
  60.8623443  78.9107551  12.3829851  60.6036296  77.4338108  12.5917400
  58.2532777  70.8793612   9.9632042  57.3917256  71.1774866  10.2548779
  58.2795211  71.0964011   9.0313074  55.0694346  79.4235803   6.3705848
  55.5332692  79.7023506   5.5810470  54.8051144  78.5219247   6.1878938
  51.9618427  78.9707284   9.3085611  52.5319784  79.3994553   8.6703095
  52.5526539  78.6889869  10.0069796  54.0063232  75.5458955   3.1795413
  54.7087275  75.9979999   3.6469339  53.6743861  74.9042774   3.8075306
  52.4543594  74.1370712  17.5546622  51.8242254  74.8186993  17.7882019
  52.3479682  74.0253793  16.6099760  47.7488566  73.8042508   8.4812546
  46.9587620  74.0600036   8.0052657  48.2399813  74.6190846   8.5864587
  61.7652376  81.1447747  11.2317827  62.5869819  80.7427934  10.9500509
  61.7614779  81.0415981  12.1833943  49.7003311  74.1687087   5.4396023
  48.9034475  74.2805781   5.9579519  49.4728904  74.5073739   4.5736913
  55.5308979  80.6931790  13.3878538  55.5953412  81.1552197  14.2236709
  54.8219903  80.0629155  13.5160847  46.0326269  74.0572998  10.9127537
  46.2834307  74.9420008  11.1785113  46.5685817  73.8777600  10.1402629
  69.8558369  77.4886495   7.5802799  69.1022077  76.9193893   7.4246803
  69.9905910  77.4549160   8.5273433  55.2456997  82.3599898   3.2557518
  55.1102672  83.2051433   3.6842366  55.7866809  82.5619175   2.4923452
  51.7324336  68.4391477  19.9171873  51.3391282  67.8857676  20.5919517
  52.5490477  68.7502056  20.3078391  48.6986394  79.8775336   3.8285443
  49.2110915  80.6718586   3.9791008  49.3509107  79.1801626   3.7619044
  50.5081279  82.9941092   5.9108196  50.6847907  83.9159057   5.7229180
  51.3038112  82.6799511   6.3402576  54.6492297  69.8549357  17.5092130
  55.3902011  70.4556510  17.4296592  54.8810220  69.1126994  16.9510172
  49.7933635  75.0405724  15.7870359  49.6787151  74.1390981  16.0877458
  48.9378153  75.2869421  15.4355176  56.8725473  82.9823464  17.3857860
  56.4289327  82.1959843  17.0678764  57.5342687  83.1702615  16.7201751
  51.6312594  84.5119266  11.9118538  52.1820019  84.3836329  11.1395532
  50.7924070  84.8114155  11.5613431  58.9706711  83.2626264  15.4139261
  58.9525187  84.0835145  14.9219530  59.8926631  83.1380339  15.6389402
  55.4279765  80.7770394  16.2562770  55.9608102  80.0158682  16.0262078
  54.8993846  80.4844045  16.9986924  58.5949460  65.8830460  11.7856411
  58.2513730  66.7732101  11.7095522  58.9628423  65.6932117  10.9225996
  46.6635311  78.2063990   4.6045013  47.5010533  78.6160998   4.3878721
  46.8413579  77.2663432   4.5745207  58.5599743  75.8739071   0.2928846
  58.0446366  76.6443675   0.5317234  58.2877051  75.2004207   0.9161908
  56.1446854  70.7188771   5.3514085  55.2888450  70.3295622   5.1719724
  56.5573806  70.7980732   4.4913870  57.6746001  68.2535115   9.7505645
  57.1710796  68.2165250   8.9373450  57.9676608  69.1627857   9.8102301
  53.9188887  68.3373844   8.7571826  54.7841883  68.1416653   8.3977716
  53.9866396  68.1084196   9.6841183  63.5334017  78.6271425   2.2282020
  62.7563460  78.2882585   1.7837182  64.2125498  78.6324048   1.5536985
  58.3486046  73.7466163   2.1188628  58.0436182  74.0612312   2.9698771
  59.3016488  73.8247583   2.1615961  56.7932478  79.9056386   3.7681582
  56.2653840  79.1709146   3.4554819  56.2919981  80.6831062   3.5221550
  61.7725324  78.1005407   8.8848628  61.1148999  78.7904668   8.9728757
  62.5765723  78.4901838   9.2282614  51.5251206  70.5676052   6.1288193
  52.0994958  70.3451234   5.3961386  52.1122188  70.6364747   6.8816794
  60.5830783  76.4549779   6.9352570  61.0962665  77.0879771   7.4374279
  61.2332007  75.8550975   6.5695930  51.8520793  72.5980513   0.1484078
  51.0158105  72.9355200   0.4693353  51.7125562  72.4629493  -0.7888785
  53.8273873  67.4417301   4.8563263  53.1738286  67.1266318   4.2319877
  53.7854348  66.8193042   5.5823085  54.9385078  77.7236596  -3.2283445
  54.0312140  77.4925850  -3.0292296  55.4356110  76.9274216  -3.0409464
  57.0611614  73.9299235   9.1810910  56.1434175  74.1514182   9.0232598
  57.4771757  74.0045545   8.3222618  57.8446662  75.3290650   4.3113590
  58.5918480  75.8412048   4.0020712  58.1138251  75.0074703   5.1717984
  56.1173312  77.8249191   1.2940545  55.2084531  77.5408224   1.3913014
  56.1468395  78.2448270   0.4343852  61.3492579  81.4355781   5.0631712
  60.8954906  80.5946691   5.1196903  60.7186546  82.0717179   5.4006492
  60.2925499  72.3647767   6.2932380  59.5548255  71.8525153   6.6242622
  60.5452272  71.9248148   5.4815657  59.7925518  83.2732277   5.9981530
  60.0848493  83.8337334   5.2793896  60.3024139  83.5660838   6.7534690
  60.3937126  65.1424019   6.8874149  60.6996003  64.2821382   6.6000064
  61.1189731  65.7341639   6.6873143  46.6861482  75.5454705   5.2755747
  46.4885882  74.9524066   4.5506814  46.1308146  75.2406915   5.9931686
  54.6658206  75.4377812   7.3950340  54.7206816  74.4851648   7.3192817
  53.8549408  75.5937251   7.8791639  55.8149399  79.3657935  -1.3671377
  55.3768829  78.6493794  -1.8265739  56.5559840  79.5934050  -1.9286285
  52.6050566  74.0554872   5.1540719  51.7918431  74.3549042   5.5605911
  53.1009560  73.6610560   5.8715201  54.7559144  84.0512628   7.0874984
  54.7135322  84.2773475   6.1583516  55.6721842  83.8176003   7.2360785
  58.2024777  74.5196696  13.9855613  58.5574165  74.7468169  14.8450079
  58.8496909  74.8515073  13.3632868  63.9322514  77.6415132   4.6904942
  63.7940413  77.8316728   3.7626131  63.5758733  78.4034515   5.1472993
  52.0964640  71.6273227  10.7701954  52.7364020  71.4861986  10.0724917
  51.2642171  71.3407740  10.3940556  63.9591894  79.7091659   9.7016213
  64.3928401  79.6166948  10.5499267  64.6723475  79.6849159   9.0636229
  52.8724944  80.9275657   6.8836946  53.6665543  80.4325978   6.6819521
  52.1616637  80.3993521   6.5204652  57.6919789  83.3093753  11.2349314
  57.7456811  83.8784689  12.0027030  56.8234570  83.4795638  10.8703351
  49.1807708  75.0718739   2.9596699  48.2505296  75.0103195   3.1766661
  49.2765180  74.5494692   2.1633340  49.0993257  71.5973552   5.5474941
  49.3600074  72.5118885   5.4384101  49.9210429  71.1297995   5.6971554
  50.5718182  73.0111309  12.7173765  51.2441236  72.8028671  12.0686414
  49.7447969  72.8133395  12.2778998  64.8207443  79.7515360  12.2349099
  65.0143334  80.6561170  12.4808374  64.7208062  79.2922779  13.0687684
  56.4743754  69.6373250  14.7339426  55.8271669  70.3363200  14.6403903
  57.2444770  70.0709394  15.1015674  59.8822552  79.9022102  17.8089979
  59.7308059  79.6732654  16.8920063  59.8727232  80.8592704  17.8221324
  56.6507889  77.4754015  12.7936246  57.5799949  77.6265175  12.6205213
  56.2298919  77.5638036  11.9384892  55.4496220  81.5004679  10.5634783
  55.3107306  81.1323464  11.4360722  54.6610817  82.0152319  10.3918741
  56.0444372  86.6013776   1.9060320  56.2196128  86.1301819   2.7205943
  55.3577160  87.2279542   2.1341581  57.0001435  80.8786282   7.9523621
  56.6651268  80.8387052   8.8481271  56.5005381  80.2130998   7.4794031
  50.9745679  76.2853912  13.4776202  50.8365477  75.5534151  14.0787741
  51.8850603  76.1962812  13.1960390  59.9360627  78.2242316  -1.7739319
  59.3189798  77.4989145  -1.8706266  59.4677116  78.9851677  -2.1172245
  53.6027980  75.9973872  12.9659882  54.3127599  75.3567064  12.9246500
  53.5597288  76.2486766  13.8886063  61.5914759  82.9341225  15.8866461
  61.5327305  82.2500445  15.2197044  61.9934277  83.6760215  15.4347087
  52.3156914  72.9839089  14.7855522  51.7794271  72.5329828  15.4377118
  51.7273623  73.1184998  14.0425986  50.6105458  89.7503139   8.6800180
  50.8502056  90.3821663   9.3579199  49.7674654  89.3991179   8.9665539
  51.7259173  72.4427741  -2.6518015  50.8488639  72.3216542  -3.0155768
  52.2016926  71.6513819  -2.9039126  61.5932166  80.8980809  14.1180441
  60.7058945  80.5606731  14.2406840  62.1630717  80.1663840  14.3549206
  43.2461313  77.2304901   7.4423492  43.9332353  76.9166631   6.8544508
  43.0909442  78.1346265   7.1690744  48.0496035  72.1195097  11.8708516
  47.9654224  71.5120767  11.1358926  47.2278742  72.6104115  11.8718012
  55.1233319  85.5582261  11.0841684  55.0503491  86.3637233  11.5960989
  54.6810713  85.7574227  10.2589706  54.9123099  84.7954031   4.5944506
  54.1290621  85.3375711   4.6882730  55.6115844  85.3128011   4.9938747
  58.2219749  70.6048661   7.2378711  58.7188449  69.8518623   6.9179781
  57.4506731  70.6412977   6.6721920  66.0749507  76.3089026   8.8797003
  66.0639383  77.1913742   8.5090936  65.2066886  75.9560577   8.6851540
  57.5832003  85.4569095  13.2399843  58.2959975  86.0916560  13.1675744
  57.0922032  85.5532961  12.4239845  59.3049530  79.3620348   4.8117134
  58.3705809  79.4821810   4.6421839  59.4826198  78.4592815   4.5477144
  54.8054718  72.7466044   6.9650396  54.4352505  72.1937084   7.6531301
  55.3013810  72.1424177   6.4125396  62.6922081  75.2037667   5.3467169
  63.1582533  76.0365659   5.2727471  63.1429582  74.7382649   6.0512427
  52.6343916  83.2063539  14.0605414  53.3353376  83.8400022  14.2134808
  52.1639031  83.5478270  13.3001053  60.7598312  81.5481488   2.3453321
  61.0358156  81.4338083   3.2547195  59.8902811  81.1498973   2.3065494
  60.6638744  67.5718254   9.3858070  59.7501824  67.8022481   9.5540277
  61.0931845  67.6556698  10.2372102  60.4345202  75.7608146  11.8857964
  59.7816653  76.0084054  11.2310417  60.8125582  74.9472284  11.5520441
  57.3952376  85.7967839   5.9886134  57.5774771  84.9789495   6.4513887
  58.2185362  86.0135531   5.5511024  57.7294542  84.7236024   3.2501183
  58.2582308  84.2128479   2.6371345  57.9922761  84.4078555   4.1146716
  56.4832775  76.5027957  18.3724001  55.8073412  76.4022086  19.0426376
  57.3060409  76.3467171  18.8359998  48.2311635  82.7399894  10.9936516
  48.8165071  81.9943582  11.1264421  48.0336473  83.0503850  11.8773180
  51.0850290  85.7751141   6.0098959  50.4160665  86.2597269   5.5262999
  50.9463159  86.0220362   6.9242337  42.8229289  75.3105494   9.7140959
  42.8613389  74.7769085  10.5078078  42.3169582  74.7840699   9.0951937
  55.2255558  87.8094885  12.6081617  55.7773866  87.9726506  13.3730702
  55.5661752  88.3999322  11.9361642  50.2020052  70.1570034  13.2103502
  50.2661378  71.0184865  12.7980899  50.1387172  69.5444036  12.4775860
  49.6772324  72.2293167  16.8576536  50.3044363  71.8470244  17.4714060
  48.8200243  72.0107369  17.2232229  60.0766433  82.6356142  18.4630271
  60.6206337  83.2486100  17.9685226  59.4953278  83.1935720  18.9797284
  46.4537867  74.0369596   2.7894891  46.7491308  73.1280274   2.7361945
  45.5525903  74.0157335   2.4675893  58.3623946  85.7576860   9.5945299
  58.2375085  84.9566600   9.0856245  59.0203037  86.2523053   9.1059269
  49.9832114  72.1125593   8.7722439  49.2618700  72.7261560   8.6329913
  50.7725370  72.6483357   8.6939085  60.4258854  83.5585880  11.2224849
  59.4789190  83.4391231  11.1503176  60.7741627  82.6708378  11.3051111
  52.7858427  69.4480019  15.0463091  53.3092829  69.6942316  15.8089401
  52.5670761  70.2800054  14.6266229  48.1825708  71.7183694   2.9134216
  47.8538415  70.8381073   2.7309322  48.5365079  71.6631362   3.8010605
  57.4305287  83.3538596   7.4229202  57.2830250  82.4255304   7.6036772
  58.2558781  83.3758687   6.9386277  51.2967532  72.0056663   3.2809694
  51.6363604  72.5342585   2.5588302  51.7439652  72.3437070   4.0568260
  61.0339409  84.1767155   8.5094074  61.9585957  83.9710016   8.3718525
  60.8654713  83.9283556   9.4183416  53.9910972  70.3893714  12.7312762
  53.6507793  69.5901527  13.1333442  53.2849979  70.6895425  12.1589595
  54.6427444  67.4743027  11.1840085  55.4653514  67.0003505  11.0618975
  54.8865508  68.2533510  11.6838771  53.2835679  70.5031285   1.4802986
  54.0044041  70.8812538   0.9766703  52.6600983  71.2220162   1.5837964
  57.4266802  71.2076434   2.4161319  57.6430416  72.0901072   2.1150147
  56.9460869  70.8162647   1.6866961  52.1666023  74.1662147   8.9932063
  52.0210604  74.4802450   9.8856345  51.6891227  74.7847048   8.4402962
  54.0262406  71.1564695   9.0412953  54.0123975  70.2605789   8.7045251
  54.7434834  71.1635359   9.6751239  55.8788537  71.5902035  11.0866080
  55.6206314  72.5119106  11.0850411  55.3473577  71.1932470  11.7766544
  60.8234725  84.6952823   3.8656166  60.9971603  84.1299245   3.1130018
  61.3163617  85.4953717   3.6835656  46.6411685  76.7067492  11.9319725
  46.0965153  77.4827300  12.0639999  47.5191035  77.0538296  11.7738846
  53.4299302  70.0379076   4.3100523  53.5515213  69.1095722   4.5091411
  53.1401344  70.0517762   3.3978838  56.2990492  67.7233986   7.4467243
  56.3212189  67.7873319   6.4919222  56.7158551  66.8838495   7.6407749
  66.6774117  77.4589246   5.4846465  67.1205263  76.7096571   5.0865589
  65.8000627  77.4499382   5.1020197  61.8109898  84.0119587   0.9653064
  62.5060802  84.6326280   1.1840379  62.1533048  83.1614938   1.2405442
  47.4277707  75.8337388  14.8249881  46.6859443  75.9820023  15.4114512
  47.1070451  76.0945654  13.9616631  63.7101321  81.4619293   2.4940395
  64.2352645  81.8006565   1.7689715  63.6223674  80.5266308   2.3103529
  55.3721370  85.3753366  14.6230271  55.6808496  85.1302513  15.4952971
  56.1696852  85.5800005  14.1349142  55.3941982  87.5291276   6.8535648
  54.9546972  87.0367654   7.5468505  56.1450099  86.9864243   6.6127723
  47.8734321  83.7202817   6.8560276  48.6992341  83.4206589   6.4758920
  47.5228373  82.9510439   7.3050065  52.8415854  83.0729285   8.9257950
  52.2195863  82.4099990   8.6260178  53.5120721  83.0990417   8.2431597
  46.0742926  81.6389143   7.8149210  45.2374834  81.2111317   7.6333211
  46.0466571  81.8321586   8.7520001  52.9140381  71.5511073  18.5190456
  52.9628537  72.4273196  18.1368225  53.4562896  71.0088466  17.9462099
  63.3995227  82.0952196  17.7991593  62.6090771  82.0776335  17.2596092
  63.1628582  82.6340490  18.5540629  63.5193102  78.9444663  15.1124321
  63.5691107  78.7794670  16.0539844  63.4107025  78.0771922  14.7222202
  52.4029361  81.6233208   2.4016410  52.5517481  82.3068673   1.7483083
  53.2095804  81.6038298   2.9165866  60.8096864  74.9275591  16.4283628
  61.7106727  74.7882055  16.1367626  60.8844839  75.0930045  17.3681805
  55.1439670  72.3042445  15.2736814  54.2742979  72.5976011  15.0019403
  55.3799150  72.8882890  15.9944078  65.0211299  81.3641604  15.3566343
  64.7296107  81.7271585  16.1929804  64.4083430  80.6508612  15.1779675
  66.2206981  78.9294484   7.8768913  67.0553873  79.3684288   8.0406473
  66.3566110  78.4533137   7.0577159  63.2698487  76.4874219  13.8246401
  63.7452609  76.6801865  13.0165252  62.3464053  76.5433405  13.5789784
  50.1581994  77.6498386   3.4077479  49.9128036  76.7460716   3.6057689
  50.3277908  77.6515536   2.4656957  57.8478704  68.5222062  12.7902235
  58.3660648  69.2583089  12.4648723  57.4933836  68.8286056  13.6248994
  49.4277641  73.3826743   0.9063641  48.7346886  73.4571098   0.2503677
  49.1829393  72.6187087   1.4285157  58.0991298  64.9422345   8.3103131
  58.3793052  64.2745534   8.9363558  58.8841905  65.1351440   7.7977795
  55.9024766  84.1181339  -0.1271842  55.3298733  84.7371526  -0.5801371
  56.4757560  84.6680700   0.4068080  61.9700156  73.3639979  12.0574706
  62.9217579  73.4638076  12.0786930  61.8003607  72.5718247  12.5672791
  59.9914536  70.4495562  12.2434107  59.3964468  70.7300575  11.5480596
  59.7064232  70.9389463  13.0150848  59.1222026  84.4018489   1.0036740
  60.0552699  84.3364050   1.2069615  59.0345239  85.2374756   0.5451273
  64.4488234  76.5846098  11.1717006  64.4164554  75.6462099  11.3576690
  65.0588858  76.6630135  10.4382831  56.2871565  75.4542151  -2.7855790
  57.2330670  75.3248360  -2.7167372  55.9085810  74.7156813  -2.3086362
  64.5982722  73.3757142  11.2175289  64.0821771  72.5915599  11.0305218
  65.4822671  73.0475859  11.3821809  62.2593449  67.1198157   7.1771102
  62.0618270  66.8113246   8.0614434  62.8693155  67.8459796   7.3069032
  70.2664784  77.6462105  10.3123043  70.9968172  77.3847393  10.8730746
  69.6571729  76.9090827  10.3525111  68.3480081  75.7869968  10.9097494
  67.6213244  75.6525933  10.3013986  67.9327368  76.0946796  11.7154212
  56.1710257  79.5059898  18.6744867  57.0913267  79.6838497  18.8684914
  56.1359840  78.5615943  18.5224566  54.4714482  73.3792128  -2.8500905
  53.5645937  73.0825241  -2.7738191  54.7490463  73.0821946  -3.7166618
  45.3892422  74.6998491   7.5998142  45.0695207  73.8463799   7.3072516
  44.8425851  74.9147069   8.3556109  49.1672330  77.4160932  11.3167648
  49.3858340  78.3478040  11.3355682  49.5798104  77.0568907  12.1022452
  56.0876548  67.9229018   3.3043337  55.2777276  67.5776103   3.6798583
  56.7760965  67.6136561   3.8930948  58.0167096  67.0007064   4.9267633
  58.5698135  67.4202518   5.5857656  58.2537182  66.0742812   4.9690589
  54.0400195  72.9894138  20.7070397  53.9396922  73.9388495  20.6382488
  53.8221737  72.6612377  19.8346467  53.2413267  70.2379063  -2.7088925
  54.1032431  70.5633961  -2.4493108  53.4263611  69.4510559  -3.2215860
  45.2580682  78.3201403   9.5691263  44.5644154  77.9055356   9.0561218
  46.0053673  78.3621939   8.9724682  61.3945903  69.1107589   4.4346298
  60.8144572  69.7692394   4.0524350  61.1281836  68.2884934   4.0233715
  59.8449469  68.5112647   6.6367618  60.3449248  68.6229182   5.8281937
  60.4885077  68.2073700   7.2768426  53.9031465  76.4191277  19.5235459
  53.4198547  77.2191637  19.7299348  53.9892404  76.4299222  18.5702903
  47.1717425  78.2519656   7.4457278  47.1488113  78.3507344   6.4939161
  47.4818061  79.0984807   7.7674444  49.8304803  80.3095812  11.5603893
  50.7848056  80.2779754  11.4933824  49.6317326  79.8486435  12.3754119
  50.4204185  78.8796928  14.1274690  51.2397074  79.3741006  14.1509528
  50.6940993  77.9628896  14.0992258  60.1770781  71.2707680   3.4902646
  59.2896636  71.5557331   3.2722841  60.5924770  71.1101443   2.6429923
  63.5285317  71.2954201   7.2056985  64.3045707  71.7850653   7.4781602
  62.8033451  71.7212255   7.6628855  65.9657876  72.0081820   8.2630926
  66.5602367  71.7677556   7.5524234  66.0384460  71.2888951   8.8904462
  48.1855032  85.8515431   8.5774090  48.0509499  85.0915832   8.0112089
  47.7687094  86.5756331   8.1102879  59.3213995  81.0352355  -2.4149334
  60.0249845  81.2402357  -1.7991679  58.5976643  81.6029116  -2.1500251
  60.1511805  76.7862216   3.7052936  60.0947006  77.2430767   2.8660568
  60.7040147  76.0252900   3.5275779  63.9616611  72.5751948   4.5303055
  63.7053545  72.1748583   5.3611263  63.3369479  73.2895742   4.4053195
  68.2728949  75.3148021   7.0374347  67.7128507  75.3841210   7.8105909
  67.6672452  75.1389006   6.3173843  51.3424157  86.7484748   8.7892533
  51.2256542  87.6930181   8.6871223  50.5216604  86.4458310   9.1778332
  61.2300692  81.4734884  -0.3650874  62.0646296  81.0416082  -0.5473399
  61.0685035  81.3016897   0.5626020  60.8846584  77.9766997   1.0005465
  60.8295388  77.8111268   0.0593909  60.2592639  78.6843030   1.1567655
  45.6739099  73.2135061  14.8266887  46.3197963  72.7034015  15.3154113
  45.4656250  73.9503743  15.4010313  58.1992491  80.2815909  20.3259028
  59.0683651  80.4556561  19.9645663  57.7199243  81.1010326  20.2034757
  54.1942710  67.4775106   0.5790784  54.1821379  68.4216946   0.7359054
  55.0866131  67.2945251   0.2850245  52.3678672  87.4013010  12.0048462
  53.2705918  87.4336620  12.3214957  52.1416042  86.4713461  12.0194797
  54.1232274  86.1543996   8.6658540  53.1727905  86.1545858   8.5522912
  54.4264760  85.4076731   8.1494575  58.0094829  64.0717883   4.8336720
  57.2427225  63.5176369   4.9793403  58.4205534  64.1439751   5.6950872
  50.0136590  70.3602679  18.9241902  50.8768052  70.0039483  19.1345226
  49.4402001  70.0216573  19.6117306  69.8584967  91.9904535   9.7304303
  70.4963377  91.8711282   9.0267643  69.7405810  92.9385379   9.7892255
  66.6674673  91.9431963   9.6665827  66.3293185  91.8273028   8.7786362
  67.5364442  91.5423128   9.6466833  67.1494456  93.0966815  15.6252033
  67.1383097  92.7019613  14.7532536  67.3115096  92.3632887  16.2185804
  60.0725921  95.2918631   8.4946939  60.8647213  94.9509456   8.0793238
  60.3122571  95.4013606   9.4149092  63.8701717  95.8803926  14.5731217
  63.5791583  96.7849557  14.4577883  64.5058702  95.9220454  15.2875286
  64.7957924  93.2580775  11.1632576  65.3921497  93.0336797  10.4489539
  64.8532896  92.5165520  11.7658024  69.4126236  89.7155989   6.8057511
  70.1989325  89.2975412   6.4547928  69.6764940  90.6202081   6.9739159
  72.3360083  83.3652796  12.1685098  72.0043408  84.2348207  11.9446313
  71.7405696  83.0489080  12.8479128  68.8291603  95.5665342  11.5681010
  68.5292326  96.4690381  11.4596818  68.4842662  95.2997525  12.4202163
  62.2804084  92.0179139   7.6017715  61.3554580  91.8855353   7.8095407
  62.5288497  92.7973358   8.0987657  72.2288746  88.0847882   9.2478448
  71.3205624  88.0163291   8.9537209  72.1776342  88.5619827  10.0760273
  59.6412895  91.6612412   8.4361504  59.7705276  91.9146891   9.3500916
  58.9610346  92.2540120   8.1166159  66.3029612  89.5037528  17.1913345
  65.5262946  90.0631448  17.1816210  66.9420175  89.9894311  17.7128215
  74.0950393  86.2864321  11.0256322  73.4524773  86.5796854  10.3796116
  73.5905321  86.1717241  11.8309518  64.5575984  92.3122981  16.7531312
  65.2990669  92.8508025  16.4766136  63.8512970  92.9389270  16.9102864
  70.0331324  94.4552122  15.3503474  70.4414680  94.0134532  14.6058106
  69.3108586  93.8804749  15.6037666  66.3862394  89.3924728  12.7237030
  67.2323589  89.8164142  12.8671679  66.3261032  88.7358353  13.4175594
  69.5361839  87.0529097  14.3818204  69.2922771  87.8071157  13.8452480
  69.8121770  87.4314444  15.2165451  71.4900302  93.5967709  13.0595470
  71.7017197  94.2399469  12.3829851  71.4430050  92.7630026  12.5917400
  69.0926531  86.2085530   9.9632042  68.2311010  86.5066783  10.2548779
  69.1188966  86.4255929   9.0313074  62.8012182  94.2999202   9.3085611
  63.3713539  94.7286470   8.6703095  63.3920293  94.0181787  10.0069796
  63.2937348  89.4662629  17.5546622  62.6636009  90.1478910  17.7882019
  63.1873436  89.3545711  16.6099760  58.5882321  89.1334425   8.4812546
  57.7981375  89.3891954   8.0052657  59.0793568  89.9482763   8.5864587
  60.5397066  89.4979005   5.4396023  59.7428229  89.6097699   5.9579519
  60.3122658  89.8365657   4.5736913  66.3702734  96.0223708  13.3878538
  66.4347166  96.4844115  14.2236709  65.6613657  95.3921073  13.5160847
  56.8720024  89.3864916  10.9127537  57.1228062  90.2711926  11.1785113
  57.4079572  89.2069517  10.1402629  62.5718091  83.7683395  19.9171873
  62.1785036  83.2149594  20.5919517  63.3884231  84.0793974  20.3078391
  65.4886052  85.1841274  17.5092130  66.2295765  85.7848427  17.4296592
  65.7203975  84.4418912  16.9510172  60.6327390  90.3697642  15.7870359
  60.5180905  89.4682899  16.0877458  59.7771908  90.6161338  15.4355176
  67.7119228  98.3115382  17.3857860  67.2683082  97.5251760  17.0678764
  68.3736441  98.4994532  16.7201751  62.4706349  99.8411183  11.9118538
  63.0213774  99.7128247  11.1395532  61.6317825 100.1406072  11.5613431
  69.8100466  98.5918182  15.4139261  69.7918941  99.4127063  14.9219530
  70.7320386  98.4672257  15.6389402  66.2673520  96.1062311  16.2562770
  66.8001857  95.3450599  16.0262078  65.7387601  95.8135963  16.9986924
  69.4343215  81.2122377  11.7856411  69.0907484  82.1024019  11.7095522
  69.8022177  81.0224035  10.9225996  57.5029065  93.5355908   4.6045013
  58.3404287  93.9452916   4.3878721  57.6807333  92.5955350   4.5745207
  66.9840609  86.0480689   5.3514085  66.1282205  85.6587539   5.1719724
  67.3967560  86.1272650   4.4913870  68.5139755  83.5827032   9.7505645
  68.0104551  83.5457168   8.9373450  68.8070362  84.4919775   9.8102301
  64.7582641  83.6665762   8.7571826  65.6235638  83.4708571   8.3977716
  64.8260150  83.4376114   9.6841183  62.3644960  85.8967970   6.1288193
  62.9388712  85.6743151   5.3961386  62.9515943  85.9656665   6.8816794
  64.6667628  82.7709219   4.8563263  64.0132040  82.4558236   4.2319877
  64.6248102  82.1484959   5.5823085  67.9005368  89.2591152   9.1810910
  66.9827930  89.4806099   9.0232598  68.3165512  89.3337463   8.3222618
  71.2330880  80.4715936   6.8874149  71.5389757  79.6113300   6.6000064
  71.9583485  81.0633557   6.6873143  57.5255237  90.8746623   5.2755747
  57.3279636  90.2815984   4.5506814  56.9701901  90.5698833   5.9931686
  65.5051960  90.7669729   7.3950340  65.5600570  89.8143566   7.3192817
  64.6943162  90.9229169   7.8791639  63.4444320  89.3846789   5.1540719
  62.6312186  89.6840960   5.5605911  63.9403314  88.9902478   5.8715201
  69.0418532  89.8488614  13.9855613  69.3967920  90.0760087  14.8450079
  69.6890663  90.1806990  13.3632868  62.9358395  86.9565145  10.7701954
  63.5757774  86.8153904  10.0724917  62.1035925  86.6699658  10.3940556
  68.5313543  98.6385671  11.2349314  68.5850566  99.2076607  12.0027030
  67.6628325  98.8087556  10.8703351  59.9387011  86.9265470   5.5474941
  60.1993829  87.8410803   5.4384101  60.7604184  86.4589912   5.6971554
  61.4111937  88.3403227  12.7173765  62.0834990  88.1320589  12.0686414
  60.5841723  88.1425313  12.2778998  67.3137509  84.9665168  14.7339426
  66.6665424  85.6655117  14.6403903  68.0838524  85.4001312  15.1015674
  70.7216307  95.2314020  17.8089979  70.5701813  95.0024572  16.8920063
  70.7120986  96.1884621  17.8221324  67.4901643  92.8045933  12.7936246
  68.4193703  92.9557092  12.6205213  67.0692673  92.8929953  11.9384892
  66.2889975  96.8296597  10.5634783  66.1501060  96.4615382  11.4360722
  65.5004571  97.3444237  10.3918741  61.8139434  91.6145830  13.4776202
  61.6759232  90.8826069  14.0787741  62.7244357  91.5254730  13.1960390
  64.4421735  91.3265789  12.9659882  65.1521353  90.6858981  12.9246500
  64.3991043  91.5778684  13.8886063  72.4308513  98.2633143  15.8866461
  72.3721059  97.5792363  15.2197044  72.8328032  99.0052133  15.4347087
  63.1550669  88.3131007  14.7855522  62.6188026  87.8621746  15.4377118
  62.5667377  88.4476916  14.0425986  72.4325921  96.2272726  14.1180441
  71.5452699  95.8898648  14.2406840  73.0024472  95.4955758  14.3549206
  54.0855068  92.5596818   7.4423492  54.7726107  92.2458548   6.8544508
  53.9303196  93.4638183   7.1690744  58.8889790  87.4487015  11.8708516
  58.8047979  86.8412684  11.1358926  58.0672496  87.9396033  11.8718012
  69.0613504  85.9340578   7.2378711  69.5582203  85.1810541   6.9179781
  68.2900485  85.9704895   6.6721920  68.4225757 100.7861013  13.2399843
  69.1353730 101.4208478  13.1675744  67.9315786 100.8824879  12.4239845
  65.6448472  88.0757961   6.9650396  65.2746260  87.5229002   7.6531301
  66.1407565  87.4716095   6.4125396  63.4737671  98.5355456  14.0605414
  64.1747130  99.1691939  14.2134808  63.0032786  98.8770188  13.3001053
  71.5032498  82.9010172   9.3858070  70.5895578  83.1314399   9.5540277
  71.9325600  82.9848616  10.2372102  71.2738957  91.0900064  11.8857964
  70.6210407  91.3375971  11.2310417  71.6519337  90.2764202  11.5520441
  67.3226530  91.8319875  18.3724001  66.6467167  91.7314004  19.0426376
  68.1454164  91.6759089  18.8359998  59.0705389  98.0691811  10.9936516
  59.6558826  97.3235499  11.1264421  58.8730227  98.3795768  11.8773180
  53.6623044  90.6397412   9.7140959  53.7007143  90.1061002  10.5078078
  53.1563337  90.1132617   9.0951937  61.0413806  85.4861952  13.2103502
  61.1055133  86.3476783  12.7980899  60.9780926  84.8735954  12.4775860
  60.5166079  87.5585085  16.8576536  61.1438117  87.1762162  17.4714060
  59.6593997  87.3399287  17.2232229  70.9160187  97.9648060  18.4630271
  71.4600091  98.5778018  17.9685226  70.3347032  98.5227638  18.9797284
  57.2931621  89.3661514   2.7894891  57.5885062  88.4572192   2.7361945
  56.3919657  89.3449253   2.4675893  60.8225868  87.4417510   8.7722439
  60.1012454  88.0553478   8.6329913  61.6119124  87.9775275   8.6939085
  63.6252182  84.7771937  15.0463091  64.1486584  85.0234233  15.8089401
  63.4064515  85.6091972  14.6266229  59.0219463  87.0475611   2.9134216
  58.6932169  86.1672990   2.7309322  59.3758834  86.9923280   3.8010605
  62.1361286  87.3348581   3.2809694  62.4757359  87.8634502   2.5588302
  62.5833407  87.6728987   4.0568260  64.8304727  85.7185632  12.7312762
  64.4901547  84.9193445  13.1333442  64.1243733  86.0187343  12.1589595
  65.4821199  82.8034944  11.1840085  66.3047268  82.3295423  11.0618975
  65.7259262  83.5825428  11.6838771  63.0059777  89.4954065   8.9932063
  62.8604358  89.8094368   9.8856345  62.5284981  90.1138965   8.4402962
  64.8656160  86.4856613   9.0412953  64.8517729  85.5897706   8.7045251
  65.5828588  86.4927277   9.6751239  66.7182291  86.9193953  11.0866080
  66.4600069  87.8411024  11.0850411  66.1867331  86.5224388  11.7766544
  57.4805440  92.0359409  11.9319725  56.9358908  92.8119217  12.0639999
  58.3584790  92.3830214  11.7738846  64.2693056  85.3670993   4.3100523
  64.3908968  84.4387639   4.5091411  63.9795099  85.3809679   3.3978838
  67.1384247  83.0525904   7.4467243  67.1605944  83.1165237   6.4919222
  67.5552306  82.2130412   7.6407749  58.2671462  91.1629306  14.8249881
  57.5253198  91.3111941  15.4114512  57.9464206  91.4237571  13.9616631
  66.2115124 100.7045284  14.6230271  66.5202251 100.4594431  15.4952971
  67.0090606 100.9091922  14.1349142  56.9136680  96.9681061   7.8149210
  56.0768589  96.5403235   7.6333211  56.8860326  97.1613504   8.7520001
  63.7534136  86.8802991  18.5190456  63.8022291  87.7565113  18.1368225
  64.2956650  86.3380384  17.9462099  74.2388982  97.4244114  17.7991593
  73.4484525  97.4068253  17.2596092  74.0022336  97.9632408  18.5540629
  74.3586857  94.2736580  15.1124321  74.4084862  94.1086588  16.0539844
  74.2500780  93.4063839  14.7222202  71.6490619  90.2567508  16.4283628
  72.5500482  90.1173973  16.1367626  71.7238593  90.4221963  17.3681805
  65.9833424  87.6334363  15.2736814  65.1136734  87.9267929  15.0019403
  66.2192905  88.2174808  15.9944078  75.8605053  96.6933522  15.3566343
  75.5689862  97.0563502  16.1929804  75.2477185  95.9800530  15.1779675
  74.1092242  91.8166136  13.8246401  74.5846363  92.0093783  13.0165252
  73.1857807  91.8725322  13.5789784  68.6872458  83.8513980  12.7902235
  69.2054402  84.5875007  12.4648723  68.3327591  84.1577973  13.6248994
  68.9385052  80.2714262   8.3103131  69.2186806  79.6037452   8.9363558
  69.7235659  80.4643358   7.7977795  72.8093911  88.6931896  12.0574706
  73.7611334  88.7929994  12.0786930  72.6397361  87.9010165  12.5672791
  70.8308290  85.7787480  12.2434107  70.2358222  86.0592492  11.5480596
  70.5457987  86.2681381  13.0150848  75.2881988  91.9138016  11.1717006
  75.2558309  90.9754017  11.3576690  75.8982612  91.9922053  10.4382831
  75.4376477  88.7049060  11.2175289  74.9215526  87.9207516  11.0305218
  76.3216425  88.3767776  11.3821809  73.0987204  82.4490075   7.1771102
  72.9012025  82.1405163   8.0614434  73.7086909  83.1751714   7.3069032
  67.0104012  94.8351815  18.6744867  67.9307021  95.0130414  18.8684914
  66.9753595  93.8907861  18.5224566  56.2286177  90.0290409   7.5998142
  55.9088961  89.1755717   7.3072516  55.6819605  90.2438987   8.3556109
  60.0066084  92.7452850  11.3167648  60.2252094  93.6769958  11.3355682
  60.4191858  92.3860824  12.1022452  66.9270302  83.2520935   3.3043337
  66.1171030  82.9068020   3.6798583  67.6154719  82.9428479   3.8930948
  68.8560850  82.3298982   4.9267633  69.4091889  82.7494435   5.5857656
  69.0930937  81.4034730   4.9690589  64.8793950  88.3186056  20.7070397
  64.7790677  89.2680413  20.6382488  64.6615492  87.9904295  19.8346467
  56.0974437  93.6493320   9.5691263  55.4037908  93.2347273   9.0561218
  56.8447428  93.6913857   8.9724682  70.6843224  83.8404565   6.6367618
  71.1843002  83.9521099   5.8281937  71.3278832  83.5365618   7.2768426
  64.7425220  91.7483194  19.5235459  64.2592301  92.5483555  19.7299348
  64.8286159  91.7591139  18.5702903  58.0111179  93.5811574   7.4457278
  57.9881867  93.6799261   6.4939161  58.3211816  94.4276725   7.7674444
  60.6698557  95.6387729  11.5603893  61.6241811  95.6071672  11.4933824
  60.4711081  95.1778353  12.3754119  61.2597939  94.2088845  14.1274690
  62.0790828  94.7032924  14.1509528  61.5334747  93.2920813  14.0992258
  74.3679072  86.6246119   7.2056985  75.1439462  87.1142571   7.4781602
  73.6427206  87.0504173   7.6628855  56.5132854  88.5426979  14.8266887
  57.1591717  88.0325933  15.3154113  56.3050005  89.2795661  15.4010313
  69.0386246  95.6107827  20.3259028  69.9077405  95.7848479  19.9645663
  68.5592997  96.4302243  20.2034757  63.2072426 102.7304928  12.0048462
  64.1099673 102.7628538  12.3214957  62.9809796 101.8005379  12.0194797
  68.8488584  79.4009800   4.8336720  68.0820979  78.8468287   4.9793403
  69.2599289  79.4731669   5.6950872  60.8530345  85.6894596  18.9241902
  61.7161806  85.3331401  19.1345226  60.2795755  85.3508491  19.6117306
  73.4111845  99.0975313  19.9171873  73.0178791  98.5441511  20.5919517
  74.2277986  99.4085891  20.3078391  76.3279806 100.5133192  17.5092130
  77.0689520 101.1140345  17.4296592  76.5597729  99.7710830  16.9510172
  71.3559833 102.8877002  16.8576536  71.9831872 102.5054080  17.4714060
  70.4987752 102.6691204  17.2232229  74.5927890 102.2094908  18.5190456
  74.6416046 103.0857031  18.1368225  75.1350405 101.6672301  17.9462099
  75.7187704 103.6477973  20.7070397  75.6184431 104.5972330  20.6382488
  75.5009246 103.3196212  19.8346467  67.3526608 103.8718897  14.8266887
  67.9985472 103.3617851  15.3154113  67.1443759 104.6087578  15.4010313
  71.6924099 101.0186514  18.9241902  72.5555561 100.6623319  19.1345226
  71.1189510 100.6800409  19.6117306  46.0331720  44.6593669   4.1103167
  45.5895574  43.8730048   3.7924071  46.6948933  44.8472820   3.4447057
  48.1312958  44.9396469   2.1384568  48.1131433  45.7605350   1.6464837
  49.0532878  44.8150544   2.3634709  49.0428799  41.5792307   4.5335286
  48.8914305  41.3502859   3.6165370  49.0333478  42.5362909   4.5466631
  50.7521006  44.6111430   2.6111768  50.6933552  43.9270650   1.9442351
  51.1540524  45.3530420   2.1592394  49.2372679  44.3126347   5.1875578
  49.7812583  44.9256305   4.6930533  48.6559524  44.8705925   5.7042591
  52.5601474  43.7722401   4.5236899  51.7697018  43.7546540   3.9841399
  52.3234828  44.3110695   5.2785936  54.1817546  43.0411809   2.0811649
  53.8902354  43.4041790   2.9175110  53.5689677  42.3278817   1.9024982
  47.3598738  41.9586114   7.0504335  48.2289898  42.1326766   6.6890969
  46.8805490  42.7780531   6.9280064  59.0191214  53.6674740  -3.5450391
  59.6569624  53.5481487  -4.2487051  58.9012057  54.6155584  -3.4862439
  55.8280920  53.6202168  -3.6088866  55.4899432  53.5043233  -4.4968331
  56.6970688  53.2193333  -3.6287860  56.3100703  54.7737020   2.3497339
  56.2989344  54.3789818   1.4777843  56.4721343  54.0403092   2.9431111
  49.2332168  56.9688836  -4.7807755  50.0253460  56.6279661  -5.1961455
  49.4728818  57.0783811  -3.8605601  53.0307964  57.5574131   1.2976523
  52.7397830  58.4619762   1.1823190  53.6664949  57.5990659   2.0120593
  53.9564171  54.9350980  -2.1122117  54.5527743  54.7107002  -2.8265154
  54.0139143  54.1935725  -1.5096669  63.9740909  51.3301427  -5.5664204
  64.7066081  50.7600644  -5.3326375  63.2180265  50.9423027  -5.1257699
  61.4966330  45.0423001  -1.1069596  61.1649655  45.9118412  -1.3308381
  60.9011943  44.7259285  -0.4275565  57.9897849  57.2435547  -1.7073683
  57.6898572  58.1460586  -1.8157876  57.6448909  56.9767730  -0.8552530
  61.3894993  49.7618087  -4.0276246  60.4811870  49.6933496  -4.3217485
  61.3382589  50.2390032  -3.1994420  52.9718629  64.0079867  -8.7402715
  52.8942659  64.9587692  -8.6614235  52.3680273  63.6625740  -8.0827789
  55.4635859  51.1807733   3.9158652  54.6869193  51.7401653   3.9061516
  56.1026422  51.6664516   4.4373522  63.2556639  47.9634526  -2.2498372
  62.6131020  48.2567059  -2.8958577  62.7511568  47.8487446  -1.4445175
  53.7182231  53.9893186   3.4776619  54.4596916  54.5278230   3.2011442
  53.0119217  54.6159475   3.6348170  59.1937571  56.1322327   2.0748780
  59.6020927  55.6904737   1.3303413  58.4714832  55.5574954   2.3282973
  55.5468641  51.0694933  -0.5517663  56.3929836  51.4934347  -0.4083014
  55.4867279  50.4128558   0.1420900  59.5166385  56.6923517  -4.1698931
  58.8875248  56.8569231  -4.8722863  59.1292048  57.1065127  -3.3987967
  63.3955617  57.6277955  -6.8154567  62.7106656  58.0076856  -7.3657534
  63.4799467  58.2373282  -6.0822619  58.6968086  48.7299302   1.1063511
  58.4529018  49.4841362   0.5697786  58.9728017  49.1084649   1.9410758
  60.6506549  55.2737914  -0.2159224  60.8623444  55.9169674  -0.8924843
  60.6036297  54.4400231  -0.6837294  55.0694347  56.4297925  -6.9048846
  55.5332693  56.7085628  -7.6944223  54.8051145  55.5281370  -7.0875755
  51.9618428  55.9769407  -3.9669083  52.5319785  56.4056675  -4.6051598
  52.5526540  55.6951991  -3.2684897  52.4543595  51.1432834   4.2791929
  51.8242256  51.8249115   4.5127326  52.3479683  51.0315916   3.3345067
  61.7652377  58.1509869  -2.0436866  62.5869821  57.7490057  -2.3254185
  61.7614780  58.0478104  -1.0920751  55.5308980  57.6993913   0.1123844
  55.5953413  58.1614320   0.9482016  54.8219904  57.0691278   0.2406154
  69.8558370  54.4948618  -5.6951895  69.1022078  53.9256016  -5.8507890
  69.9905911  54.4611282  -4.7481260  51.7324338  45.4453600   6.6417180
  51.3391283  44.8919799   7.3164824  52.5490478  45.7564179   7.0323697
  50.5081280  60.0003215  -7.3646497  50.6847908  60.9221179  -7.5525513
  51.3038114  59.6861634  -6.9352117  54.6492299  46.8611479   4.2337436
  55.3902012  47.4618632   4.1541899  54.8810221  46.1189117   3.6755479
  49.7933637  52.0467846   2.5115666  49.6787152  51.1453104   2.8122765
  48.9378154  52.2931543   2.1600483  56.8725474  59.9885587   4.1103167
  56.4289329  59.2021965   3.7924071  57.5342688  60.1764737   3.4447057
  51.6312596  61.5181388  -1.3636155  52.1820021  61.3898452  -2.1359161
  50.7924071  61.8176277  -1.7141262  58.9706712  60.2688387   2.1384568
  58.9525188  61.0897268   1.6464837  59.8926633  60.1442462   2.3634709
  55.4279767  57.7832516   2.9808076  55.9608103  57.0220804   2.7507384
  54.8993848  57.4906168   3.7232231  61.7725325  55.1067529  -4.3906065
  61.1149000  55.7966791  -4.3025937  62.5765725  55.4963961  -4.0472079
  60.5830784  53.4611902  -6.3402124  61.0962666  54.0941894  -5.8380414
  61.2332008  52.8613097  -6.7058764  57.0611615  50.9361357  -4.0943783
  56.1434176  51.1576304  -4.2522095  57.4771759  51.0107668  -4.9532076
  61.3492580  58.4417903  -8.2122981  60.8954907  57.6008813  -8.1557791
  60.7186547  59.0779302  -7.8748201  59.7925520  60.2794400  -7.2773163
  60.0848494  60.8399457  -7.9960797  60.3024140  60.5722961  -6.5220004
  54.7559145  61.0574751  -6.1879710  54.7135324  61.2835597  -7.1171178
  55.6721844  60.8238126  -6.0393909  58.2024779  51.5258819   0.7100919
  58.5574166  51.7530292   1.5695385  58.8496910  51.8577195   0.0878175
  63.9322516  54.6477254  -8.5849751  63.7940414  54.8378850  -9.5128562
  63.5758734  55.4096637  -8.1281700  63.9591895  56.7153781  -3.5738480
  64.3928402  56.6229071  -2.7255426  64.6723476  56.6911282  -4.2118464
  52.8724946  57.9337780  -6.3917747  53.6665544  57.4388100  -6.5935172
  52.1616638  57.4055643  -6.7550041  57.6919790  60.3155876  -2.0405379
  57.7456812  60.8846812  -1.2727663  56.8234571  60.4857761  -2.4051342
  50.5718183  50.0173432  -0.5580928  51.2441237  49.8090794  -1.2068279
  49.7447970  49.8195518  -0.9975696  64.8207445  56.7577482  -1.0405595
  65.0143335  57.6623293  -0.7946320  64.7208063  56.2984901  -0.2067010
  56.4743755  46.6435373   1.4584733  55.8271670  47.3425322   1.3649209
  57.2444771  47.0771517   1.8260981  59.8822553  56.9084225   4.5335286
  59.7308060  56.6794777   3.6165370  59.8727233  57.8654826   4.5466631
  56.6507890  54.4816138  -0.4818448  57.5799950  54.6327297  -0.6549480
  56.2298920  54.5700158  -1.3369801  55.4496222  58.5066802  -2.7119910
  55.3107307  58.1385586  -1.8393972  54.6610818  59.0214441  -2.8835952
  56.0444374  63.6075899 -11.3694373  56.2196129  63.1363942 -10.5548751
  55.3577162  64.2341665 -11.1413113  57.0001437  57.8848405  -5.3231072
  56.6651269  57.8449175  -4.4273422  56.5005382  57.2193121  -5.7960662
  50.9745681  53.2916035   0.2021509  50.8365479  52.5596274   0.8033048
  51.8850604  53.2024935  -0.0794303  53.6027981  53.0035994  -0.3094811
  54.3127600  52.3629186  -0.3508193  53.5597289  53.2548889   0.6131369
  61.5914760  59.9403347   2.6111768  61.5327306  59.2562568   1.9442351
  61.9934278  60.6822337   2.1592394  52.3156915  49.9901212   1.5100828
  51.7794272  49.5391950   2.1622424  51.7273624  50.1247121   0.7671293
  50.6105459  66.7565261  -4.5954513  50.8502057  67.3883785  -3.9175495
  49.7674655  66.4053301  -4.3089154  61.5932167  57.9042931   0.8425748
  60.7058946  57.5668853   0.9652146  62.1630718  57.1725963   1.0794513
  55.1233321  62.5644384  -2.1913009  55.0503492  63.3699355  -1.6793705
  54.6810714  62.7636350  -3.0164988  54.9123100  61.8016154  -8.6810188
  54.1290622  62.3437834  -8.5871963  55.6115845  62.3190133  -8.2815947
  66.0749508  53.3151149  -4.3957691  66.0639384  54.1975864  -4.7663758
  65.2066887  52.9622700  -4.5903154  57.5832004  62.4631218  -0.0354851
  58.2959976  63.0978683  -0.1078949  57.0922033  62.5595084  -0.8514849
  59.3049531  56.3682470  -8.4637559  58.3705810  56.4883933  -8.6332855
  59.4826200  55.4654937  -8.7277549  62.6922082  52.2099790  -7.9287525
  63.1582535  53.0427781  -8.0027222  63.1429583  51.7444771  -7.2242266
  52.6343918  60.2125661   0.7850720  53.3353377  60.8462144   0.9380114
  52.1639033  60.5540393   0.0246360  60.4345204  52.7670269  -1.3896729
  59.7816654  53.0146176  -2.0444277  60.8125584  51.9534407  -1.7234252
  57.3952378  62.8029962  -7.2868559  57.5774772  61.9851618  -6.8240807
  58.2185364  63.0197654  -7.7243669  57.7294543  61.7298147 -10.0253511
  58.2582310  61.2190602 -10.6383349  57.9922763  61.4140677  -9.1607978
  56.4832777  53.5090080   5.0969308  55.8073414  53.4084209   5.7671683
  57.3060411  53.3529293   5.5605305  48.2311636  59.7462016  -2.2818177
  48.8165073  59.0005704  -2.1490273  48.0336474  60.0565973  -1.3981513
  51.0850291  62.7813264  -7.2655735  50.4160666  63.2659391  -7.7491695
  50.9463161  63.0282484  -6.3512356  55.2255560  64.8157007  -0.6673076
  55.7773868  64.9788629   0.0976009  55.5661753  65.4061445  -1.3393051
  49.6772325  49.2355290   3.5821843  50.3044364  48.8532367   4.1959367
  48.8200244  49.0169491   3.9477535  60.0766434  59.6418265   5.1875578
  60.6206338  60.2548223   4.6930533  59.4953279  60.1997843   5.7042591
  58.3623947  62.7638983  -3.6809394  58.2375086  61.9628723  -4.1898449
  59.0203038  63.2585176  -4.1695424  60.4258855  60.5648003  -2.0529844
  59.4789191  60.4453354  -2.1251517  60.7741628  59.6770501  -1.9703583
  52.7858429  46.4542142   1.7708398  53.3092830  46.7004438   2.5334707
  52.5670762  47.2862177   1.3511535  57.4305289  60.3600719  -5.8525492
  57.2830251  59.4317426  -5.6717922  58.2558782  60.3820810  -6.3368417
  61.0339410  61.1829278  -4.7660619  61.9585958  60.9772139  -4.9036168
  60.8654714  60.9345679  -3.8571278  53.9910974  47.3955837  -0.5441932
  53.6507794  46.5963650  -0.1421252  53.2849980  47.6957548  -1.1165098
  55.8788538  48.5964158  -2.1888613  55.6206316  49.5181229  -2.1904283
  55.3473578  48.1994593  -1.4988149  60.8234727  61.7014945  -9.4098528
  60.9971604  61.1361368 -10.1624675  61.3163618  62.5015840  -9.5919038
  46.6411686  53.7129614  -1.3434969  46.0965154  54.4889422  -1.2114694
  47.5191036  54.0600419  -1.5015847  66.6774118  54.4651368  -7.7908228
  67.1205264  53.7158693  -8.1889105  65.8000628  54.4561504  -8.1734496
  61.8109899  61.0181710 -12.3101629  62.5060804  61.6388402 -12.0914315
  62.1533049  60.1677061 -12.0349251  47.4277708  52.8399511   1.5495188
  46.6859444  52.9882146   2.1359818  47.1070453  53.1007776   0.6861937
  63.7101322  58.4681415 -10.7814299  64.2352646  58.8068688 -11.5064979
  63.6223675  57.5328430 -10.9651164  55.3721371  62.3815489   1.3475578
  55.6808497  62.1364636   2.2198278  56.1696853  62.5862127   0.8594448
  55.3941983  64.5353398  -6.4219045  54.9546973  64.0429777  -5.7286189
  56.1450100  63.9926366  -6.6626970  47.8734322  60.7264939  -6.4194417
  48.6992342  60.4268711  -6.7995774  47.5228374  59.9572562  -5.9704629
  52.8415855  60.0791407  -4.3496744  52.2195864  59.4162113  -4.6494516
  53.5120722  60.1052539  -5.0323096  52.9140383  48.5573196   5.2435762
  52.9628538  49.4335318   4.8613532  53.4562897  48.0150589   4.6707406
  63.3995228  59.1014319   4.5236899  62.6090772  59.0838458   3.9841399
  63.1628583  59.6402612   5.2785936  63.5193103  55.9506785   1.8369628
  63.5691108  55.7856793   2.7785151  63.4107027  55.0834044   1.4467509
  60.8096866  51.9337713   3.1528935  61.7106728  51.7944178   2.8612932
  60.8844840  52.0992168   4.0927112  55.1439671  49.3104568   1.9982121
  54.2742980  49.6038134   1.7264709  55.3799151  49.8945013   2.7189385
  65.0211300  58.3703727   2.0811649  64.7296108  58.7333707   2.9175110
  64.4083431  57.6570735   1.9024982  66.2206982  55.9356606  -5.3985780
  67.0553874  56.3746410  -5.2348220  66.3566111  55.4595260  -6.2177535
  63.2698488  53.4936341   0.5491707  63.7452610  53.6863988  -0.2589441
  62.3464054  53.5495527   0.3035091  57.8478705  45.5284185  -0.4852459
  58.3660649  46.2645212  -0.8105970  57.4933838  45.8348178   0.3494300
  61.9700157  50.3702101  -1.2179987  62.9217580  50.4700199  -1.1967763
  61.8003608  49.5780370  -0.7081903  59.9914537  47.4557685  -1.0320586
  59.3964469  47.7362697  -1.7274097  59.7064234  47.9451586  -0.2603845
  64.4488235  53.5908221  -2.1037687  64.4164555  52.6524222  -1.9178003
  65.0588859  53.6692258  -2.8371862  64.5982724  50.3819264  -2.0579404
  64.0821772  49.5977721  -2.2449475  65.4822672  50.0537981  -1.8932885
  70.2664785  54.6524228  -2.9631651  70.9968174  54.3909516  -2.4023947
  69.6571731  53.9152950  -2.9229583  68.3480082  52.7932090  -2.3657199
  67.6213246  52.6588055  -2.9740708  67.9327369  53.1008919  -1.5600481
  56.1710259  56.5122020   5.3990174  57.0913268  56.6900619   5.5930220
  56.1359842  55.5678066   5.2469873  49.1672331  54.4223055  -1.9587045
  49.3858341  55.3540163  -1.9399011  49.5798105  54.0631029  -1.1732241
  54.0400196  49.9956261   7.4315704  53.9396923  50.9450618   7.3627795
  53.8221739  49.6674499   6.5591774  53.9031467  53.4253399   6.2480765
  53.4198548  54.2253760   6.4544654  53.9892406  53.4361344   5.2948209
  49.8304804  57.3157934  -1.7150801  50.7848058  57.2841876  -1.7820869
  49.6317328  56.8548558  -0.9000575  50.4204186  55.8859050   0.8519997
  51.2397075  56.3803129   0.8754834  50.6940994  54.9691018   0.8237564
  63.5285318  48.3016323  -6.0697708  64.3045709  48.7912776  -5.7973092
  62.8033453  48.7274378  -5.6125839  65.9657877  49.0143943  -5.0123768
  66.5602368  48.7739679  -5.7230459  66.0384461  48.2951073  -4.3850231
  48.1855033  62.8577554  -4.6980603  48.0509501  62.0977954  -5.2642605
  47.7687095  63.5818453  -5.1651814  68.2728950  52.3210144  -6.2380347
  67.7128508  52.3903333  -5.4648784  67.6672453  52.1451128  -6.9580850
  51.3424159  63.7546871  -4.4862160  51.2256543  64.6992303  -4.5883470
  50.5216605  63.4520432  -4.0976361  45.6739100  50.2197184   1.5512194
  46.3197964  49.7096138   2.0399419  45.4656251  50.9565866   2.1255619
  58.1992493  57.2878032   7.0504335  59.0683652  57.4618684   6.6890969
  57.7199244  58.1072448   6.9280064  52.3678673  64.4075133  -1.2706232
  53.2705919  64.4398743  -0.9539737  52.1416043  63.4775583  -1.2559896
  54.1232275  63.1606119  -4.6096153  53.1727906  63.1607981  -4.7231781
  54.4264761  62.4138854  -5.1260119  50.0136591  47.3664801   5.6487208
  50.8768053  47.0101606   5.8590533  49.4402002  47.0278696   6.3362612
  69.8584968  68.9966657  -3.5450391  70.4963378  68.8773405  -4.2487051
  69.7405811  69.9447501  -3.4862439  66.6674675  68.9494086  -3.6088866
  66.3293186  68.8335150  -4.4968331  67.5364443  68.5485251  -3.6287860
  67.1494458  70.1028937   2.3497339  67.1383098  69.7081736   1.4777843
  67.3115097  69.3695010   2.9431111  60.0725922  72.2980754  -4.7807755
  60.8647214  71.9571578  -5.1961455  60.3122572  72.4075729  -3.8605601
  63.8701719  72.8866049   1.2976523  63.5791585  73.7911680   1.1823190
  64.5058703  72.9282577   2.0120593  64.7957926  70.2642898  -2.1122117
  65.3921498  70.0398920  -2.8265154  64.8532897  69.5227643  -1.5096669
  69.4126237  66.7218111  -6.4697183  70.1989326  66.3037534  -6.8206766
  69.6764941  67.6264203  -6.3015534  72.3360084  60.3714919  -1.1069596
  72.0043409  61.2410330  -1.3308381  71.7405698  60.0551203  -0.4275565
  68.8291604  72.5727465  -1.7073683  68.5292327  73.4752503  -1.8157876
  68.4842663  72.3059648  -0.8552530  62.2804085  69.0241261  -5.6736978
  61.3554582  68.8917476  -5.4659287  62.5288498  69.8035481  -5.1767036
  72.2288748  65.0910005  -4.0276246  71.3205625  65.0225413  -4.3217485
  72.1776343  65.5681950  -3.1994420  59.6412896  68.6674535  -4.8393189
  59.7705277  68.9209014  -3.9253778  58.9610348  69.2602243  -5.1588534
  66.3029613  66.5099650   3.9158652  65.5262947  67.0693571   3.9061516
  66.9420176  66.9956433   4.4373522  74.0950394  63.2926443  -2.2498372
  73.4524774  63.5858976  -2.8958577  73.5905323  63.1779364  -1.4445175
  64.5575986  69.3185104   3.4776619  65.2990670  69.8570148   3.2011442
  63.8512971  69.9451392   3.6348170  70.0331325  71.4614244   2.0748780
  70.4414681  71.0196655   1.3303413  69.3108587  70.8866872   2.3282973
  66.3862395  66.3986851  -0.5517663  67.2323591  66.8226265  -0.4083014
  66.3261033  65.7420475   0.1420900  69.5361841  64.0591219   1.1063511
  69.2922773  64.8133280   0.5697786  69.8121771  64.4376567   1.9410758
  71.4900303  70.6029832  -0.2159224  71.7017199  71.2461592  -0.8924843
  71.4430052  69.7692148  -0.6837294  69.0926532  63.2147652  -3.3122652
  68.2311011  63.5128906  -3.0205914  69.1188967  63.4318051  -4.2441619
  62.8012183  71.3061324  -3.9669083  63.3713540  71.7348593  -4.6051598
  63.3920295  71.0243909  -3.2684897  63.2937349  66.4724752   4.2791929
  62.6636010  67.1541033   4.5127326  63.1873437  66.3607834   3.3345067
  58.5882322  66.1396548  -4.7942147  57.7981376  66.3954076  -5.2702037
  59.0793569  66.9544886  -4.6890107  60.5397067  66.5041127  -7.8358670
  59.7428231  66.6159821  -7.3175175  60.3122659  66.8427779  -8.7017780
  66.3702735  73.0285830   0.1123844  66.4347167  73.4906238   0.9482016
  65.6613659  72.3983195   0.2406154  56.8720025  66.3927038  -2.3627156
  57.1228063  67.2774048  -2.0969580  57.4079573  66.2131640  -3.1352065
  62.5718092  60.7745518   6.6417180  62.1785038  60.2211716   7.3164824
  63.3884232  61.0856096   7.0323697  65.4886053  62.1903397   4.2337436
  66.2295767  62.7910550   4.1541899  65.7203976  61.4481035   3.6755479
  60.6327391  67.3759764   2.5115666  60.5180906  66.4745021   2.8122765
  59.7771909  67.6223461   2.1600483  67.7119229  75.3177504   4.1103167
  67.2683083  74.5313883   3.7924071  68.3736442  75.5056655   3.4447057
  62.4706350  76.8473306  -1.3636155  63.0213775  76.7190369  -2.1359161
  61.6317826  77.1468195  -1.7141262  69.8100467  75.5980304   2.1384568
  69.7918942  76.4189185   1.6464837  70.7320387  75.4734380   2.3634709
  66.2673521  73.1124434   2.9808076  66.8001858  72.3512722   2.7507384
  65.7387602  72.8198086   3.7232231  69.4343216  58.2184500  -1.4898282
  69.0907485  59.1086141  -1.5659171  69.8022179  58.0286157  -2.3528697
  57.5029067  70.5418030  -8.6709680  58.3404289  70.9515039  -8.8875972
  57.6807334  69.6017472  -8.7009486  66.9840610  63.0542812  -7.9240609
  66.1282206  62.6649662  -8.1034970  67.3967562  63.1334772  -8.7840823
  68.5139756  60.5889155  -3.5249049  68.0104552  60.5519290  -4.3381243
  68.8070363  61.4981898  -3.4652392  64.7582642  60.6727885  -4.5182867
  65.6235639  60.4770693  -4.8776978  64.8260151  60.4438236  -3.5913510
  62.3644961  62.9030093  -7.1466500  62.9388713  62.6805274  -7.8793307
  62.9515944  62.9718787  -6.3937899  64.6667629  59.7771341  -8.4191431
  64.0132041  59.4620359  -9.0434816  64.6248103  59.1547082  -7.6931608
  67.9005369  66.2653275  -4.0943783  66.9827931  66.4868222  -4.2522095
  68.3165513  66.3399586  -4.9532076  71.2330882  57.4778059  -6.3880544
  71.5389759  56.6175422  -6.6754629  71.9583487  58.0695679  -6.5881550
  57.5255238  67.8808746  -7.9998946  57.3279638  67.2878106  -8.7247880
  56.9701902  67.5760956  -7.2823008  65.5051961  67.7731852  -5.8804353
  65.5600571  66.8205688  -5.9561877  64.6943163  67.9291291  -5.3963055
  63.4444321  66.3908912  -8.1213974  62.6312187  66.6903082  -7.7148782
  63.9403316  65.9964601  -7.4039492  69.0418533  66.8550736   0.7100919
  69.3967921  67.0822209   1.5695385  69.6890664  67.1869113   0.0878175
  62.9358396  63.9627267  -2.5052739  63.5757775  63.8216026  -3.2029776
  62.1035927  63.6761781  -2.8814137  68.5313545  75.6447793  -2.0405379
  68.5850567  76.2138730  -1.2727663  67.6628326  75.8149678  -2.4051342
  59.9387013  63.9327592  -7.7279753  60.1993830  64.8472926  -7.8370592
  60.7604185  63.4652035  -7.5783140  61.4111938  65.3465349  -0.5580928
  62.0834991  65.1382712  -1.2068279  60.5841724  65.1487435  -0.9975696
  67.3137510  61.9727290   1.4584733  66.6665425  62.6717240   1.3649209
  68.0838525  62.4063434   1.8260981  70.7216308  72.2376143   4.5335286
  70.5701814  72.0086694   3.6165370  70.7120987  73.1946744   4.5466631
  67.4901644  69.8108055  -0.4818448  68.4193704  69.9619215  -0.6549480
  67.0692674  69.8992076  -1.3369801  66.2889976  73.8358720  -2.7119910
  66.1501062  73.4677504  -1.8393972  65.5004572  74.3506359  -2.8835952
  61.8139435  68.6207952   0.2021509  61.6759233  67.8888191   0.8033048
  62.7244359  68.5316853  -0.0794303  64.4421736  68.3327912  -0.3094811
  65.1521354  67.6921104  -0.3508193  64.3991044  68.5840807   0.6131369
  72.4308515  75.2695265   2.6111768  72.3721061  74.5854485   1.9442351
  72.8328033  76.0114255   2.1592394  63.1550670  65.3193130   1.5100828
  62.6188027  64.8683868   2.1622424  62.5667378  65.4539038   0.7671293
  72.4325922  73.2334849   0.8425748  71.5452701  72.8960771   0.9652146
  73.0024473  72.5017880   1.0794513  54.0855069  69.5658941  -5.8331201
  54.7726109  69.2520671  -6.4210186  53.9303198  70.4700305  -6.1063950
  58.8889791  64.4549137  -1.4046177  58.8047980  63.8474807  -2.1395767
  58.0672497  64.9458156  -1.4036681  69.0613505  62.9402701  -6.0375982
  69.5582204  62.1872663  -6.3574912  68.2900486  62.9767018  -6.6032773
  68.4225759  77.7923135  -0.0354851  69.1353731  78.4270600  -0.1078949
  67.9315787  77.8887001  -0.8514849  65.6448474  65.0820084  -6.3104298
  65.2746261  64.5291124  -5.6223392  66.1407566  64.4778217  -6.8629298
  63.4737672  75.5417579   0.7850720  64.1747132  76.1754062   0.9380114
  63.0032787  75.8832310   0.0246360  71.5032500  59.9072294  -3.8896623
  70.5895579  60.1376521  -3.7214416  71.9325601  59.9910738  -3.0382591
  71.2738958  68.0962186  -1.3896729  70.6210408  68.3438094  -2.0444277
  71.6519338  67.2826325  -1.7234252  67.3226531  68.8381997   5.0969308
  66.6467168  68.7376127   5.7671683  68.1454165  68.6821211   5.5605305
  59.0705390  75.0753934  -2.2818177  59.6558827  74.3297622  -2.1490273
  58.8730229  75.3857891  -1.3981513  53.6623045  67.6459534  -3.5613734
  53.7007145  67.1123125  -2.7676616  53.1563338  67.1194740  -4.1802757
  61.0413807  62.4924075  -0.0651192  61.1055134  63.3538906  -0.4773794
  60.9780928  61.8798076  -0.7978833  60.5166080  64.5647207   3.5821843
  61.1438119  64.1824285   4.1959367  59.6593999  64.3461409   3.9477535
  70.9160188  74.9710182   5.1875578  71.4600092  75.5840141   4.6930533
  70.3347033  75.5289761   5.7042591  57.2931623  66.3723636 -10.4859803
  57.5885064  65.4634315 -10.5392749  56.3919658  66.3511376 -10.8078800
  60.8225870  64.4479633  -4.5032254  60.1012455  65.0615601  -4.6424781
  61.6119125  64.9837398  -4.5815608  63.6252183  61.7834059   1.7708398
  64.1486585  62.0296356   2.5334707  63.4064516  62.6154094   1.3511535
  59.0219464  64.0537734 -10.3620477  58.6932170  63.1735113 -10.5445371
  59.3758835  63.9985403  -9.4744088  62.1361287  64.3410704  -9.9945000
  62.4757360  64.8696625 -10.7166391  62.5833408  64.6791110  -9.2186433
  64.8304728  62.7247754  -0.5441932  64.4901549  61.9255568  -0.1421252
  64.1243734  63.0249465  -1.1165098  65.4821200  59.8097067  -2.0914609
  66.3047269  59.3357545  -2.2135718  65.7259264  60.5887551  -1.5915922
  63.0059779  66.5016188  -4.2822630  62.8604359  66.8156491  -3.3898348
  62.5284982  67.1201088  -4.8351731  64.8656162  63.4918736  -4.2341740
  64.8517730  62.5959829  -4.5709443  65.5828590  63.4989399  -3.6003454
  66.7182292  63.9256076  -2.1888613  66.4600070  64.8473146  -2.1904283
  66.1867333  63.5286510  -1.4988149  57.4805441  69.0421532  -1.3434969
  56.9358909  69.8181340  -1.2114694  58.3584791  69.3892336  -1.5015847
  64.2693058  62.3733116  -8.9654170  64.3908969  61.4449762  -8.7663283
  63.9795100  62.3871802  -9.8775855  67.1384248  60.0588026  -5.8287450
  67.1605945  60.1227359  -6.7835471  67.5552307  59.2192535  -5.6346944
  58.2671463  68.1691428   1.5495188  57.5253199  68.3174064   2.1359818
  57.9464207  68.4299694   0.6861937  66.2115125  77.7107406   1.3475578
  66.5202252  77.4656553   2.2198278  67.0090607  77.9154045   0.8594448
  56.9136681  73.9743183  -5.4605484  56.0768590  73.5465358  -5.6421482
  56.8860327  74.1675627  -4.5234693  63.7534137  63.8865113   5.2435762
  63.8022293  64.7627236   4.8613532  64.2956651  63.3442506   4.6707406
  74.2388983  74.4306236   4.5236899  73.4484526  74.4130375   3.9841399
  74.0022337  74.9694530   5.2785936  74.3586858  71.2798703   1.8369628
  74.4084863  71.1148710   2.7785151  74.2500781  70.4125962   1.4467509
  71.6490620  67.2629631   3.1528935  72.5500483  67.1236096   2.8612932
  71.7238595  67.4284086   4.0927112  65.9833426  64.6396486   1.9982121
  65.1136735  64.9330052   1.7264709  66.2192906  65.2236931   2.7189385
  75.8605055  73.6995644   2.0811649  75.5689863  74.0625625   2.9175110
  75.2477186  72.9862653   1.9024982  74.1092243  68.8228259   0.5491707
  74.5846364  69.0155905  -0.2589441  73.1857808  68.8787445   0.3035091
  68.6872459  60.8576103  -0.4852459  69.2054403  61.5937129  -0.8105970
  68.3327592  61.1640096   0.3494300  68.9385054  57.2776385  -4.9651562
  69.2186807  56.6099574  -4.3391136  69.7235660  57.4705481  -5.4776898
  72.8093912  65.6994019  -1.2179987  73.7611335  65.7992117  -1.1967763
  72.6397362  64.9072288  -0.7081903  70.8308291  62.7849602  -1.0320586
  70.2358223  63.0654615  -1.7274097  70.5457988  63.2743503  -0.2603845
  75.2881990  68.9200139  -2.1037687  75.2558310  67.9816139  -1.9178003
  75.8982613  68.9984175  -2.8371862  75.4376478  65.7111182  -2.0579404
  74.9215527  64.9269639  -2.2449475  76.3216427  65.3829899  -1.8932885
  73.0987205  59.4552198  -6.0983591  72.9012026  59.1467286  -5.2140259
  73.7086911  60.1813837  -5.9685662  67.0104013  71.8413938   5.3990174
  67.9307023  72.0192537   5.5930220  66.9753596  70.8969983   5.2469873
  56.2286178  67.0352532  -5.6756552  55.9088962  66.1817840  -5.9682178
  55.6819606  67.2501110  -4.9198584  60.0066086  69.7514972  -1.9587045
  60.2252095  70.6832080  -1.9399011  60.4191859  69.3922947  -1.1732241
  66.9270303  60.2583058  -9.9711357  66.1171032  59.9130143  -9.5956111
  67.6154720  59.9490602  -9.3823745  68.8560852  59.3361105  -8.3487060
  69.4091890  59.7556558  -7.6897037  69.0930938  58.4096853  -8.3064104
  64.8793951  65.3248178   7.4315704  64.7790678  66.2742535   7.3627795
  64.6615493  64.9966417   6.5591774  56.0974438  70.6555443  -3.7063430
  55.4037910  70.2409396  -4.2193476  56.8447429  70.6975980  -4.3030011
  70.6843225  60.8466687  -6.6387076  71.1843004  60.9583222  -7.4472757
  71.3278833  60.5427740  -5.9986267  64.7425221  68.7545317   6.2480765
  64.2592303  69.5545677   6.4544654  64.8286160  68.7653262   5.2948209
  58.0111181  70.5873697  -5.8297415  57.9881869  70.6861384  -6.7815532
  58.3211817  71.4338848  -5.5080249  60.6698558  72.6449852  -1.7150801
  61.6241812  72.6133794  -1.7820869  60.4711082  72.1840476  -0.9000575
  61.2597941  71.2150968   0.8519997  62.0790830  71.7095047   0.8754834
  61.5334748  70.2982936   0.8237564  74.3679073  63.6308241  -6.0697708
  75.1439463  64.1204694  -5.7973092  73.6427207  64.0566295  -5.6125839
  56.5132855  65.5489102   1.5512194  57.1591718  65.0388056   2.0399419
  56.3050006  66.2857783   2.1255619  69.0386247  72.6169949   7.0504335
  69.9077407  72.7910601   6.6890969  68.5592999  73.4364366   6.9280064
  63.2072427  79.7367050  -1.2706232  64.1099674  79.7690660  -0.9539737
  62.9809797  78.8067501  -1.2559896  68.8488585  56.4071923  -8.4417973
  68.0820981  55.8530410  -8.2961291  69.2599290  56.4793792  -7.5803821
  60.8530346  62.6956719   5.6487208  61.7161807  62.3393524   5.8590533
  60.2795757  62.3570614   6.3362612  73.4111847  76.1037435   6.6417180
  73.0178792  75.5503634   7.3164824  74.2277987  76.4148014   7.0323697
  76.3279808  77.5195315   4.2337436  77.0689521  78.1202468   4.1541899
  76.5597730  76.7772952   3.6755479  71.3559834  79.8939125   3.5821843
  71.9831873  79.5116202   4.1959367  70.4987753  79.6753327   3.9477535
  74.5927892  79.2157031   5.2435762  74.6416047  80.0919154   4.8613532
  75.1350406  78.6734424   4.6707406  75.7187705  80.6540096   7.4315704
  75.6184432  81.6034453   7.3627795  75.5009247  80.3258335   6.5591774
  67.3526609  80.8781019   1.5512194  67.9985473  80.3679973   2.0399419
  67.1443760  81.6149701   2.1255619  71.6924100  78.0248636   5.6487208
  72.5555562  77.6685441   5.8590533  71.1189511  77.6862531   6.3362612
  67.7119230  52.3239627  -9.1651527  67.2683084  51.5376006  -9.4830622
  68.3736444  52.5118778  -9.8307636  69.8100468  52.6042427 -11.1370125
  69.7918944  53.4251308 -11.6289856  70.7320388  52.4796502 -10.9119984
  70.7216309  49.2438265  -8.7419407  70.5701816  49.0148817  -9.6589324
  70.7120989  50.2008867  -8.7288062  72.4308516  52.2757388 -10.6642925
  72.3721062  51.5916608 -11.3312342  72.8328034  53.0176378 -11.1162299
  70.9160190  51.9772305  -8.0879115  71.4600094  52.5902263  -8.5824160
  70.3347035  52.5351883  -7.5712102  74.2388984  51.4368359  -8.7517794
  73.4484528  51.4192498  -9.2913295  74.0022339  51.9756653  -7.9968757
  75.8605056  50.7057767 -11.1943044  75.5689864  51.0687747 -10.3579583
  75.2477187  49.9924775 -11.3729712  69.0386248  49.6232072  -6.2250359
  69.9077408  49.7972724  -6.5863724  68.5593000  50.4426489  -6.3474629
  73.4111848  53.1099558  -6.6337514  73.0178793  52.5565757  -5.9589869
  74.2277988  53.4210137  -6.2430996  76.3279809  54.5257437  -9.0417257
  77.0689522  55.1264590  -9.1212795  76.5597732  53.7835075  -9.5999214
  71.3559836  56.9001247  -9.6932851  71.9831874  56.5178325  -9.0795326
  70.4987754  56.6815449  -9.3277158  74.5927893  56.2219153  -8.0318931
  74.6416048  57.0981276  -8.4141161  75.1350407  55.6796547  -8.6047288
  75.7187707  57.6602219  -5.8438990  75.6184434  58.6096575  -5.9126898
  75.5009249  57.3320457  -6.7162919  67.3526611  57.8843142 -11.7242499
  67.9985474  57.3742096 -11.2355274  67.1443762  58.6211824 -11.1499074
  71.6924102  55.0310759  -7.6267485  72.5555563  54.6747564  -7.4164161
  71.1189512  54.6924654  -6.9392081   4.8195838 100.4824375  47.4066876
   4.0659546  99.9131773  47.2510880   4.9543379 100.4487039  48.3537510
   1.6411586 100.4527125  45.3110542   2.0842732  99.7034450  44.9129666
   0.7638096 100.4437261  44.9284274   1.1844451 101.9232363  47.7032990
   2.0191342 102.3622167  47.8670550   1.3203579 101.4471016  46.8841236
   5.2302253 100.6399984  50.1387120   5.9605642 100.3785273  50.6994823
   4.6209199  99.9028706  50.1789188   3.3117550  98.7807847  50.7361571
   2.5850714  98.6463812  50.1278063   2.8964837  99.0884676  51.5418289
   0.9295345  95.0019699  48.0895003   1.5239836  94.7615435  47.3788311
   1.0021929  94.2826830  48.7168539   3.2366418  98.3085900  46.8638424
   2.6765976  98.3779089  47.6369986   2.6309921  98.1326885  46.1437920
   4.3980684 104.2060256  51.6120488   4.0544953 105.0961898  51.5359599
   4.7659647 104.0161914  50.7490073   6.1968350 103.4653816  46.7138226
   6.5027227 102.6051179  46.4264141   6.9220955 104.0571436  46.5137220
   6.4669968 105.8948051  49.2122147   5.5533048 106.1252278  49.3804354
   6.8963069 105.9786495  50.0636179   3.9022522 103.2652142  48.1367208
   4.1824275 102.5975331  48.7627635   4.6873129 103.4581237  47.6241872
   8.0624673 105.4427954  47.0035179   7.8649494 105.1343043  47.8878511
   8.6724379 106.1689593  47.1333109   3.8198320 105.3236861  44.7531710
   4.3729358 105.7432315  45.4121733   4.0568406 104.3972609  44.7954666
   3.8126053 102.3947680  44.6600797   3.0458449 101.8406166  44.8057480
   4.2236758 102.4669548  45.5214949   4.8195839  77.4886497  34.1312182
   4.0659548  76.9193895  33.9756187   4.9543380  77.4549162  35.0782817
   1.6411587  77.4589247  32.0355849   2.0842733  76.7096573  31.6374972
   0.7638097  77.4499384  31.6529581   1.1844452  78.9294486  34.4278297
   2.0191343  79.3684290  34.5915857   1.3203581  78.4533139  33.6086542
   5.2302254  77.6462107  36.8632426   5.9605643  77.3847395  37.4240130
   4.6209200  76.9090829  36.9034494   3.3117551  75.7869970  37.4606878
   2.5850715  75.6525935  36.8523369   2.8964838  76.0946798  38.2663596
   0.9295346  72.0081822  34.8140309   1.5239837  71.7677558  34.1033618
   1.0021930  71.2888952  35.4413846   3.2366419  75.3148023  33.5883730
   2.6765977  75.3841212  34.3615293   2.6309922  75.1389007  32.8683227
   4.8222438  91.9904537  36.2813686   5.4600848  91.8711284  35.5777026
   4.7043280  92.9385381  36.3401638   1.6312144  91.9431965  36.2175211
   1.2930655  91.8273029  35.3295746   2.5001912  91.5423130  36.1976217
   2.1131927  93.0966816  42.1761416   2.1020568  92.7019615  41.3041920
   2.2752566  92.3632889  42.7695188   4.3763706  89.7155990  33.3566894
   5.1626795  89.2975414  33.0057311   4.6402410  90.6202083  33.5248543
   9.7772133  89.6531224  34.2599873  10.5097305  89.0830440  34.4937702
   9.0211489  89.2652824  34.7006378   1.3948253  92.0758465  31.4563215
   1.0306460  91.5489086  32.1676137   2.2515369  91.6856934  31.2829701
   7.2997554  83.3652798  38.7194481   6.9680878  84.2348209  38.4955696
   6.7043167  83.0489082  39.3988512   3.7929073  95.5665344  38.1190394
   3.4929796  96.4690383  38.0106201   3.4480133  95.2997527  38.9711547
   7.1926217  88.0847884  35.7987831   6.2843094  88.0163292  35.5046592
   7.1413813  88.5619829  36.6269657   1.2667083  89.5037530  43.7422729
   0.4900417  90.0631450  43.7325593   1.9057646  89.9894313  44.2637599
   9.0587863  86.2864322  37.5765705   8.4162244  86.5796856  36.9305500
   8.5542792  86.1717243  38.3818902   6.7128027  90.0327496  28.2651565
   7.6245883  90.2654882  28.0899262   6.2037674  90.6164540  27.7026643
   4.9968795  94.4552123  41.9012857   5.4052151  94.0134534  41.1567490
   4.2746056  93.8804751  42.1547050   1.3499865  89.3924730  39.2746414
   2.1961060  89.8164144  39.4181063   1.2898502  88.7358354  39.9684977
   5.3197609  95.0153314  35.6565146   4.6906472  95.1799028  34.9541214
   4.9323271  95.4294924  36.4276110   9.1986841  95.9507752  33.0109510
   8.5137879  96.3306653  32.4606543   9.2830690  96.5603079  33.7441458
   4.4999310  87.0529099  40.9327588   4.2560242  87.8071159  40.3961863
   4.7759240  87.4314446  41.7674835   6.4537773  93.5967711  39.6104853
   6.6654668  94.2399471  38.9339234   6.4067521  92.7630027  39.1426783
   4.0564002  86.2085532  36.5141425   3.1948481  86.5066785  36.8058163
   4.0826436  86.4255930  35.5822458   0.8725571  94.7527722  32.9215231
   1.3363917  95.0315425  32.1319854   0.6082369  93.8511167  32.7388322
   7.5683601  96.4739666  37.7827211   8.3901044  96.0719854  37.5009892
   7.5646004  96.3707900  38.7343326   1.3340204  96.0223710  39.9387921
   1.3984637  96.4844117  40.7746093   0.6251128  95.3921075  40.0670231
  15.6589594  92.8178415  34.1312182  14.9053302  92.2485813  33.9756187
  15.7937135  92.7841079  35.0782817   2.6756698  98.3115384  43.9367244
   2.2320552  97.5251762  43.6188148   3.3373912  98.4994534  43.2711134
   4.7737936  98.5918184  41.9648645   4.7556412  99.4127065  41.4728914
   5.6957856  98.4672259  42.1898786   1.2310990  96.1062313  42.8072153
   1.7639327  95.3450601  42.5771461   0.7025071  95.8135965  43.5496308
   4.3980685  81.2122379  38.3365795   4.0544955  82.1024021  38.2604906
   4.7659648  81.0224037  37.4735380   4.3630968  91.2030990  26.8438230
   3.8477592  91.9735595  27.0826618   4.0908277  90.5296126  27.4671292
   1.9478079  86.0480691  31.9023468   1.0919675  85.6587541  31.7229107
   2.3605031  86.1272652  31.0423254   3.4777226  83.5827034  36.3015028
   2.9742021  83.5457169  35.4882834   3.7707833  84.4919777  36.3611685
   9.3365242  93.9563345  28.7791404   8.5594685  93.6174504  28.3346566
  10.0156723  93.9615968  28.1046369   4.1517271  89.0758082  28.6698011
   3.8467407  89.3904231  29.5208154   5.1047713  89.1539502  28.7125344
   7.5756549  93.4297326  35.4358012   6.9180224  94.1196587  35.5238140
   8.3796948  93.8193758  35.7791998   6.3862008  91.7841699  33.4861953
   6.8993890  92.4171691  33.9883663   7.0363232  91.1842894  33.1205313
   2.8642839  89.2591154  35.7320294   1.9465400  89.4806101  35.5741982
   3.2802982  89.3337465  34.8732001   3.6477887  90.6582570  30.8622974
   4.3949705  91.1703967  30.5530096   3.9169476  90.3366623  31.7227368
   7.1523804  96.7647700  31.6141096   6.6986131  95.9238610  31.6706286
   6.5217771  97.4009098  31.9515876   6.0956724  87.6939686  32.8441763
   5.3579480  87.1817072  33.1752006   6.3483497  87.2540068  32.0325040
   5.5956743  98.6024197  32.5490914   5.8879718  99.1629254  31.8303280
   6.1055364  98.8952758  33.3044073   6.1968351  80.4715938  33.4383533
   6.5027228  79.6113302  33.1509448   6.9220956  81.0633558  33.2382527
   4.0056002  89.8488615  40.5364996   4.3605390  90.0760089  41.3959462
   4.6528134  90.1806992  39.9142252   9.7353739  92.9707051  31.2414326
   9.5971638  93.1608647  30.3135515   9.3789958  93.7326434  31.6982377
   9.7623119  95.0383578  36.2525597  10.1959626  94.9458867  37.1008651
  10.4754700  95.0141079  35.6145613   3.4951014  98.6385672  37.7858698
   3.5488036  99.2076609  38.5536414   2.6265795  98.8087557  37.4212735
  10.6238668  95.0807279  38.7858482  10.8174559  95.9853089  39.0317757
  10.5239287  94.6214698  39.6197067   2.2774979  84.9665170  41.2848810
   1.6302894  85.6655119  41.1913286   3.0475995  85.4001313  41.6525058
   5.6853777  95.2314022  44.3599363   5.5339284  95.0024573  43.4429447
   5.6758457  96.1884623  44.3730708   2.4539114  92.8045934  39.3445629
   3.3831174  92.9557094  39.1714597   2.0330144  92.8929955  38.4894276
   2.8032660  96.2078202  34.5033005   2.4682493  96.1678972  35.3990655
   2.3036606  95.5422918  34.0303415   7.3945984  98.2633144  42.4375845
   7.3358530  97.5792364  41.7706428   7.7965502  99.0052134  41.9856471
   7.3963391  96.2272728  40.6689825   6.5090170  95.8898650  40.7916223
   7.9661942  95.4955759  40.9058590   0.9264544 100.8874181  37.6351068
   0.8534716 101.6929152  38.1470372   0.4841938 101.0866146  36.8099089
   4.0250974  85.9340580  33.7888095   4.5219674  85.1810542  33.4689165
   3.2537956  85.9704897  33.2231304  11.8780732  91.6380946  35.4306386
  11.8670608  92.5205661  35.0600319  11.0098111  91.2852496  35.2360923
   3.3863228 100.7861015  39.7909226   4.0991200 101.4208479  39.7185128
   2.8953257 100.8824881  38.9749228   5.1080755  94.6912267  31.3626518
   4.1737034  94.8113730  31.1931222   5.2857423  93.7884734  31.0986528
   8.4953306  90.5329587  31.8976552   8.9613758  91.3657578  31.8236855
   8.9460807  90.0674568  32.6021811   6.5629537  96.8773408  28.8962704
   6.8389381  96.7630002  29.8056578   5.6934036  96.4790893  28.8574877
   6.4669969  82.9010174  35.9367454   5.5533049  83.1314400  36.1049661
   6.8963070  82.9848618  36.7881486   6.2376427  91.0900066  38.4367348
   5.5847878  91.3375973  37.7819800   6.6156807  90.2764204  38.1029825
   3.1983601 101.1259759  32.5395518   3.3805996 100.3081415  33.0023270
   4.0216587 101.3427451  32.1020408   2.2864001  91.8319877  44.9233385
   1.6104638  91.7314006  45.5935760   3.1091634  91.6759090  45.3869382
   1.0286783 103.1386804  39.1591001   1.5805091 103.3018426  39.9240086
   1.3692977 103.7291242  38.4871026   5.8797658  97.9648062  45.0139655
   6.4237562  98.5778020  44.5194610   5.2984503  98.5227640  45.5306668
   4.1655171 101.0868780  36.1454683   4.0406310 100.2858519  35.6365628
   4.8234262 101.5814973  35.6568653   6.2290079  98.8877800  37.7734233
   5.2820415  98.7683151  37.7012560   6.5772852  98.0000298  37.8560494
   3.2336512  98.6830516  33.9738585   3.0861475  97.7547223  34.1546155
   4.0590006  98.7050607  33.4895660   6.8370634  99.5059075  35.0603458
   7.7617182  99.3001936  34.9227909   6.6685938  99.2575476  35.9692799
   3.2298027  86.5368354  28.9670702   3.4461641  87.4192991  28.6659531
   2.7492094  86.1454567  28.2376344   1.6819762  86.9193955  37.6375464
   1.4237539  87.8411026  37.6359794   1.1504802  86.5224389  38.3275928
   6.6265950 100.0244742  30.4165549   6.8002828  99.4591165  29.6639402
   7.1194842 100.8245637  30.2345039   2.1021717  83.0525905  33.9976627
   2.1243414  83.1165239  33.0428606   2.5189776  82.2130414  34.1917133
  12.4805342  92.7881165  32.0355849  12.9236488  92.0388490  31.6374972
  11.6031852  92.7791301  31.6529581   9.5132546  96.7911212  29.0449778
  10.0383870  97.1298485  28.3199098   9.4254899  95.8558227  28.8612913
   1.1752595 100.7045286  41.1739655   1.4839721 100.4594432  42.0462355
   1.9728077 100.9091924  40.6858525   9.2026452  97.4244116  44.3500976
   8.4121996  97.4068254  43.8105476   8.9659807  97.9632409  45.1050013
   9.3224327  94.2736582  41.6633705   9.3722332  94.1086589  42.6049228
   9.2138250  93.4063841  41.2731586   6.6128090  90.2567510  42.9793012
   7.5137952  90.1173975  42.6877009   6.6876064  90.4221965  43.9191189
  10.8242524  96.6933524  41.9075726  10.5327332  97.0563504  42.7439187
  10.2114655  95.9800532  41.7289059  12.0238206  94.2586403  34.4278297
  12.8585098  94.6976207  34.5915857  12.1597335  93.7825056  33.6086542
   9.0729712  91.8166138  40.3755784   9.5483834  92.0093784  39.5674636
   8.1495278  91.8725324  40.1299168   3.6509929  83.8513982  39.3411618
   4.1691873  84.5875009  39.0158107   3.2965061  84.1577975  40.1758377
   3.9022523  80.2714264  34.8612515   4.1824277  79.6037453  35.4872941
   4.6873130  80.4643360  34.3487179   7.7731381  88.6931898  38.6084090
   8.7248804  88.7929996  38.6296314   7.6034832  87.9010167  39.1182174
   5.7945761  85.7787481  38.7943491   5.1995693  86.0592494  38.0989980
   5.5095457  86.2681382  39.5660232  10.2519459  91.9138018  37.7226390
  10.2195779  90.9754019  37.9086074  10.8620083  91.9922055  36.9892215
  10.4013947  88.7049061  37.7684673   9.8852996  87.9207518  37.5814602
  11.2853896  88.3767778  37.9331192   8.0624674  82.4490077  33.7280486
   7.8649496  82.1405165  34.6123818   8.6724380  83.1751716  33.8578415
  16.0696009  92.9754025  36.8632426  16.7999397  92.7139313  37.4240130
  15.4602954  92.2382747  36.9034494  14.1511306  91.1161887  37.4606878
  13.4244470  90.9817852  36.8523369  13.7358593  91.4238716  38.2663596
   1.9741482  94.8351817  45.2254251   2.8944492  95.0130416  45.4194297
   1.9391065  93.8907862  45.0733950   1.8907773  83.2520937  29.8552720
   1.0808501  82.9068022  30.2307966   2.5792190  82.9428481  30.4440332
   3.8198321  82.3298984  31.4777017   4.3729360  82.7494437  32.1367040
   4.0568407  81.4034732  31.5199973   7.1977128  84.4399509  30.9855681
   6.6175797  85.0984313  30.6033734   6.9313061  83.6176854  30.5743099
   5.6480694  83.8404567  33.1877001   6.1480473  83.9521101  32.3791320
   6.2916302  83.5365620  33.8277810   5.9802006  86.5999599  30.0412029
   5.0927861  86.8849250  29.8232224   6.3955995  86.4393363  29.1939306
   9.3316542  86.6246120  33.7566369  10.1076932  87.1142573  34.0290985
   8.6064676  87.0504175  34.2138238  11.7689101  87.3373740  34.8140309
  12.3633592  87.0969475  34.1033618  11.8415685  86.6180870  35.4413846
   5.9543030  92.1154135  30.2562320   5.8978231  92.5722687  29.4169952
   6.5071372  91.3544820  30.0785162   9.7647836  87.9043867  31.0812439
   9.5084770  87.5040503  31.9120647   9.1400704  88.6187661  30.9562578
  14.0760174  90.6439940  33.5883730  13.5159732  90.7133130  34.3615293
  13.4703677  90.4680925  32.8683227   6.6877809  93.3058917  27.5514849
   6.6326613  93.1403188  26.6103293   6.0623864  94.0134949  27.7077038
   4.0023716  95.6107828  46.8768412   4.8714876  95.7848481  46.5155046
   3.5230468  96.4302245  46.7544141   3.8126054  79.4009802  31.3846104
   3.0458450  78.8468289  31.5302786   4.2236759  79.4731671  32.2460256
  15.6616192 107.3196454  36.2813686  16.2994602 107.2003202  35.5777026
  15.5437035 108.2677298  36.3401638  12.4705898 107.2723882  36.2175211
  12.1324410 107.1564947  35.3295746  13.3395667 106.8715048  36.1976217
  12.9525681 108.4258734  42.1761416  12.9414322 108.0311532  41.3041920
  13.1146321 107.6924807  42.7695188  15.2157461 105.0447908  33.3566894
  16.0020550 104.6267331  33.0057311  15.4796165 105.9494000  33.5248543
  20.6165888 104.9823141  34.2599873  21.3491060 104.4122358  34.4937702
  19.8605243 104.5944742  34.7006378  12.2342007 107.4050383  31.4563215
  11.8700215 106.8781004  32.1676137  13.0909123 107.0148852  31.2829701
  18.1391308  98.6944715  38.7194481  17.8074633  99.5640126  38.4955696
  17.5436921  98.3780999  39.3988512  18.0319971 103.4139802  35.7987831
  17.1236849 103.3455210  35.5046592  17.9807567 103.8911747  36.6269657
  12.1060837 104.8329447  43.7422729  11.3294171 105.3923367  43.7325593
  12.7451400 105.3186230  44.2637599  19.8981618 101.6156240  37.5765705
  19.2555998 101.9088773  36.9305500  19.3936546 101.5009160  38.3818902
  17.5521781 105.3619413  28.2651565  18.4639638 105.5946800  28.0899262
  17.0431428 105.9456457  27.7026643  15.8362549 109.7844041  41.9012857
  16.2445905 109.3426452  41.1567490  15.1139811 109.2096669  42.1547050
  12.1893619 104.7216648  39.2746414  13.0354814 105.1456061  39.4181063
  12.1292257 104.0650272  39.9684977  15.3393064 102.3821016  40.9327588
  15.0953996 103.1363077  40.3961863  15.6152995 102.7606364  41.7674835
  17.2931527 108.9259629  39.6104853  17.5048422 109.5691388  38.9339234
  17.2461275 108.0921945  39.1426783  14.8957756 101.5377449  36.5141425
  14.0342235 101.8358703  36.8058163  14.9220191 101.7547848  35.5822458
  10.6488212 106.2042792  29.7304796  11.3512255 106.6563836  30.1978723
  10.3168840 105.5626611  30.3584689   9.0968573 104.7954549  44.1056006
   8.4667234 105.4770830  44.3391403   8.9904661 104.6837630  43.1609144
   4.3913546 104.4626345  35.0321930   3.6012600 104.7183873  34.5562040
   4.8824793 105.2774683  35.1373970  26.4983348 108.1470332  34.1312182
  25.7447057 107.5777731  33.9756187  26.6330889 108.1132997  35.0782817
   8.3749316  99.0975315  46.4681257   7.9816261  98.5441513  47.1428901
   9.1915456  99.4085893  46.8587774  11.2917277 100.5133194  44.0601513
  12.0326990 101.1140347  43.9805976  11.5235200  99.7710832  43.5019556
   6.4358615 105.6989561  42.3379743   6.3212130 104.7974818  42.6386842
   5.5803133 105.9453258  41.9864560  15.2374440  96.5414297  38.3365795
  14.8938709  97.4315938  38.2604906  15.6053402  96.3515954  37.4735380
  15.2024723 106.5322908  26.8438230  14.6871346 107.3027512  27.0826618
  14.9302031 105.8588044  27.4671292  12.7871834 101.3772609  31.9023468
  11.9313430 100.9879459  31.7229107  13.1998785 101.4564569  31.0423254
  14.3170980  98.9118952  36.3015028  13.8135776  98.8749087  35.4882834
  14.6101587  99.8211695  36.3611685  10.5613866  98.9957682  35.3081210
  11.4266863  98.8000490  34.9487099  10.6291375  98.7668033  36.2350567
  20.1758997 109.2855262  28.7791404  19.3988439 108.9466422  28.3346566
  20.8550478 109.2907886  28.1046369  14.9911026 104.4050000  28.6698011
  14.6861161 104.7196149  29.5208154  15.9441468 104.4831420  28.7125344
  18.4150304 108.7589244  35.4358012  17.7573978 109.4488505  35.5238140
  19.2190703 109.1485676  35.7791998   8.1676185 101.2259889  32.6797577
   8.7419937 101.0035071  31.9470770   8.7547168 101.2948584  33.4326178
  17.2255762 107.1133616  33.4861953  17.7387644 107.7463608  33.9883663
  17.8756986 106.5134812  33.1205313  10.4698853  98.1001138  31.4072646
   9.8163265  97.7850156  30.7829261  10.4279327  97.4776879  32.1332469
  13.7036593 104.5883072  35.7320294  12.7859155 104.8098019  35.5741982
  14.1196737 104.6629382  34.8732001  14.4871641 105.9874488  30.8622974
  15.2343460 106.4995885  30.5530096  14.7563231 105.6658540  31.7227368
  16.9350478 103.0231604  32.8441763  16.1973235 102.5108990  33.1752006
  17.1877252 102.5831985  32.0325040  17.0362106  95.8007856  33.4383533
  17.3420982  94.9405219  33.1509448  17.7614710  96.3925476  33.2382527
  11.3083185 106.0961649  33.9459724  11.3631795 105.1435485  33.8702200
  10.4974387 106.2521088  34.4301022   9.2475545 104.7138709  31.7050103
   8.4343411 105.0132879  32.1115295   9.7434539 104.3194397  32.4224585
  14.8449757 105.1780533  40.5364996  15.1999145 105.4052006  41.3959462
  15.4921888 105.5098910  39.9142252  20.5747494 108.2998969  31.2414326
  20.4365392 108.4900565  30.3135515  20.2183713 109.0618352  31.6982377
   8.7389620 102.2857064  37.3211338   9.3788999 102.1445823  36.6234301
   7.9067150 101.9991578  36.9449940  20.6016873 110.3675496  36.2525597
  21.0353380 110.2750785  37.1008651  21.3148454 110.3432996  35.6145613
   5.7418236 102.2557389  32.0984324   6.0025054 103.1702722  31.9893485
   6.5635409 101.7881832  32.2480937   7.2143162 103.6695146  39.2683149
   7.8866215 103.4612508  38.6195798   6.3872948 103.4717232  38.8288381
  21.4632423 110.4099197  38.7858482  21.6568313 111.3145007  39.0317757
  21.3633041 109.9506616  39.6197067  13.1168734 100.2957087  41.2848810
  12.4696649 100.9947037  41.1913286  13.8869749 100.7293231  41.6525058
  13.2932868 108.1337852  39.3445629  14.2224928 108.2849012  39.1714597
  12.8723898 108.2221873  38.4894276   7.6170659 106.9437749  40.0285586
   7.4790457 106.2117988  40.6297125   8.5275582 106.8546649  39.7469774
  10.2452960 106.6557709  39.5169266  10.9552578 106.0150901  39.4755884
  10.2022268 106.9070603  40.4395446   8.9581894 103.6422927  41.3364905
   8.4219251 103.1913665  41.9886501   8.3698602 103.7768835  40.5935370
   4.6921015 102.7778934  38.4217900   4.6079204 102.1704604  37.6868310
   3.8703721 103.2687953  38.4227396  14.8644729 101.2632498  33.7888095
  15.3613428 100.5102460  33.4689165  14.0931710 101.2996814  33.2231304
  22.7174486 106.9672863  35.4306386  22.7064362 107.8497579  35.0600319
  21.8491866 106.6144414  35.2360923  11.4479697 103.4049881  33.5159779
  11.0777485 102.8520921  34.2040685  11.9438790 102.8008014  32.9634779
  19.3347061 105.8621504  31.8976552  19.8007513 106.6949496  31.8236855
  19.7854561 105.3966486  32.6021811  17.3063723  98.2302091  35.9367454
  16.3926803  98.4606318  36.1049661  17.7356825  98.3140535  36.7881486
  17.0770182 106.4191983  38.4367348  16.4241632 106.6667891  37.7819800
  17.4550562 105.6056121  38.1029825  13.1257755 107.1611794  44.9233385
  12.4498392 107.0605924  45.5935760  13.9485389 107.0051008  45.3869382
   6.8445031 100.8153872  39.7612885   6.9086358 101.6768702  39.3490283
   6.7812151 100.2027873  39.0285244   6.3197304 102.8877004  43.4085920
   6.9469342 102.5054081  44.0223444   5.4625222 102.6691206  43.7741612
   6.6257093 102.7709430  35.3231823   5.9043679 103.3845397  35.1839296
   7.4150349 103.3067195  35.2448469   9.4283407 100.1063856  41.5972475
   9.9517809 100.3526153  42.3598784   9.2095740 100.9383891  41.1775612
  10.6335952 101.0477551  39.2822145  10.2932772 100.2485364  39.6842825
   9.9274958 101.3479262  38.7098979  11.2852424  98.1326864  37.7349468
  12.1078493  97.6587342  37.6128359  11.5290487  98.9117348  38.2348155
   9.9260658 101.1615122  28.0312370  10.6469021 101.5396375  27.5276087
   9.3025962 101.8803999  28.1347348  14.0691781 101.8660271  28.9670702
  14.2855396 102.7484909  28.6659531  13.5885848 101.4746485  28.2376344
   8.8091003 104.8245984  35.5441447   8.6635583 105.1386287  36.4365729
   8.3316206 105.4430885  34.9912346  10.6687385 101.8148532  35.5922337
  10.6548954 100.9189626  35.2554635  11.3859814 101.8219196  36.2260623
  12.5213516 102.2485873  37.6375464  12.2631294 103.1702943  37.6359794
  11.9898557 101.8516307  38.3275928  10.0724281 100.6962913  30.8609907
  10.1940193  99.7679559  31.0600794   9.7826324 100.7101599  29.9488222
  12.9415472  98.3817823  33.9976627  12.9637169  98.4457156  33.0428606
  13.3583531  97.5422332  34.1917133  23.3199096 108.1173083  32.0355849
  23.7630242 107.3680408  31.6374972  22.4425606 108.1083219  31.6529581
   9.5565361 102.2094910  45.0699839   9.6053516 103.0857033  44.6877609
  10.0987875 101.6672303  44.4971483  20.1618082 109.6028500  41.6633705
  20.2116087 109.4378507  42.6049228  20.0532005 108.7355759  41.2731586
  17.4521844 105.5859428  42.9793012  18.3531707 105.4465893  42.6877009
  17.5269819 105.7513883  43.9191189  11.7864649 102.9626282  41.8246198
  10.9167959 103.2559849  41.5528786  12.0224130 103.5466727  42.5453462
  22.8631961 109.5878321  34.4278297  23.6978852 110.0268125  34.5915857
  22.9991090 109.1116974  33.6086542  19.9123467 107.1458056  40.3755784
  20.3877588 107.3385702  39.5674636  18.9889032 107.2017242  40.1299168
  14.4903683  99.1805899  39.3411618  15.0085627  99.9166926  39.0158107
  14.1358816  99.4869893  40.1758377  14.7416277  95.6006182  34.8612515
  15.0218031  94.9329371  35.4872941  15.5266884  95.7935278  34.3487179
  18.6125136 104.0223816  38.6084090  19.5642559 104.1221914  38.6296314
  18.4428586 103.2302084  39.1182174  16.6339515 101.1079399  38.7943491
  16.0389447 101.3884412  38.0989980  16.3489212 101.5973300  39.5660232
  21.0913213 107.2429936  37.7226390  21.0589534 106.3045936  37.9086074
  21.7013837 107.3213972  36.9892215  21.2407702 104.0340979  37.7684673
  20.7246751 103.2499436  37.5814602  22.1247650 103.7059696  37.9331192
  18.9018429  97.7781995  33.7280486  18.7043250  97.4697083  34.6123818
  19.5118134  98.5043633  33.8578415  26.9089763 108.3045942  36.8632426
  27.6393152 108.0431231  37.4240130  26.2996709 107.5674664  36.9034494
  24.9905060 106.4453805  37.4606878  24.2638224 106.3109770  36.8523369
  24.5752347 106.7530634  38.2663596  12.7301527  98.5812855  29.8552720
  11.9202256  98.2359940  30.2307966  13.4185944  98.2720398  30.4440332
  14.6592075  97.6590901  31.4777017  15.2123114  98.0786355  32.1367040
  14.8962162  96.7326650  31.5199973  10.6825175 103.6477975  47.2579781
  10.5821902 104.5972332  47.1891872  10.4646717 103.3196214  46.3855851
  18.0370883  99.7691427  30.9855681  17.4569552 100.4276231  30.6033734
  17.7706815  98.9468771  30.5743099  16.4874449  99.1696484  33.1877001
  16.9874227  99.2813019  32.3791320  17.1310057  98.8657537  33.8277810
  10.5456445 107.0775114  46.0744842  10.0623526 107.8775474  46.2808731
  10.6317384 107.0883059  45.1212286  16.8195761 101.9291517  30.0412029
  15.9321616 102.2141168  29.8232224  17.2349750 101.7685280  29.1939306
  20.1710297 101.9538038  33.7566369  20.9470687 102.4434490  34.0290985
  19.4458431 102.3796092  34.2138238  22.6082855 102.6665657  34.8140309
  23.2027346 102.4261393  34.1033618  22.6809439 101.9472788  35.4413846
  16.7936784 107.4446053  30.2562320  16.7371986 107.9014604  29.4169952
  17.3465127 106.6836738  30.0785162  20.6041590 103.2335785  31.0812439
  20.3478524 102.8332420  31.9120647  19.9794458 103.9479579  30.9562578
  24.9153928 105.9731858  33.5883730  24.3553486 106.0425047  34.3615293
  24.3097431 105.7972843  32.8683227  17.5271564 108.6350834  27.5514849
  17.4720367 108.4695106  26.6103293  16.9017619 109.3426867  27.7077038
   2.3164079 103.8718899  41.3776271   2.9622942 103.3617853  41.8663496
   2.1081230 104.6087580  41.9519696  10.8367689  98.1358943  27.1300167
  10.8246359  99.0800783  27.2868438  11.7291111  97.9529089  26.8359628
  14.6519809  94.7301720  31.3846104  13.8852204  94.1760207  31.5302786
  15.0630514  94.8023589  32.2460256   6.6561570 101.0186516  45.4751285
   7.5193031 100.6623320  45.6854610   6.0826980 100.6800410  46.1626689
  26.0768194 111.8706214  38.3365795  25.7332464 112.7607856  38.2604906
  26.4447157 111.6807872  37.4735380  27.8755860 111.1299774  33.4383533
  28.1814737 110.2697137  33.1509448  28.6008465 111.7217394  33.2382527
  28.1457478 113.5594009  35.9367454  27.2320558 113.7898236  36.1049661
  28.5750579 113.6432453  36.7881486  25.5810032 110.9298100  34.8612515
  25.8611786 110.2621289  35.4872941  26.3660639 111.1227195  34.3487179
  29.7412183 113.1073912  33.7280486  29.5437004 112.7989000  34.6123818
  30.3511889 113.8335551  33.8578415  25.4985830 112.9882819  31.4777017
  26.0516869 113.4078273  32.1367040  25.7355916 112.0618567  31.5199973
  25.4913563 110.0593638  31.3846104  24.7245959 109.5052124  31.5302786
  25.9024268 110.1315506  32.2460256   4.8195841  54.4948620  20.8557489
   4.0659549  53.9256018  20.7001493   4.9543382  54.4611284  21.8028123
   1.6411588  54.4651370  18.7601156   2.0842734  53.7158695  18.3620279
   0.7638099  54.4561506  18.3774888   1.1844453  55.9356608  21.1523603
   2.0191344  56.3746412  21.3161164   1.3203582  55.4595261  20.3331849
   5.2302256  54.6524230  23.5877733   5.9605644  54.3909518  24.1485436
   4.6209201  53.9152952  23.6279801   3.3117553  52.7932092  24.1852184
   2.5850716  52.6588057  23.5768676   2.8964840  53.1008921  24.9908902
   0.9295348  49.0143944  21.5385616   1.5239838  48.7739680  20.8278924
   1.0021931  48.2951075  22.1659152   3.2366420  52.3210145  20.3129037
   2.6765978  52.3903335  21.0860599   2.6309924  52.1451130  19.5928533
   4.8222439  68.9966659  23.0058993   5.4600849  68.8773407  22.3022333
   4.7043282  69.9447503  23.0646945   1.6312145  68.9494087  22.9420518
   1.2930657  68.8335152  22.0541052   2.5001913  68.5485252  22.9221524
   2.1131928  70.1028939  28.9006723   2.1020569  69.7081737  28.0287227
   2.2752568  69.3695012  29.4940495   4.3763707  66.7218113  20.0812201
   5.1626797  66.3037536  19.7302618   4.6402412  67.6264205  20.2493849
   9.7772134  66.6593346  20.9845179  10.5097306  66.0892563  21.2183009
   9.0211490  66.2714947  21.4251685   1.3948254  69.0820588  18.1808522
   1.0306461  68.5551209  18.8921443   2.2515370  68.6919057  18.0075007
   7.2997555  60.3714920  25.4439788   6.9680880  61.2410331  25.2201003
   6.7043168  60.0551204  26.1233818   3.7929074  72.5727466  24.8435701
   3.4929797  73.4752505  24.7351508   3.4480134  72.3059650  25.6956854
   7.1926218  65.0910007  22.5233138   6.2843095  65.0225415  22.2291899
   7.1413814  65.5681952  23.3514964   1.2667084  66.5099652  30.4668035
   0.4900418  67.0693572  30.4570900   1.9057647  66.9956435  30.9882905
   9.0587865  63.2926445  24.3011012   8.4162245  63.5858978  23.6550807
   8.5542793  63.1779365  25.1064209   6.7128028  67.0389618  14.9896871
   7.6245884  67.2717005  14.8144569   6.2037675  67.6226662  14.4271950
   4.9968796  71.4614246  28.6258164   5.4052152  71.0196657  27.8812796
   4.2746057  70.8866873  28.8792357   1.3499866  66.3986853  25.9991721
   2.1961061  66.8226266  26.1426370   1.2898504  65.7420477  26.6930284
   5.3197611  72.0215437  22.3810453   4.6906473  72.1861151  21.6786521
   4.9323273  72.4357046  23.1521417   9.1986842  72.9569874  19.7354816
   8.5137881  73.3368776  19.1851850   9.2830692  73.5665201  20.4686764
   4.4999311  64.0591221  27.6572894   4.2560243  64.8133282  27.1207170
   4.7759242  64.4376569  28.4920141   6.4537774  70.6029833  26.3350160
   6.6654669  71.2461593  25.6584541   6.4067522  69.7692150  25.8672090
   4.0564003  63.2147654  23.2386732   3.1948482  63.5128908  23.5303470
   4.0826438  63.4318053  22.3067765   0.8725572  71.7589845  19.6460538
   1.3363918  72.0377548  18.8565160   0.6082370  70.8573289  19.4633628
   7.5683602  73.4801789  24.5072517   8.3901046  73.0781976  24.2255199
   7.5646005  73.3770023  25.4588633   1.3340205  73.0285832  26.6633228
   1.3984638  73.4906239  27.4991400   0.6251129  72.3983197  26.7915538
  15.6589595  69.8240537  20.8557489  14.9053303  69.2547935  20.7001493
  15.7937136  69.7903202  21.8028123   2.6756699  75.3177506  30.6612550
   2.2320554  74.5313885  30.3433455   3.3373913  75.5056657  29.9956441
   4.7737937  75.5980306  28.6893952   4.7556413  76.4189187  28.1974221
   5.6957858  75.4734381  28.9144093   1.2310992  73.1124436  29.5317460
   1.7639328  72.3512724  29.3016768   0.7025073  72.8198087  30.2741614
   4.3980687  58.2184502  25.0611102   4.0544956  59.1086143  24.9850212
   4.7659649  58.0286159  24.1980687   4.3630969  68.2093113  13.5683537
   3.8477593  68.9797717  13.8071924   4.0908278  67.5358249  14.1916598
   1.9478080  63.0542813  18.6268775   1.0919677  62.6649664  18.4474414
   2.3605032  63.1334774  17.7668561   3.4777227  60.5889157  23.0260335
   2.9742023  60.5519292  22.2128140   3.7707834  61.4981899  23.0856992
   9.3365243  70.9625467  15.5036710   8.5594686  70.6236627  15.0591872
  10.0156724  70.9678090  14.8291675   4.1517273  66.0820205  15.3943318
   3.8467408  66.3966354  16.2453461   5.1047715  66.1601625  15.4370651
   7.5756550  70.4359449  22.1603318   6.9180225  71.1258710  22.2483447
   8.3796950  70.8255881  22.5037305   6.3862009  68.7903821  20.2107260
   6.8993891  69.4233813  20.7128970   7.0363233  68.1905017  19.8450620
   2.8642840  66.2653277  22.4565600   1.9465401  66.4868224  22.2987289
   3.2802984  66.3399587  21.5977308   3.6477888  67.6644692  17.5868281
   4.3949707  68.1766090  17.2775403   3.9169477  67.3428745  18.4472674
   7.1523805  73.7709823  18.3386403   6.6986132  72.9300733  18.3951593
   6.5217772  74.4071221  18.6761183   6.0956725  64.7001809  19.5687070
   5.3579482  64.1879195  19.8997313   6.3483498  64.2602190  18.7570347
   5.5956745  75.6086319  19.2736221   5.8879719  76.1691377  18.5548586
   6.1055365  75.9014880  20.0289380   6.1968352  57.4778061  20.1628839
   6.5027229  56.6175424  19.8754754   6.9220957  58.0695681  19.9627833
   4.0056004  66.8550738  27.2610303   4.3605391  67.0822211  28.1204769
   4.6528135  67.1869115  26.6387558   9.7353741  69.9769174  17.9659632
   9.5971639  70.1670770  17.0380821   9.3789959  70.7388557  18.4227683
   9.7623120  72.0445701  22.9770904  10.1959627  71.9520990  23.8253958
  10.4754701  72.0203201  22.3390920   3.4951015  75.6447795  24.5104004
   3.5488037  76.2138731  25.2781720   2.6265796  75.8149680  24.1458041
  10.6238670  72.0869402  25.5103789  10.8174560  72.9915212  25.7563064
  10.5239288  71.6276821  26.3442374   2.2774980  61.9727292  28.0094116
   1.6302896  62.6717242  27.9158593   3.0475996  62.4063436  28.3770365
   5.6853778  72.2376144  31.0844670   5.5339285  72.0086696  30.1674753
   5.6758458  73.1946746  31.0976015   2.4539115  69.8108057  26.0690936
   3.3831175  69.9619217  25.8959903   2.0330145  69.8992078  25.2139583
   2.8032662  73.2140324  21.2278312   2.4682494  73.1741094  22.1235961
   2.3036607  72.5485040  20.7548722   7.3945985  75.2695267  29.1621152
   7.3358531  74.5854487  28.4951735   7.7965503  76.0114257  28.7101778
   7.3963392  73.2334851  27.3935131   6.5090171  72.8960773  27.5161530
   7.9661943  72.5017882  27.6303897   0.9264546  77.8936303  24.3596374
   0.8534717  78.6991275  24.8715679   0.4841939  78.0928269  23.5344396
   4.0250975  62.9402703  20.5133401   4.5219675  62.1872665  20.1934472
   3.2537957  62.9767019  19.9476611  11.8780733  68.6443068  22.1551693
  11.8670609  69.5267784  21.7845626  11.0098112  68.2914619  21.9606230
   3.3863229  77.7923137  26.5154533   4.0991201  78.4270602  26.4430435
   2.8953258  77.8887003  25.6994535   5.1080756  71.6974390  18.0871825
   4.1737035  71.8175852  17.9176529   5.2857425  70.7946857  17.8231835
   8.4953307  67.5391709  18.6221859   8.9613760  68.3719701  18.5482162
   8.9460808  67.0736691  19.3267117   6.5629539  73.8835530  15.6208011
   6.8389383  73.7692125  16.5301885   5.6934037  73.4853015  15.5820184
   6.4669970  59.9072296  22.6612760   5.5533050  60.1376523  22.8294967
   6.8963072  59.9910740  23.5126793   6.2376429  68.0962188  25.1612654
   5.5847879  68.3438096  24.5065107   6.6156809  67.2826326  24.8275132
   3.1983603  78.1321881  19.2640825   3.3805997  77.3143537  19.7268577
   4.0216589  78.3489574  18.8265715   2.2864002  68.8381999  31.6478691
   1.6104639  68.7376129  32.3181067   3.1091636  68.6821213  32.1114689
   1.0286785  80.1448927  25.8836307   1.5805093  80.3080548  26.6485393
   1.3692978  80.7353364  25.2116332   5.8797659  74.9710184  31.7384962
   6.4237563  75.5840142  31.2439917   5.2984504  75.5289763  32.2551975
   4.1655172  78.0930902  22.8699990   4.0406311  77.2920642  22.3610935
   4.8234263  78.5877096  22.3813959   6.2290080  75.8939922  24.4979540
   5.2820416  75.7745273  24.4257866   6.5772853  75.0062420  24.5805801
   3.2336514  75.6892638  20.6983892   3.0861476  74.7609346  20.8791462
   4.0590007  75.7112729  20.2140967   6.8370635  76.5121197  21.7848765
   7.7617183  76.3064059  21.6473216   6.6685939  76.2637598  22.6938106
   3.2298028  63.5430476  15.6916009   3.4461642  64.4255114  15.3904837
   2.7492095  63.1516690  14.9621651   1.6819763  63.9256078  24.3620771
   1.4237541  64.8473148  24.3605101   1.1504803  63.5286512  25.0521235
   6.6265952  77.0306865  17.1410856   6.8002829  76.4653287  16.3884708
   7.1194843  77.8307760  16.9590346   2.1021718  60.0588028  20.7221933
   2.1243415  60.1227361  19.7673913   2.5189778  59.2192537  20.9162439
  12.4805343  69.7943288  18.7601156  12.9236489  69.0450613  18.3620279
  11.6031853  69.7853424  18.3774888   9.5132547  73.7973335  15.7695085
  10.0383871  74.1360607  15.0444405   9.4254900  72.8620350  15.5858220
   1.1752596  77.7107408  27.8984962   1.4839722  77.4656555  28.7707661
   1.9728078  77.9154047  27.4103832   9.2026453  74.4306238  31.0746283
   8.4121997  74.4130377  30.5350782   8.9659808  74.9694532  31.8295320
   9.3224328  71.2798705  28.3879012   9.3722333  71.1148712  29.3294534
   9.2138252  70.4125964  27.9976892   6.6128091  67.2629633  29.7038318
   7.5137954  67.1236097  29.4122316   6.6876065  67.4284087  30.6436496
  10.8242525  73.6995646  28.6321033  10.5327334  74.0625627  29.4684494
  10.2114656  72.9862654  28.4534365  12.0238208  71.2648526  21.1523603
  12.8585099  71.7038330  21.3161164  12.1597336  70.7887179  20.3331849
   9.0729713  68.8228261  27.1001091   9.5483835  69.0155907  26.2919942
   8.1495279  68.8787447  26.8544475   3.6509930  60.8576104  26.0656925
   4.1691874  61.5937131  25.7403414   3.2965063  61.1640098  26.9003684
   3.9022524  57.2776387  21.5857822   4.1824278  56.6099576  22.2118248
   4.6873131  57.4705482  21.0732485   7.7731382  65.6994021  25.3329397
   8.7248805  65.7992118  25.3541621   7.6034833  64.9072289  25.8427481
   5.7945762  62.7849604  25.5188798   5.1995694  63.0654617  24.8235286
   5.5095459  63.2743505  26.2905539  10.2519460  68.9200141  24.4471696
  10.2195780  67.9816141  24.6331380  10.8620084  68.9984177  23.7137521
  10.4013949  65.7111184  24.4929980   9.8852997  64.9269641  24.3059908
  11.2853897  65.3829901  24.6576499   8.0624676  59.4552200  20.4525792
   7.8649497  59.1467288  21.3369124   8.6724381  60.1813838  20.5823722
  16.0696010  69.9816147  23.5877733  16.7999399  69.7201435  24.1485436
  15.4602956  69.2444869  23.6279801  14.1511307  68.1224010  24.1852184
  13.4244471  67.9879975  23.5768676  13.7358594  68.4300839  24.9908902
   1.9741484  71.8413940  31.9499557   2.8944493  72.0192539  32.1439604
   1.9391067  70.8969985  31.7979257   1.8907774  60.2583060  16.5798027
   1.0808502  59.9130145  16.9553273   2.5792191  59.9490603  17.1685638
   3.8198322  59.3361106  18.2022324   4.3729361  59.7556560  18.8612347
   4.0568409  58.4096855  18.2445280   7.1977129  61.4461632  17.7100988
   6.6175798  62.1046436  17.3279040   6.9313062  60.6238976  17.2988405
   5.6480696  60.8466689  19.9122308   6.1480474  60.9583224  19.1036627
   6.2916304  60.5427742  20.5523117   5.9802007  63.6061722  16.7657336
   5.0927862  63.8911373  16.5477531   6.3955996  63.4455485  15.9184613
   9.3316544  63.6308243  20.4811675  10.1076934  64.1204695  20.7536292
   8.6064678  64.0566297  20.9383545  11.7689102  64.3435862  21.5385616
  12.3633593  64.1031598  20.8278924  11.8415686  63.6242993  22.1659152
   5.9543031  69.1216258  16.9807626   5.8978233  69.5784809  16.1415259
   6.5071374  68.3606942  16.8030469   9.7647837  64.9105990  17.8057746
   9.5084771  64.5102625  18.6365953   9.1400705  65.6249784  17.6807885
  14.0760175  67.6502063  20.3129037  13.5159733  67.7195252  21.0860599
  13.4703678  67.4743048  19.5928533   6.6877810  70.3121039  14.2760155
   6.6326614  70.1465311  13.3348600   6.0623866  71.0197072  14.4322345
   4.0023718  72.6169951  33.6013718   4.8714877  72.7910603  33.2400353
   3.5230469  73.4364368  33.4789448   3.8126055  56.4071925  18.1091411
   3.0458451  55.8530411  18.2548093   4.2236760  56.4793794  18.9705562
  15.6616193  84.3258577  23.0058993  16.2994603  84.2065324  22.3022333
  15.5437036  85.2739421  23.0646945  12.4705900  84.2786005  22.9420518
  12.1324411  84.1627070  22.0541052  13.3395668  83.8777170  22.9221524
  12.9525683  85.4320857  28.9006723  12.9414323  85.0373655  28.0287227
  13.1146322  84.6986929  29.4940495   9.6732944  88.2157969  27.8485907
   9.3822810  89.1203599  27.7332573  10.3089928  88.2574496  28.5629977
  10.5989151  85.5934817  24.4387267  11.1952723  85.3690839  23.7244230
  10.6564122  84.8519563  25.0412715  15.2157462  82.0510031  20.0812201
  16.0020551  81.6329454  19.7302618  15.4796166  82.9556123  20.2493849
  20.6165889  81.9885264  20.9845179  21.3491061  81.4184481  21.2183009
  19.8605245  81.6006864  21.4251685  12.2342009  84.4112505  18.1808522
  11.8700216  83.8843126  18.8921443  13.0909125  84.0210975  18.0075007
  18.1391309  75.7006838  25.4439788  17.8074634  76.5702249  25.2201003
  17.5436923  75.3843122  26.1233818  14.6322829  87.9019384  24.8435701
  14.3323552  88.8044423  24.7351508  14.2873888  87.6351567  25.6956854
   8.0835310  84.3533181  20.8772405   7.1585807  84.2209395  21.0850097
   8.3319724  85.1327400  21.3742348  18.0319973  80.4201924  22.5233138
  17.1236850  80.3517333  22.2291899  17.9807568  80.8973869  23.3514964
  12.1060838  81.8391570  30.4668035  11.3294172  82.3985490  30.4570900
  12.7451401  82.3248353  30.9882905  19.8981619  78.6218363  24.3011012
  19.2555999  78.9150896  23.6550807  19.3936548  78.5071283  25.1064209
  17.5521783  82.3681536  14.9896871  18.4639639  82.6008923  14.8144569
  17.0431430  82.9518580  14.4271950  10.3607211  84.6477023  30.0286002
  11.1021895  85.1862067  29.7520826   9.6544196  85.2743312  30.1857554
  15.8362550  86.7906164  28.6258164  16.2445906  86.3488574  27.8812796
  15.1139812  86.2158791  28.8792357  12.1893620  81.7278770  25.9991721
  13.0354816  82.1518184  26.1426370  12.1292258  81.0712395  26.6930284
  16.1591365  87.3507354  22.3810453  15.5300227  87.5153068  21.6786521
  15.7717027  87.7648964  23.1521417  20.0380597  88.2861792  19.7354816
  19.3531635  88.6660693  19.1851850  20.1224446  88.8957119  20.4686764
  15.3393066  79.3883139  27.6572894  15.0953998  80.1425199  27.1207170
  15.6152996  79.7668486  28.4920141  17.2931528  85.9321751  26.3350160
  17.5048424  86.5753511  25.6584541  17.2461277  85.0984068  25.8672090
  14.8957757  78.5439572  23.2386732  14.0342236  78.8420825  23.5303470
  14.9220192  78.7609971  22.3067765  11.7119327  87.0881762  19.6460538
  12.1757672  87.3669465  18.8565160  11.4476125  86.1865207  19.4633628
   8.6043408  86.6353244  22.5840301   9.1744765  87.0640512  21.9457786
   9.1951520  86.3535829  23.2824487  10.6488213  83.2104915  16.4550103
  11.3512256  83.6625958  16.9224029  10.3168841  82.5688734  17.0829996
   9.0968574  81.8016671  30.8301312   8.4667235  82.4832952  31.0636709
   8.9904662  81.6899753  29.8854451   4.3913547  81.4688467  21.7567237
   3.6012601  81.7245996  21.2807347   4.8824794  82.2836805  21.8619277
  18.4077356  88.8093707  24.5072517  19.2294800  88.4073894  24.2255199
  18.4039759  88.7061941  25.4588633  12.1733960  88.3577750  26.6633228
  12.2378392  88.8198157  27.4991400  11.4644884  87.7275115  26.7915538
   2.6751250  81.7218958  24.1882227   2.9259288  82.6065968  24.4539803
   3.2110798  81.5423559  23.4157319  26.4983349  85.1532455  20.8557489
  25.7447058  84.5839853  20.7001493  26.6330891  85.1195120  21.8028123
   8.3749317  76.1037437  33.1926563   7.9816263  75.5503636  33.8674208
   9.1915458  76.4148016  33.5833081  11.2917278  77.5195316  30.7846820
  12.0326992  78.1202469  30.7051282  11.5235201  76.7772954  30.2264863
   6.4358616  82.7051684  29.0625050   6.3212131  81.8036941  29.3632149
   5.5803134  82.9515380  28.7109866  13.5150454  90.6469424  30.6612550
  13.0714308  89.8605802  30.3433455  14.1767668  90.8348574  29.9956441
   8.2737575  92.1765225  25.1873229   8.8245000  92.0482289  24.4150223
   7.4349051  92.4760114  24.8368122  15.6131692  90.9272224  28.6893952
  15.5950167  91.7481105  28.1974221  16.5351612  90.8026299  28.9144093
  12.0704746  88.4416353  29.5317460  12.6033083  87.6804641  29.3016768
  11.5418827  88.1490005  30.2741614  15.2374441  73.5476419  25.0611102
  14.8938711  74.4378061  24.9850212  15.6053404  73.3578077  24.1980687
  15.2024724  83.5385030  13.5683537  14.6871347  84.3089635  13.8071924
  14.9302032  82.8650167  14.1916598  12.7871835  78.3834731  18.6268775
  11.9313431  77.9941582  18.4474414  13.1998787  78.4626692  17.7668561
  14.3170981  75.9181074  23.0260335  13.8135777  75.8811210  22.2128140
  14.6101588  76.8273817  23.0856992  10.5613867  76.0019804  22.0326517
  11.4266864  75.8062613  21.6732406  10.6291376  75.7730156  22.9595873
  20.1758998  86.2917385  15.5036710  19.3988441  85.9528544  15.0591872
  20.8550479  86.2970008  14.8291675  14.9911027  81.4112122  15.3943318
  14.6861163  81.7258272  16.2453461  15.9441469  81.4893542  15.4370651
  18.4150305  85.7651366  22.1603318  17.7573979  86.4550628  22.2483447
  19.2190704  86.1547798  22.5037305   8.1676186  78.2322012  19.4042883
   8.7419938  78.0097194  18.6716076   8.7547169  78.3010707  20.1571485
  17.2255764  84.1195739  20.2107260  17.7387645  84.7525731  20.7128970
  17.8756988  83.5196934  19.8450620  10.4698854  75.1063261  18.1317953
   9.8163267  74.7912278  17.5074568  10.4279328  74.4839001  18.8577776
  13.7036595  81.5945194  22.4565600  12.7859156  81.8160141  22.2987289
  14.1196738  81.6691505  21.5977308  14.4871642  82.9936610  17.5868281
  15.2343461  83.5058007  17.2775403  14.7563232  82.6720663  18.4472674
  17.9917560  89.1001740  18.3386403  17.5379887  88.2592650  18.3951593
  17.3611527  89.7363139  18.6761183  16.9350479  80.0293726  19.5687070
  16.1973236  79.5171113  19.8997313  17.1877253  79.5894108  18.7570347
  16.4350499  90.9378237  19.2736221  16.7273473  91.4983294  18.5548586
  16.9449120  91.2306798  20.0289380  17.0362107  72.8069978  20.1628839
  17.3420984  71.9467342  19.8754754  17.7614712  73.3987599  19.9627833
  11.3083187  83.1023771  20.6705030  11.3631796  82.1497608  20.5947507
  10.4974389  83.2583211  21.1546329   9.2475546  81.7200831  18.4295409
   8.4343412  82.0195002  18.8360601   9.7434541  81.3256520  19.1469891
  14.8449758  82.1842656  27.2610303  15.1999146  82.4114129  28.1204769
  15.4921889  82.5161033  26.6387558  20.5747495  85.3061092  17.9659632
  20.4365394  85.4962688  17.0380821  20.2183714  86.0680474  18.4227683
   8.7389621  79.2919187  24.0456644   9.3789001  79.1507946  23.3479608
   7.9067152  79.0053700  23.6695246  20.6016875  87.3737619  22.9770904
  21.0353381  87.2812908  23.8253958  21.3148455  87.3495119  22.3390920
  14.3344770  90.9739713  24.5104004  14.3881792  91.5430649  25.2781720
  13.4659551  91.1441598  24.1458041   5.7418238  79.2619512  18.8229631
   6.0025055  80.1764845  18.7138791   6.5635410  78.7943954  18.9726244
   7.2143163  80.6757269  25.9928456   7.8866216  80.4674631  25.3441104
   6.3872949  80.4779355  25.5533688  21.4632424  87.4161319  25.5103789
  21.6568314  88.3207130  25.7563064  21.3633042  86.9568738  26.3442374
  13.1168735  77.3019210  28.0094116  12.4696650  78.0009160  27.9158593
  13.8869750  77.7355354  28.3770365  16.5247533  87.5668062  31.0844670
  16.3733039  87.3378614  30.1674753  16.5152212  88.5238663  31.0976015
  13.2932869  85.1399975  26.0690936  14.2224929  85.2911134  25.8959903
  12.8723899  85.2283996  25.2139583  12.0921201  89.1650639  23.8389474
  11.9532287  88.7969424  24.7115412  11.3035797  89.6798279  23.6673432
  13.6426416  88.5432242  21.2278312  13.3076249  88.5033012  22.1235961
  13.1430362  87.8776958  20.7548722   7.6170660  83.9499872  26.7530893
   7.4790458  83.2180111  27.3542432   8.5275584  83.8608772  26.4715080
  10.2452961  83.6619831  26.2414572  10.9552579  83.0213023  26.2001191
  10.2022269  83.9132726  27.1640753  18.2339740  90.5987185  29.1621152
  18.1752286  89.9146405  28.4951735  18.6359258  91.3406175  28.7101778
   8.9581895  80.6485049  28.0610212   8.4219252  80.1975788  28.7131808
   8.3698603  80.7830958  27.3180676  18.2357147  88.5626769  27.3935131
  17.3483926  88.2252690  27.5161530  18.8055698  87.8309800  27.6303897
   4.6921016  79.7841057  25.1463206   4.6079205  79.1766726  24.4113616
   3.8703722  80.2750075  25.1472703  11.7658300  93.2228221  24.3596374
  11.6928472  94.0283192  24.8715679  11.3235693  93.4220187  23.5344396
  14.8644730  78.2694620  20.5133401  15.3613429  77.5164583  20.1934472
  14.0931711  78.3058937  19.9476611  22.7174487  83.9734986  22.1551693
  22.7064364  84.8559701  21.7845626  21.8491867  83.6206537  21.9606230
  14.2256984  93.1215055  26.5154533  14.9384956  93.7562520  26.4430435
  13.7347012  93.2178921  25.6994535  15.9474511  87.0266308  18.0871825
  15.0130789  87.1467770  17.9176529  16.1251179  86.1238774  17.8231835
  11.4479699  80.4112003  20.2405086  11.0777486  79.8583044  20.9285992
  11.9438791  79.8070137  19.6880086  19.3347062  82.8683627  18.6221859
  19.8007514  83.7011618  18.5482162  19.7854562  82.4028608  19.3267117
   9.2768897  90.8709498  27.3360104   9.9778357  91.5045981  27.4889498
   8.8064012  91.2124230  26.5755743  17.4023293  89.2127448  15.6208011
  17.6783137  89.0984043  16.5301885  16.5327792  88.8144933  15.5820184
  17.3063725  75.2364214  22.6612760  16.3926805  75.4668441  22.8294967
  17.7356826  75.3202658  23.5126793  17.0770183  83.4254106  25.1612654
  16.4241633  83.6730013  24.5065107  17.4550563  82.6118244  24.8275132
  14.0377357  93.4613799  19.2640825  14.2199752  92.6435455  19.7268577
  14.8610343  93.6781491  18.8265715  13.1257756  84.1673917  31.6478691
  12.4498393  84.0668046  32.3181067  13.9485390  84.0113131  32.1114689
  11.8680539  95.4740844  25.8836307  12.4198847  95.6372466  26.6485393
  12.2086733  96.0645282  25.2116332   6.8445032  77.8215994  26.4858192
   6.9086359  78.6830825  26.0735590   6.7812153  77.2089996  25.7530551
   6.3197305  79.8939127  30.1331226   6.9469344  79.5116204  30.7468751
   5.4625224  79.6753329  30.4986919  16.7191413  90.3002102  31.7384962
  17.2631317  90.9132060  31.2439917  16.1378258  90.8581680  32.2551975
  15.0048926  93.4222820  22.8699990  14.8800066  92.6212560  22.3610935
  15.6628018  93.9169013  22.3813959   6.6257095  79.7771552  22.0477130
   5.9043680  80.3907520  21.9084603   7.4150350  80.3129317  21.9693776
  17.0683835  91.2231840  24.4979540  16.1214170  91.1037191  24.4257866
  17.4166608  90.3354338  24.5805801   9.4283408  77.1125979  28.3217781
   9.9517810  77.3588275  29.0844091   9.2095741  77.9446014  27.9020919
  14.0730268  91.0184556  20.6983892  13.9255231  90.0901264  20.8791462
  14.8983762  91.0404647  20.2140967  17.6764390  91.8413115  21.7848765
  18.6010937  91.6355976  21.6473216  17.5079693  91.5929516  22.6938106
  10.6335953  78.0539674  26.0067452  10.2932774  77.2547487  26.4088132
   9.9274959  78.3541385  25.4344285  11.2852425  75.1388986  24.4594775
  12.1078494  74.6649465  24.3373665  11.5290489  75.9179470  24.9593461
   9.9260660  78.1677245  14.7557677  10.6469022  78.5458498  14.2521394
   9.3025964  78.8866122  14.8592655  14.0691782  78.8722394  15.6916009
  14.2855397  79.7547032  15.3904837  13.5885850  78.4808607  14.9621651
   8.8091004  81.8308107  22.2686754   8.6635585  82.1448410  23.1611035
   8.3316207  82.4493007  21.7157652  10.6687387  78.8210655  22.3167643
  10.6548955  77.9251748  21.9799941  11.3859815  78.8281319  22.9505929
  12.5213517  79.2547995  24.3620771  12.2631295  80.1765066  24.3605101
  11.9898558  78.8578430  25.0521235  17.4659706  92.3598782  17.1410856
  17.6396584  91.7945205  16.3884708  17.9588597  93.1599677  16.9590346
   3.2836666  84.3713451  25.2074415   2.7390134  85.1473259  25.3394689
   4.1616016  84.7184256  25.0493536  10.0724283  77.7025035  17.5855213
  10.1940194  76.7741681  17.7846101   9.7826325  77.7163721  16.6733529
  12.9415473  75.3879946  20.7221933  12.9637170  75.4519279  19.7673913
  13.3583532  74.5484454  20.9162439  23.3199097  85.1235205  18.7601156
  23.7630243  84.3742530  18.3620279  22.4425608  85.1145342  18.3774888
   4.0702688  83.4983348  28.1004572   3.3284424  83.6465983  28.6869202
   3.7495432  83.7591613  27.2371321  20.3526302  89.1265252  15.7695085
  20.8777626  89.4652525  15.0444405  20.2648654  88.1912268  15.5858220
  12.0146350  93.0399326  27.8984962  12.3233477  92.7948473  28.7707661
  12.8121832  93.2445964  27.4103832   9.4840835  90.7375245  22.2012640
   8.8620844  90.0745950  21.9014868  10.1545702  90.7636377  21.5186288
   9.5565362  79.2157033  31.7945146   9.6053518  80.0919155  31.4122916
  10.0987876  78.6734426  31.2216789  20.0420208  89.7598156  31.0746283
  19.2515752  89.7422295  30.5350782  19.8053562  90.2986450  31.8295320
  20.1618083  86.6090622  28.3879012  20.2116088  86.4440630  29.3294534
  20.0532006  85.7417881  27.9976892  17.4521845  82.5921550  29.7038318
  18.3531708  82.4528015  29.4122316  17.5269820  82.7576005  30.6436496
  11.7864651  79.9688405  28.5491505  10.9167960  80.2621971  28.2774093
  12.0224131  80.5528850  29.2698768  21.6636280  89.0287564  28.6321033
  21.3721088  89.3917544  29.4684494  21.0508411  88.3154572  28.4534365
  22.8631962  86.5940444  21.1523603  23.6978853  87.0330248  21.3161164
  22.9991091  86.1179097  20.3331849  19.9123468  84.1520178  27.1001091
  20.3877590  84.3447825  26.2919942  18.9889033  84.2079364  26.8544475
  14.4903684  76.1868022  26.0656925  15.0085628  76.9229049  25.7403414
  14.1358817  76.4932015  26.9003684  14.7416279  72.6068305  21.5857822
  15.0218032  71.9391494  22.2118248  15.5266886  72.7997400  21.0732485
  18.6125137  81.0285938  25.3329397  19.5642560  81.1284036  25.3541621
  18.4428587  80.2364207  25.8427481  16.6339516  78.1141522  25.5188798
  16.0389449  78.3946534  24.8235286  16.3489213  78.6035423  26.2905539
  21.0913215  84.2492058  24.4471696  21.0589535  83.3108059  24.6331380
  21.7013838  84.3276095  23.7137521  21.2407703  81.0403102  24.4929980
  20.7246752  80.2561558  24.3059908  22.1247652  80.7121818  24.6576499
  18.9018430  74.7844117  20.4525792  18.7043251  74.4759205  21.3369124
  19.5118136  75.5105756  20.5823722  26.9089765  85.3108065  23.5877733
  27.6393153  85.0493353  24.1485436  26.2996710  84.5736787  23.6279801
  24.9905062  83.4515928  24.1852184  24.2638225  83.3171893  23.5768676
  24.5752349  83.7592756  24.9908902  12.8135238  87.1705857  31.9499557
  13.7338248  87.3484456  32.1439604  12.7784821  86.2261903  31.7979257
   5.8097311  85.0806892  24.5922339   6.0283320  86.0124000  24.6110372
   6.2223084  84.7214866  25.3777142  12.7301528  75.5874977  16.5798027
  11.9202257  75.2422062  16.9553273  13.4185945  75.2782521  17.1685638
  14.6592077  74.6653024  18.2022324  15.2123115  75.0848477  18.8612347
  14.8962163  73.7388772  18.2445280  10.6825176  80.6540098  33.9825087
  10.5821903  81.6034455  33.9137179  10.4646718  80.3258337  33.1101158
  18.0370884  76.7753549  17.7100988  17.4569553  77.4338353  17.3279040
  17.7706817  75.9530894  17.2988405  16.4874450  76.1758607  19.9122308
  16.9874229  76.2875141  19.1036627  17.1310058  75.8719660  20.5523117
  10.5456446  84.0837237  32.7990149  10.0623528  84.8837597  33.0054038
  10.6317385  84.0945181  31.8457593   6.4729784  87.9741771  24.8358583
   7.4273037  87.9425714  24.7688514   6.2742307  87.5132395  25.6508809
   7.0629166  86.5442887  27.4029381   7.8822055  87.0386966  27.4264218
   7.3365973  85.6274855  27.3746948  16.8195762  78.9353640  16.7657336
  15.9321617  79.2203290  16.5477531  17.2349751  78.7747403  15.9184613
  20.1710298  78.9600161  20.4811675  20.9470688  79.4496613  20.7536292
  19.4458432  79.3858215  20.9383545  22.6082857  79.6727780  21.5385616
  23.2027347  79.4323516  20.8278924  22.6809440  78.9534910  22.1659152
  16.7936786  84.4508176  16.9807626  16.7371987  84.9076727  16.1415259
  17.3465128  83.6898860  16.8030469  20.6041592  80.2397907  17.8057746
  20.3478526  79.8394543  18.6365953  19.9794460  80.9541701  17.6807885
  24.9153929  82.9793981  20.3129037  24.3553487  83.0487170  21.0860599
  24.3097433  82.8034965  19.5928533  17.5271565  85.6412957  14.2760155
  17.4720369  85.4757228  13.3348600  16.9017620  86.3488990  14.4322345
   2.3164080  80.8781021  28.1021578   2.9622943  80.3679975  28.5908803
   2.1081231  81.6149703  28.6765003  14.8417472  87.9461869  33.6013718
  15.7108632  88.1202521  33.2400353  14.3624224  88.7656285  33.4789448
  10.8367690  75.1421066  13.8545474  10.8246360  76.0862906  14.0113745
  11.7291112  74.9591211  13.5604935   9.0103652  95.0658970  25.2803152
   9.9130899  95.0982580  25.5969647   8.7841022  94.1359421  25.2949488
  14.6519810  71.7363842  18.1091411  13.8852206  71.1822329  18.2548093
  15.0630515  71.8085711  18.9705562   6.6561571  78.0248638  32.1996592
   7.5193032  77.6685443  32.4099916   6.0826982  77.6862533  32.8871996
  26.5009948  99.6550495  23.0058993  27.1388358  99.5357242  22.3022333
  26.3830791 100.6031339  23.0646945  23.3099654  99.6077923  22.9420518
  22.9718166  99.4918987  22.0541052  24.1789422  99.2069088  22.9221524
  23.7919437 100.7612774  28.9006723  23.7808078 100.3665573  28.0287227
  23.9540077 100.0278847  29.4940495  20.5126698 103.5449886  27.8485907
  20.2216564 104.4495517  27.7332573  21.1483683 103.5866414  28.5629977
  21.4382905 100.9226735  24.4387267  22.0346477 100.6982757  23.7244230
  21.4957877 100.1811480  25.0412715  26.0551216  97.3801948  20.0812201
  26.8414306  96.9621372  19.7302618  26.3189921  98.2848041  20.2493849
  31.4559643  97.3177182  20.9845179  32.1884815  96.7476398  21.2183009
  30.6998999  96.9298782  21.4251685  23.0735763  99.7404423  18.1808522
  22.7093970  99.2135044  18.8921443  23.9302879  99.3502892  18.0075007
  28.9785064  91.0298756  25.4439788  28.6468389  91.8994167  25.2201003
  28.3830677  90.7135040  26.1233818  25.4716583 103.2311302  24.8435701
  25.1717306 104.1336341  24.7351508  25.1267643 102.9643485  25.6956854
  18.9229065  99.6825099  20.8772405  17.9979561  99.5501313  21.0850097
  19.1713478 100.4619318  21.3742348  28.8713727  95.7493842  22.5233138
  27.9630604  95.6809250  22.2291899  28.8201323  96.2265787  23.3514964
  22.9454593  97.1683488  30.4668035  22.1687927  97.7277408  30.4570900
  23.5845156  97.6540270  30.9882905  30.7375374  93.9510280  24.3011012
  30.0949754  94.2442813  23.6550807  30.2330302  93.8363201  25.1064209
  28.3915537  97.6973454  14.9896871  29.3033393  97.9300840  14.8144569
  27.8825184  98.2810498  14.4271950  21.2000965  99.9768941  30.0286002
  21.9415650 100.5153985  29.7520826  20.4937951 100.6035230  30.1857554
  26.6756305 102.1198081  28.6258164  27.0839661 101.6780492  27.8812796
  25.9533566 101.5450709  28.8792357  23.0287375  97.0570688  25.9991721
  23.8748570  97.4810102  26.1426370  22.9686013  96.4004312  26.6930284
  26.9985119 102.6799272  22.3810453  26.3693982 102.8444986  21.6786521
  26.6110782 103.0940882  23.1521417  30.8774351 103.6153710  19.7354816
  30.1925390 103.9952611  19.1851850  30.9618201 104.2249036  20.4686764
  26.1786820  94.7175056  27.6572894  25.9347752  95.4717117  27.1207170
  26.4546751  95.0960404  28.4920141  28.1325283 101.2613669  26.3350160
  28.3442178 101.9045429  25.6584541  28.0855031 100.4275985  25.8672090
  25.7351512  93.8731489  23.2386732  24.8735991  94.1712743  23.5303470
  25.7613947  94.0901888  22.3067765  22.5513081 102.4173680  19.6460538
  23.0151427 102.6961383  18.8565160  22.2869879 101.5157125  19.4633628
  19.4437162 101.9645162  22.5840301  20.0138519 102.3932430  21.9457786
  20.0345274 101.6827746  23.2824487  21.4881967  98.5396832  16.4550103
  22.1906011  98.9917876  16.9224029  21.1562596  97.8980651  17.0829996
  19.9362329  97.1308589  30.8301312  19.3060990  97.8124870  31.0636709
  19.8298417  97.0191671  29.8854451  15.2307301  96.7980385  21.7567237
  14.4406355  97.0537914  21.2807347  15.7218549  97.6128723  21.8619277
  29.2471111 104.1385624  24.5072517  30.0688555 103.7365812  24.2255199
  29.2433514 104.0353858  25.4588633  23.0127714 103.6869668  26.6633228
  23.0772147 104.1490075  27.4991400  22.3038638 103.0567032  26.7915538
  13.5145004  97.0510876  24.1882227  13.7653043  97.9357885  24.4539803
  14.0504553  96.8715477  23.4157319  37.3377104 100.4824373  20.8557489
  36.5840812  99.9131771  20.7001493  37.4724645 100.4487037  21.8028123
  19.2143072  91.4329355  33.1926563  18.8210017  90.8795553  33.8674208
  20.0309212  91.7439933  33.5833081  22.1311033  92.8487234  30.7846820
  22.8720746  93.4494387  30.7051282  22.3628955  92.1064872  30.2264863
  17.2752371  98.0343601  29.0625050  17.1605886  97.1328858  29.3632149
  16.4196888  98.2807298  28.7109866  24.3544208 105.9761342  30.6612550
  23.9108063 105.1897720  30.3433455  25.0161422 106.1640492  29.9956441
  19.1131330 107.5057143  25.1873229  19.6638755 107.3774207  24.4150223
  18.2742805 107.8052032  24.8368122  26.4525446 106.2564141  28.6893952
  26.4343922 107.0773023  28.1974221  27.3745367 106.1318217  28.9144093
  22.9098501 103.7708271  29.5317460  23.4426837 103.0096559  29.3016768
  22.3812582 103.4781923  30.2741614  26.0768196  88.8768337  25.0611102
  25.7332465  89.7669979  24.9850212  26.4447158  88.6869995  24.1980687
  26.0418478  98.8676948  13.5683537  25.5265102  99.6381553  13.8071924
  25.7695787  98.1942084  14.1916598  23.6265589  93.7126649  18.6268775
  22.7707186  93.3233499  18.4474414  24.0392541  93.7918610  17.7668561
  25.1564736  91.2472992  23.0260335  24.6529532  91.2103127  22.2128140
  25.4495343  92.1565735  23.0856992  21.4007622  91.3311722  22.0326517
  22.2660619  91.1354530  21.6732406  21.4685131  91.1022074  22.9595873
  31.0152752 101.6209303  15.5036710  30.2382195 101.2820462  15.0591872
  31.6944233 101.6261926  14.8291675  25.8304781  96.7404040  15.3943318
  25.5254917  97.0550189  16.2453461  26.7835224  96.8185460  15.4370651
  29.2544059 101.0943284  22.1603318  28.5967734 101.7842545  22.2483447
  30.0584459 101.4839716  22.5037305  19.0069941  93.5613930  19.4042883
  19.5813693  93.3389111  18.6716076  19.5940923  93.6302624  20.1571485
  28.0649518  99.4487657  20.2107260  28.5781400 100.0817648  20.7128970
  28.7150742  98.8488852  19.8450620  21.3092609  90.4355179  18.1317953
  20.6557021  90.1204196  17.5074568  21.2673083  89.8130919  18.8577776
  24.5430349  96.9237112  22.4565600  23.6252910  97.1452059  22.2987289
  24.9590493  96.9983423  21.5977308  25.3265397  98.3228528  17.5868281
  26.0737216  98.8349925  17.2775403  25.5956986  98.0012581  18.4472674
  28.8311314 104.4293658  18.3386403  28.3773641 103.5884568  18.3951593
  28.2005281 105.0655056  18.6761183  27.7744234  95.3585644  19.5687070
  27.0366991  94.8463030  19.8997313  28.0271007  94.9186026  18.7570347
  27.2744254 106.2670155  19.2736221  27.5667228 106.8275212  18.5548586
  27.7842874 106.5598716  20.0289380  27.8755861  88.1361896  20.1628839
  28.1814738  87.2759260  19.8754754  28.6008466  88.7279516  19.9627833
  22.1476941  98.4315689  20.6705030  22.2025551  97.4789526  20.5947507
  21.3368143  98.5875128  21.1546329  20.0869301  97.0492749  18.4295409
  19.2737166  97.3486919  18.8360601  20.5828295  96.6548438  19.1469891
  25.6843513  97.5134573  27.2610303  26.0392900  97.7406047  28.1204769
  26.3315644  97.8452950  26.6387558  31.4141250 100.6353009  17.9659632
  31.2759148 100.8254605  17.0380821  31.0577468 101.3972392  18.4227683
  19.5783376  94.6211104  24.0456644  20.2182755  94.4799864  23.3479608
  18.7460906  94.3345618  23.6695246  31.4410629 102.7029536  22.9770904
  31.8747136 102.6104825  23.8253958  32.1542210 102.6787037  22.3390920
  25.1738524 106.3031630  24.5104004  25.2275546 106.8722567  25.2781720
  24.3053305 106.4733515  24.1458041  16.5811992  94.5911429  18.8229631
  16.8418809  95.5056763  18.7138791  17.4029164  94.1235872  18.9726244
  18.0536917  96.0049187  25.9928456  18.7259971  95.7966549  25.3441104
  17.2266704  95.8071273  25.5533688  32.3026179 102.7453237  25.5103789
  32.4962069 103.6499047  25.7563064  32.2026797 102.2860656  26.3442374
  23.9562489  92.6311128  28.0094116  23.3090404  93.3301077  27.9158593
  24.7263505  93.0647271  28.3770365  27.3641287 102.8959980  31.0844670
  27.2126794 102.6670531  30.1674753  27.3545967 103.8530581  31.0976015
  24.1326624 100.4691892  26.0690936  25.0618684 100.6203052  25.8959903
  23.7117654 100.5575913  25.2139583  22.9314956 104.4942557  23.8389474
  22.7926041 104.1261341  24.7115412  22.1429552 105.0090196  23.6673432
  24.4820171 103.8724160  21.2278312  24.1470003 103.8324930  22.1235961
  23.9824116 103.2068875  20.7548722  18.4564415  99.2791790  26.7530893
  18.3184213  98.5472028  27.3542432  19.3669338  99.1900690  26.4715080
  21.0846715  98.9911749  26.2414572  21.7946334  98.3504941  26.2001191
  21.0416024  99.2424644  27.1640753  29.0733494 105.9279102  29.1621152
  29.0146040 105.2438322  28.4951735  29.4753012 106.6698092  28.7101778
  19.7975649  95.9776967  28.0610212  19.2613006  95.5267705  28.7131808
  19.2092358  96.1122876  27.3180676  29.0750901 103.8918686  27.3935131
  28.1877680 103.5544608  27.5161530  29.6449452 103.1601717  27.6303897
  15.5314771  95.1132974  25.1463206  15.4472959  94.5058644  24.4113616
  14.7097477  95.6041993  25.1472703  22.6052055 108.5520139  24.3596374
  22.5322226 109.3575110  24.8715679  22.1629448 108.7512104  23.5344396
  25.7038484  93.5986538  20.5133401  26.2007184  92.8456500  20.1934472
  24.9325466  93.6350855  19.9476611  33.5568242  99.3026904  22.1551693
  33.5458118 100.1851619  21.7845626  32.6885621  98.9498454  21.9606230
  25.0650738 108.4506973  26.5154533  25.7778710 109.0854437  26.4430435
  24.5740767 108.5470839  25.6994535  26.7868265 102.3558225  18.0871825
  25.8524544 102.4759688  17.9176529  26.9644934 101.4530692  17.8231835
  22.2873453  95.7403921  20.2405086  21.9171241  95.1874961  20.9285992
  22.7832546  95.1362054  19.6880086  30.1740816  98.1975545  18.6221859
  30.6401269  99.0303536  18.5482162  30.6248317  97.7320526  19.3267117
  20.1162652 106.2001416  27.3360104  20.8172111 106.8337899  27.4889498
  19.6457767 106.5416148  26.5755743  28.2417048 104.5419366  15.6208011
  28.5176891 104.4275960  16.5301885  27.3721546 104.1436851  15.5820184
  28.1457479  90.5656132  22.6612760  27.2320559  90.7960358  22.8294967
  28.5750581  90.6494576  23.5126793  27.9163938  98.7546023  25.1612654
  27.2635388  99.0021931  24.5065107  28.2944318  97.9410162  24.8275132
  24.8771112 108.7905717  19.2640825  25.0593506 107.9727373  19.7268577
  25.7004098 109.0073409  18.8265715  23.9651511  99.4965835  31.6478691
  23.2892148  99.3959964  32.3181067  24.7879145  99.3405048  32.1114689
  22.7074294 110.8032762  25.8836307  23.2592602 110.9664383  26.6485393
  23.0480487 111.3937200  25.2116332  17.6838787  93.1507912  26.4858192
  17.7480113  94.0122743  26.0735590  17.6205907  92.5381913  25.7530551
  17.1591059  95.2231044  30.1331226  17.7863098  94.8408122  30.7468751
  16.3018978  95.0045246  30.4986919  27.5585168 105.6294019  31.7384962
  28.1025072 106.2423978  31.2439917  26.9772013 106.1873598  32.2551975
  25.8442681 108.7514738  22.8699990  25.7193820 107.9504477  22.3610935
  26.5021772 109.2460931  22.3813959  17.4650849  95.1063470  22.0477130
  16.7437435  95.7199438  21.9084603  18.2544105  95.6421235  21.9693776
  27.9077589 106.5523758  24.4979540  26.9607925 106.4329109  24.4257866
  28.2560362 105.6646256  24.5805801  20.2677163  92.4417897  28.3217781
  20.7911564  92.6880193  29.0844091  20.0489496  93.2737931  27.9020919
  24.9124023 106.3476474  20.6983892  24.7648985 105.4193181  20.8791462
  25.7377516 106.3696565  20.2140967  28.5158144 107.1705033  21.7848765
  29.4404692 106.9647894  21.6473216  28.3473448 106.9221434  22.6938106
  21.4729708  93.3831592  26.0067452  21.1326528  92.5839405  26.4088132
  20.7668714  93.6833302  25.4344285  22.1246180  90.4680904  24.4594775
  22.9472249  89.9941382  24.3373665  22.3684243  91.2471388  24.9593461
  20.7654414  93.4969162  14.7557677  21.4862777  93.8750415  14.2521394
  20.1419718  94.2158039  14.8592655  24.9085537  94.2014311  15.6916009
  25.1249151  95.0838949  15.3904837  24.4279604  93.8100525  14.9621651
  19.6484758  97.1600025  22.2686754  19.5029339  97.4740328  23.1611035
  19.1709962  97.7784925  21.7157652  21.5081141  94.1502573  22.3167643
  21.4942710  93.2543666  21.9799941  22.2253569  94.1573236  22.9505929
  23.3607272  94.5839913  24.3620771  23.1025050  95.5056984  24.3605101
  22.8292312  94.1870347  25.0521235  28.3053461 107.6890700  17.1410856
  28.4790338 107.1237122  16.3884708  28.7982352 108.4891595  16.9590346
  14.1230420  99.7005369  25.2074415  13.5783889 100.4765177  25.3394689
  15.0009770 100.0476174  25.0493536  20.9118037  93.0316953  17.5855213
  21.0333948  92.1033599  17.7846101  20.6220079  93.0455639  16.6733529
  23.7809227  90.7171863  20.7221933  23.8030924  90.7811196  19.7673913
  24.1977286  89.8776372  20.9162439  34.1592852 100.4527123  18.7601156
  34.6023998  99.7034448  18.3620279  33.2819362 100.4437259  18.3774888
  14.9096442  98.8275265  28.1004572  14.1678178  98.9757901  28.6869202
  14.5889187  99.0883531  27.2371321  31.1920056 104.4557170  15.7695085
  31.7171380 104.7944443  15.0444405  31.1042409 103.5204185  15.5858220
  22.8540105 108.3691244  27.8984962  23.1627231 108.1240390  28.7707661
  23.6515587 108.5737882  27.4103832  20.3234589 106.0667162  22.2012640
  19.7014598 105.4037867  21.9014868  20.9939456 106.0928294  21.5186288
  20.3959117  94.5448950  31.7945146  20.4447272  95.4211073  31.4122916
  20.9381631  94.0026343  31.2216789  30.8813962 105.0890074  31.0746283
  30.0909506 105.0714212  30.5350782  30.6447317 105.6278367  31.8295320
  31.0011837 101.9382540  28.3879012  31.0509842 101.7732547  29.3294534
  30.8925761 101.0709799  27.9976892  28.2915600  97.9213468  29.7038318
  29.1925463  97.7819933  29.4122316  28.3663574  98.0867923  30.6436496
  22.6258405  95.2980323  28.5491505  21.7561714  95.5913889  28.2774093
  22.8617885  95.8820768  29.2698768  32.5030034 104.3579481  28.6321033
  32.2114842 104.7209462  29.4684494  31.8902165 103.6446490  28.4534365
  33.7025716 101.9232361  21.1523603  34.5372608 102.3622165  21.3161164
  33.8384845 101.4471014  20.3331849  30.7517222  99.4812096  27.1001091
  31.2271344  99.6739742  26.2919942  29.8282788  99.5371282  26.8544475
  25.3297439  91.5159940  26.0656925  25.8479383  92.2520967  25.7403414
  24.9752572  91.8223933  26.9003684  25.5810033  87.9360222  21.5857822
  25.8611787  87.2683411  22.2118248  26.3660640  88.1289318  21.0732485
  29.4518891  96.3577856  25.3329397  30.4036314  96.4575954  25.3541621
  29.2822342  95.5656125  25.8427481  27.4733271  93.4433439  25.5188798
  26.8783203  93.7238452  24.8235286  27.1882968  93.9327340  26.2905539
  31.9306969  99.5783976  24.4471696  31.8983289  98.6399977  24.6331380
  32.5407593  99.6568013  23.7137521  32.0801458  96.3695019  24.4929980
  31.5640506  95.5853476  24.3059908  32.9641406  96.0413736  24.6576499
  29.7412185  90.1136035  20.4525792  29.5437006  89.8051123  21.3369124
  30.3511890  90.8397674  20.5823722  37.7483519 100.6399983  23.5877733
  38.4786908 100.3785271  24.1485436  37.1390465  99.9028705  23.6279801
  35.8298816  98.7807845  24.1852184  35.1031980  98.6463810  23.5768676
  35.4146103  99.0884674  24.9908902  23.6528993 102.4997775  31.9499557
  24.5732002 102.6776374  32.1439604  23.6178576 101.5553820  31.7979257
  16.6491065 100.4098810  24.5922339  16.8677075 101.3415917  24.6110372
  17.0616839 100.0506784  25.3777142  23.5695283  90.9166895  16.5798027
  22.7596011  90.5713980  16.9553273  24.2579700  90.6074439  17.1685638
  25.4985831  89.9944942  18.2022324  26.0516870  90.4140395  18.8612347
  25.7355918  89.0680690  18.2445280  21.5218930  95.9832015  33.9825087
  21.4215657  96.9326372  33.9137179  21.3040473  95.6550254  33.1101158
  28.8764638  92.1045467  17.7100988  28.2963307  92.7630271  17.3279040
  28.6100571  91.2822811  17.2988405  27.3268205  91.5050525  19.9122308
  27.8267983  91.6167059  19.1036627  27.9703813  91.2011577  20.5523117
  21.3850201  99.4129154  32.7990149  20.9017282 100.2129514  33.0054038
  21.4711140  99.4237099  31.8457593  17.3123538 103.3033689  24.8358583
  18.2666792 103.2717631  24.7688514  17.1136062 102.8424313  25.6508809
  17.9022920 101.8734805  27.4029381  18.7215809 102.3678884  27.4264218
  18.1759728 100.9566773  27.3746948  27.6589516  94.2645557  16.7657336
  26.7715371  94.5495208  16.5477531  28.0743505  94.1039321  15.9184613
  31.0104052  94.2892078  20.4811675  31.7864443  94.7788531  20.7536292
  30.2852187  94.7150132  20.9383545  33.4476611  95.0019697  21.5385616
  34.0421102  94.7615433  20.8278924  33.5203195  94.2826828  22.1659152
  27.6330540  99.7800093  16.9807626  27.5765741 100.2368645  16.1415259
  28.1858883  99.0190778  16.8030469  31.4435346  95.5689825  17.8057746
  31.1872280  95.1686461  18.6365953  30.8188214  96.2833619  17.6807885
  35.7547684  98.3085898  20.3129037  35.1947242  98.3779088  21.0860599
  35.1491187  98.1326883  19.5928533  28.3665319 100.9704874  14.2760155
  28.3114123 100.8049146  13.3348600  27.7411375 101.6780907  14.4322345
  13.1557834  96.2072939  28.1021578  13.8016698  95.6971893  28.5908803
  12.9474986  96.9441620  28.6765003  25.6811227 103.2753786  33.6013718
  26.5502386 103.4494439  33.2400353  25.2017978 104.0948203  33.4789448
  21.6761445  90.4712983  13.8545474  21.6640115  91.4154823  14.0113745
  22.5684867  90.2883129  13.5604935  19.8497407 110.3950887  25.2803152
  20.7524654 110.4274498  25.5969647  19.6234777 109.4651338  25.2949488
  25.4913564  87.0655760  18.1091411  24.7245960  86.5114247  18.2548093
  25.9024269  87.1377629  18.9705562  17.4955325  93.3540556  32.1996592
  18.3586787  92.9977361  32.4099916  16.9220736  93.0154451  32.8871996
  37.3403702 114.9842412  23.0058993  37.9782112 114.8649160  22.3022333
  37.2224545 115.9323256  23.0646945  34.1493409 114.9369840  22.9420518
  33.8111920 114.8210905  22.0541052  35.0183177 114.5361005  22.9221524
  34.6313192 116.0904692  28.9006723  34.6201832 115.6957490  28.0287227
  34.7933831 115.3570765  29.4940495  36.8944971 112.7093866  20.0812201
  37.6808060 112.2913289  19.7302618  37.1583675 113.6139958  20.2493849
  42.2953398 112.6469099  20.9845179  43.0278570 112.0768316  21.2183009
  41.5392754 112.2590700  21.4251685  33.9129518 115.0696341  18.1808522
  33.5487725 114.5426962  18.8921443  34.7696634 114.6794810  18.0075007
  39.8178818 106.3590673  25.4439788  39.4862143 107.2286084  25.2201003
  39.2224432 106.0426957  26.1233818  39.7107482 111.0785760  22.5233138
  38.8024359 111.0101168  22.2291899  39.6595077 111.5557705  23.3514964
  33.7848347 112.4975405  30.4668035  33.0081681 113.0569325  30.4570900
  34.4238910 112.9832188  30.9882905  41.5769128 109.2802198  24.3011012
  40.9343508 109.5734731  23.6550807  41.0724057 109.1655118  25.1064209
  39.2309292 113.0265371  14.9896871  40.1427148 113.2592758  14.8144569
  38.7218939 113.6102415  14.4271950  37.5150059 117.4489999  28.6258164
  37.9233415 117.0072410  27.8812796  36.7927321 116.8742627  28.8792357
  33.8681129 112.3862606  25.9991721  34.7142325 112.8102019  26.1426370
  33.8079767 111.7296230  26.6930284  37.0180575 110.0466974  27.6572894
  36.7741507 110.8009035  27.1207170  37.2940505 110.4252322  28.4920141
  38.9719037 116.5905587  26.3350160  39.1835933 117.2337346  25.6584541
  38.9248786 115.7567903  25.8672090  36.5745266 109.2023407  23.2386732
  35.7129745 109.5004661  23.5303470  36.6007701 109.4193806  22.3067765
  32.3275722 113.8688750  16.4550103  33.0299765 114.3209794  16.9224029
  31.9956350 113.2272569  17.0829996  30.7756083 112.4600507  30.8301312
  30.1454744 113.1416788  31.0636709  30.6692171 112.3483588  29.8854451
  26.0701056 112.1272303  21.7567237  25.2800110 112.3829831  21.2807347
  26.5612303 112.9420641  21.8619277  48.1770858 115.8116290  20.8557489
  47.4234567 115.2423688  20.7001493  48.3118400 115.7778955  21.8028123
  30.0536826 106.7621273  33.1926563  29.6603772 106.2087471  33.8674208
  30.8702966 107.0731851  33.5833081  32.9704787 108.1779152  30.7846820
  33.7114501 108.7786305  30.7051282  33.2022710 107.4356789  30.2264863
  28.1146125 113.3635519  29.0625050  27.9999640 112.4620776  29.3632149
  27.2590643 113.6099216  28.7109866  36.9161950 104.2060255  25.0611102
  36.5726219 105.0961896  24.9850212  37.2840913 104.0161912  24.1980687
  36.8812233 114.1968866  13.5683537  36.3658856 114.9673470  13.8071924
  36.6089541 113.5234002  14.1916598  34.4659344 109.0418566  18.6268775
  33.6100940 108.6525417  18.4474414  34.8786296 109.1210527  17.7668561
  35.9958490 106.5764910  23.0260335  35.4923286 106.5395045  22.2128140
  36.2889097 107.4857652  23.0856992  32.2401376 106.6603639  22.0326517
  33.1054373 106.4646448  21.6732406  32.3078885 106.4313991  22.9595873
  41.8546507 116.9501220  15.5036710  41.0775950 116.6112380  15.0591872
  42.5337988 116.9553844  14.8291675  36.6698536 112.0695958  15.3943318
  36.3648672 112.3842107  16.2453461  37.6228978 112.1477378  15.4370651
  40.0937814 116.4235202  22.1603318  39.4361488 117.1134463  22.2483447
  40.8978213 116.8131634  22.5037305  29.8463695 108.8905847  19.4042883
  30.4207447 108.6681029  18.6716076  30.4334678 108.9594542  20.1571485
  38.9043273 114.7779574  20.2107260  39.4175154 115.4109566  20.7128970
  39.5544497 114.1780770  19.8450620  32.1486363 105.7647096  18.1317953
  31.4950775 105.4496113  17.5074568  32.1066837 105.1422837  18.8577776
  35.3824104 112.2529030  22.4565600  34.4646665 112.4743977  22.2987289
  35.7984247 112.3275340  21.5977308  36.1659151 113.6520446  17.5868281
  36.9130970 114.1641843  17.2775403  36.4350741 113.3304498  18.4472674
  38.6137988 110.6877562  19.5687070  37.8760745 110.1754948  19.8997313
  38.8664762 110.2477943  18.7570347  38.7149616 103.4653814  20.1628839
  39.0208493 102.6051177  19.8754754  39.4402221 104.0571434  19.9627833
  32.9870695 113.7607607  20.6705030  33.0419305 112.8081443  20.5947507
  32.1761898 113.9167046  21.1546329  30.9263055 112.3784667  18.4295409
  30.1130921 112.6778837  18.8360601  31.4222050 111.9840355  19.1469891
  36.5237267 112.8426491  27.2610303  36.8786655 113.0697964  28.1204769
  37.1709398 113.1744868  26.6387558  42.2535004 115.9644927  17.9659632
  42.1152903 116.1546523  17.0380821  41.8971223 116.7264310  18.4227683
  30.4177130 109.9503022  24.0456644  31.0576509 109.8091781  23.3479608
  29.5854661 109.6637536  23.6695246  42.2804384 118.0321454  22.9770904
  42.7140890 117.9396743  23.8253958  42.9935964 118.0078954  22.3390920
  27.4205747 109.9203347  18.8229631  27.6812564 110.8348680  18.7138791
  28.2422919 109.4527790  18.9726244  28.8930672 111.3341104  25.9928456
  29.5653725 111.1258466  25.3441104  28.0660458 111.1363190  25.5533688
  43.1419933 118.0745155  25.5103789  43.3355823 118.9790965  25.7563064
  43.0420551 117.6152574  26.3442374  34.7956244 107.9603045  28.0094116
  34.1484159 108.6592995  27.9158593  35.5657259 108.3939189  28.3770365
  34.9720378 115.7983810  26.0690936  35.9012438 115.9494970  25.8959903
  34.5511408 115.8867831  25.2139583  29.2958169 114.6083707  26.7530893
  29.1577967 113.8763946  27.3542432  30.2063093 114.5192607  26.4715080
  31.9240470 114.3203667  26.2414572  32.6340088 113.6796859  26.2001191
  31.8809778 114.5716561  27.1640753  30.6369404 111.3068884  28.0610212
  30.1006761 110.8559623  28.7131808  30.0486112 111.4414793  27.3180676
  26.3708525 110.4424892  25.1463206  26.2866714 109.8350562  24.4113616
  25.5491231 110.9333910  25.1472703  36.5432239 108.9278456  20.5133401
  37.0400938 108.1748418  20.1934472  35.7719220 108.9642772  19.9476611
  44.3961996 114.6318821  22.1551693  44.3851873 115.5143537  21.7845626
  43.5279376 114.2790372  21.9606230  33.1267208 111.0695839  20.2405086
  32.7564995 110.5166879  20.9285992  33.6226300 110.4653972  19.6880086
  41.0134571 113.5267462  18.6221859  41.4795023 114.3595454  18.5482162
  41.4642071 113.0612444  19.3267117  38.9851234 105.8948049  22.6612760
  38.0714314 106.1252276  22.8294967  39.4144335 105.9786493  23.5126793
  38.7557692 114.0837941  25.1612654  38.1029142 114.3313849  24.5065107
  39.1338072 113.2702079  24.8275132  34.8045265 114.8257752  31.6478691
  34.1285902 114.7251882  32.3181067  35.6272899 114.6696966  32.1114689
  28.5232541 108.4799829  26.4858192  28.5873868 109.3414660  26.0735590
  28.4599662 107.8673831  25.7530551  27.9984814 110.5522962  30.1331226
  28.6256853 110.1700039  30.7468751  27.1412733 110.3337164  30.4986919
  28.3044604 110.4355388  22.0477130  27.5831189 111.0491355  21.9084603
  29.0937859 110.9713153  21.9693776  31.1070917 107.7709814  28.3217781
  31.6305319 108.0172111  29.0844091  30.8883250 108.6029849  27.9020919
  32.3123462 108.7123509  26.0067452  31.9720283 107.9131322  26.4088132
  31.6062468 109.0125220  25.4344285  32.9639934 105.7972822  24.4594775
  33.7866003 105.3233300  24.3373665  33.2077998 106.5763305  24.9593461
  31.6048169 108.8261080  14.7557677  32.3256531 109.2042333  14.2521394
  30.9813473 109.5449957  14.8592655  35.7479291 109.5306229  15.6916009
  35.9642906 110.4130867  15.3904837  35.2673359 109.1392443  14.9621651
  30.4878513 112.4891942  22.2686754  30.3423093 112.8032245  23.1611035
  30.0103716 113.1076843  21.7157652  32.3474896 109.4794490  22.3167643
  32.3336464 108.5835584  21.9799941  33.0647324 109.4865154  22.9505929
  34.2001026 109.9131831  24.3620771  33.9418804 110.8348901  24.3605101
  33.6686067 109.5162265  25.0521235  31.7511792 108.3608871  17.5855213
  31.8727703 107.4325517  17.7846101  31.4613834 108.3747557  16.6733529
  34.6202982 106.0463781  20.7221933  34.6424679 106.1103114  19.7673913
  35.0371041 105.2068290  20.9162439  44.9986606 115.7819041  18.7601156
  45.4417752 115.0326366  18.3620279  44.1213117 115.7729177  18.3774888
  31.2352871 109.8740868  31.7945146  31.2841027 110.7502991  31.4122916
  31.7775385 109.3318261  31.2216789  41.8405592 117.2674458  28.3879012
  41.8903597 117.1024465  29.3294534  41.7319515 116.4001717  27.9976892
  39.1309354 113.2505386  29.7038318  40.0319217 113.1111850  29.4122316
  39.2057329 113.4159840  30.6436496  33.4652160 110.6272240  28.5491505
  32.5955469 110.9205806  28.2774093  33.7011640 111.2112685  29.2698768
  44.5419471 117.2524279  21.1523603  45.3766362 117.6914083  21.3161164
  44.6778600 116.7762932  20.3331849  41.5910977 114.8104014  27.1001091
  42.0665099 115.0031660  26.2919942  40.6676542 114.8663200  26.8544475
  36.1691193 106.8451857  26.0656925  36.6873137 107.5812884  25.7403414
  35.8146326 107.1515851  26.9003684  36.4203788 103.2652140  21.5857822
  36.7005541 102.5975329  22.2118248  37.2054394 103.4581235  21.0732485
  40.2912646 111.6869774  25.3329397  41.2430069 111.7867872  25.3541621
  40.1216096 110.8948042  25.8427481  38.3127025 108.7725357  25.5188798
  37.7176957 109.0530370  24.8235286  38.0276722 109.2619258  26.2905539
  42.7700724 114.9075894  24.4471696  42.7377044 113.9691894  24.6331380
  43.3801347 114.9859930  23.7137521  42.9195212 111.6986937  24.4929980
  42.4034261 110.9145394  24.3059908  43.8035161 111.3705654  24.6576499
  40.5805939 105.4427953  20.4525792  40.3830760 105.1343041  21.3369124
  41.1905645 106.1689591  20.5823722  48.5877274 115.9691900  23.5877733
  49.3180662 115.7077189  24.1485436  47.9784219 115.2320622  23.6279801
  46.6692571 114.1099763  24.1852184  45.9425734 113.9755728  23.5768676
  46.2539858 114.4176592  24.9908902  34.4089037 106.2458813  16.5798027
  33.5989766 105.9005898  16.9553273  35.0973454 105.9366356  17.1685638
  36.3379586 105.3236859  18.2022324  36.8910624 105.7432313  18.8612347
  36.5749672 104.3972608  18.2445280  32.3612685 111.3123933  33.9825087
  32.2609412 112.2618290  33.9137179  32.1434227 110.9842172  33.1101158
  39.7158393 107.4337385  17.7100988  39.1357062 108.0922189  17.3279040
  39.4494326 106.6114729  17.2988405  38.1661959 106.8342442  19.9122308
  38.6661738 106.9458977  19.1036627  38.8097567 106.5303495  20.5523117
  32.2243955 114.7421072  32.7990149  31.7411037 115.5421432  33.0054038
  32.3104894 114.7529017  31.8457593  38.4983271 109.5937475  16.7657336
  37.6109126 109.8787126  16.5477531  38.9137260 109.4331238  15.9184613
  41.8497807 109.6183996  20.4811675  42.6258197 110.1080448  20.7536292
  41.1245941 110.0442050  20.9383545  44.2870366 110.3311615  21.5385616
  44.8814856 110.0907351  20.8278924  44.3596949 109.6118746  22.1659152
  38.4724295 115.1092011  16.9807626  38.4159496 115.5660562  16.1415259
  39.0252637 114.3482695  16.8030469  42.2829100 110.8981743  17.8057746
  42.0266035 110.4978378  18.6365953  41.6581969 111.6125537  17.6807885
  46.5941438 113.6377816  20.3129037  46.0340996 113.7071005  21.0860599
  45.9884942 113.4618801  19.5928533  39.2059074 116.2996792  14.2760155
  39.1507878 116.1341064  13.3348600  38.5805129 117.0072825  14.4322345
  23.9951589 111.5364857  28.1021578  24.6410452 111.0263810  28.5908803
  23.7868740 112.2733538  28.6765003  32.5155199 105.8004901  13.8545474
  32.5033869 106.7446741  14.0113745  33.4078621 105.6175047  13.5604935
  36.3307319 102.3947678  18.1091411  35.5639715 101.8406164  18.2548093
  36.7418024 102.4669547  18.9705562  28.3349080 108.6832474  32.1996592
  29.1980541 108.3269278  32.4099916  27.7614491 108.3446368  32.8871996
  47.7555705 119.5352172  25.0611102  47.4119974 120.4253814  24.9850212
  48.1234667 119.3453830  24.1980687  49.5543370 118.7945731  20.1628839
  49.8602247 117.9343095  19.8754754  50.2795975 119.3863352  19.9627833
  49.8244988 121.2239967  22.6612760  48.9108068 121.4544194  22.8294967
  50.2538090 121.3078411  23.5126793  47.2597542 118.5944058  21.5857822
  47.5399296 117.9267247  22.2118248  48.0448149 118.7873153  21.0732485
  51.4199694 120.7719870  20.4525792  51.2224515 120.4634958  21.3369124
  52.0299399 121.4981509  20.5823722  47.1773340 120.6528777  18.2022324
  47.7304379 121.0724231  18.8612347  47.4143427 119.7264525  18.2445280
  47.1701073 117.7239595  18.1091411  46.4033469 117.1698082  18.2548093
  47.5811778 117.7961464  18.9705562   2.6756701  52.3239629  17.3857857
   2.2320555  51.5376007  17.0678761   3.3373914  52.5118779  16.7201748
   4.7737939  52.6042429  15.4139258   4.7556414  53.4251310  14.9219527
   5.6957859  52.4796504  15.6389399   5.6853780  49.2438267  17.8089976
   5.5339286  49.0148819  16.8920060   5.6758459  50.2008868  17.8221321
   7.3945986  52.2757389  15.8866458   7.3358532  51.5916610  15.2197041
   7.7965505  53.0176379  15.4347084   5.8797660  51.9772307  18.4630268
   6.4237564  52.5902265  17.9685223   5.2984505  52.5351885  18.9797281
   9.2026455  51.4368361  17.7991590   8.4121998  51.4192500  17.2596089
   8.9659809  51.9756654  18.5540626  10.8242526  50.7057769  15.3566340
  10.5327335  51.0687749  16.1929801  10.2114658  49.9924777  15.1779672
   4.0023719  49.6232074  20.3259025   4.8714878  49.7972726  19.9645660
   3.5230470  50.4426490  20.2034754  15.6616195  61.3320700   9.7304299
  16.2994605  61.2127447   9.0267640  15.5437037  62.2801543   9.7892252
  12.4705901  61.2848128   9.6665824  12.1324412  61.1689192   8.7786359
  13.3395669  60.8839293   9.6466830  12.9525684  62.4382979  15.6252030
  12.9414325  62.0435778  14.7532533  13.1146323  61.7049052  16.2185801
   9.6732945  65.2220091  14.5731214   9.3822811  66.1265722  14.4577880
  10.3089929  65.2636619  15.2875283  10.5989152  62.5996940  11.1632573
  11.1952724  62.3752962  10.4489536  10.6564123  61.8581685  11.7658021
  20.6165890  58.9947387   7.7090486  21.3491062  58.4246603   7.9428316
  19.8605246  58.6068987   8.1496992  18.1391311  52.7068961  12.1685095
  17.8074635  53.5764372  11.9446310  17.5436924  52.3905245  12.8479125
  14.6322830  64.9081507  11.5681007  14.3323553  65.8106545  11.4596815
  14.2873890  64.6413690  12.4202160  18.0319974  57.4264047   9.2478445
  17.1236851  57.3579455   8.9537206  17.9807570  57.9035992  10.0760270
  12.1060840  58.8453692  17.1913342  11.3294174  59.4047613  17.1816207
  12.7451403  59.3310475  17.7128212  19.8981620  55.6280485  11.0256319
  19.2556001  55.9213018  10.3796113  19.3936549  55.5133406  11.8309515
  10.3607212  61.6539146  16.7531309  11.1021896  62.1924190  16.4766133
   9.6544197  62.2805435  16.9102861  15.8362552  63.7968286  15.3503470
  16.2445908  63.3550697  14.6058103  15.1139813  63.2220914  15.6037663
  12.1893622  58.7340893  12.7237027  13.0354817  59.1580307  12.8671676
  12.1292259  58.0774517  13.4175591  16.1591366  64.3569477   9.1055759
  15.5300229  64.5215191   8.4031827  15.7717028  64.7711086   9.8766723
  20.0380598  65.2923915   6.4600123  19.3531636  65.6722816   5.9097156
  20.1224447  65.9019241   7.1932071  15.3393067  56.3945261  14.3818201
  15.0953999  57.1487322  13.8452477  15.6152997  56.7730609  15.2165448
  17.2931530  62.9383874  13.0595467  17.5048425  63.5815634  12.3829848
  17.2461278  62.1046190  12.5917397  11.7119328  64.0943885   6.3705844
  12.1757674  64.3731588   5.5810467  11.4476126  63.1927330   6.1878935
   8.6043409  63.6415367   9.3085608   9.1744766  64.0702635   8.6703092
   9.1951521  63.3597951  10.0069793   9.0968576  58.8078794  17.5546619
   8.4667236  59.4895075  17.7882016   8.9904664  58.6961876  16.6099757
  18.4077358  65.8155829  11.2317824  19.2294801  65.4136016  10.9500506
  18.4039761  65.7124063  12.1833940  12.1733961  65.3639872  13.3878534
  12.2378394  65.8260280  14.2236706  11.4644885  64.7337237  13.5160844
  26.4983351  62.1594578   7.5802795  25.7447059  61.5901976   7.4246800
  26.6330892  62.1257242   8.5273430   8.3749318  53.1099560  19.9171870
   7.9816264  52.5565758  20.5919514   9.1915459  53.4210138  20.3078388
  11.2917279  54.5257439  17.5092127  12.0326993  55.1264592  17.4296589
  11.5235202  53.7835077  16.9510169   6.4358617  59.7113806  15.7870356
   6.3212133  58.8099063  16.0877455   5.5803135  59.9577503  15.4355173
  13.5150455  67.6531546  17.3857857  13.0714309  66.8667925  17.0678761
  14.1767669  67.8410697  16.7201748   8.2737576  69.1827348  11.9118535
   8.8245001  69.0544411  11.1395529   7.4349052  69.4822237  11.5613428
  15.6131693  67.9334346  15.4139258  15.5950169  68.7543227  14.9219527
  16.5351613  67.8088422  15.6389399  12.0704747  65.4478476  16.2562767
  12.6033084  64.6866764  16.0262074  11.5418829  65.1552128  16.9986921
  18.4150306  62.7713489   8.8848625  17.7573981  63.4612750   8.9728753
  19.2190705  63.1609921   9.2282611  17.2255765  61.1257862   6.9352567
  17.7387647  61.7587853   7.4374276  17.8756989  60.5259057   6.5695927
  13.7036596  58.6007317   9.1810907  12.7859157  58.8222264   9.0232595
  14.1196739  58.6753628   8.3222614  17.9917561  66.1063863   5.0631709
  17.5379888  65.2654773   5.1196900  17.3611528  66.7425261   5.4006489
  16.4350500  67.9440360   5.9981527  16.7273475  68.5045417   5.2793893
  16.9449121  68.2368921   6.7534686  14.8449759  59.1904778  13.9855610
  15.1999147  59.4176251  14.8450076  15.4921891  59.5223155  13.3632865
  20.5747496  62.3123214   4.6904939  20.4365395  62.5024810   3.7626128
  20.2183715  63.0742597   5.1472990  20.6016876  64.3799741   9.7016210
  21.0353383  64.2875030  10.5499264  21.3148457  64.3557242   9.0636226
  14.3344771  67.9801835  11.2349311  14.3881793  68.5492772  12.0027027
  13.4659552  68.1503720  10.8703348   7.2143164  57.6819392  12.7173762
   7.8866218  57.4736754  12.0686411   6.3872951  57.4841478  12.2778994
  21.4632425  64.4223442  12.2349096  21.6568316  65.3269252  12.4808371
  21.3633044  63.9630861  13.0687681  13.1168736  54.3081332  14.7339423
  12.4696651  55.0071282  14.6403899  13.8869752  54.7417476  15.1015671
  16.5247534  64.5730185  17.8089976  16.3733041  64.3440736  16.8920060
  16.5152214  65.5300786  17.8221321  13.2932871  62.1462097  12.7936243
  14.2224931  62.2973257  12.6205210  12.8723901  62.2346118  11.9384889
  12.0921202  66.1712762  10.5634780  11.9532288  65.8031546  11.4360718
  11.3035799  66.6860401  10.3918738  13.6426417  65.5494364   7.9523618
  13.3076250  65.5095134   8.8481268  13.1430363  64.8839080   7.4794028
   7.6170661  60.9561994  13.4776199   7.4790459  60.2242233  14.0787738
   8.5275585  60.8670895  13.1960387  10.2452962  60.6681954  12.9659879
  10.9552581  60.0275146  12.9246497  10.2022270  60.9194849  13.8886060
  18.2339741  67.6049307  15.8866458  18.1752287  66.9208527  15.2197041
  18.6359259  68.3468297  15.4347084   8.9581896  57.6547172  14.7855518
   8.4219253  57.2037910  15.4377115   8.3698605  57.7893081  14.0425983
  18.2357148  65.5688891  14.1180438  17.3483927  65.2314813  14.2406837
  18.8055699  64.8371922  14.3549203  11.7658301  70.2290343  11.0841681
  11.6928473  71.0345315  11.5960986  11.3235695  70.4282309  10.2589702
  22.7174489  60.9797108   8.8796999  22.7064365  61.8621824   8.5090933
  21.8491868  60.6268659   8.6851537  14.2256985  70.1277177  13.2399840
  14.9384957  70.7624642  13.1675741  13.7347014  70.2241043  12.4239842
  15.9474512  64.0328430   4.8117131  15.0130791  64.1529893   4.6421836
  16.1251180  63.1300897   4.5477141  19.3347063  59.8745749   5.3467166
  19.8007515  60.7073741   5.2727468  19.7854564  59.4090731   6.0512424
   9.2768899  67.8771621  14.0605411   9.9778358  68.5108104  14.2134805
   8.8064014  68.2186352  13.3001050  17.0770184  60.4316228  11.8857961
  16.4241635  60.6792136  11.2310414  17.4550564  59.6180367  11.5520438
  14.0377358  70.4675922   5.9886131  14.2199753  69.6497577   6.4513884
  14.8610344  70.6843614   5.5511021  13.1257758  61.1736039  18.3723998
  12.4498395  61.0730169  19.0426373  13.9485391  61.0175253  18.8359995
  11.8680540  72.4802967  12.6081614  12.4198848  72.6434588  13.3730699
  12.2086734  73.0707405  11.9361639   6.3197306  56.9001249  16.8576533
   6.9469345  56.5178327  17.4714057   5.4625225  56.6815451  17.2232225
  16.7191415  67.3064224  18.4630268  17.2631319  67.9194183  17.9685223
  16.1378260  67.8643803  18.9797281  15.0048928  70.4284942   9.5945296
  14.8800067  69.6274682   9.0856242  15.6628019  70.9231136   9.1059266
  17.0683836  68.2293963  11.2224846  16.1214172  68.1099314  11.1503173
  17.4166609  67.3416461  11.3051108   9.4283409  54.1188101  15.0463088
   9.9517811  54.3650398  15.8089397   9.2095743  54.9508136  14.6266225
  14.0730269  68.0246679   7.4229198  13.9255232  67.0963386   7.6036768
  14.8983763  68.0466769   6.9386274  17.6764391  68.8475237   8.5094071
  18.6010939  68.6418099   8.3718522  17.5079695  68.5991639   9.4183413
  10.6335954  55.0601797  12.7312759  10.2932775  54.2609610  13.1333439
   9.9274961  55.3603507  12.1589592  12.5213519  56.2610118  11.0866077
  12.2631296  57.1827188  11.0850408  11.9898559  55.8640552  11.7766541
  17.4659707  69.3660905   3.8656163  17.6396585  68.8007327   3.1130015
  17.9588599  70.1661800   3.6835653   3.2836667  61.3775574  11.9319721
   2.7390135  62.1535382  12.0639996   4.1616017  61.7246378  11.7738843
  23.3199099  62.1297328   5.4846462  23.7630245  61.3804653   5.0865586
  22.4425609  62.1207464   5.1020194   4.0702689  60.5045470  14.8249878
   3.3284425  60.6528106  15.4114509   3.7495433  60.7653736  13.9616628
  20.3526303  66.1327375   2.4940392  20.8777627  66.4714648   1.7689712
  20.2648656  65.1974390   2.3103526  12.0146352  70.0461448  14.6230268
  12.3233478  69.8010595  15.4952968  12.8121834  70.2508087  14.1349139
   9.4840836  67.7437367   8.9257947   8.8620845  67.0808072   8.6260174
  10.1545703  67.7698499   8.2431594   9.5565363  56.2219155  18.5190453
   9.6053519  57.0981278  18.1368222  10.0987878  55.6796548  17.9462096
  20.0420209  66.7660278  17.7991590  19.2515753  66.7484417  17.2596089
  19.8053564  67.3048572  18.5540626  20.1618084  63.6152745  15.1124318
  20.2116089  63.4502752  16.0539841  20.0532007  62.7480004  14.7222199
  17.4521847  59.5983673  16.4283625  18.3531709  59.4590138  16.1367623
  17.5269821  59.7638128  17.3681802  11.7864652  56.9750528  15.2736811
  10.9167961  57.2684094  15.0019400  12.0224132  57.5590973  15.9944075
  21.6636281  66.0349686  15.3566340  21.3721089  66.3979667  16.1929801
  21.0508412  65.3216695  15.1779672  22.8631963  63.6002566   7.8768910
  23.6978855  64.0392370   8.0406470  22.9991092  63.1241219   7.0577156
  19.9123469  61.1582301  13.8246398  20.3877591  61.3509947  13.0165249
  18.9889035  61.2141487  13.5789781  14.4903686  53.1930145  12.7902232
  15.0085630  53.9291171  12.4648720  14.1358818  53.4994138  13.6248991
  18.6125138  58.0348061  12.0574703  19.5642561  58.1346159  12.0786927
  18.4428589  57.2426330  12.5672788  16.6339518  55.1203644  12.2434104
  16.0389450  55.4008657  11.5480593  16.3489214  55.6097545  13.0150845
  21.0913216  61.2554181  11.1717003  21.0589536  60.3170182  11.3576687
  21.7013840  61.3338217  10.4382828  21.2407704  58.0465224  11.2175286
  20.7246753  57.2623681  11.0305215  22.1247653  57.7183941  11.3821806
  26.9089766  62.3170188  10.3123040  27.6393154  62.0555476  10.8730743
  26.2996711  61.5798910  10.3525108  24.9905063  60.4578050  10.9097491
  24.2638227  60.3234015  10.3013983  24.5752350  60.7654879  11.7154209
  12.8135239  64.1767980  18.6744864  13.7338249  64.3546579  18.8684911
  12.7784822  63.2324025  18.5224563   5.8097312  62.0869015  11.3167645
   6.0283322  63.0186122  11.3355679   6.2223086  61.7276989  12.1022449
  10.6825177  57.6602220  20.7070394  10.5821904  58.6096577  20.6382485
  10.4646719  57.3320459  19.8346464  10.5456447  61.0899359  19.5235456
  10.0623529  61.8899719  19.7299345  10.6317386  61.1007304  18.5702900
   6.4729785  64.9803894  11.5603890   7.4273038  64.9487836  11.4933821
   6.2742308  64.5194518  12.3754115   7.0629167  63.5505010  14.1274687
   7.8822056  64.0449089  14.1509524   7.3365975  62.6336978  14.0992255
  20.1710299  55.9662283   7.2056982  20.9470689  56.4558736   7.4781599
  19.4458433  56.3920337   7.6628851  22.6082858  56.6789902   8.2630923
  23.2027349  56.4385638   7.5524231  22.6809442  55.9597033   8.8904459
  24.9153931  59.9856103   7.0374344  24.3553489  60.0549293   7.8105906
  24.3097434  59.8097088   6.3173840   2.3164081  57.8843144  14.8266884
   2.9622945  57.3742098  15.3154109   2.1081232  58.6211825  15.4010310
  14.8417473  64.9523991  20.3259025  15.7108633  65.1264644  19.9645660
  14.3624225  65.7718408  20.2034754   9.0103654  72.0721092  12.0048458
   9.9130900  72.1044703  12.3214953   8.7841024  71.1421543  12.0194794
   6.6561572  55.0310761  18.9241898   7.5193034  54.6747566  19.1345223
   6.0826983  54.6924656  19.6117303  26.5009949  76.6612617   9.7304299
  27.1388359  76.5419365   9.0267640  26.3830792  77.6093461   9.7892252
  23.3099655  76.6140045   9.6665824  22.9718167  76.4981110   8.7786359
  24.1789424  76.2131210   9.6466830  23.7919438  77.7674897  15.6252030
  23.7808079  77.3727695  14.7532533  23.9540078  77.0340970  16.2185801
  20.5126699  80.5512009  14.5731214  20.2216565  81.4557640  14.4577880
  21.1483684  80.5928536  15.2875283  21.4382906  77.9288857  11.1632573
  22.0346479  77.7044880  10.4489536  21.4957878  77.1873603  11.7658021
  26.0551218  74.3864071   6.8057508  26.8414307  73.9683494   6.4547925
  26.3189922  75.2910163   6.9739156  31.4559645  74.3239304   7.7090486
  32.1884817  73.7538521   7.9428316  30.6999000  73.9360905   8.1496992
  23.0735764  76.7466546   4.9053828  22.7093972  76.2197167   5.6166750
  23.9302880  76.3565015   4.7320314  28.9785065  68.0360878  12.1685095
  28.6468390  68.9056289  11.9446310  28.3830678  67.7197162  12.8479125
  25.4716585  80.2373424  11.5681007  25.1717308  81.1398463  11.4596815
  25.1267644  79.9705608  12.4202160  18.9229066  76.6887221   7.6017712
  17.9979563  76.5563435   7.8095404  19.1713479  77.4681440   8.0987654
  28.8713728  72.7555965   9.2478445  27.9630606  72.6871373   8.9537206
  28.8201324  73.2327909  10.0760270  22.9454594  74.1745610  17.1913342
  22.1687928  74.7339530  17.1816207  23.5845157  74.6602393  17.7128212
  30.7375375  70.9572403  11.0256319  30.0949755  71.2504936  10.3796113
  30.2330303  70.8425323  11.8309515  28.3915538  74.7035576   1.7142178
  29.3033395  74.9362963   1.5389875  27.8825185  75.2872620   1.1517256
  21.2000966  76.9831063  16.7531309  21.9415651  77.5216107  16.4766133
  20.4937952  77.6097352  16.9102861  26.6756306  79.1260204  15.3503470
  27.0839662  78.6842614  14.6058103  25.9533568  78.5512831  15.6037663
  23.0287376  74.0632811  12.7237027  23.8748571  74.4872224  12.8671676
  22.9686014  73.4066435  13.4175591  26.9985121  79.6861395   9.1055759
  26.3693983  79.8507109   8.4031827  26.6110783  80.1003004   9.8766723
  30.8774353  80.6215832   6.4600123  30.1925391  81.0014734   5.9097156
  30.9618202  81.2311159   7.1932071  26.1786821  71.7237179  14.3818201
  25.9347753  72.4779240  13.8452477  26.4546752  72.1022527  15.2165448
  28.1325284  78.2675791  13.0595467  28.3442179  78.9107551  12.3829848
  28.0855032  77.4338108  12.5917397  25.7351513  70.8793612   9.9632039
  24.8735992  71.1774866  10.2548776  25.7613948  71.0964011   9.0313071
  22.5513083  79.4235803   6.3705844  23.0151428  79.7023506   5.5810467
  22.2869881  78.5219247   6.1878935  19.4437164  78.9707284   9.3085608
  20.0138521  79.3994553   8.6703092  20.0345276  78.6889869  10.0069793
  21.4881969  75.5458955   3.1795410  22.1906012  75.9979999   3.6469336
  21.1562597  74.9042774   3.8075303  19.9362330  74.1370712  17.5546619
  19.3060991  74.8186993  17.7882016  19.8298418  74.0253793  16.6099757
  15.2307303  73.8042508   8.4812543  14.4406357  74.0600036   8.0052654
  15.7218550  74.6190846   8.5864584  29.2471112  81.1447747  11.2317824
  30.0688556  80.7427934  10.9500506  29.2433515  81.0415981  12.1833940
  23.0127716  80.6931790  13.3878534  23.0772148  81.1552197  14.2236706
  22.3038640  80.0629155  13.5160844  13.5145006  74.0572998  10.9127534
  13.7653044  74.9420008  11.1785110  14.0504554  73.8777600  10.1402626
  37.3377105  77.4886495   7.5802795  36.5840814  76.9193893   7.4246800
  37.4724646  77.4549160   8.5273430  19.2143073  68.4391477  19.9171870
  18.8210018  67.8857676  20.5919514  20.0309213  68.7502056  20.3078388
  22.1311034  69.8549357  17.5092127  22.8720747  70.4556510  17.4296589
  22.3628957  69.1126994  16.9510169  17.2752372  75.0405724  15.7870356
  17.1605887  74.1390981  16.0877455  16.4196890  75.2869421  15.4355173
  24.3544210  82.9823464  17.3857857  23.9108064  82.1959843  17.0678761
  25.0161423  83.1702615  16.7201748  19.1131331  84.5119266  11.9118535
  19.6638756  84.3836329  11.1395529  18.2742807  84.8114155  11.5613428
  26.4525448  83.2626264  15.4139258  26.4343923  84.0835145  14.9219527
  27.3745368  83.1380339  15.6389399  22.9098502  80.7770394  16.2562767
  23.4426839  80.0158682  16.0262074  22.3812583  80.4844045  16.9986921
  26.0768197  65.8830460  11.7856408  25.7332466  66.7732101  11.7095519
  26.4447159  65.6932117  10.9225993  26.0418480  75.8739071   0.2928843
  25.5265103  76.6443675   0.5317231  25.7695788  75.2004207   0.9161905
  23.6265591  70.7188771   5.3514082  22.7707187  70.3295622   5.1719720
  24.0392542  70.7980732   4.4913867  25.1564737  68.2535115   9.7505642
  24.6529533  68.2165250   8.9373447  25.4495344  69.1627857   9.8102298
  21.4007623  68.3373844   8.7571823  22.2660620  68.1416653   8.3977713
  21.4685132  68.1084196   9.6841180  31.0152754  78.6271425   2.2282017
  30.2382196  78.2882585   1.7837179  31.6944235  78.6324048   1.5536982
  25.8304783  73.7466163   2.1188625  25.5254918  74.0612312   2.9698768
  26.7835225  73.8247583   2.1615958  29.2544061  78.1005407   8.8848625
  28.5967735  78.7904668   8.9728753  30.0584460  78.4901838   9.2282611
  19.0069942  70.5676052   6.1288190  19.5813694  70.3451234   5.3961383
  19.5940925  70.6364747   6.8816791  28.0649519  76.4549779   6.9352567
  28.5781401  77.0879771   7.4374276  28.7150743  75.8550975   6.5695927
  21.3092610  67.4417301   4.8563259  20.6557022  67.1266318   4.2319874
  21.2673084  66.8193042   5.5823082  24.5430350  73.9299235   9.1810907
  23.6252912  74.1514182   9.0232595  24.9590494  74.0045545   8.3222614
  25.3265398  75.3290650   4.3113587  26.0737217  75.8412048   4.0020709
  25.5956988  75.0074703   5.1717981  28.8311316  81.4355781   5.0631709
  28.3773643  80.5946691   5.1196900  28.2005282  82.0717179   5.4006489
  27.7744235  72.3647767   6.2932377  27.0366992  71.8525153   6.6242619
  28.0271009  71.9248148   5.4815654  27.2744255  83.2732277   5.9981527
  27.5667229  83.8337334   5.2793893  27.7842875  83.5660838   6.7534686
  27.8755863  65.1424019   6.8874146  28.1814739  64.2821382   6.6000061
  28.6008467  65.7341639   6.6873140  22.1476942  75.4377812   7.3950337
  22.2025552  74.4851648   7.3192814  21.3368144  75.5937251   7.8791635
  20.0869302  74.0554872   5.1540716  19.2737168  74.3549042   5.5605908
  20.5828296  73.6610560   5.8715198  25.6843514  74.5196696  13.9855610
  26.0392902  74.7468169  14.8450076  26.3315645  74.8515073  13.3632865
  31.4141251  77.6415132   4.6904939  31.2759149  77.8316728   3.7626128
  31.0577470  78.4034515   5.1472990  19.5783377  71.6273227  10.7701951
  20.2182756  71.4861986  10.0724914  18.7460907  71.3407740  10.3940553
  31.4410630  79.7091659   9.7016210  31.8747137  79.6166948  10.5499264
  32.1542211  79.6849159   9.0636226  25.1738525  83.3093753  11.2349311
  25.2275548  83.8784689  12.0027027  24.3053307  83.4795638  10.8703348
  16.5811993  71.5973552   5.5474938  16.8418811  72.5118885   5.4384098
  17.4029166  71.1297995   5.6971550  18.0536919  73.0111309  12.7173762
  18.7259972  72.8028671  12.0686411  17.2266705  72.8133395  12.2778994
  32.3026180  79.7515360  12.2349096  32.4962070  80.6561170  12.4808371
  32.2026798  79.2922779  13.0687681  23.9562491  69.6373250  14.7339423
  23.3090406  70.3363200  14.6403899  24.7263506  70.0709394  15.1015671
  27.3641289  79.9022102  17.8089976  27.2126795  79.6732654  16.8920060
  27.3545968  80.8592704  17.8221321  24.1326625  77.4754015  12.7936243
  25.0618685  77.6265175  12.6205210  23.7117655  77.5638036  11.9384889
  22.9314957  81.5004679  10.5634780  22.7926043  81.1323464  11.4360718
  22.1429553  82.0152319  10.3918738  24.4820172  80.8786282   7.9523618
  24.1470005  80.8387052   8.8481268  23.9824118  80.2130998   7.4794028
  18.4564416  76.2853912  13.4776199  18.3184214  75.5534151  14.0787738
  19.3669339  76.1962812  13.1960387  21.0846717  75.9973872  12.9659879
  21.7946335  75.3567064  12.9246497  21.0416025  76.2486766  13.8886060
  29.0733495  82.9341225  15.8866458  29.0146041  82.2500445  15.2197041
  29.4753014  83.6760215  15.4347084  19.7975651  72.9839089  14.7855518
  19.2613008  72.5329828  15.4377115  19.2092359  73.1184998  14.0425983
  29.0750903  80.8980809  14.1180438  28.1877681  80.5606731  14.2406837
  29.6449454  80.1663840  14.3549203  15.5314772  72.1195097  11.8708513
  15.4472961  71.5120767  11.1358923  14.7097478  72.6104115  11.8718009
  22.6052056  85.5582261  11.0841681  22.5322227  86.3637233  11.5960986
  22.1629449  85.7574227  10.2589702  25.7038486  70.6048661   7.2378708
  26.2007185  69.8518623   6.9179778  24.9325467  70.6412977   6.6721917
  33.5568243  76.3089026   8.8796999  33.5458119  77.1913742   8.5090933
  32.6885623  75.9560577   8.6851537  25.0650739  85.4569095  13.2399840
  25.7778712  86.0916560  13.1675741  24.5740768  85.5532961  12.4239842
  26.7868266  79.3620348   4.8117131  25.8524545  79.4821810   4.6421836
  26.9644935  78.4592815   4.5477141  22.2873454  72.7466044   6.9650393
  21.9171242  72.1937084   7.6531298  22.7832547  72.1424177   6.4125393
  30.1740818  75.2037667   5.3467166  30.6401270  76.0365659   5.2727468
  30.6248318  74.7382649   6.0512424  20.1162653  83.2063539  14.0605411
  20.8172113  83.8400022  14.2134805  19.6457768  83.5478270  13.3001050
  28.2417049  81.5481488   2.3453318  28.5176893  81.4338083   3.2547192
  27.3721548  81.1498973   2.3065491  28.1457480  67.5718254   9.3858067
  27.2320560  67.8022481   9.5540274  28.5750582  67.6556698  10.2372099
  27.9163939  75.7608146  11.8857961  27.2635389  76.0084054  11.2310414
  28.2944319  74.9472284  11.5520438  24.8771113  85.7967839   5.9886131
  25.0593507  84.9789495   6.4513884  25.7004099  86.0135531   5.5511021
  23.9651512  76.5027957  18.3723998  23.2892149  76.4022086  19.0426373
  24.7879146  76.3467171  18.8359995  22.7074295  87.8094885  12.6081614
  23.2592603  87.9726506  13.3730699  23.0480488  88.3999322  11.9361639
  17.6838788  70.1570034  13.2103499  17.7480115  71.0184865  12.7980896
  17.6205908  69.5444036  12.4775857  17.1591061  72.2293167  16.8576533
  17.7863099  71.8470244  17.4714057  16.3018979  72.0107369  17.2232225
  27.5585169  82.6356142  18.4630268  28.1025073  83.2486100  17.9685223
  26.9772014  83.1935720  18.9797281  25.8442682  85.7576860   9.5945296
  25.7193822  84.9566600   9.0856242  26.5021773  86.2523053   9.1059266
  17.4650850  72.1125593   8.7722436  16.7437436  72.7261560   8.6329910
  18.2544106  72.6483357   8.6939082  27.9077591  83.5585880  11.2224846
  26.9607926  83.4391231  11.1503173  28.2560364  82.6708378  11.3051108
  20.2677164  69.4480019  15.0463088  20.7911566  69.6942316  15.8089397
  20.0489497  70.2800054  14.6266225  24.9124024  83.3538596   7.4229198
  24.7648986  82.4255304   7.6036768  25.7377517  83.3758687   6.9386274
  28.5158146  84.1767155   8.5094071  29.4404693  83.9710016   8.3718522
  28.3473449  83.9283556   9.4183413  21.4729709  70.3893714  12.7312759
  21.1326529  69.5901527  13.1333439  20.7668715  70.6895425  12.1589592
  22.1246181  67.4743027  11.1840082  22.9472250  67.0003505  11.0618972
  22.3684244  68.2533510  11.6838768  20.7654415  70.5031285   1.4802983
  21.4862778  70.8812538   0.9766700  20.1419719  71.2220162   1.5837961
  24.9085538  71.2076434   2.4161316  25.1249153  72.0901072   2.1150144
  24.4279605  70.8162647   1.6866958  19.6484760  74.1662147   8.9932060
  19.5029340  74.4802450   9.8856342  19.1709963  74.7847048   8.4402959
  21.5081142  71.1564695   9.0412950  21.4942711  70.2605789   8.7045248
  22.2253571  71.1635359   9.6751236  23.3607273  71.5902035  11.0866077
  23.1025051  72.5119106  11.0850408  22.8292314  71.1932470  11.7766541
  28.3053462  84.6952823   3.8656163  28.4790339  84.1299245   3.1130015
  28.7982353  85.4953717   3.6835653  14.1230422  76.7067492  11.9319721
  13.5783890  77.4827300  12.0639996  15.0009772  77.0538296  11.7738843
  20.9118038  70.0379076   4.3100520  21.0333950  69.1095722   4.5091407
  20.6220081  70.0517762   3.3978835  23.7809229  67.7233986   7.4467240
  23.8030926  67.7873319   6.4919219  24.1977288  66.8838495   7.6407746
  34.1592853  77.4589246   5.4846462  34.6023999  76.7096571   5.0865586
  33.2819363  77.4499382   5.1020194  14.9096444  75.8337388  14.8249878
  14.1678180  75.9820023  15.4114509  14.5889188  76.0945654  13.9616628
  31.1920058  81.4619293   2.4940392  31.7171382  81.8006565   1.7689712
  31.1042410  80.5266308   2.3103526  22.8540106  85.3753366  14.6230268
  23.1627233  85.1302513  15.4952968  23.6515588  85.5800005  14.1349139
  20.3234590  83.0729285   8.9257947  19.7014600  82.4099990   8.6260174
  20.9939457  83.0990417   8.2431594  20.3959118  71.5511073  18.5190453
  20.4447273  72.4273196  18.1368222  20.9381632  71.0088466  17.9462096
  30.8813964  82.0952196  17.7991590  30.0909507  82.0776335  17.2596089
  30.6447318  82.6340490  18.5540626  31.0011839  78.9444663  15.1124318
  31.0509844  78.7794670  16.0539841  30.8925762  78.0771922  14.7222199
  28.2915601  74.9275591  16.4283625  29.1925464  74.7882055  16.1367623
  28.3663576  75.0930045  17.3681802  22.6258406  72.3042445  15.2736811
  21.7561716  72.5976011  15.0019400  22.8617887  72.8882890  15.9944075
  32.5030035  81.3641604  15.3566340  32.2114844  81.7271585  16.1929801
  31.8902167  80.6508612  15.1779672  33.7025718  78.9294484   7.8768910
  34.5372609  79.3684288   8.0406470  33.8384847  78.4533137   7.0577156
  30.7517224  76.4874219  13.8246398  31.2271345  76.6801865  13.0165249
  29.8282789  76.5433405  13.5789781  25.3297440  68.5222062  12.7902232
  25.8479384  69.2583089  12.4648720  24.9752573  68.8286056  13.6248991
  25.5810034  64.9422345   8.3103128  25.8611788  64.2745534   8.9363555
  26.3660641  65.1351440   7.7977792  29.4518893  73.3639979  12.0574703
  30.4036316  73.4638076  12.0786927  29.2822343  72.5718247  12.5672788
  27.4733272  70.4495562  12.2434104  26.8783204  70.7300575  11.5480593
  27.1882969  70.9389463  13.0150845  31.9306970  76.5846098  11.1717003
  31.8983291  75.6462099  11.3576687  32.5407594  76.6630135  10.4382828
  32.0801459  73.3757142  11.2175286  31.5640508  72.5915599  11.0305215
  32.9641407  73.0475859  11.3821806  29.7412186  67.1198157   7.1771099
  29.5437007  66.8113246   8.0614431  30.3511891  67.8459796   7.3069029
  37.7483520  77.6462105  10.3123040  38.4786909  77.3847393  10.8730743
  37.1390466  76.9090827  10.3525108  35.8298817  75.7869968  10.9097491
  35.1031981  75.6525933  10.3013983  35.4146104  76.0946796  11.7154209
  23.6528994  79.5059898  18.6744864  24.5732003  79.6838497  18.8684911
  23.6178577  78.5615943  18.5224563  16.6491066  77.4160932  11.3167645
  16.8677076  78.3478040  11.3355679  17.0616840  77.0568907  12.1022449
  23.5695284  67.9229018   3.3043334  22.7596013  67.5776103   3.6798580
  24.2579701  67.6136561   3.8930945  25.4985832  67.0007064   4.9267630
  26.0516871  67.4202518   5.5857653  25.7355919  66.0742812   4.9690586
  21.5218932  72.9894138  20.7070394  21.4215659  73.9388495  20.6382485
  21.3040474  72.6612377  19.8346464  28.8764640  69.1107589   4.4346294
  28.2963309  69.7692394   4.0524347  28.6100572  68.2884934   4.0233712
  27.3268206  68.5112647   6.6367615  27.8267984  68.6229182   5.8281934
  27.9703814  68.2073700   7.2768423  21.3850202  76.4191277  19.5235456
  20.9017283  77.2191637  19.7299345  21.4711141  76.4299222  18.5702900
  17.3123539  80.3095812  11.5603890  18.2666793  80.2779754  11.4933821
  17.1136063  79.8486435  12.3754115  17.9022921  78.8796928  14.1274687
  18.7215810  79.3741006  14.1509524  18.1759729  77.9628896  14.0992255
  27.6589518  71.2707680   3.4902643  26.7715373  71.5557331   3.2722837
  28.0743507  71.1101443   2.6429920  31.0104054  71.2954201   7.2056982
  31.7864444  71.7850653   7.4781599  30.2852188  71.7212255   7.6628851
  33.4476612  72.0081820   8.2630923  34.0421103  71.7677556   7.5524231
  33.5203196  71.2888951   8.8904459  27.6330541  76.7862216   3.7052933
  27.5765743  77.2430767   2.8660565  28.1858884  76.0252900   3.5275776
  31.4435347  72.5751948   4.5303052  31.1872281  72.1748583   5.3611260
  30.8188215  73.2895742   4.4053192  35.7547685  75.3148021   7.0374344
  35.1947243  75.3841210   7.8105906  35.1491188  75.1389006   6.3173840
  28.3665321  77.9766997   1.0005462  28.3114124  77.8111268   0.0593906
  27.7411376  78.6843030   1.1567652  13.1557836  73.2135061  14.8266884
  13.8016699  72.7034015  15.3154109  12.9474987  73.9503743  15.4010310
  25.6811228  80.2815909  20.3259025  26.5502387  80.4556561  19.9645660
  25.2017979  81.1010326  20.2034754  21.6761446  67.4775106   0.5790780
  21.6640116  68.4216946   0.7359051  22.5684868  67.2945251   0.2850242
  19.8497408  87.4013010  12.0048458  20.7524655  87.4336620  12.3214953
  19.6234778  86.4713461  12.0194794  25.4913566  64.0717883   4.8336717
  24.7245961  63.5176369   4.9793400  25.9024271  64.1439751   5.6950869
  17.4955327  70.3602679  18.9241898  18.3586788  70.0039483  19.1345223
  16.9220737  70.0216573  19.6117303  37.3403704  91.9904535   9.7304299
  37.9782114  91.8711282   9.0267640  37.2224546  92.9385379   9.7892252
  34.1493410  91.9431963   9.6665824  33.8111921  91.8273028   8.7786359
  35.0183178  91.5423128   9.6466830  34.6313193  93.0966815  15.6252030
  34.6201834  92.7019613  14.7532533  34.7933832  92.3632887  16.2185801
  31.3520454  95.8803926  14.5731214  31.0610320  96.7849557  14.4577880
  31.9877438  95.9220454  15.2875283  32.2776661  93.2580775  11.1632573
  32.8740233  93.0336797  10.4489536  32.3351632  92.5165520  11.7658021
  36.8944972  89.7155989   6.8057508  37.6808061  89.2975412   6.4547925
  37.1583676  90.6202081   6.9739156  42.2953399  89.6531222   7.7090486
  43.0278571  89.0830439   7.9428316  41.5392755  89.2652822   8.1496992
  33.9129519  92.0758463   4.9053828  33.5487726  91.5489084   5.6166750
  34.7696635  91.6856932   4.7320314  39.8178820  83.3652796  12.1685095
  39.4862144  84.2348207  11.9446310  39.2224433  83.0489080  12.8479125
  36.3110339  95.5665342  11.5681007  36.0111062  96.4690381  11.4596815
  35.9661399  95.2997525  12.4202160  29.7622821  92.0179139   7.6017712
  28.8373317  91.8855353   7.8095404  30.0107234  92.7973358   8.0987654
  39.7107483  88.0847882   9.2478445  38.8024360  88.0163291   8.9537206
  39.6595079  88.5619827  10.0760270  33.7848349  89.5037528  17.1913342
  33.0081683  90.0631448  17.1816207  34.4238912  89.9894311  17.7128212
  41.5769129  86.2864321  11.0256319  40.9343509  86.5796854  10.3796113
  41.0724058  86.1717241  11.8309515  39.2309293  90.0327494   1.7142178
  40.1427149  90.2654881   1.5389875  38.7218940  90.6164538   1.1517256
  32.0394721  92.3122981  16.7531309  32.7809405  92.8508025  16.4766133
  31.3331706  92.9389270  16.9102861  37.5150061  94.4552122  15.3503470
  37.9233417  94.0134532  14.6058103  36.7927322  93.8804749  15.6037663
  33.8681131  89.3924728  12.7237027  34.7142326  89.8164142  12.8671676
  33.8079768  88.7358353  13.4175591  37.8378875  95.0153312   9.1055759
  37.2087738  95.1799026   8.4031827  37.4504537  95.4294922   9.8766723
  41.7168107  95.9507750   6.4600123  41.0319145  96.3306651   5.9097156
  41.8011956  96.5603077   7.1932071  37.0180576  87.0529097  14.3818201
  36.7741508  87.8071157  13.8452477  37.2940506  87.4314444  15.2165448
  38.9719039  93.5967709  13.0595467  39.1835934  94.2399469  12.3829848
  38.9248787  92.7630026  12.5917397  36.5745268  86.2085530   9.9632039
  35.7129747  86.5066783  10.2548776  36.6007702  86.4255929   9.0313071
  33.3906837  94.7527720   6.3705844  33.8545183  95.0315423   5.5810467
  33.1263635  93.8511165   6.1878935  30.2830918  94.2999202   9.3085608
  30.8532275  94.7286470   8.6703092  30.8739030  94.0181787  10.0069793
  32.3275723  90.8750873   3.1795410  33.0299766  91.3271916   3.6469336
  31.9956352  90.2334692   3.8075303  30.7756085  89.4662629  17.5546619
  30.1454745  90.1478910  17.7882016  30.6692173  89.3545711  16.6099757
  26.0701057  89.1334425   8.4812543  25.2800111  89.3891954   8.0052654
  26.5612304  89.9482763   8.5864584  40.0864867  96.4739665  11.2317824
  40.9082310  96.0719852  10.9500506  40.0827270  96.3707899  12.1833940
  33.8521470  96.0223708  13.3878534  33.9165903  96.4844115  14.2236706
  33.1432394  95.3921073  13.5160844  24.3538760  89.3864916  10.9127534
  24.6046799  90.2711926  11.1785110  24.8898308  89.2069517  10.1402626
  48.1770860  92.8178413   7.5802795  47.4234568  92.2485811   7.4246800
  48.3118401  92.7841078   8.5273430  30.0536827  83.7683395  19.9171870
  29.6603773  83.2149594  20.5919514  30.8702968  84.0793974  20.3078388
  32.9704788  85.1841274  17.5092127  33.7114502  85.7848427  17.4296589
  33.2022711  84.4418912  16.9510169  28.1146126  90.3697642  15.7870356
  27.9999642  89.4682899  16.0877455  27.2590644  90.6161338  15.4355173
  35.1937964  98.3115382  17.3857857  34.7501818  97.5251760  17.0678761
  35.8555178  98.4994532  16.7201748  29.9525085  99.8411183  11.9118535
  30.5032510  99.7128247  11.1395529  29.1136561 100.1406072  11.5613428
  37.2919202  98.5918182  15.4139258  37.2737678  99.4127063  14.9219527
  38.2139122  98.4672257  15.6389399  33.7492256  96.1062311  16.2562767
  34.2820593  95.3450599  16.0262074  33.2206337  95.8135963  16.9986921
  36.9161951  81.2122377  11.7856408  36.5726221  82.1024019  11.7095519
  37.2840914  81.0224035  10.9225993  36.8812234  91.2030988   0.2928843
  36.3658858  91.9735593   0.5317231  36.6089543  90.5296124   0.9161905
  34.4659345  86.0480689   5.3514082  33.6100941  85.6587539   5.1719720
  34.8786297  86.1272650   4.4913867  35.9958492  83.5827032   9.7505642
  35.4923287  83.5457168   8.9373447  36.2889099  84.4919775   9.8102298
  32.2401378  83.6665762   8.7571823  33.1054374  83.4708571   8.3977713
  32.3078887  83.4376114   9.6841180  41.8546508  93.9563343   2.2282017
  41.0775951  93.6174502   1.7837179  42.5337989  93.9615966   1.5536982
  36.6698537  89.0758080   2.1188625  36.3648673  89.3904230   2.9698768
  37.6228979  89.1539500   2.1615958  40.0937815  93.4297324   8.8848625
  39.4361490  94.1196586   8.9728753  40.8978214  93.8193756   9.2282611
  29.8463697  85.8967970   6.1288190  30.4207449  85.6743151   5.3961383
  30.4334679  85.9656665   6.8816791  38.9043274  91.7841697   6.9352567
  39.4175156  92.4171689   7.4374276  39.5544498  91.1842892   6.5695927
  32.1486364  82.7709219   4.8563259  31.4950777  82.4558236   4.2319874
  32.1066839  82.1484959   5.5823082  35.3824105  89.2591152   9.1810907
  34.4646666  89.4806099   9.0232595  35.7984248  89.3337463   8.3222614
  36.1659153  90.6582568   4.3113587  36.9130971  91.1703965   4.0020709
  36.4350742  90.3366621   5.1717981  39.6705070  96.7647698   5.0631709
  39.2167397  95.9238608   5.1196900  39.0399037  97.4009097   5.4006489
  38.6137990  87.6939684   6.2932377  37.8760746  87.1817071   6.6242619
  38.8664763  87.2540066   5.4815654  38.1138009  98.6024195   5.9981527
  38.4060984  99.1629252   5.2793893  38.6236630  98.8952756   6.7534686
  38.7149617  80.4715936   6.8874146  39.0208494  79.6113300   6.6000061
  39.4402222  81.0633557   6.6873140  32.9870697  90.7669729   7.3950337
  33.0419307  89.8143566   7.3192814  32.1761899  90.9229169   7.8791635
  30.9263057  89.3846789   5.1540716  30.1130922  89.6840960   5.5605908
  31.4222051  88.9902478   5.8715198  36.5237268  89.8488614  13.9855610
  36.8786656  90.0760087  14.8450076  37.1709400  90.1806990  13.3632865
  42.2535005  92.9707050   4.6904939  42.1152904  93.1608646   3.7626128
  41.8971224  93.7326432   5.1472990  30.4177131  86.9565145  10.7701951
  31.0576511  86.8153904  10.0724914  29.5854662  86.6699658  10.3940553
  42.2804385  95.0383577   9.7016210  42.7140892  94.9458866  10.5499264
  42.9935966  95.0141077   9.0636226  36.0132280  98.6385671  11.2349311
  36.0669302  99.2076607  12.0027027  35.1447061  98.8087556  10.8703348
  27.4205748  86.9265470   5.5474938  27.6812565  87.8410803   5.4384098
  28.2422920  86.4589912   5.6971550  28.8930673  88.3403227  12.7173762
  29.5653727  88.1320589  12.0686411  28.0660460  88.1425313  12.2778994
  43.1419934  95.0807277  12.2349096  43.3355825  95.9853088  12.4808371
  43.0420553  94.6214696  13.0687681  34.7956245  84.9665168  14.7339423
  34.1484160  85.6655117  14.6403899  35.5657261  85.4001312  15.1015671
  38.2035043  95.2314020  17.8089976  38.0520550  95.0024572  16.8920060
  38.1939723  96.1884621  17.8221321  34.9720380  92.8045933  12.7936243
  35.9012440  92.9557092  12.6205210  34.5511410  92.8929953  11.9384889
  33.7708711  96.8296597  10.5634780  33.6319797  96.4615382  11.4360718
  32.9823308  97.3444237  10.3918738  35.3213926  96.2078200   7.9523618
  34.9863759  96.1678970   8.8481268  34.8217872  95.5422916   7.4794028
  29.2958170  91.6145830  13.4776199  29.1577968  90.8826069  14.0787738
  30.2063094  91.5254730  13.1960387  31.9240471  91.3265789  12.9659879
  32.6340090  90.6858981  12.9246497  31.8809779  91.5778684  13.8886060
  39.9127250  98.2633143  15.8866458  39.8539796  97.5792363  15.2197041
  40.3146768  99.0052133  15.4347084  30.6369405  88.3131007  14.7855518
  30.1006762  87.8621746  15.4377115  30.0486114  88.4476916  14.0425983
  39.9144657  96.2272726  14.1180438  39.0271436  95.8898648  14.2406837
  40.4843208  95.4955758  14.3549203  26.3708526  87.4487015  11.8708513
  26.2866715  86.8412684  11.1358923  25.5491233  87.9396033  11.8718009
  33.4445810 100.8874179  11.0841681  33.3715982 101.6929150  11.5960986
  33.0023204 101.0866145  10.2589702  36.5432240  85.9340578   7.2378708
  37.0400940  85.1810541   6.9179778  35.7719222  85.9704895   6.6721917
  44.3961998  91.6380944   8.8796999  44.3851874  92.5205659   8.5090933
  43.5279377  91.2852495   8.6851537  35.9044494 100.7861013  13.2399840
  36.6172466 101.4208478  13.1675741  35.4134523 100.8824879  12.4239842
  37.6262021  94.6912266   4.8117131  36.6918300  94.8113728   4.6421836
  37.8038689  93.7884732   4.5477141  33.1267209  88.0757961   6.9650393
  32.7564996  87.5229002   7.6531298  33.6226301  87.4716095   6.4125393
  41.0134572  90.5329585   5.3467166  41.4795024  91.3657576   5.2727468
  41.4642073  90.0674566   6.0512424  30.9556407  98.5355456  14.0605411
  31.6565867  99.1691939  14.2134805  30.4851522  98.8770188  13.3001050
  39.0810803  96.8773406   2.3453318  39.3570647  96.7630001   3.2547192
  38.2115302  96.4790891   2.3065491  38.9851235  82.9010172   9.3858067
  38.0714315  83.1314399   9.5540274  39.4144336  82.9848616  10.2372099
  38.7557693  91.0900064  11.8857961  38.1029144  91.3375971  11.2310414
  39.1338073  90.2764202  11.5520438  35.7164867 101.1259757   5.9886131
  35.8987262 100.3081413   6.4513884  36.5397853 101.3427449   5.5511021
  34.8045266  91.8319875  18.3723998  34.1285904  91.7314004  19.0426373
  35.6272900  91.6759089  18.8359995  33.5468049 103.1386802  12.6081614
  34.0986357 103.3018424  13.3730699  33.8874243 103.7291240  11.9361639
  28.5232543  85.4861952  13.2103499  28.5873869  86.3476783  12.7980896
  28.4599663  84.8735954  12.4775857  27.9984815  87.5585085  16.8576533
  28.6256854  87.1762162  17.4714057  27.1412734  87.3399287  17.2232225
  38.3978924  97.9648060  18.4630268  38.9418828  98.5778018  17.9685223
  37.8165769  98.5227638  18.9797281  36.6836437 101.0868778   9.5945296
  36.5587576 100.2858518   9.0856242  37.3415528 101.5814971   9.1059266
  28.3044605  87.4417510   8.7722436  27.5831191  88.0553478   8.6329910
  29.0937861  87.9775275   8.6939082  38.7471345  98.8877798  11.2224846
  37.8001681  98.7683149  11.1503173  39.0954118  98.0000296  11.3051108
  31.1070918  84.7771937  15.0463088  31.6305320  85.0234233  15.8089397
  30.8883252  85.6091972  14.6266225  35.7517778  98.6830514   7.4229198
  35.6042741  97.7547221   7.6036768  36.5771272  98.7050605   6.9386274
  39.3551900  99.5059073   8.5094071  40.2798448  99.3001934   8.3718522
  39.1867204  99.2575474   9.4183413  32.3123463  85.7185632  12.7312759
  31.9720284  84.9193445  13.1333439  31.6062470  86.0187343  12.1589592
  32.9639935  82.8034944  11.1840082  33.7866005  82.3295423  11.0618972
  33.2077999  83.5825428  11.6838768  31.6048170  85.8323203   1.4802983
  32.3256532  86.2104456   0.9766700  30.9813474  86.5512080   1.5837961
  35.7479293  86.5368352   2.4161316  35.9642907  87.4192990   2.1150144
  35.2673360  86.1454565   1.6866958  30.4878514  89.4954065   8.9932060
  30.3423095  89.8094368   9.8856342  30.0103718  90.1138965   8.4402959
  32.3474897  86.4856613   9.0412950  32.3336466  85.5897706   8.7045248
  33.0647325  86.4927277   9.6751236  34.2001028  86.9193953  11.0866077
  33.9418805  87.8411024  11.0850408  33.6686068  86.5224388  11.7766541
  39.1447216 100.0244740   3.8656163  39.3184094  99.4591163   3.1130015
  39.6376108 100.8245635   3.6835653  24.9624176  92.0359409  11.9319721
  24.4177644  92.8119217  12.0639996  25.8403526  92.3830214  11.7738843
  31.7511793  85.3670993   4.3100520  31.8727704  84.4387639   4.5091407
  31.4613835  85.3809679   3.3978835  34.6202983  83.0525904   7.4467240
  34.6424680  83.1165237   6.4919219  35.0371042  82.2130412   7.6407746
  44.9986608  92.7881163   5.4846462  45.4417754  92.0388488   5.0865586
  44.1213118  92.7791300   5.1020194  25.7490198  91.1629306  14.8249878
  25.0071934  91.3111941  15.4114509  25.4282942  91.4237571  13.9616628
  42.0313812  96.7911210   2.4940392  42.5565136  97.1298483   1.7689712
  41.9436165  95.8558226   2.3103526  33.6933861 100.7045284  14.6230268
  34.0020987 100.4594431  15.4952968  34.4909343 100.9091922  14.1349139
  31.1628345  98.4021203   8.9257947  30.5408354  97.7391908   8.6260174
  31.8333212  98.4282334   8.2431594  31.2352872  86.8802991  18.5190453
  31.2841028  87.7565113  18.1368222  31.7775387  86.3380384  17.9462096
  41.7207718  97.4244114  17.7991590  40.9303262  97.4068253  17.2596089
  41.4841073  97.9632408  18.5540626  41.8405593  94.2736580  15.1124318
  41.8903598  94.1086588  16.0539841  41.7319516  93.4063839  14.7222199
  39.1309356  90.2567508  16.4283625  40.0319218  90.1173973  16.1367623
  39.2057330  90.4221963  17.3681802  33.4652161  87.6334363  15.2736811
  32.5955470  87.9267929  15.0019400  33.7011641  88.2174808  15.9944075
  43.3423790  96.6933522  15.3566340  43.0508598  97.0563502  16.1929801
  42.7295921  95.9800530  15.1779672  44.5419472  94.2586402   7.8768910
  45.3766364  94.6976206   8.0406470  44.6778601  93.7825055   7.0577156
  41.5910978  91.8166136  13.8246398  42.0665100  92.0093783  13.0165249
  40.6676544  91.8725322  13.5789781  36.1691195  83.8513980  12.7902232
  36.6873139  84.5875007  12.4648720  35.8146327  84.1577973  13.6248991
  36.4203789  80.2714262   8.3103128  36.7005543  79.6037452   8.9363555
  37.2054396  80.4643358   7.7977792  40.2912647  88.6931896  12.0574703
  41.2430070  88.7929994  12.0786927  40.1216098  87.9010165  12.5672788
  38.3127027  85.7787480  12.2434104  37.7176959  86.0592492  11.5480593
  38.0276723  86.2681381  13.0150845  42.7700725  91.9138016  11.1717003
  42.7377045  90.9754017  11.3576687  43.3801349  91.9922053  10.4382828
  42.9195213  88.7049060  11.2175286  42.4034262  87.9207516  11.0305215
  43.8035162  88.3767776  11.3821806  40.5805940  82.4490075   7.1771099
  40.3830762  82.1405163   8.0614431  41.1905646  83.1751714   7.3069029
  48.5877275  92.9754023  10.3123040  49.3180663  92.7139311  10.8730743
  47.9784220  92.2382745  10.3525108  46.6692572  91.1161886  10.9097491
  45.9425736  90.9817850  10.3013983  46.2539859  91.4238714  11.7154209
  34.4922748  94.8351815  18.6744864  35.4125758  95.0130414  18.8684911
  34.4572331  93.8907861  18.5224563  27.4884821  92.7452850  11.3167645
  27.7070831  93.6769958  11.3355679  27.9010595  92.3860824  12.1022449
  34.4089039  83.2520935   3.3043334  33.5989767  82.9068020   3.6798580
  35.0973456  82.9428479   3.8930945  36.3379587  82.3298982   4.9267630
  36.8910626  82.7494435   5.5857653  36.5749673  81.4034730   4.9690586
  32.3612686  88.3186056  20.7070394  32.2609413  89.2680413  20.6382485
  32.1434228  87.9904295  19.8346464  39.7158394  84.4399507   4.4346294
  39.1357063  85.0984311   4.0524347  39.4494327  83.6176852   4.0233712
  38.1661960  83.8404565   6.6367615  38.6661739  83.9521099   5.8281934
  38.8097568  83.5365618   7.2768423  32.2243956  91.7483194  19.5235456
  31.7411038  92.5483555  19.7299345  32.3104895  91.7591139  18.5702900
  28.1517294  95.6387729  11.5603890  29.1060547  95.6071672  11.4933821
  27.9529817  95.1778353  12.3754115  28.7416676  94.2088845  14.1274687
  29.5609565  94.7032924  14.1509524  29.0153484  93.2920813  14.0992255
  38.4983272  86.5999598   3.4902643  37.6109127  86.8849248   3.2722837
  38.9137261  86.4393361   2.6429920  41.8497808  86.6246119   7.2056982
  42.6258198  87.1142571   7.4781599  41.1245942  87.0504173   7.6628851
  44.2870367  87.3373738   8.2630923  44.8814858  87.0969474   7.5524231
  44.3596951  86.6180868   8.8904459  38.4724296  92.1154133   3.7052933
  38.4159497  92.5722685   2.8660565  39.0252638  91.3544818   3.5275776
  42.2829102  87.9043865   4.5303052  42.0266036  87.5040501   5.3611260
  41.6581970  88.6187659   4.4053192  46.5941440  90.6439939   7.0374344
  46.0340998  90.7133128   7.8105906  45.9884943  90.4680923   6.3173840
  39.2059075  93.3058915   1.0005462  39.1507879  93.1403186   0.0593906
  38.5805130  94.0134948   1.1567652  23.9951590  88.5426979  14.8266884
  24.6410454  88.0325933  15.3154109  23.7868741  89.2795661  15.4010310
  36.5204982  95.6107827  20.3259025  37.3896142  95.7848479  19.9645660
  36.0411734  96.4302243  20.2034754  32.5155201  82.8067024   0.5790780
  32.5033870  83.7508864   0.7359051  33.4078622  82.6237169   0.2850242
  30.6891163 102.7304928  12.0048458  31.5918409 102.7628538  12.3214953
  30.4628533 101.8005379  12.0194794  36.3307320  79.4009800   4.8336717
  35.5639716  78.8468287   4.9793400  36.7418025  79.4731669   5.6950869
  28.3349081  85.6894596  18.9241898  29.1980543  85.3331401  19.1345223
  27.7614492  85.3508491  19.6117303  48.1797458 107.3196453   9.7304299
  48.8175868 107.2003200   9.0267640  48.0618301 108.2677296   9.7892252
  44.9887164 107.2723881   9.6665824  44.6505676 107.1564945   8.7786359
  45.8576933 106.8715046   9.6466830  45.4706947 108.4258732  15.6252030
  45.4595588 108.0311531  14.7532533  45.6327587 107.6924805  16.2185801
  42.1914208 111.2095844  14.5731214  41.9004074 112.1141475  14.4577880
  42.8271193 111.2512372  15.2875283  43.1170415 108.5872693  11.1632573
  43.7133988 108.3628715  10.4489536  43.1745387 107.8457438  11.7658021
  47.7338727 105.0447906   6.8057508  48.5201816 104.6267330   6.4547925
  47.9977431 105.9493999   6.9739156  50.6572574  98.6944714  12.1685095
  50.3255899  99.5640125  11.9446310  50.0618187  98.3780998  12.8479125
  47.1504094 110.8957260  11.5681007  46.8504817 111.7982298  11.4596815
  46.8055153 110.6289443  12.4202160  40.6016575 107.3471057   7.6017712
  39.6767072 107.2147271   7.8095404  40.8500988 108.1265276   8.0987654
  50.5501237 103.4139800   9.2478445  49.6418115 103.3455208   8.9537206
  50.4988833 103.8911745  10.0760270  44.6242103 104.8329445  17.1913342
  43.8475437 105.3923366  17.1816207  45.2632666 105.3186228  17.7128212
  52.4162884 101.6156238  11.0256319  51.7737264 101.9088771  10.3796113
  51.9117812 101.5009159  11.8309515  42.8788475 107.6414899  16.7531309
  43.6203160 108.1799943  16.4766133  42.1725461 108.2681188  16.9102861
  48.3543815 109.7844039  15.3503470  48.7627171 109.3426450  14.6058103
  47.6321077 109.2096667  15.6037663  44.7074885 104.7216646  12.7237027
  45.5536080 105.1456060  12.8671676  44.6473523 104.0650270  13.4175591
  47.8574330 102.3821014  14.3818201  47.6135262 103.1363075  13.8452477
  48.1334261 102.7606362  15.2165448  49.8112793 108.9259627  13.0595467
  50.0229688 109.5691387  12.3829848  49.7642541 108.0921943  12.5917397
  47.4139022 101.5377447   9.9632039  46.5523501 101.8358701  10.2548776
  47.4401457 101.7547846   9.0313071  41.1224673 109.6291120   9.3085608
  41.6926030 110.0578388   8.6703092  41.7132785 109.3473704  10.0069793
  41.6149839 104.7954547  17.5546619  40.9848500 105.4770828  17.7882016
  41.5085927 104.6837629  16.6099757  36.9094812 104.4626343   8.4812543
  36.1193866 104.7183872   8.0052654  37.4006059 105.2774681   8.5864584
  44.6915225 111.3515626  13.3878534  44.7559657 111.8136033  14.2236706
  43.9826148 110.7212990  13.5160844  35.1932515 104.7156833  10.9127534
  35.4440553 105.6003843  11.1785110  35.7292063 104.5361435  10.1402626
  40.8930582  99.0975313  19.9171870  40.4997527  98.5441511  20.5919514
  41.7096722  99.4085891  20.3078388  43.8098543 100.5133192  17.5092127
  44.5508256 101.1140345  17.4296589  44.0416466  99.7710830  16.9510169
  38.9539881 105.6989559  15.7870356  38.8393396 104.7974816  16.0877455
  38.0984399 105.9453256  15.4355173  46.0331719 113.6407299  17.3857857
  45.5895573 112.8543678  17.0678761  46.6948932 113.8286450  16.7201748
  40.7918840 115.1703101  11.9118535  41.3426265 115.0420164  11.1395529
  39.9530316 115.4697990  11.5613428  48.1312957 113.9210099  15.4139258
  48.1131432 114.7418980  14.9219527  49.0532877 113.7964175  15.6389399
  44.5886011 111.4354229  16.2562767  45.1214348 110.6742517  16.0262074
  44.0600092 111.1427881  16.9986921  47.7555706  96.5414295  11.7856408
  47.4119975  97.4315937  11.7095519  48.1234668  96.3515953  10.9225993
  45.3053100 101.3772607   5.3514082  44.4494696 100.9879457   5.1719720
  45.7180051 101.4564568   4.4913867  46.8352246  98.9118950   9.7505642
  46.3317042  98.8749085   8.9373447  47.1282853  99.8211693   9.8102298
  43.0795132  98.9957680   8.7571823  43.9448129  98.8000488   8.3977713
  43.1472641  98.7668032   9.6841180  40.6857451 101.2259888   6.1288190
  41.2601203 101.0035069   5.3961383  41.2728434 101.2948582   6.8816791
  42.9880119  98.1001137   4.8563259  42.3344531  97.7850154   4.2319874
  42.9460593  97.4776877   5.5823082  46.2217859 104.5883070   9.1810907
  45.3040421 104.8098017   9.0232595  46.6378003 104.6629381   8.3222614
  49.5543371  95.8007854   6.8874146  49.8602248  94.9405217   6.6000061
  50.2795976  96.3925474   6.6873140  43.8264451 106.0961647   7.3950337
  43.8813061 105.1435484   7.3192814  43.0155653 106.2521086   7.8791635
  41.7656811 104.7138707   5.1540716  40.9524677 105.0132877   5.5605908
  42.2615805 104.3194396   5.8715198  47.3631023 105.1780531  13.9855610
  47.7180411 105.4052004  14.8450076  48.0103154 105.5098908  13.3632865
  41.2570886 102.2857062  10.7701951  41.8970265 102.1445821  10.0724914
  40.4248416 101.9991576  10.3940553  46.8526034 113.9677588  11.2349311
  46.9063057 114.5368525  12.0027027  45.9840816 114.1379473  10.8703348
  38.2599502 102.2557387   5.5474938  38.5206320 103.1702721   5.4384098
  39.0816675 101.7881830   5.6971550  39.7324428 103.6695145  12.7173762
  40.4047481 103.4612507  12.0686411  38.9054214 103.4717231  12.2778994
  45.6350000 100.2957085  14.7339423  44.9877915 100.9947035  14.6403899
  46.4051015 100.7293229  15.1015671  49.0428798 110.5605938  17.8089976
  48.8914304 110.3316489  16.8920060  49.0333477 111.5176539  17.8221321
  45.8114134 108.1337850  12.7936243  46.7406194 108.2849010  12.6205210
  45.3905164 108.2221871  11.9384889  44.6102466 112.1588515  10.5634780
  44.4713552 111.7907299  11.4360718  43.8217062 112.6736154  10.3918738
  40.1351925 106.9437748  13.4776199  39.9971723 106.2117986  14.0787738
  41.0456848 106.8546648  13.1960387  42.7634226 106.6557707  12.9659879
  43.4733844 106.0150899  12.9246497  42.7203534 106.9070602  13.8886060
  50.7521004 113.5925060  15.8866458  50.6933550 112.9084280  15.2197041
  51.1540523 114.3344050  15.4347084  41.4763160 103.6422925  14.7855518
  40.9400517 103.1913663  15.4377115  40.8879868 103.7768834  14.0425983
  50.7538412 111.5564644  14.1180438  49.8665190 111.2190566  14.2406837
  51.3236963 110.8247675  14.3549203  37.2102281 102.7778932  11.8708513
  37.1260470 102.1704602  11.1358923  36.3884987 103.2687951  11.8718009
  47.3825995 101.2632496   7.2378708  47.8794694 100.5102458   6.9179778
  46.6112976 101.2996813   6.6721917  46.7438248 116.1152931  13.2399840
  47.4566221 116.7500395  13.1675741  46.2528277 116.2116796  12.4239842
  43.9660963 103.4049879   6.9650393  43.5958751 102.8520919   7.6531298
  44.4620056 102.8008012   6.4125393  41.7950162 113.8647374  14.0605411
  42.4959621 114.4983857  14.2134805  41.3245277 114.2062106  13.3001050
  49.8244989  98.2302089   9.3858067  48.9108069  98.4606316   9.5540274
  50.2538091  98.3140534  10.2372099  49.5951448 106.4191981  11.8857961
  48.9422898 106.6667889  11.2310414  49.9731828 105.6056120  11.5520438
  45.6439021 107.1611792  18.3723998  44.9679658 107.0605922  19.0426373
  46.4666655 107.0051006  18.8359995  39.3626297 100.8153870  13.2103499
  39.4267624 101.6768701  12.7980896  39.2993417 100.2027871  12.4775857
  38.8378570 102.8877002  16.8576533  39.4650608 102.5054080  17.4714057
  37.9806488 102.6691204  17.2232225  49.2372678 113.2939977  18.4630268
  49.7812582 113.9069936  17.9685223  48.6559523 113.8519556  18.9797281
  39.1438359 102.7709428   8.7722436  38.4224945 103.3845396   8.6329910
  39.9331615 103.3067193   8.6939082  41.9464673 100.1063854  15.0463088
  42.4699075 100.3526151  15.8089397  41.7277006 100.9383889  14.6266225
  43.1517218 101.0477550  12.7312759  42.8114038 100.2485363  13.1333439
  42.4456224 101.3479260  12.1589592  43.8033690  98.1326862  11.1840082
  44.6259759  97.6587340  11.0618972  44.0471753  98.9117346  11.6838768
  41.3272269 104.8245983   8.9932060  41.1816849 105.1386286   9.8856342
  40.8497472 105.4430883   8.4402959  43.1868651 101.8148531   9.0412950
  43.1730220 100.9189624   8.7045248  43.9041080 101.8219194   9.6751236
  45.0394782 102.2485871  11.0866077  44.7812560 103.1702941  11.0850408
  44.5079822 101.8516305  11.7766541  35.8017931 107.3651327  11.9319721
  35.2571399 108.1411135  12.0639996  36.6797281 107.7122131  11.7738843
  42.5905547 100.6962911   4.3100520  42.7121459  99.7679557   4.5091407
  42.3007590 100.7101597   3.3978835  45.4596738  98.3817821   7.4467240
  45.4818435  98.4457154   6.4919219  45.8764797  97.5422330   7.6407746
  36.5883953 106.4921223  14.8249878  35.8465689 106.6403859  15.4114509
  36.2676697 106.7529489  13.9616628  44.5327615 116.0337202  14.6230268
  44.8414742 115.7886348  15.4952968  45.3303097 116.2383840  14.1349139
  42.0746627 102.2094908  18.5190453  42.1234782 103.0857031  18.1368222
  42.6169141 101.6672301  17.9462096  52.5601473 112.7536032  17.7991590
  51.7697016 112.7360170  17.2596089  52.3234827 113.2924325  18.5540626
  52.6799348 109.6028498  15.1124318  52.7297353 109.4378505  16.0539841
  52.5713271 108.7355757  14.7222199  49.9703110 105.5859426  16.4283625
  50.8712973 105.4465891  16.1367623  50.0451084 105.7513881  17.3681802
  44.3045915 102.9626281  15.2736811  43.4349225 103.2559847  15.0019400
  44.5405396 103.5466726  15.9944075  54.1817544 112.0225439  15.3566340
  53.8902353 112.3855420  16.1929801  53.5689676 111.3092448  15.1779672
  52.4304733 107.1458054  13.8246398  52.9058854 107.3385700  13.0165249
  51.5070298 107.2017240  13.5789781  47.0084949  99.1805898  12.7902232
  47.5266893  99.9166925  12.4648720  46.6540082  99.4869891  13.6248991
  47.2597543  95.6006180   8.3103128  47.5399297  94.9329369   8.9363555
  48.0448150  95.7935276   7.7977792  51.1306402 104.0223814  12.0574703
  52.0823825 104.1221912  12.0786927  50.9609852 103.2302083  12.5672788
  49.1520781 101.1079397  12.2434104  48.5570713 101.3884410  11.5480593
  48.8670478 101.5973298  13.0150845  53.6094479 107.2429934  11.1717003
  53.5770800 106.3045935  11.3576687  54.2195103 107.3213971  10.4382828
  53.7588968 104.0340977  11.2175286  53.2428017 103.2499434  11.0305215
  54.6428916 103.7059694  11.3821806  51.4199695  97.7781993   7.1771099
  51.2224516  97.4697081   8.0614431  52.0299400  98.5043632   7.3069029
  45.3316503 110.1643733  18.6744864  46.2519512 110.3422332  18.8684911
  45.2966086 109.2199778  18.5224563  38.3278575 108.0744768  11.3167645
  38.5464585 109.0061875  11.3355679  38.7404349 107.7152742  12.1022449
  45.2482793  98.5812853   3.3043334  44.4383522  98.2359938   3.6798580
  45.9367210  98.2720397   3.8930945  47.1773341  97.6590900   4.9267630
  47.7304380  98.0786353   5.5857653  47.4143428  96.7326648   4.9690586
  43.2006441 103.6477973  20.7070394  43.1003168 104.5972330  20.6382485
  42.9827983 103.3196212  19.8346464  49.0055715  99.1696483   6.6367615
  49.5055493  99.2813017   5.8281934  49.6491323  98.8657535   7.2768423
  43.0637711 107.0775112  19.5235456  42.5804792 107.8775472  19.7299345
  43.1498650 107.0883057  18.5702900  38.9911048 110.9679647  11.5603890
  39.9454302 110.9363589  11.4933821  38.7923572 110.5070271  12.3754115
  39.5810430 109.5380763  14.1274687  40.4003319 110.0324842  14.1509524
  39.8547238 108.6212731  14.0992255  52.6891563 101.9538036   7.2056982
  53.4651953 102.4434489   7.4781599  51.9639697 102.3796090   7.6628851
  34.8345345 103.8718897  14.8266884  35.4804208 103.3617851  15.3154109
  34.6262496 104.6087578  15.4010310  47.3598737 110.9399744  20.3259025
  48.2289896 111.1140397  19.9645660  46.8805488 111.7594161  20.2034754
  41.5284917 118.0596845  12.0048458  42.4312164 118.0920456  12.3214953
  41.3022287 117.1297296  12.0194794  47.1701075  94.7301718   4.8336717
  46.4033470  94.1760205   4.9793400  47.5811780  94.8023587   5.6950869
  39.1742836 101.0186514  18.9241898  40.0374297 100.6623319  19.1345223
  38.6008246 100.6800409  19.6117303  51.7324336 114.4267231  19.9171870
  51.3391282 113.8733429  20.5919514  52.5490477 114.7377809  20.3078388
  54.6492297 115.8425110  17.5092127  55.3902011 116.4432263  17.4296589
  54.8810220 115.1002747  16.9510169  49.6772324 118.2168920  16.8576533
  50.3044363 117.8345997  17.4714057  48.8200243 117.9983122  17.2232225
  52.9140381 117.5386826  18.5190453  52.9628537 118.4148949  18.1368222
  53.4562896 116.9964219  17.9462096  54.0400195 118.9769891  20.7070394
  53.9396922 119.9264248  20.6382485  53.8221737 118.6488130  19.8346464
  45.6739099 119.2010814  14.8266884  46.3197963 118.6909768  15.3154109
  45.4656250 119.9379496  15.4010310  50.0136590 116.3478432  18.9241898
  50.8768052 115.9915236  19.1345223  49.4402001 116.0092326  19.6117303
  24.3544211  59.9885587   4.1103164  23.9108065  59.2021965   3.7924068
  25.0161425  60.1764737   3.4447054  26.4525449  60.2688387   2.1384565
  26.4343924  61.0897268   1.6464834  27.3745369  60.1442462   2.3634706
  27.3641290  56.9084225   4.5335283  27.2126796  56.6794777   3.6165367
  27.3545969  57.8654826   4.5466628  29.0733497  59.9403347   2.6111765
  29.0146043  59.2562568   1.9442348  29.4753015  60.6822337   2.1592391
  27.5585170  59.6418265   5.1875575  28.1025074  60.2548223   4.6930530
  26.9772015  60.1997843   5.7042588  30.8813965  59.1014319   4.5236896
  30.0909509  59.0838458   3.9841396  30.6447319  59.6402612   5.2785933
  32.5030037  58.3703727   2.0811646  32.2114845  58.7333707   2.9175107
  31.8902168  57.6570735   1.9024978  25.6811229  57.2878032   7.0504331
  26.5502389  57.4618684   6.6890966  25.2017981  58.1072448   6.9280061
  37.3403705  68.9966657  -3.5450394  37.9782115  68.8773405  -4.2487054
  37.2224548  69.9447501  -3.4862442  34.1493411  68.9494086  -3.6088869
  33.8111923  68.8335150  -4.4968334  35.0183179  68.5485251  -3.6287863
  34.6313194  70.1028937   2.3497336  34.6201835  69.7081736   1.4777840
  34.7933834  69.3695010   2.9431108  31.3520455  72.8866049   1.2976520
  31.0610321  73.7911680   1.1823187  31.9877440  72.9282577   2.0120590
  32.2776662  70.2642898  -2.1122120  32.8740234  70.0398920  -2.8265157
  32.3351634  69.5227643  -1.5096672  42.2953400  66.6593345  -5.5664207
  43.0278572  66.0892561  -5.3326378  41.5392756  66.2714945  -5.1257702
  39.8178821  60.3714919  -1.1069599  39.4862146  61.2410330  -1.3308384
  39.2224434  60.0551203  -0.4275568  36.3110340  72.5727465  -1.7073686
  36.0111063  73.4752503  -1.8157879  35.9661400  72.3059648  -0.8552533
  39.7107484  65.0910005  -4.0276249  38.8024361  65.0225413  -4.3217488
  39.6595080  65.5681950  -3.1994423  33.7848350  66.5099650   3.9158649
  33.0081684  67.0693571   3.9061513  34.4238913  66.9956433   4.4373519
  41.5769131  63.2926443  -2.2498375  40.9343511  63.5858976  -2.8958580
  41.0724059  63.1779364  -1.4445178  32.0394722  69.3185104   3.4776616
  32.7809407  69.8570148   3.2011439  31.3331708  69.9451392   3.6348167
  37.5150062  71.4614244   2.0748777  37.9233418  71.0196655   1.3303409
  36.7927323  70.8866872   2.3282970  33.8681132  66.3986851  -0.5517666
  34.7142327  66.8226265  -0.4083017  33.8079770  65.7420475   0.1420897
  37.8378876  72.0215435  -4.1698934  37.2087739  72.1861149  -4.8722866
  37.4504539  72.4357044  -3.3987970  41.7168108  72.9569873  -6.8154570
  41.0319147  73.3368774  -7.3657537  41.8011958  73.5665199  -6.0822623
  37.0180577  64.0591219   1.1063508  36.7741509  64.8133280   0.5697783
  37.2940508  64.4376567   1.9410755  38.9719040  70.6029832  -0.2159227
  39.1835935  71.2461592  -0.8924846  38.9248788  69.7692148  -0.6837297
  33.3906838  71.7589843  -6.9048849  33.8545184  72.0377546  -7.6944226
  33.1263636  70.8573287  -7.0875758  30.2830919  71.3061324  -3.9669086
  30.8532276  71.7348593  -4.6051601  30.8739031  71.0243909  -3.2684900
  30.7756086  66.4724752   4.2791926  30.1454747  67.1541033   4.5127322
  30.6692174  66.3607834   3.3345064  40.0864868  73.4801787  -2.0436869
  40.9082312  73.0781974  -2.3254188  40.0827271  73.3770021  -1.0920754
  33.8521471  73.0285830   0.1123841  33.9165904  73.4906238   0.9482013
  33.1432395  72.3983195   0.2406151  48.1770861  69.8240536  -5.6951898
  47.4234569  69.2547934  -5.8507893  48.3118402  69.7903200  -4.7481263
  30.0536829  60.7745518   6.6417177  29.6603774  60.2211716   7.3164821
  30.8702969  61.0856096   7.0323694  32.9704790  62.1903397   4.2337433
  33.7114503  62.7910550   4.1541896  33.2022712  61.4481035   3.6755476
  28.1146128  67.3759764   2.5115663  27.9999643  66.4745021   2.8122762
  27.2590645  67.6223461   2.1600479  35.1937965  75.3177504   4.1103164
  34.7501820  74.5313883   3.7924068  35.8555179  75.5056655   3.4447054
  29.9525087  76.8473306  -1.3636158  30.5032512  76.7190369  -2.1359164
  29.1136562  77.1468195  -1.7141265  37.2919203  75.5980304   2.1384565
  37.2737679  76.4189185   1.6464834  38.2139124  75.4734380   2.3634706
  33.7492258  73.1124434   2.9808073  34.2820594  72.3512722   2.7507381
  33.2206339  72.8198086   3.7232228  40.0937816  70.4359447  -4.3906069
  39.4361491  71.1258708  -4.3025940  40.8978216  70.8255879  -4.0472082
  38.9043275  68.7903819  -6.3402127  39.4175157  69.4233811  -5.8380417
  39.5544499  68.1905015  -6.7058767  35.3824106  66.2653275  -4.0943786
  34.4646667  66.4868222  -4.2522098  35.7984250  66.3399586  -4.9532079
  39.6705071  73.7709821  -8.2122984  39.2167398  72.9300731  -8.1557794
  39.0399038  74.4071219  -7.8748204  38.1138011  75.6086318  -7.2773166
  38.4060985  76.1691375  -7.9960800  38.6236631  75.9014879  -6.5220007
  36.5237270  66.8550736   0.7100916  36.8786657  67.0822209   1.5695382
  37.1709401  67.1869113   0.0878172  42.2535007  69.9769172  -8.5849755
  42.1152905  70.1670768  -9.5128565  41.8971225  70.7388555  -8.1281703
  42.2804386  72.0445699  -3.5738483  42.7140893  71.9520988  -2.7255429
  42.9935967  72.0203200  -4.2118467  36.0132281  75.6447793  -2.0405382
  36.0669303  76.2138730  -1.2727667  35.1447062  75.8149678  -2.4051345
  28.8930674  65.3465349  -0.5580931  29.5653728  65.1382712  -1.2068282
  28.0660461  65.1487435  -0.9975699  43.1419936  72.0869400  -1.0405598
  43.3355826  72.9915210  -0.7946323  43.0420554  71.6276819  -0.2067013
  34.7956246  61.9727290   1.4584730  34.1484161  62.6717240   1.3649206
  35.5657262  62.4063434   1.8260978  38.2035044  72.2376143   4.5335283
  38.0520551  72.0086694   3.6165367  38.1939724  73.1946744   4.5466628
  34.9720381  69.8108055  -0.4818451  35.9012441  69.9619215  -0.6549483
  34.5511411  69.8992076  -1.3369804  33.7708713  73.8358720  -2.7119913
  33.6319798  73.4677504  -1.8393975  32.9823309  74.3506359  -2.8835955
  35.3213928  73.2140322  -5.3231075  34.9863760  73.1741092  -4.4273425
  34.8217873  72.5485038  -5.7960665  29.2958172  68.6207952   0.2021506
  29.1577970  67.8888191   0.8033045  30.2063095  68.5316853  -0.0794306
  31.9240472  68.3327912  -0.3094814  32.6340091  67.6921104  -0.3508196
  31.8809781  68.5840807   0.6131366  39.9127251  75.2695265   2.6111765
  39.8539797  74.5854485   1.9442348  40.3146769  76.0114255   2.1592391
  30.6369406  65.3193130   1.5100825  30.1006763  64.8683868   2.1622421
  30.0486115  65.4539038   0.7671289  39.9144658  73.2334849   0.8425744
  39.0271437  72.8960771   0.9652143  40.4843209  72.5017880   1.0794510
  33.4445812  77.8936301  -2.1913012  33.3715983  78.6991273  -1.6793708
  33.0023205  78.0928267  -3.0164991  44.3961999  68.6443066  -4.3957694
  44.3851875  69.5267782  -4.7663761  43.5279378  68.2914617  -4.5903157
  35.9044495  77.7923135  -0.0354854  36.6172467  78.4270600  -0.1078952
  35.4134524  77.8887001  -0.8514852  37.6262022  71.6974388  -8.4637562
  36.6918301  71.8175851  -8.6332858  37.8038691  70.7946855  -8.7277552
  41.0134573  67.5391707  -7.9287528  41.4795026  68.3719699  -8.0027225
  41.4642074  67.0736689  -7.2242269  30.9556409  75.5417579   0.7850717
  31.6565868  76.1754062   0.9380111  30.4851524  75.8832310   0.0246356
  38.7557695  68.0962186  -1.3896732  38.1029145  68.3438094  -2.0444280
  39.1338075  67.2826325  -1.7234255  35.7164869  78.1321880  -7.2868562
  35.8987263  77.3143535  -6.8240810  36.5397855  78.3489572  -7.7243672
  34.8045268  68.8381997   5.0969305  34.1285905  68.7376127   5.7671680
  35.6272902  68.6821211   5.5605302  33.5468051  80.1448925  -0.6673079
  34.0986359  80.3080546   0.0976006  33.8874244  80.7353363  -1.3393055
  27.9984816  64.5647207   3.5821840  28.6256855  64.1824285   4.1959364
  27.1412735  64.3461409   3.9477532  38.3978925  74.9710182   5.1875575
  38.9418829  75.5840141   4.6930530  37.8165770  75.5289761   5.7042588
  36.6836438  78.0930900  -3.6809397  36.5587577  77.2920640  -4.1898452
  37.3415529  78.5877094  -4.1695427  38.7471346  75.8939920  -2.0529847
  37.8001682  75.7745272  -2.1251520  39.0954119  75.0062419  -1.9703586
  31.1070920  61.7834059   1.7708395  31.6305321  62.0296356   2.5334704
  30.8883253  62.6154094   1.3511532  35.7517780  75.6892637  -5.8525495
  35.6042742  74.7609344  -5.6717925  36.5771273  75.7112727  -6.3368420
  39.3551901  76.5121195  -4.7660622  40.2798449  76.3064057  -4.9036171
  39.1867205  76.2637597  -3.8571281  32.3123465  62.7247754  -0.5441935
  31.9720285  61.9255568  -0.1421255  31.6062471  63.0249465  -1.1165102
  34.2001029  63.9256076  -2.1888616  33.9418807  64.8473146  -2.1904286
  33.6686069  63.5286510  -1.4988152  39.1447218  77.0306863  -9.4098531
  39.3184095  76.4653285 -10.1624678  39.6376109  77.8307758  -9.5919041
  24.9624177  69.0421532  -1.3434972  24.4177646  69.8181340  -1.2114698
  25.8403527  69.3892336  -1.5015850  44.9986609  69.7943286  -7.7908231
  45.4417755  69.0450611  -8.1889108  44.1213119  69.7853422  -8.1734499
  25.7490199  68.1691428   1.5495185  25.0071935  68.3174064   2.1359815
  25.4282944  68.4299694   0.6861934  42.0313813  73.7973333 -10.7814302
  42.5565137  74.1360606 -11.5064982  41.9436166  72.8620348 -10.9651167
  33.6933862  77.7107406   1.3475575  34.0020988  77.4656553   2.2198275
  34.4909344  77.9154045   0.8594445  31.1628346  75.4083325  -4.3496747
  30.5408355  74.7454030  -4.6494519  31.8333213  75.4344457  -5.0323099
  31.2352874  63.8865113   5.2435759  31.2841029  64.7627236   4.8613529
  31.7775388  63.3442506   4.6707402  41.7207719  74.4306236   4.5236896
  40.9303263  74.4130375   3.9841396  41.4841074  74.9694530   5.2785933
  41.8405594  71.2798703   1.8369625  41.8903599  71.1148710   2.7785148
  41.7319518  70.4125962   1.4467506  39.1309357  67.2629631   3.1528932
  40.0319220  67.1236096   2.8612929  39.2057331  67.4284086   4.0927109
  33.4652162  64.6396486   1.9982118  32.5955471  64.9330052   1.7264706
  33.7011642  65.2236931   2.7189381  43.3423791  73.6995644   2.0811646
  43.0508599  74.0625625   2.9175107  42.7295922  72.9862653   1.9024978
  44.5419474  71.2648524  -5.3985783  45.3766365  71.7038328  -5.2348223
  44.6778602  70.7887177  -6.2177538  41.5910979  68.8228259   0.5491704
  42.0665101  69.0155905  -0.2589444  40.6676545  68.8787445   0.3035088
  36.1691196  60.8576103  -0.4852462  36.6873140  61.5937129  -0.8105973
  35.8146329  61.1640096   0.3494297  40.2912648  65.6994019  -1.2179990
  41.2430071  65.7992117  -1.1967766  40.1216099  64.9072288  -0.7081906
  38.3127028  62.7849602  -1.0320589  37.7176960  63.0654615  -1.7274100
  38.0276725  63.2743503  -0.2603848  42.7700726  68.9200139  -2.1037690
  42.7377046  67.9816139  -1.9178007  43.3801350  68.9984175  -2.8371866
  42.9195215  65.7111182  -2.0579407  42.4034263  64.9269639  -2.2449478
  43.8035163  65.3829899  -1.8932888  48.5877276  69.9816146  -2.9631654
  49.3180665  69.7201434  -2.4023950  47.9784222  69.2444868  -2.9229586
  46.6692573  68.1224008  -2.3657202  45.9425737  67.9879973  -2.9740711
  46.2539860  68.4300837  -1.5600484  34.4922750  71.8413938   5.3990171
  35.4125759  72.0192537   5.5930217  34.4572333  70.8969983   5.2469870
  27.4884822  69.7514972  -1.9587048  27.7070832  70.6832080  -1.9399014
  27.9010596  69.3922947  -1.1732244  32.3612687  65.3248178   7.4315701
  32.2609414  66.2742535   7.3627792  32.1434230  64.9966417   6.5591771
  32.2243958  68.7545317   6.2480762  31.7411039  69.5545677   6.4544651
  32.3104897  68.7653262   5.2948206  28.1517295  72.6449852  -1.7150804
  29.1060549  72.6133794  -1.7820872  27.9529819  72.1840476  -0.9000578
  28.7416677  71.2150968   0.8519994  29.5609566  71.7095047   0.8754831
  29.0153485  70.2982936   0.8237561  41.8497809  63.6308241  -6.0697711
  42.6258200  64.1204694  -5.7973095  41.1245944  64.0566295  -5.6125842
  44.2870368  64.3435860  -5.0123771  44.8814859  64.1031596  -5.7230463
  44.3596952  63.6242991  -4.3850235  46.5941441  67.6502061  -6.2380350
  46.0340999  67.7195251  -5.4648788  45.9884944  67.4743046  -6.9580853
  23.9951591  65.5489102   1.5512191  24.6410455  65.0388056   2.0399416
  23.7868743  66.2857783   2.1255616  36.5204984  72.6169949   7.0504331
  37.3896143  72.7910601   6.6890966  36.0411735  73.4364366   6.9280061
  30.6891164  79.7367050  -1.2706235  31.5918411  79.7690660  -0.9539740
  30.4628534  78.8067501  -1.2559899  28.3349082  62.6956719   5.6487205
  29.1980544  62.3393524   5.8590530  27.7614493  62.3570614   6.3362609
  48.1797459  84.3258575  -3.5450394  48.8175869  84.2065322  -4.2487054
  48.0618302  85.2739419  -3.4862442  44.9887166  84.2786003  -3.6088869
  44.6505677  84.1627068  -4.4968334  45.8576934  83.8777168  -3.6287863
  45.4706949  85.4320855   2.3497336  45.4595589  85.0373653   1.4777840
  45.6327588  84.6986928   2.9431108  42.1914210  88.2157967   1.2976520
  41.9004076  89.1203598   1.1823187  42.8271194  88.2574494   2.0120590
  43.1170417  85.5934815  -2.1122120  43.7133989  85.3690838  -2.8265157
  43.1745388  84.8519561  -1.5096672  47.7338728  82.0510029  -6.4697186
  48.5201817  81.6329452  -6.8206769  47.9977432  82.9556121  -6.3015537
  50.6572575  75.7006836  -1.1069599  50.3255900  76.5702247  -1.3308384
  50.0618189  75.3843120  -0.4275568  47.1504095  87.9019382  -1.7073686
  46.8504818  88.8044421  -1.8157879  46.8055154  87.6351565  -0.8552533
  40.6016576  84.3533179  -5.6736982  39.6767073  84.2209393  -5.4659290
  40.8500989  85.1327398  -5.1767039  50.5501239  80.4201922  -4.0276249
  49.6418116  80.3517331  -4.3217488  50.4988834  80.8973867  -3.1994423
  44.6242104  81.8391568   3.9158649  43.8475438  82.3985488   3.9061513
  45.2632667  82.3248351   4.4373519  52.4162885  78.6218361  -2.2498375
  51.7737265  78.9150894  -2.8958580  51.9117814  78.5071281  -1.4445178
  42.8788477  84.6477021   3.4776616  43.6203161  85.1862065   3.2011439
  42.1725462  85.2743310   3.6348167  48.3543816  86.7906162   2.0748777
  48.7627172  86.3488572   1.3303409  47.6321078  86.2158789   2.3282970
  44.7074886  81.7278769  -0.5517666  45.5536082  82.1518182  -0.4083017
  44.6473524  81.0712393   0.1420897  47.8574332  79.3883137   1.1063508
  47.6135264  80.1425198   0.5697783  48.1334262  79.7668485   1.9410755
  49.8112794  85.9321749  -0.2159227  50.0229690  86.5753509  -0.8924846
  49.7642543  85.0984066  -0.6837297  47.4139023  78.5439570  -3.3122655
  46.5523502  78.8420824  -3.0205917  47.4401458  78.7609969  -4.2441622
  41.1224674  86.6353242  -3.9669086  41.6926031  87.0640511  -4.6051601
  41.7132786  86.3535827  -3.2684900  41.6149840  81.8016670   4.2791926
  40.9848501  82.4832950   4.5127322  41.5085928  81.6899751   3.3345064
  36.9094813  81.4688466  -4.7942150  36.1193867  81.7245994  -5.2702040
  37.4006060  82.2836803  -4.6890110  44.6915226  88.3577748   0.1123841
  44.7559658  88.8198155   0.9482013  43.9826150  87.7275113   0.2406151
  35.1932516  81.7218956  -2.3627159  35.4440554  82.6065966  -2.0969583
  35.7292064  81.5423558  -3.1352068  40.8930583  76.1037435   6.6417177
  40.4997529  75.5503634   7.3164821  41.7096723  76.4148014   7.0323694
  43.8098544  77.5195315   4.2337433  44.5508258  78.1202468   4.1541896
  44.0416467  76.7772952   3.6755476  38.9539882  82.7051682   2.5115663
  38.8393397  81.8036939   2.8122762  38.0984400  82.9515379   2.1600479
  46.0331720  90.6469422   4.1103164  45.5895574  89.8605801   3.7924068
  46.6948933  90.8348573   3.4447054  40.7918841  92.1765224  -1.3636158
  41.3426266  92.0482287  -2.1359164  39.9530317  92.4760113  -1.7141265
  48.1312958  90.9272222   2.1384565  48.1131433  91.7481103   1.6464834
  49.0532878  90.8026297   2.3634706  44.5886012  88.4416352   2.9808073
  45.1214349  87.6804640   2.7507381  44.0600093  88.1490003   3.7232228
  47.7555707  73.5476417  -1.4898285  47.4119976  74.4378059  -1.5659175
  48.1234670  73.3578075  -2.3528700  45.3053101  78.3834729  -7.9240612
  44.4494697  77.9941580  -8.1034973  45.7180053  78.4626690  -8.7840826
  46.8352247  75.9181073  -3.5249052  46.3317043  75.8811208  -4.3381247
  47.1282854  76.8273815  -3.4652395  43.0795133  76.0019802  -4.5182870
  43.9448130  75.8062611  -4.8776981  43.1472642  75.7730154  -3.5913513
  40.6857452  78.2322010  -7.1466503  41.2601204  78.0097192  -7.8793310
  41.2728435  78.3010705  -6.3937902  42.9880120  75.1063259  -8.4191434
  42.3344532  74.7912276  -9.0434819  42.9460594  74.4839000  -7.6931611
  46.2217861  81.5945193  -4.0943786  45.3040422  81.8160140  -4.2522098
  46.6378004  81.6691503  -4.9532079  49.5543373  72.8069977  -6.3880547
  49.8602250  71.9467340  -6.6754632  50.2795978  73.3987597  -6.5881554
  43.8264452  83.1023770  -5.8804356  43.8813062  82.1497606  -5.9561880
  43.0155655  83.2583209  -5.3963058  41.7656812  81.7200829  -8.1213977
  40.9524678  82.0195000  -7.7148785  42.2615807  81.3256518  -7.4039495
  47.3631024  82.1842654   0.7100916  47.7180412  82.4114127   1.5695382
  48.0103155  82.5161031   0.0878172  41.2570887  79.2919185  -2.5052743
  41.8970266  79.1507944  -3.2029779  40.4248418  79.0053698  -2.8814141
  46.8526036  90.9739711  -2.0405382  46.9063058  91.5430647  -1.2727667
  45.9840817  91.1441596  -2.4051345  38.2599504  79.2619510  -7.7279756
  38.5206321  80.1764843  -7.8370595  39.0816676  78.7943953  -7.5783143
  39.7324429  80.6757267  -0.5580931  40.4047482  80.4674629  -1.2068282
  38.9054215  80.4779353  -0.9975699  45.6350001  77.3019208   1.4584730
  44.9877916  78.0009158   1.3649206  46.4051016  77.7355352   1.8260978
  49.0428799  87.5668060   4.5335283  48.8914305  87.3378612   3.6165367
  49.0333478  88.5238662   4.5466628  45.8114135  85.1399973  -0.4818451
  46.7406195  85.2911133  -0.6549483  45.3905165  85.2283994  -1.3369804
  44.6102467  89.1650637  -2.7119913  44.4713553  88.7969422  -1.8393975
  43.8217063  89.6798277  -2.8835955  40.1351926  83.9499870   0.2021506
  39.9971724  83.2180109   0.8033045  41.0456850  83.8608770  -0.0794306
  42.7634227  83.6619829  -0.3094814  43.4733845  83.0213022  -0.3508196
  42.7203535  83.9132724   0.6131366  50.7521006  90.5987183   2.6111765
  50.6933552  89.9146403   1.9442348  51.1540524  91.3406173   2.1592391
  41.4763161  80.6485047   1.5100825  40.9400518  80.1975786   2.1622421
  40.8879869  80.7830956   0.7671289  50.7538413  88.5626767   0.8425744
  49.8665192  88.2252689   0.9652143  51.3236964  87.8309798   1.0794510
  37.2102282  79.7841055  -1.4046180  37.1260471  79.1766725  -2.1395770
  36.3884988  80.2750073  -1.4036684  47.3825996  78.2694619  -6.0375985
  47.8794695  77.5164581  -6.3574915  46.6112977  78.3058935  -6.6032776
  46.7438250  93.1215053  -0.0354854  47.4566222  93.7562518  -0.1078952
  46.2528278  93.2178919  -0.8514852  43.9660965  80.4112002  -6.3104301
  43.5958752  79.8583042  -5.6223395  44.4620057  79.8070135  -6.8629301
  41.7950163  90.8709497   0.7850717  42.4959623  91.5045980   0.9380111
  41.3245278  91.2124228   0.0246356  49.8244991  75.2364212  -3.8896627
  48.9108071  75.4668439  -3.7214420  50.2538092  75.3202656  -3.0382594
  49.5951449  83.4254104  -1.3896732  48.9422899  83.6730011  -2.0444280
  49.9731829  82.6118242  -1.7234255  45.6439022  84.1673915   5.0969305
  44.9679659  84.0668044   5.7671680  46.4666656  84.0113129   5.5605302
  39.3626298  77.8215992  -0.0651195  39.4267625  78.6830823  -0.4773797
  39.2993419  77.2089994  -0.7978836  38.8378571  79.8939125   3.5821840
  39.4650610  79.5116202   4.1959364  37.9806490  79.6753327   3.9477532
  49.2372679  90.3002100   5.1875575  49.7812583  90.9132058   4.6930530
  48.6559524  90.8581678   5.7042588  39.1438361  79.7771551  -4.5032257
  38.4224946  80.3907518  -4.6424784  39.9331616  80.3129315  -4.5815611
  41.9464674  77.1125977   1.7708395  42.4699076  77.3588274   2.5334704
  41.7277007  77.9446012   1.3511532  43.1517219  78.0539672  -0.5441935
  42.8114040  77.2547485  -0.1421255  42.4456225  78.3541383  -1.1165102
  43.8033691  75.1388985  -2.0914612  44.6259760  74.6649463  -2.2135721
  44.0471755  75.9179468  -1.5915925  41.3272270  81.8308105  -4.2822633
  41.1816850  82.1448408  -3.3898352  40.8497473  82.4493006  -4.8351734
  43.1868653  78.8210653  -4.2341744  43.1730221  77.9251747  -4.5709446
  43.9041081  78.8281317  -3.6003457  45.0394783  79.2547993  -2.1888616
  44.7812561  80.1765064  -2.1904286  44.5079824  78.8578428  -1.4988152
  35.8017932  84.3713450  -1.3434972  35.2571400  85.1473258  -1.2114698
  36.6797282  84.7184254  -1.5015850  42.5905549  77.7025033  -8.9654173
  42.7121460  76.7741680  -8.7663286  42.3007591  77.7163719  -9.8775858
  45.4596739  75.3879944  -5.8287454  45.4818436  75.4519277  -6.7835474
  45.8764798  74.5484453  -5.6346947  36.5883954  83.4983346   1.5495185
  35.8465690  83.6465981   2.1359815  36.2676698  83.7591611   0.6861934
  44.5327616  93.0399324   1.3475575  44.8414743  92.7948471   2.2198275
  45.3303098  93.2445963   0.8594445  42.0746628  79.2157031   5.2435759
  42.1234784  80.0919154   4.8613529  42.6169142  78.6734424   4.6707402
  52.5601474  89.7598154   4.5236896  51.7697018  89.7422293   3.9841396
  52.3234828  90.2986448   5.2785933  52.6799349  86.6090620   1.8369625
  52.7297354  86.4440628   2.7785148  52.5713272  85.7417880   1.4467506
  49.9703111  82.5921549   3.1528932  50.8712974  82.4528013   2.8612929
  50.0451086  82.7576003   4.0927109  44.3045917  79.9688403   1.9982118
  43.4349226  80.2621969   1.7264706  44.5405397  80.5528848   2.7189381
  54.1817546  89.0287562   2.0811646  53.8902354  89.3917543   2.9175107
  53.5689677  88.3154570   1.9024978  52.4304734  84.1520177   0.5491704
  52.9058856  84.3447823  -0.2589444  51.5070299  84.2079362   0.3035088
  47.0084950  76.1868020  -0.4852462  47.5266894  76.9229047  -0.8105973
  46.6540083  76.4932013   0.3494297  47.2597545  72.6068303  -4.9651565
  47.5399298  71.9391492  -4.3391139  48.0448152  72.7997398  -5.4776901
  51.1306403  81.0285937  -1.2179990  52.0823826  81.1284034  -1.1967766
  50.9609853  80.2364205  -0.7081906  49.1520782  78.1141520  -1.0320589
  48.5570715  78.3946533  -1.7274100  48.8670479  78.6035421  -0.2603848
  53.6094481  84.2492056  -2.1037690  53.5770801  83.3108057  -1.9178007
  54.2195104  84.3276093  -2.8371866  53.7588969  81.0403100  -2.0579407
  53.2428018  80.2561556  -2.2449478  54.6428918  80.7121816  -1.8932888
  51.4199696  74.7844115  -6.0983595  51.2224517  74.4759204  -5.2140263
  52.0299402  75.5105754  -5.9685665  45.3316504  87.1705856   5.3990171
  46.2519514  87.3484455   5.5930217  45.2966087  86.2261901   5.2469870
  38.3278577  85.0806890  -1.9587048  38.5464586  86.0123998  -1.9399014
  38.7404350  84.7214865  -1.1732244  45.2482794  75.5874975  -9.9711360
  44.4383523  75.2422060  -9.5956114  45.9367211  75.2782519  -9.3823748
  47.1773343  74.6653022  -8.3487063  47.7304381  75.0848476  -7.6897040
  47.4143429  73.7388770  -8.3064107  43.2006442  80.6540096   7.4315701
  43.1003169  81.6034453   7.3627792  42.9827984  80.3258335   6.5591771
  49.0055716  76.1758605  -6.6387079  49.5055495  76.2875140  -7.4472760
  49.6491324  75.8719658  -5.9986270  43.0637712  84.0837235   6.2480762
  42.5804794  84.8837595   6.4544651  43.1498651  84.0945180   5.2948206
  38.9911050  87.9741769  -1.7150804  39.9454303  87.9425712  -1.7820872
  38.7923573  87.5132393  -0.9000578  39.5810432  86.5442886   0.8519994
  40.4003321  87.0386964   0.8754831  39.8547239  85.6274854   0.8237561
  52.6891564  78.9600159  -6.0697711  53.4651954  79.4496611  -5.7973095
  51.9639698  79.3858213  -5.6125842  34.8345346  80.8781019   1.5512191
  35.4804209  80.3679973   2.0399416  34.6262497  81.6149701   2.1255616
  47.3598738  87.9461867   7.0504331  48.2289898  88.1202519   6.6890966
  46.8805490  88.7656284   6.9280061  41.5284918  95.0658968  -1.2706235
  42.4312165  95.0982578  -0.9539740  41.3022288  94.1359419  -1.2559899
  47.1701076  71.7363841  -8.4417976  46.4033472  71.1822327  -8.2961294
  47.5811781  71.8085709  -7.5803825  39.1742837  78.0248636   5.6487205
  40.0374298  77.6685441   5.8590530  38.6008248  77.6862531   6.3362609
  51.7324338  91.4329353   6.6417177  51.3391283  90.8795552   7.3164821
  52.5490478  91.7439932   7.0323694  54.6492299  92.8487232   4.2337433
  55.3902012  93.4494385   4.1541896  54.8810221  92.1064870   3.6755476
  49.6772325  95.2231043   3.5821840  50.3044364  94.8408120   4.1959364
  48.8200244  95.0045244   3.9477532  52.9140383  94.5448949   5.2435759
  52.9628538  95.4211071   4.8613529  53.4562897  94.0026342   4.6707402
  54.0400196  95.9832014   7.4315701  53.9396923  96.9326371   7.3627792
  53.8221739  95.6550253   6.5591771  45.6739100  96.2072937   1.5512191
  46.3197964  95.6971891   2.0399416  45.4656251  96.9441619   2.1255616
  50.0136591  93.3540554   5.6487205  50.8768053  92.9977359   5.8590530
  49.4402002  93.0154449   6.3362609  46.0331721  67.6531545  -9.1651530
  45.5895575  66.8667923  -9.4830625  46.6948935  67.8410695  -9.8307639
  48.1312959  67.9334345 -11.1370129  48.1131435  68.7543226 -11.6289859
  49.0532879  67.8088420 -10.9119987  49.0428800  64.5730183  -8.7419410
  48.8914307  64.3440735  -9.6589327  49.0333480  65.5300784  -8.7288065
  50.7521007  67.6049305 -10.6642929  50.6933553  66.9208526 -11.3312346
  51.1540525  68.3468295 -11.1162303  49.2372681  67.3064223  -8.0879118
  49.7812585  67.9194181  -8.5824164  48.6559526  67.8643801  -7.5712105
  52.5601475  66.7660277  -8.7517797  51.7697019  66.7484416  -9.2913298
  52.3234830  67.3048570  -7.9968760  54.1817547  66.0349685 -11.1943047
  53.8902355  66.3979665 -10.3579586  53.5689678  65.3216693 -11.3729715
  47.3598739  64.9523989  -6.2250362  48.2289899  65.1264642  -6.5863727
  46.8805491  65.7718406  -6.3474633  51.7324339  68.4391476  -6.6337517
  51.3391284  67.8857674  -5.9589872  52.5490479  68.7502054  -6.2430999
  54.6492300  69.8549355  -9.0417260  55.3902013  70.4556508  -9.1212798
  54.8810223  69.1126993  -9.5999218  49.6772327  72.2293165  -9.6932854
  50.3044365  71.8470242  -9.0795329  48.8200245  72.0107367  -9.3277161
  52.9140384  71.5511071  -8.0318934  52.9628539  72.4273194  -8.4141165
  53.4562898  71.0088464  -8.6047291  54.0400198  72.9894136  -5.8438993
  53.9396925  73.9388493  -5.9126902  53.8221740  72.6612375  -6.7162923
  45.6739102  73.2135060 -11.7242502  46.3197965  72.7034014 -11.2355277
  45.4656253  73.9503741 -11.1499077  50.0136593  70.3602677  -7.6267488
  50.8768054  70.0039482  -7.4164164  49.4402003  70.0216572  -6.9392084
 122.8581198 122.8581198 122.8581198 109.4712190 109.4712190 109.4712190
